<event>
 7    1  0.6610867E-006  0.1115626E+03  0.7561462E-02  0.1257703E+00
          1   -1    0    0  501    0  0.00000000000E+00  0.00000000000E+00  0.82592763156E+02  0.82592763156E+02  0.00000000000E+00 0. -1.
         -1   -1    0    0    0  501 -0.00000000000E+00 -0.00000000000E+00 -0.20792252639E+03  0.20792252639E+03  0.00000000000E+00 0.  1.
         23    2    1    2    0    0  0.15876358364E+02  0.34013274935E+02 -0.12508996716E+03  0.15990973817E+03  0.92274930791E+02 0.  0.
          5    1    1    2  502    0  0.32469610820E+02 -0.64500837670E+02 -0.79975351227E+01  0.72774079554E+02  0.41800000000E+01 0. -1.
         -5    1    1    2    0  502 -0.48345969184E+02  0.30487562735E+02  0.77577390442E+01  0.57831471821E+02  0.41800000000E+01 0. -1.
        -11    1    3    3    0    0  0.44214732790E+02  0.45002537176E+02 -0.10790166755E+03  0.12499176296E+03  0.00000000000E+00 0. -1.
         11    1    3    3    0    0 -0.28338374426E+02 -0.10989262241E+02 -0.17188299613E+02  0.34917975217E+02  0.00000000000E+00 0.  1.
</event>
<event>
 7    1  0.6610867E-006  0.1241759E+03  0.7561462E-02  0.1236363E+00
          1   -1    0    0  501    0  0.00000000000E+00  0.00000000000E+00  0.74571635151E+02  0.74571635151E+02  0.00000000000E+00 0. -1.
         -1   -1    0    0    0  501 -0.00000000000E+00 -0.00000000000E+00 -0.31761016144E+03  0.31761016144E+03  0.00000000000E+00 0.  1.
         23    2    1    2    0    0 -0.76667395887E+02 -0.20528765284E+02 -0.20563001730E+03  0.23954984779E+03  0.93814208781E+02 0.  0.
          5    1    1    2  502    0  0.18220497745E+02 -0.50001179568E+02 -0.28478931266E+02  0.60503110848E+02  0.41800000000E+01 0. -1.
         -5    1    1    2    0  502  0.58446898142E+02  0.70529944852E+02 -0.89295777259E+01  0.92128837948E+02  0.41800000000E+01 0.  1.
        -11    1    3    3    0    0 -0.85237914105E+02 -0.30129021488E+02 -0.20769293961E+03  0.22651626233E+03  0.00000000000E+00 0.  1.
         11    1    3    3    0    0  0.85705182179E+01  0.96002562035E+01  0.20629223091E+01  0.13033585468E+02  0.00000000000E+00 0. -1.
</event>
<event>
 7    1  0.6610867E-006  0.9995363E+02  0.7561462E-02  0.1280393E+00
          1   -1    0    0  501    0  0.00000000000E+00  0.00000000000E+00  0.10739559628E+04  0.10739559628E+04  0.00000000000E+00 0. -1.
         -1   -1    0    0    0  501 -0.00000000000E+00 -0.00000000000E+00 -0.30085731847E+02  0.30085731847E+02  0.00000000000E+00 0.  1.
         23    2    1    2    0    0 -0.21560776505E+01  0.14148361692E+02  0.76502217930E+02  0.12851433954E+03  0.10226691209E+03 0.  0.
          5    1    1    2  502    0 -0.22962611482E+02  0.36448440267E+02  0.73802457458E+03  0.73929257767E+03  0.41800000000E+01 0. -1.
         -5    1    1    2    0  502  0.25118689132E+02 -0.50596801959E+02  0.22934343847E+03  0.23623477746E+03  0.41800000000E+01 0. -1.
        -11    1    3    3    0    0 -0.66916285243E+01  0.56748734379E+02  0.27467316015E+02  0.63400711313E+02  0.00000000000E+00 0.  1.
         11    1    3    3    0    0  0.45355508738E+01 -0.42600372686E+02  0.49034901915E+02  0.65113628224E+02  0.00000000000E+00 0. -1.
</event>
<event>
 7    1  0.6610867E-006  0.9049628E+02  0.7561462E-02  0.1301654E+00
         -1   -1    0    0    0  501 -0.00000000000E+00  0.00000000000E+00  0.88099060981E+02  0.88099060981E+02  0.00000000000E+00 0.  1.
          1   -1    0    0  501    0  0.00000000000E+00 -0.00000000000E+00 -0.15347280591E+03  0.15347280591E+03  0.00000000000E+00 0. -1.
         23    2    1    2    0    0 -0.14407383937E+02 -0.35691392668E+02 -0.98274344731E+01  0.99420314321E+02  0.91139301121E+02 0.  0.
          5    1    1    2  502    0  0.66630091469E+02  0.60027966284E+01 -0.12639235783E+02  0.68211621720E+02  0.41800000000E+01 0.  1.
         -5    1    1    2    0  502 -0.52222707532E+02  0.29688596040E+02 -0.42907074670E+02  0.73939930846E+02  0.41800000000E+01 0.  1.
        -11    1    3    3    0    0  0.87508860312E+01 -0.28011522593E+02 -0.46730355854E+02  0.55181061629E+02  0.00000000000E+00 0. -1.
         11    1    3    3    0    0 -0.23158269969E+02 -0.76798700756E+01  0.36902921381E+02  0.44239252692E+02  0.00000000000E+00 0.  1.
</event>
<event>
 7    1  0.6610867E-006  0.1054435E+03  0.7561462E-02  0.1269248E+00
         -2   -1    0    0    0  501 -0.00000000000E+00  0.00000000000E+00  0.34316922185E+03  0.34316922185E+03  0.00000000000E+00 0.  1.
          2   -1    0    0  501    0  0.00000000000E+00 -0.00000000000E+00 -0.44643757483E+02  0.44643757483E+02  0.00000000000E+00 0. -1.
         23    2    1    2    0    0 -0.20138929695E+02  0.11596267835E+02  0.21907937467E+03  0.23781642579E+03  0.89559086940E+02 0.  0.
          5    1    1    2  502    0  0.69297693824E+02 -0.24767149885E+02  0.61087701809E+02  0.95732762391E+02  0.41800000000E+01 0.  1.
         -5    1    1    2    0  502 -0.49158764129E+02  0.13170882051E+02  0.18358387895E+02  0.54263791157E+02  0.41800000000E+01 0.  1.
        -11    1    3    3    0    0 -0.25344068775E+02  0.45355176011E+02  0.17183081241E+03  0.17951390449E+03  0.00000000000E+00 0.  1.
         11    1    3    3    0    0  0.52051390804E+01 -0.33758908176E+02  0.47248562259E+02  0.58302521297E+02  0.00000000000E+00 0. -1.
</event>
<event>
 7    1  0.6610867E-006  0.1106735E+03  0.7561462E-02  0.1259328E+00
         -1   -1    0    0    0  501 -0.00000000000E+00  0.00000000000E+00  0.53804885641E+02  0.53804885641E+02  0.00000000000E+00 0.  1.
          1   -1    0    0  501    0  0.00000000000E+00 -0.00000000000E+00 -0.36629454234E+03  0.36629454234E+03  0.00000000000E+00 0. -1.
         23    2    1    2    0    0  0.56109447236E+02 -0.50044512300E+02 -0.74206517951E+02  0.14067404427E+03  0.92897019032E+02 0.  0.
          5    1    1    2  502    0 -0.81082761221E+02 -0.87683439600E+01 -0.12540119593E+03  0.14964701922E+03  0.41800000000E+01 0.  1.
         -5    1    1    2    0  502  0.24973313985E+02  0.58812856260E+02 -0.11288194282E+03  0.12977836448E+03  0.41800000000E+01 0.  1.
        -11    1    3    3    0    0  0.30931000473E+02 -0.21958932756E+02  0.17304809104E+02  0.41693859694E+02  0.00000000000E+00 0.  1.
         11    1    3    3    0    0  0.25178446763E+02 -0.28085579545E+02 -0.91511327055E+02  0.98980184579E+02  0.00000000000E+00 0. -1.
</event>
<event>
 7    1  0.6610867E-006  0.1045892E+03  0.7561462E-02  0.1270931E+00
          2   -1    0    0  501    0  0.00000000000E+00  0.00000000000E+00  0.10788597860E+04  0.10788597860E+04  0.00000000000E+00 0. -1.
         -2   -1    0    0    0  501 -0.00000000000E+00 -0.00000000000E+00 -0.11203951013E+02  0.11203951013E+02  0.00000000000E+00 0.  1.
         23    2    1    2    0    0  0.91865290690E+01  0.13554026949E+02  0.35138631014E+03  0.36277515392E+03  0.88686917781E+02 0.  0.
          5    1    1    2  502    0  0.55893813419E+02 -0.12008896405E+02  0.42200904912E+03  0.42588430578E+03  0.41800000000E+01 0.  1.
         -5    1    1    2    0  502 -0.65080342488E+02 -0.15451305432E+01  0.29426047576E+03  0.30140427734E+03  0.41800000000E+01 0.  1.
        -11    1    3    3    0    0  0.85980812787E+01  0.49717433766E+02  0.15258930417E+03  0.16071479698E+03  0.00000000000E+00 0.  1.
         11    1    3    3    0    0  0.58844779030E+00 -0.36163406818E+02  0.19879700597E+03  0.20206035694E+03  0.00000000000E+00 0. -1.
</event>
<event>
 7    1  0.6610867E-006  0.8270014E+02  0.7561462E-02  0.1321559E+00
         -4   -1    0    0    0  501 -0.00000000000E+00  0.00000000000E+00  0.24544655142E+02  0.24544655142E+02  0.00000000000E+00 0.  1.
          4   -1    0    0  501    0  0.00000000000E+00 -0.00000000000E+00 -0.86234601953E+03  0.86234601953E+03  0.00000000000E+00 0. -1.
         23    2    1    2    0    0 -0.46082321443E+02 -0.23985032314E+01 -0.13823244811E+03  0.17277076597E+03  0.92801911054E+02 0.  0.
          5    1    1    2  502    0  0.66310368274E+01 -0.16949869947E+02 -0.63848255384E+03  0.63875559700E+03  0.41800000000E+01 0. -1.
         -5    1    1    2    0  502  0.39451284616E+02  0.19348373179E+02 -0.61086362435E+02  0.75364311700E+02  0.41800000000E+01 0.  1.
        -11    1    3    3    0    0 -0.73790603511E+02  0.48384795323E+01 -0.11008044392E+03  0.13261285075E+03  0.00000000000E+00 0.  1.
         11    1    3    3    0    0  0.27708282068E+02 -0.72369827636E+01 -0.28152004191E+02  0.40157915218E+02  0.00000000000E+00 0. -1.
</event>
<event>
 7    1  0.6610867E-006  0.1572738E+03  0.7561462E-02  0.1191809E+00
          1   -1    0    0  501    0  0.00000000000E+00  0.00000000000E+00  0.10036176788E+04  0.10036176788E+04  0.00000000000E+00 0.  1.
         -1   -1    0    0    0  501 -0.00000000000E+00 -0.00000000000E+00 -0.30376271033E+02  0.30376271033E+02  0.00000000000E+00 0. -1.
         23    2    1    2    0    0  0.11442853597E+03  0.64657465336E+02  0.35593348034E+03  0.39057266493E+03  0.92649266014E+02 0.  0.
          5    1    1    2  502    0 -0.14661517525E+02  0.26884814690E+02  0.25047909304E+03  0.25237868731E+03  0.41800000000E+01 0. -1.
         -5    1    1    2    0  502 -0.99767018442E+02 -0.91542280026E+02  0.36682883440E+03  0.39104259762E+03  0.41800000000E+01 0. -1.
        -11    1    3    3    0    0  0.21829439922E+00  0.28324174930E+02  0.14700719277E+03  0.14971112605E+03  0.00000000000E+00 0.  1.
         11    1    3    3    0    0  0.11421024157E+03  0.36333290406E+02  0.20892628758E+03  0.24086153888E+03  0.00000000000E+00 0. -1.
</event>
<event>
 7    1  0.6610867E-006  0.9761361E+02  0.7561462E-02  0.1285396E+00
          3   -1    0    0  501    0  0.00000000000E+00  0.00000000000E+00  0.10510357364E+03  0.10510357364E+03  0.00000000000E+00 0. -1.
         -3   -1    0    0    0  501 -0.00000000000E+00 -0.00000000000E+00 -0.18246367080E+03  0.18246367080E+03  0.00000000000E+00 0.  1.
         23    2    1    2    0    0  0.15208795347E+02  0.22247909197E+02 -0.11905037328E+03  0.15299354271E+03  0.92237496778E+02 0.  0.
          5    1    1    2  502    0  0.36128788070E+02  0.14109850491E+02 -0.22140547350E+02  0.44855918731E+02  0.41800000000E+01 0. -1.
         -5    1    1    2    0  502 -0.51337583416E+02 -0.36357759688E+02  0.63830823479E+02  0.89717783000E+02  0.41800000000E+01 0. -1.
        -11    1    3    3    0    0  0.45699452772E+01  0.56816913577E+02 -0.90319415795E+02  0.10680188640E+03  0.00000000000E+00 0.  1.
         11    1    3    3    0    0  0.10638850070E+02 -0.34569004380E+02 -0.28730957487E+02  0.46191656311E+02  0.00000000000E+00 0. -1.
</event>
<event>
 7    1  0.6610867E-006  0.8550696E+02  0.7561462E-02  0.1314112E+00
          2   -1    0    0  501    0  0.00000000000E+00  0.00000000000E+00  0.37825151543E+03  0.37825151543E+03  0.00000000000E+00 0.  1.
         -2   -1    0    0    0  501 -0.00000000000E+00 -0.00000000000E+00 -0.73029332072E+02  0.73029332072E+02  0.00000000000E+00 0. -1.
         23    2    1    2    0    0 -0.45866643730E+02  0.31189939621E+02 -0.12491311989E+02  0.10535324605E+03  0.88694488206E+02 0.  0.
          5    1    1    2  502    0  0.68264779361E+02 -0.19120688105E+01  0.29409393574E+03  0.30194776294E+03  0.41800000000E+01 0.  1.
         -5    1    1    2    0  502 -0.22398135630E+02 -0.29277870810E+02  0.23619559607E+02  0.43979838505E+02  0.41800000000E+01 0.  1.
        -11    1    3    3    0    0 -0.22836027309E+02 -0.42514783913E+01 -0.45922599843E+02  0.51463039048E+02  0.00000000000E+00 0. -1.
         11    1    3    3    0    0 -0.23030616422E+02  0.35441418012E+02  0.33431287854E+02  0.53890207005E+02  0.00000000000E+00 0.  1.
</event>
<event>
 7    1  0.6610867E-006  0.8418151E+02  0.7561462E-02  0.1317587E+00
         -1   -1    0    0    0  501 -0.00000000000E+00  0.00000000000E+00  0.17659237374E+02  0.17659237374E+02  0.00000000000E+00 0.  1.
          1   -1    0    0  501    0  0.00000000000E+00 -0.00000000000E+00 -0.99578109046E+03  0.99578109046E+03  0.00000000000E+00 0. -1.
         23    2    1    2    0    0  0.19802279222E+02  0.59972830217E+02 -0.27385718608E+03  0.29537001828E+03  0.90867038614E+02 0.  0.
          5    1    1    2  502    0 -0.14285132393E+02 -0.27489790951E+02 -0.31130435586E+02  0.44117230577E+02  0.41800000000E+01 0.  1.
         -5    1    1    2    0  502 -0.55171468289E+01 -0.32483039266E+02 -0.67313423142E+03  0.67395307897E+03  0.41800000000E+01 0.  1.
        -11    1    3    3    0    0  0.39946867201E+02 -0.70770385044E+00 -0.59412337380E+02  0.71596640123E+02  0.00000000000E+00 0.  1.
         11    1    3    3    0    0 -0.20144587979E+02  0.60680534068E+02 -0.21444484870E+03  0.22377337816E+03  0.00000000000E+00 0. -1.
</event>
<event>
 7    1  0.6610867E-006  0.1186326E+03  0.7561462E-02  0.1245370E+00
         -1   -1    0    0    0  501 -0.00000000000E+00  0.00000000000E+00  0.41002084507E+02  0.41002084507E+02  0.00000000000E+00 0.  1.
          1   -1    0    0  501    0  0.00000000000E+00 -0.00000000000E+00 -0.50193008404E+03  0.50193008404E+03  0.00000000000E+00 0. -1.
         23    2    1    2    0    0  0.54150559795E+02  0.75451624232E+02 -0.18308547395E+03  0.22439927900E+03  0.90606373502E+02 0.  0.
          5    1    1    2  502    0 -0.75121249168E+02 -0.46407925121E+02 -0.86002634022E+02  0.12333216551E+03  0.41800000000E+01 0.  1.
         -5    1    1    2    0  502  0.20970689373E+02 -0.29043699111E+02 -0.19183989156E+03  0.19520072404E+03  0.41800000000E+01 0.  1.
        -11    1    3    3    0    0 -0.44332027407E+01  0.47823079279E+02 -0.26291802878E+02  0.54753621770E+02  0.00000000000E+00 0.  1.
         11    1    3    3    0    0  0.58583762536E+02  0.27628544953E+02 -0.15679367108E+03  0.16964565723E+03  0.00000000000E+00 0. -1.
</event>
<event>
 7    1  0.6610867E-006  0.1091724E+03  0.7561462E-02  0.1262110E+00
          2   -1    0    0  501    0  0.00000000000E+00  0.00000000000E+00  0.29891297002E+02  0.29891297002E+02  0.00000000000E+00 0. -1.
         -2   -1    0    0    0  501 -0.00000000000E+00 -0.00000000000E+00 -0.53725374326E+03  0.53725374326E+03  0.00000000000E+00 0.  1.
         23    2    1    2    0    0  0.30853434079E+02  0.51362869793E+01 -0.35299054261E+03  0.36599455126E+03  0.91495205019E+02 0.  0.
          5    1    1    2  502    0 -0.68762896849E+02 -0.31219667798E+02 -0.61737214200E+02  0.97631755376E+02  0.41800000000E+01 0.  1.
         -5    1    1    2    0  502  0.37909462770E+02  0.26083380819E+02 -0.92634689448E+02  0.10351873363E+03  0.41800000000E+01 0.  1.
        -11    1    3    3    0    0  0.36967956921E+02  0.43826103052E+02 -0.22079995479E+03  0.22812272396E+03  0.00000000000E+00 0.  1.
         11    1    3    3    0    0 -0.61145228413E+01 -0.38689816073E+02 -0.13219058781E+03  0.13787182730E+03  0.00000000000E+00 0. -1.
</event>
<event>
 7    1  0.6610867E-006  0.1075510E+03  0.7561462E-02  0.1265173E+00
          1   -1    0    0  501    0  0.00000000000E+00  0.00000000000E+00  0.31988749776E+03  0.31988749776E+03  0.00000000000E+00 0. -1.
         -1   -1    0    0    0  501 -0.00000000000E+00 -0.00000000000E+00 -0.69343683451E+02  0.69343683451E+02  0.00000000000E+00 0.  1.
         23    2    1    2    0    0  0.57919607928E+02  0.21523970480E+02  0.83192071398E+01  0.10964227081E+03  0.90190110618E+02 0.  0.
          5    1    1    2  502    0  0.29796953884E+02  0.24381493877E+02  0.49179429095E+02  0.62597159285E+02  0.41800000000E+01 0.  1.
         -5    1    1    2    0  502 -0.87716561813E+02 -0.45905464357E+02  0.19304517808E+03  0.21699175112E+03  0.41800000000E+01 0.  1.
        -11    1    3    3    0    0  0.33480718461E+02  0.35771417838E+02 -0.33356624534E+02  0.59272398662E+02  0.00000000000E+00 0.  1.
         11    1    3    3    0    0  0.24438889467E+02 -0.14247447358E+02  0.41675831674E+02  0.50369872149E+02  0.00000000000E+00 0. -1.
</event>
<event>
 7    1  0.6610867E-006  0.1216569E+03  0.7561462E-02  0.1240388E+00
          1   -1    0    0  501    0  0.00000000000E+00  0.00000000000E+00  0.11939315410E+03  0.11939315410E+03  0.00000000000E+00 0. -1.
         -1   -1    0    0    0  501 -0.00000000000E+00 -0.00000000000E+00 -0.14707769353E+03  0.14707769353E+03  0.00000000000E+00 0.  1.
         23    2    1    2    0    0 -0.40912167099E+02  0.94901325277E+01 -0.46085171718E+02  0.10779918597E+03  0.87937212896E+02 0.  0.
          5    1    1    2  502    0 -0.47129298760E+02 -0.41955242160E+02  0.13190209479E+02  0.64597733493E+02  0.41800000000E+01 0. -1.
         -5    1    1    2    0  502  0.88041465859E+02  0.32465109632E+02  0.52104228091E+01  0.94073928162E+02  0.41800000000E+01 0.  1.
        -11    1    3    3    0    0 -0.16944866358E+02 -0.33151949514E+02  0.44151051339E+01  0.37492311289E+02  0.00000000000E+00 0.  1.
         11    1    3    3    0    0 -0.23967300740E+02  0.42642082042E+02 -0.50500276852E+02  0.70306874683E+02  0.00000000000E+00 0. -1.
</event>
<event>
 7    1  0.6610867E-006  0.1059346E+03  0.7561462E-02  0.1268289E+00
          1   -1    0    0  501    0  0.00000000000E+00  0.00000000000E+00  0.48426099661E+03  0.48426099661E+03  0.00000000000E+00 0. -1.
         -1   -1    0    0    0  501 -0.00000000000E+00 -0.00000000000E+00 -0.41549814873E+02  0.41549814873E+02  0.00000000000E+00 0.  1.
         23    2    1    2    0    0  0.48918509019E+02 -0.70447268499E+02  0.17527895316E+03  0.21836254237E+03  0.97998215936E+02 0.  0.
          5    1    1    2  502    0 -0.37533393484E+02  0.50684350237E+02  0.27568328619E+03  0.28283635846E+03  0.41800000000E+01 0. -1.
         -5    1    1    2    0  502 -0.11385115535E+02  0.19762918262E+02 -0.82510576109E+01  0.24611910647E+02  0.41800000000E+01 0. -1.
        -11    1    3    3    0    0 -0.25234999096E+02 -0.35353774937E+02  0.34692413833E+02  0.55590090477E+02  0.00000000000E+00 0.  1.
         11    1    3    3    0    0  0.74153508115E+02 -0.35093493561E+02  0.14058653932E+03  0.16277245189E+03  0.00000000000E+00 0. -1.
</event>
<event>
 7    1  0.6610867E-006  0.9574525E+02  0.7561462E-02  0.1289506E+00
          2   -1    0    0  501    0  0.00000000000E+00  0.00000000000E+00  0.34395672452E+03  0.34395672452E+03  0.00000000000E+00 0. -1.
         -2   -1    0    0    0  501 -0.00000000000E+00 -0.00000000000E+00 -0.42851872787E+02  0.42851872787E+02  0.00000000000E+00 0.  1.
         23    2    1    2    0    0  0.49535859394E+02  0.24269174265E+02  0.11911301449E+03  0.15918932289E+03  0.90058514960E+02 0.  0.
          5    1    1    2  502    0 -0.24462721993E+02  0.50029919888E+02  0.55500787886E+02  0.78735173254E+02  0.41800000000E+01 0.  1.
         -5    1    1    2    0  502 -0.25073137401E+02 -0.74299094153E+02  0.12649104936E+03  0.14888410117E+03  0.41800000000E+01 0.  1.
        -11    1    3    3    0    0  0.12894005035E+02 -0.47411919233E+00 -0.13932653865E+02  0.18989444399E+02  0.00000000000E+00 0.  1.
         11    1    3    3    0    0  0.36641854359E+02  0.24743293457E+02  0.13304566835E+03  0.14019987849E+03  0.00000000000E+00 0. -1.
</event>
<event>
 7    1  0.6610867E-006  0.9897826E+02  0.7561462E-02  0.1282459E+00
          3   -1    0    0  501    0  0.00000000000E+00  0.00000000000E+00  0.12023693930E+03  0.12023693930E+03  0.00000000000E+00 0. -1.
         -3   -1    0    0    0  501 -0.00000000000E+00 -0.00000000000E+00 -0.15086123542E+03  0.15086123542E+03  0.00000000000E+00 0.  1.
         23    2    1    2    0    0  0.85052873393E+01  0.77190759827E+02 -0.28928178772E+02  0.12385198224E+03  0.92041950557E+02 0.  0.
          5    1    1    2  502    0 -0.44767870810E+02 -0.49092482613E+02 -0.47891829931E+02  0.82008133012E+02  0.41800000000E+01 0. -1.
         -5    1    1    2    0  502  0.36262583471E+02 -0.28098277214E+02  0.46195712577E+02  0.65238059466E+02  0.41800000000E+01 0. -1.
        -11    1    3    3    0    0 -0.56037480182E+01  0.68544363764E+02  0.20470858150E+02  0.71755054380E+02  0.00000000000E+00 0. -1.
         11    1    3    3    0    0  0.14109035357E+02  0.86463960623E+01 -0.49399036922E+02  0.52096927860E+02  0.00000000000E+00 0.  1.
</event>
<event>
 7    1  0.6610867E-006  0.2112595E+03  0.7561462E-02  0.1140573E+00
         -2   -1    0    0    0  501 -0.00000000000E+00  0.00000000000E+00  0.36863967962E+02  0.36863967962E+02  0.00000000000E+00 0.  1.
          2   -1    0    0  501    0  0.00000000000E+00 -0.00000000000E+00 -0.14563573902E+04  0.14563573902E+04  0.00000000000E+00 0. -1.
         23    2    1    2    0    0  0.10015228962E+03 -0.16936585581E+03 -0.87481136432E+03  0.90073418593E+03  0.85509510217E+02 0.  0.
          5    1    1    2  502    0 -0.96102505590E+02  0.85756898945E+02 -0.20123838057E+03  0.23896505082E+03  0.41800000000E+01 0.  1.
         -5    1    1    2    0  502 -0.40497840256E+01  0.83608956861E+02 -0.34344367739E+03  0.35352212145E+03  0.41800000000E+01 0.  1.
        -11    1    3    3    0    0  0.32420557273E+00 -0.66481358443E+02 -0.37165115472E+03  0.37755060182E+03  0.00000000000E+00 0. -1.
         11    1    3    3    0    0  0.99828084043E+02 -0.10288449736E+03 -0.50316020960E+03  0.52318358411E+03  0.00000000000E+00 0.  1.
</event>
<event>
 7    1  0.6610867E-006  0.1090903E+03  0.7561462E-02  0.1262264E+00
          2   -1    0    0  501    0  0.00000000000E+00  0.00000000000E+00  0.84537643664E+03  0.84537643664E+03  0.00000000000E+00 0.  1.
         -2   -1    0    0    0  501 -0.00000000000E+00 -0.00000000000E+00 -0.35813936679E+02  0.35813936679E+02  0.00000000000E+00 0. -1.
         23    2    1    2    0    0  0.49557789453E+02 -0.74724634997E+02  0.11884636367E+03  0.17353620423E+03  0.89166195673E+02 0.  0.
          5    1    1    2  502    0  0.85886308418E+00  0.77391479125E+02  0.58840063899E+03  0.59348375129E+03  0.41800000000E+01 0. -1.
         -5    1    1    2    0  502 -0.50416652537E+02 -0.26668441289E+01  0.10231549730E+03  0.11417041779E+03  0.41800000000E+01 0. -1.
        -11    1    3    3    0    0  0.28058415202E+02 -0.49206647791E+02  0.73079992458E+01  0.57113708542E+02  0.00000000000E+00 0. -1.
         11    1    3    3    0    0  0.21499374251E+02 -0.25517987205E+02  0.11153836442E+03  0.11642249569E+03  0.00000000000E+00 0.  1.
</event>
<event>
 7    1  0.6610867E-006  0.1076417E+03  0.7561462E-02  0.1265000E+00
         -4   -1    0    0    0  501 -0.00000000000E+00  0.00000000000E+00  0.27034692607E+02  0.27034692607E+02  0.00000000000E+00 0.  1.
          4   -1    0    0  501    0  0.00000000000E+00 -0.00000000000E+00 -0.60009460060E+03  0.60009460060E+03  0.00000000000E+00 0. -1.
         23    2    1    2    0    0  0.10096559872E+02  0.47678443367E+02 -0.14249796997E+03  0.17612298950E+03  0.91315176727E+02 0.  0.
          5    1    1    2  502    0 -0.60075968802E+02  0.15479949701E+01 -0.25230088768E+03  0.25939300037E+03  0.41800000000E+01 0.  1.
         -5    1    1    2    0  502  0.49979408930E+02 -0.49226438338E+02 -0.17826105034E+03  0.19161330334E+03  0.41800000000E+01 0.  1.
        -11    1    3    3    0    0 -0.98807407977E+00  0.64562033867E+02 -0.14191916771E+03  0.15591755087E+03  0.00000000000E+00 0. -1.
         11    1    3    3    0    0  0.11084633952E+02 -0.16883590500E+02 -0.57880226565E+00  0.20205438626E+02  0.00000000000E+00 0.  1.
</event>
<event>
 7    1  0.6610867E-006  0.7756516E+02  0.7561462E-02  0.1336107E+00
          1   -1    0    0  501    0  0.00000000000E+00  0.00000000000E+00  0.39254285543E+03  0.39254285543E+03  0.00000000000E+00 0. -1.
         -1   -1    0    0    0  501 -0.00000000000E+00 -0.00000000000E+00 -0.33117771359E+02  0.33117771359E+02  0.00000000000E+00 0.  1.
         23    2    1    2    0    0 -0.82751566636E+01 -0.20750815474E+02  0.10205445217E+03  0.13860368544E+03  0.91086749031E+02 0.  0.
          5    1    1    2  502    0 -0.23418394862E+02 -0.22399837805E+02  0.21808460154E+03  0.22051879689E+03  0.41800000000E+01 0. -1.
         -5    1    1    2    0  502  0.31693551526E+02  0.43150653279E+02  0.39286030353E+02  0.66538144456E+02  0.41800000000E+01 0. -1.
        -11    1    3    3    0    0  0.11214316109E+02  0.20367014834E+02 -0.36372226230E+01  0.23533073906E+02  0.00000000000E+00 0.  1.
         11    1    3    3    0    0 -0.19489472773E+02 -0.41117830308E+02  0.10569167480E+03  0.11507061154E+03  0.00000000000E+00 0. -1.
</event>
<event>
 7    1  0.6610867E-006  0.1137562E+03  0.7561462E-02  0.1253768E+00
          1   -1    0    0  501    0  0.00000000000E+00  0.00000000000E+00  0.34855808991E+03  0.34855808991E+03  0.00000000000E+00 0. -1.
         -1   -1    0    0    0  501 -0.00000000000E+00 -0.00000000000E+00 -0.41927053486E+02  0.41927053486E+02  0.00000000000E+00 0.  1.
         23    2    1    2    0    0 -0.22676660238E+01  0.24209671768E+02  0.87337296448E+02  0.12869555132E+03  0.91342712146E+02 0.  0.
          5    1    1    2  502    0  0.66117481872E+02 -0.81915670964E+00  0.63588647872E+02  0.91832352496E+02  0.41800000000E+01 0. -1.
         -5    1    1    2    0  502 -0.63849815848E+02 -0.23390515058E+02  0.15570509211E+03  0.16995723958E+03  0.41800000000E+01 0.  1.
        -11    1    3    3    0    0  0.41567614137E+02 -0.27659121768E+01  0.50152733145E+02  0.65198262685E+02  0.00000000000E+00 0. -1.
         11    1    3    3    0    0 -0.43835280160E+02  0.26975583945E+02  0.37184563303E+02  0.63497288634E+02  0.00000000000E+00 0.  1.
</event>
<event>
 7    1  0.6610867E-006  0.1032420E+03  0.7561462E-02  0.1273622E+00
          4   -1    0    0  501    0  0.00000000000E+00  0.00000000000E+00  0.17479508202E+03  0.17479508202E+03  0.00000000000E+00 0. -1.
         -4   -1    0    0    0  501 -0.00000000000E+00 -0.00000000000E+00 -0.93532247998E+02  0.93532247998E+02  0.00000000000E+00 0.  1.
         23    2    1    2    0    0  0.32193767188E+02  0.57449244321E+02  0.55470155110E+02  0.12463071555E+03  0.90105620425E+02 0.  0.
          5    1    1    2  502    0 -0.44169074699E+02  0.28136665467E+02 -0.26988703031E+01  0.52605469338E+02  0.41800000000E+01 0. -1.
         -5    1    1    2    0  502  0.11975307511E+02 -0.85585909788E+02  0.28491549215E+02  0.91091145129E+02  0.41800000000E+01 0. -1.
        -11    1    3    3    0    0  0.60846233056E+01  0.25249195683E+02 -0.23766439294E+02  0.35204945109E+02  0.00000000000E+00 0.  1.
         11    1    3    3    0    0  0.26109143883E+02  0.32200048637E+02  0.79236594404E+02  0.89425770442E+02  0.00000000000E+00 0. -1.
</event>
<event>
 7    1  0.6610867E-006  0.1154258E+03  0.7561462E-02  0.1250840E+00
          2   -1    0    0  501    0  0.00000000000E+00  0.00000000000E+00  0.81450100121E+03  0.81450100121E+03  0.00000000000E+00 0. -1.
         -2   -1    0    0    0  501 -0.00000000000E+00 -0.00000000000E+00 -0.33297965066E+02  0.33297965066E+02  0.00000000000E+00 0.  1.
         23    2    1    2    0    0 -0.93895125715E+02  0.33754408586E+02  0.24467297543E+03  0.27925916069E+03  0.90361270411E+02 0.  0.
          5    1    1    2  502    0  0.18639308497E+02 -0.18338412608E+02  0.45743667806E+03  0.45820247493E+03  0.41800000000E+01 0. -1.
         -5    1    1    2    0  502  0.75255817218E+02 -0.15415995978E+02  0.79093382660E+02  0.11033733066E+03  0.41800000000E+01 0.  1.
        -11    1    3    3    0    0 -0.65817320671E+02  0.59958447585E+02  0.12422123457E+03  0.15283275256E+03  0.00000000000E+00 0.  1.
         11    1    3    3    0    0 -0.28077805044E+02 -0.26204038999E+02  0.12045174086E+03  0.12642640812E+03  0.00000000000E+00 0. -1.
</event>
<event>
 7    1  0.6610867E-006  0.8224672E+02  0.7561462E-02  0.1322794E+00
          2   -1    0    0  501    0  0.00000000000E+00  0.00000000000E+00  0.83900213752E+02  0.83900213752E+02  0.00000000000E+00 0. -1.
         -2   -1    0    0    0  501 -0.00000000000E+00 -0.00000000000E+00 -0.18468304966E+03  0.18468304966E+03  0.00000000000E+00 0.  1.
         23    2    1    2    0    0  0.48339303598E+01 -0.30805008646E+02 -0.51295654615E+02  0.13049317646E+03  0.11586591164E+03 0.  0.
          5    1    1    2  502    0 -0.89178104445E+01 -0.19332214713E+02 -0.77418221849E+02  0.80400966059E+02  0.41800000000E+01 0. -1.
         -5    1    1    2    0  502  0.40838800847E+01  0.50137223360E+02  0.27931040558E+02  0.57689120893E+02  0.41800000000E+01 0. -1.
        -11    1    3    3    0    0  0.24979891031E+02 -0.55255341528E+02 -0.70855027006E+02  0.93260830874E+02  0.00000000000E+00 0.  1.
         11    1    3    3    0    0 -0.20145960671E+02  0.24450332881E+02  0.19559372391E+02  0.37232345584E+02  0.00000000000E+00 0. -1.
</event>
<event>
 7    1  0.7348719E-006  0.8457467E+02  0.7561462E-02  0.1316549E+00
         -2   -1    0    0    0  501 -0.00000000000E+00  0.00000000000E+00  0.56183561489E+02  0.56183561489E+02  0.00000000000E+00 0.  1.
          2   -1    0    0  501    0  0.00000000000E+00 -0.00000000000E+00 -0.27999383167E+03  0.27999383167E+03  0.00000000000E+00 0. -1.
         23    2    1    2    0    0 -0.54590956552E+02 -0.33347980927E+02 -0.37781700683E+02  0.10305429203E+03  0.71417573673E+02 0.  0.
          5    1    1    2  502    0 -0.20228673035E+02  0.27989502842E+01 -0.13684839955E+03  0.13842684059E+03  0.41800000000E+01 0.  1.
         -5    1    1    2    0  502  0.74819629588E+02  0.30549030643E+02 -0.49180169944E+02  0.94696260542E+02  0.41800000000E+01 0.  1.
        -11    1    3    3    0    0 -0.35627633700E+02 -0.32772760369E+02 -0.57853748830E+02  0.75434994259E+02  0.00000000000E+00 0. -1.
         11    1    3    3    0    0 -0.18963322853E+02 -0.57522055865E+00  0.20072048147E+02  0.27619297767E+02  0.00000000000E+00 0.  1.
</event>
<event>
 7    1  0.6610867E-006  0.2120910E+03  0.7561462E-02  0.1139921E+00
          2   -1    0    0  501    0  0.00000000000E+00  0.00000000000E+00  0.55150489716E+03  0.55150489716E+03  0.00000000000E+00 0.  1.
         -2   -1    0    0    0  501 -0.00000000000E+00 -0.00000000000E+00 -0.11287693900E+03  0.11287693900E+03  0.00000000000E+00 0. -1.
         23    2    1    2    0    0 -0.74163125176E+02  0.18962987936E+03  0.87907607001E+02  0.23998544726E+03  0.91682098846E+02 0.  0.
          5    1    1    2  502    0  0.90568799599E+02 -0.13075141255E+03  0.31644942189E+03  0.35419817667E+03  0.41800000000E+01 0.  1.
         -5    1    1    2    0  502 -0.16405674423E+02 -0.58878466808E+02  0.34270929269E+02  0.70198212228E+02  0.41800000000E+01 0.  1.
        -11    1    3    3    0    0 -0.57144814855E+02  0.13524955625E+03  0.15201607514E+02  0.14761118251E+03  0.00000000000E+00 0. -1.
         11    1    3    3    0    0 -0.17018310321E+02  0.54380323104E+02  0.72705999487E+02  0.92374264752E+02  0.00000000000E+00 0.  1.
</event>
<event>
 7    1  0.6610867E-006  0.8217239E+02  0.7561462E-02  0.1322997E+00
          1   -1    0    0  501    0  0.00000000000E+00  0.00000000000E+00  0.10267341477E+03  0.10267341477E+03  0.00000000000E+00 0. -1.
         -1   -1    0    0    0  501 -0.00000000000E+00 -0.00000000000E+00 -0.15535645171E+03  0.15535645171E+03  0.00000000000E+00 0.  1.
         23    2    1    2    0    0 -0.51572720649E+02 -0.23886535064E+02 -0.50699129969E+02  0.12061724576E+03  0.93529707166E+02 0.  0.
          5    1    1    2  502    0  0.62200670919E+02  0.49823890345E+00 -0.51899672284E+02  0.81118555756E+02  0.41800000000E+01 0.  1.
         -5    1    1    2    0  502 -0.10627950269E+02  0.23388296160E+02  0.49915765308E+02  0.56294064967E+02  0.41800000000E+01 0.  1.
        -11    1    3    3    0    0  0.55182840828E+01  0.86517294775E+01 -0.53859997115E+02  0.54828853457E+02  0.00000000000E+00 0.  1.
         11    1    3    3    0    0 -0.57091004732E+02 -0.32538264541E+02  0.31608671457E+01  0.65788392303E+02  0.00000000000E+00 0. -1.
</event>
<event>
 7    1  0.6610867E-006  0.1258410E+03  0.7561462E-02  0.1233761E+00
          2   -1    0    0  501    0  0.00000000000E+00  0.00000000000E+00  0.92204823483E+03  0.92204823483E+03  0.00000000000E+00 0. -1.
         -2   -1    0    0    0  501 -0.00000000000E+00 -0.00000000000E+00 -0.27883163250E+02  0.27883163250E+02  0.00000000000E+00 0.  1.
         23    2    1    2    0    0  0.70712662025E+02 -0.51341908538E+02  0.18378067086E+03  0.22334397633E+03  0.92037626212E+02 0.  0.
          5    1    1    2  502    0 -0.21531828144E+02 -0.31415810455E+02  0.77985430838E+02  0.86889427394E+02  0.41800000000E+01 0.  1.
         -5    1    1    2    0  502 -0.49180833880E+02  0.82757718993E+02  0.63239896988E+03  0.63969799435E+03  0.41800000000E+01 0.  1.
        -11    1    3    3    0    0 -0.27786259090E+01 -0.42949041761E+02  0.29295000561E+02  0.52062827507E+02  0.00000000000E+00 0.  1.
         11    1    3    3    0    0  0.73491287933E+02 -0.83928667768E+01  0.15448567030E+03  0.17128114883E+03  0.00000000000E+00 0. -1.
</event>
<event>
 7    1  0.6610867E-006  0.1373265E+03  0.7561462E-02  0.1216972E+00
          1   -1    0    0  501    0  0.00000000000E+00  0.00000000000E+00  0.15168936493E+04  0.15168936493E+04  0.00000000000E+00 0. -1.
         -1   -1    0    0    0  501 -0.00000000000E+00 -0.00000000000E+00 -0.16339165018E+02  0.16339165018E+02  0.00000000000E+00 0.  1.
         23    2    1    2    0    0  0.16329178806E+02  0.85180454833E+02  0.33615221698E+03  0.35892362712E+03  0.91134544298E+02 0.  0.
          5    1    1    2  502    0 -0.10505772093E+02  0.30817918648E+02  0.36957918809E+03  0.37103418175E+03  0.41800000000E+01 0. -1.
         -5    1    1    2    0  502 -0.58234067123E+01 -0.11599837348E+03  0.79482307918E+03  0.80327500540E+03  0.41800000000E+01 0. -1.
        -11    1    3    3    0    0  0.53011942624E+02  0.35297939513E+02  0.18060169427E+03  0.19150243489E+03  0.00000000000E+00 0. -1.
         11    1    3    3    0    0 -0.36682763818E+02  0.49882515320E+02  0.15555052270E+03  0.16742119223E+03  0.00000000000E+00 0.  1.
</event>
<event>
 7    1  0.1170099E-005  0.7157051E+02  0.7561462E-02  0.1354832E+00
         -1   -1    0    0    0  501 -0.00000000000E+00  0.00000000000E+00  0.21666353876E+03  0.21666353876E+03  0.00000000000E+00 0.  1.
          1   -1    0    0  501    0  0.00000000000E+00 -0.00000000000E+00 -0.87190402460E+02  0.87190402460E+02  0.00000000000E+00 0. -1.
         23    2    1    2    0    0  0.52427824110E+02 -0.41523930775E+02  0.12538031792E+03  0.16194863829E+03  0.77680266172E+02 0.  0.
          5    1    1    2  502    0 -0.26715025241E+02  0.28836836022E+02  0.64076607926E+02  0.75289705595E+02  0.41800000000E+01 0.  1.
         -5    1    1    2    0  502 -0.25712798869E+02  0.12687094753E+02 -0.59983789553E+02  0.66615597334E+02  0.41800000000E+01 0.  1.
        -11    1    3    3    0    0  0.13695259381E+01 -0.18626221263E+02  0.97792575770E+02  0.99560030110E+02  0.00000000000E+00 0. -1.
         11    1    3    3    0    0  0.51058298172E+02 -0.22897709512E+02  0.27587742153E+02  0.62388608177E+02  0.00000000000E+00 0.  1.
</event>
<event>
 6    1  0.6610867E-006  0.1827777E+03  0.7561462E-02  0.1165142E+00
          2   -1    0    0  501    0  0.00000000000E+00  0.00000000000E+00  0.81329563000E+02  0.81329563000E+02  0.00000000000E+00 0. -1.
         -2   -1    0    0    0  501 -0.00000000000E+00 -0.00000000000E+00 -0.51896128414E+03  0.51896128414E+03  0.00000000000E+00 0.  1.
          5    1    1    2  502    0 -0.53654709465E+02 -0.57759426050E+01 -0.60039082016E+02  0.80835345796E+02  0.41800000000E+01 0. -1.
         -5    1    1    2    0  502 -0.41035886590E+02  0.13844807441E+03 -0.54508906644E+02  0.15440371304E+03  0.41800000000E+01 0. -1.
        -11    1    1    2    0    0  0.16761905408E+02 -0.52714207344E+02 -0.76853870271E+02  0.94690371762E+02  0.00000000000E+00 0.  1.
         11    1    1    2    0    0  0.77928690647E+02 -0.79957924465E+02 -0.24622986221E+03  0.27036141654E+03  0.00000000000E+00 0. -1.
</event>
<event>
 7    1  0.6610867E-006  0.1005923E+03  0.7561462E-02  0.1279055E+00
          3   -1    0    0  501    0  0.00000000000E+00  0.00000000000E+00  0.76569237599E+02  0.76569237599E+02  0.00000000000E+00 0. -1.
         -3   -1    0    0    0  501 -0.00000000000E+00 -0.00000000000E+00 -0.25676118084E+03  0.25676118084E+03  0.00000000000E+00 0.  1.
         23    2    1    2    0    0  0.12884237445E+02 -0.30021262077E+02 -0.17888953313E+03  0.20403545091E+03  0.92529565083E+02 0.  0.
          5    1    1    2  502    0 -0.52717016989E+02  0.34170249185E+02 -0.39061722251E+02  0.74094401642E+02  0.41800000000E+01 0. -1.
         -5    1    1    2    0  502  0.39832779543E+02 -0.41489871077E+01  0.37759312143E+02  0.55200565882E+02  0.41800000000E+01 0. -1.
        -11    1    3    3    0    0  0.76471697083E+01  0.33428298400E+02 -0.56984471577E+02  0.66506844305E+02  0.00000000000E+00 0.  1.
         11    1    3    3    0    0  0.52370677369E+01 -0.63449560477E+02 -0.12190506155E+03  0.13752860661E+03  0.00000000000E+00 0. -1.
</event>
<event>
 7    1  0.6610867E-006  0.1541457E+03  0.7561462E-02  0.1195469E+00
         -2   -1    0    0    0  501 -0.00000000000E+00  0.00000000000E+00  0.21088707820E+03  0.21088707820E+03  0.00000000000E+00 0. -1.
          2   -1    0    0  501    0  0.00000000000E+00 -0.00000000000E+00 -0.18583813806E+03  0.18583813806E+03  0.00000000000E+00 0.  1.
         23    2    1    2    0    0  0.16675851229E+02  0.14147543402E+03  0.95728109413E+02  0.19439903999E+03  0.91289283998E+02 0.  0.
          5    1    1    2  502    0 -0.21393077592E+02 -0.12383897551E+03  0.35278555740E+01  0.12579218493E+03  0.41800000000E+01 0.  1.
         -5    1    1    2    0  502  0.47172263624E+01 -0.17636458508E+02 -0.74207024850E+02  0.76533991339E+02  0.41800000000E+01 0.  1.
        -11    1    3    3    0    0 -0.13698176712E+02  0.13096409979E+03  0.55472486164E+02  0.14288608119E+03  0.00000000000E+00 0.  1.
         11    1    3    3    0    0  0.30374027941E+02  0.10511334230E+02  0.40255623249E+02  0.51512958795E+02  0.00000000000E+00 0. -1.
</event>
<event>
 7    1  0.6610867E-006  0.9101514E+02  0.7561462E-02  0.1300412E+00
         -2   -1    0    0    0  501 -0.00000000000E+00  0.00000000000E+00  0.81879951303E+02  0.81879951303E+02  0.00000000000E+00 0.  1.
          2   -1    0    0  501    0  0.00000000000E+00 -0.00000000000E+00 -0.17050093314E+03  0.17050093314E+03  0.00000000000E+00 0. -1.
         23    2    1    2    0    0 -0.15910130039E+02  0.11725291805E+02  0.48422076878E+01  0.94983514209E+02  0.92778264106E+02 0.  0.
          5    1    1    2  502    0 -0.35690472277E+02 -0.21651625463E+00 -0.97794074955E+02  0.10418738017E+03  0.41800000000E+01 0. -1.
         -5    1    1    2    0  502  0.51600602316E+02 -0.11508775550E+02  0.43308854293E+01  0.53209990064E+02  0.41800000000E+01 0. -1.
        -11    1    3    3    0    0 -0.33673305257E+02  0.44487139377E+02 -0.61411401482E+01  0.56131191500E+02  0.00000000000E+00 0. -1.
         11    1    3    3    0    0  0.17763175219E+02 -0.32761847573E+02  0.10983347836E+02  0.38852322709E+02  0.00000000000E+00 0.  1.
</event>
<event>
 7    1  0.6610867E-006  0.7555730E+02  0.7561462E-02  0.1342154E+00
         -2   -1    0    0    0  501 -0.00000000000E+00  0.00000000000E+00  0.12878407539E+03  0.12878407539E+03  0.00000000000E+00 0.  1.
          2   -1    0    0  501    0  0.00000000000E+00 -0.00000000000E+00 -0.16847866389E+03  0.16847866389E+03  0.00000000000E+00 0. -1.
         23    2    1    2    0    0 -0.69530057343E+01 -0.19500172968E+02  0.85683922331E+02  0.12475861632E+03  0.88285767623E+02 0.  0.
          5    1    1    2  502    0 -0.18459693858E+02 -0.10369575166E+02 -0.13091136107E+03  0.13267835259E+03  0.41800000000E+01 0. -1.
         -5    1    1    2    0  502  0.25412699592E+02  0.29869748133E+02  0.55328502502E+01  0.39825770375E+02  0.41800000000E+01 0.  1.
        -11    1    3    3    0    0  0.35676967495E+02  0.11386995889E+02  0.28723735545E+02  0.47197062077E+02  0.00000000000E+00 0. -1.
         11    1    3    3    0    0 -0.42629973229E+02 -0.30887168857E+02  0.56960186786E+02  0.77561554241E+02  0.00000000000E+00 0.  1.
</event>
<event>
 7    1  0.6610867E-006  0.7590672E+02  0.7561462E-02  0.1341086E+00
          1   -1    0    0  501    0  0.00000000000E+00  0.00000000000E+00  0.22190046395E+03  0.22190046395E+03  0.00000000000E+00 0. -1.
         -1   -1    0    0    0  501 -0.00000000000E+00 -0.00000000000E+00 -0.60676452751E+02  0.60676452751E+02  0.00000000000E+00 0.  1.
         23    2    1    2    0    0 -0.17560091603E+02  0.37209444978E+02  0.52638477409E+02  0.11189590103E+03  0.89760702703E+02 0.  0.
          5    1    1    2  502    0 -0.27550929708E+00  0.10336455492E+02 -0.25180164728E+02  0.27539631684E+02  0.41800000000E+01 0. -1.
         -5    1    1    2    0  502  0.17835600900E+02 -0.47545900471E+02  0.13376569852E+03  0.14314138399E+03  0.41800000000E+01 0. -1.
        -11    1    3    3    0    0 -0.90126543276E+01  0.62430379020E+02  0.56873150000E+02  0.84931356715E+02  0.00000000000E+00 0. -1.
         11    1    3    3    0    0 -0.85474372753E+01 -0.25220934042E+02 -0.42346725902E+01  0.26964544310E+02  0.00000000000E+00 0.  1.
</event>
<event>
 7    1  0.6610867E-006  0.8304463E+02  0.7561462E-02  0.1320627E+00
         -4   -1    0    0    0  501 -0.00000000000E+00  0.00000000000E+00  0.19338726562E+03  0.19338726562E+03  0.00000000000E+00 0.  1.
          4   -1    0    0  501    0  0.00000000000E+00 -0.00000000000E+00 -0.66610605305E+02  0.66610605305E+02  0.00000000000E+00 0. -1.
         23    2    1    2    0    0 -0.97151932938E+01 -0.27534987646E+02  0.70688380626E+02  0.11997932664E+03  0.92442582938E+02 0.  0.
          5    1    1    2  502    0 -0.32066775568E+02 -0.12071807357E+02  0.72253353612E+02  0.80075128076E+02  0.41800000000E+01 0. -1.
         -5    1    1    2    0  502  0.41781968862E+02  0.39606795002E+02 -0.16165073920E+02  0.59943416212E+02  0.41800000000E+01 0. -1.
        -11    1    3    3    0    0 -0.32865585013E+02 -0.36415651316E+02  0.44532637017E+01  0.49255232175E+02  0.00000000000E+00 0. -1.
         11    1    3    3    0    0  0.23150391719E+02  0.88806636707E+01  0.66235116924E+02  0.70724094465E+02  0.00000000000E+00 0.  1.
</event>
<event>
 7    1  0.6610867E-006  0.6261425E+02  0.7561462E-02  0.1387177E+00
          4   -1    0    0  501    0  0.00000000000E+00  0.00000000000E+00  0.48467138569E+03  0.48467138569E+03  0.00000000000E+00 0. -1.
         -4   -1    0    0    0  501 -0.00000000000E+00 -0.00000000000E+00 -0.25171102641E+02  0.25171102641E+02  0.00000000000E+00 0.  1.
         23    2    1    2    0    0 -0.87467837053E+01 -0.18962515624E+02  0.17512333182E+03  0.19846738116E+03  0.91022177576E+02 0.  0.
          5    1    1    2  502    0  0.22921656073E+02  0.15618804324E+02  0.29273163226E+03  0.29407249156E+03  0.41800000000E+01 0.  1.
         -5    1    1    2    0  502 -0.14174872368E+02  0.33437113001E+01 -0.83546810353E+01  0.17302615615E+02  0.41800000000E+01 0.  1.
        -11    1    3    3    0    0  0.20519355137E+02  0.23027666271E+02  0.11710802617E+03  0.12110163972E+03  0.00000000000E+00 0. -1.
         11    1    3    3    0    0 -0.29266138842E+02 -0.41990181895E+02  0.58015305652E+02  0.77365741437E+02  0.00000000000E+00 0.  1.
</event>
<event>
 7    1  0.6610867E-006  0.1699427E+03  0.7561462E-02  0.1177908E+00
          2   -1    0    0  501    0  0.00000000000E+00  0.00000000000E+00  0.73084406903E+03  0.73084406903E+03  0.00000000000E+00 0. -1.
         -2   -1    0    0    0  501 -0.00000000000E+00 -0.00000000000E+00 -0.84758823109E+02  0.84758823109E+02  0.00000000000E+00 0.  1.
         23    2    1    2    0    0 -0.12920448050E+03 -0.12883513752E+02  0.11193690430E+03  0.19394799652E+03  0.90698247523E+02 0.  0.
          5    1    1    2  502    0  0.78605735637E+02 -0.62498692017E+02  0.52006024114E+03  0.52968393877E+03  0.41800000000E+01 0. -1.
         -5    1    1    2    0  502  0.50598744861E+02  0.75382205769E+02  0.14088100486E+02  0.91970956848E+02  0.41800000000E+01 0.  1.
        -11    1    3    3    0    0 -0.63829553767E+01 -0.24312955805E+02 -0.30398000426E+01  0.25319998491E+02  0.00000000000E+00 0. -1.
         11    1    3    3    0    0 -0.12282152512E+03  0.11429442053E+02  0.11497670434E+03  0.16862799803E+03  0.00000000000E+00 0.  1.
</event>
<event>
 7    1  0.6610867E-006  0.1108257E+03  0.7561462E-02  0.1259048E+00
         -2   -1    0    0    0  501 -0.00000000000E+00  0.00000000000E+00  0.10008682024E+02  0.10008682024E+02  0.00000000000E+00 0. -1.
          2   -1    0    0  501    0  0.00000000000E+00 -0.00000000000E+00 -0.13042091221E+04  0.13042091221E+04  0.00000000000E+00 0.  1.
         23    2    1    2    0    0  0.48034909033E+01 -0.20269789788E+02 -0.40377896458E+03  0.41481119178E+03  0.92719656404E+02 0.  0.
          5    1    1    2  502    0  0.59783380648E+02  0.47074400609E+01 -0.40196893750E+03  0.40643906273E+03  0.41800000000E+01 0.  1.
         -5    1    1    2    0  502 -0.64586871551E+02  0.15562349727E+02 -0.48845253799E+03  0.49296754962E+03  0.41800000000E+01 0.  1.
        -11    1    3    3    0    0  0.38749861205E+02 -0.40012668055E+02 -0.22950522292E+03  0.23616776388E+03  0.00000000000E+00 0. -1.
         11    1    3    3    0    0 -0.33946370302E+02  0.19742878267E+02 -0.17427374166E+03  0.17864342789E+03  0.00000000000E+00 0.  1.
</event>
<event>
 7    1  0.6610867E-006  0.1020351E+03  0.7561462E-02  0.1276074E+00
          2   -1    0    0  501    0  0.00000000000E+00  0.00000000000E+00  0.28436532145E+03  0.28436532145E+03  0.00000000000E+00 0. -1.
         -2   -1    0    0    0  501 -0.00000000000E+00 -0.00000000000E+00 -0.47473097062E+02  0.47473097062E+02  0.00000000000E+00 0.  1.
         23    2    1    2    0    0  0.30986455250E+02 -0.24098505552E+02  0.10377309417E+03  0.14499975213E+03  0.93355099829E+02 0.  0.
          5    1    1    2  502    0 -0.12017607176E+02 -0.51440029514E+02  0.57745191980E+02  0.78373969629E+02  0.41800000000E+01 0. -1.
         -5    1    1    2    0  502 -0.18968848074E+02  0.75538535066E+02  0.75373938236E+02  0.10846469676E+03  0.41800000000E+01 0. -1.
        -11    1    3    3    0    0  0.66538162215E+01  0.20896944054E+02  0.89134844837E+02  0.91793115784E+02  0.00000000000E+00 0. -1.
         11    1    3    3    0    0  0.24332639028E+02 -0.44995449606E+02  0.14638249335E+02  0.53206636343E+02  0.00000000000E+00 0.  1.
</event>
<event>
 7    1  0.6610867E-006  0.6528662E+02  0.7561462E-02  0.1376897E+00
          3   -1    0    0  501    0  0.00000000000E+00  0.00000000000E+00  0.25566816012E+03  0.25566816012E+03  0.00000000000E+00 0. -1.
         -3   -1    0    0    0  501 -0.00000000000E+00 -0.00000000000E+00 -0.56267343894E+02  0.56267343894E+02  0.00000000000E+00 0.  1.
         23    2    1    2    0    0 -0.20989964911E+01 -0.23144410932E+02  0.30212203992E+02  0.10024697850E+03  0.92717904875E+02 0.  0.
          5    1    1    2  502    0  0.38520790421E+02  0.19550776246E+02  0.16937967046E+03  0.17485144927E+03  0.41800000000E+01 0. -1.
         -5    1    1    2    0  502 -0.36421793930E+02  0.35936346856E+01 -0.19105822241E+00  0.36837076249E+02  0.41800000000E+01 0. -1.
        -11    1    3    3    0    0  0.99889393409E+01  0.10556579806E+02  0.54877885863E+02  0.56769733513E+02  0.00000000000E+00 0. -1.
         11    1    3    3    0    0 -0.12087935832E+02 -0.33700990738E+02 -0.24665681871E+02  0.43477244986E+02  0.00000000000E+00 0.  1.
</event>
<event>
 7    1  0.6610867E-006  0.1004269E+03  0.7561462E-02  0.1279401E+00
         -2   -1    0    0    0  501 -0.00000000000E+00  0.00000000000E+00  0.63309412166E+02  0.63309412166E+02  0.00000000000E+00 0.  1.
          2   -1    0    0  501    0  0.00000000000E+00 -0.00000000000E+00 -0.21793548688E+03  0.21793548688E+03  0.00000000000E+00 0. -1.
         23    2    1    2    0    0  0.41862542882E+02 -0.40525014972E+02 -0.30067636634E+02  0.95346827438E+02  0.69225756730E+02 0.  0.
          5    1    1    2  502    0 -0.60465275309E+02  0.58728969331E+02 -0.13360456827E+03  0.15802782799E+03  0.41800000000E+01 0.  1.
         -5    1    1    2    0  502  0.18602732427E+02 -0.18203954359E+02  0.90461301864E+01  0.27870243619E+02  0.41800000000E+01 0.  1.
        -11    1    3    3    0    0  0.63194202424E+01 -0.52279862420E+02 -0.21882541906E+02  0.57026000448E+02  0.00000000000E+00 0.  1.
         11    1    3    3    0    0  0.35543122639E+02  0.11754847448E+02 -0.81850947274E+01  0.38320826990E+02  0.00000000000E+00 0. -1.
</event>
<event>
 7    1  0.6610867E-006  0.1421012E+03  0.7561462E-02  0.1210529E+00
          2   -1    0    0  501    0  0.00000000000E+00  0.00000000000E+00  0.12917602465E+03  0.12917602465E+03  0.00000000000E+00 0. -1.
         -2   -1    0    0    0  501 -0.00000000000E+00 -0.00000000000E+00 -0.17091911266E+03  0.17091911266E+03  0.00000000000E+00 0.  1.
         23    2    1    2    0    0 -0.67536127439E+02  0.62309263043E+02  0.23912606441E+02  0.13156641372E+03  0.91073243606E+02 0.  0.
          5    1    1    2  502    0  0.65055242635E+02 -0.98607098600E+02 -0.44999769036E+02  0.12648318506E+03  0.41800000000E+01 0. -1.
         -5    1    1    2    0  502  0.24808848046E+01  0.36297835557E+02 -0.20655925415E+02  0.42045538530E+02  0.41800000000E+01 0. -1.
        -11    1    3    3    0    0  0.18597327025E+02 -0.58912288628E+01  0.33367296065E+01  0.19791435382E+02  0.00000000000E+00 0.  1.
         11    1    3    3    0    0 -0.86133454465E+02  0.68200491906E+02  0.20575876835E+02  0.11177497833E+03  0.00000000000E+00 0. -1.
</event>
<event>
 7    1  0.6610867E-006  0.8241061E+02  0.7561462E-02  0.1322346E+00
          2   -1    0    0  501    0  0.00000000000E+00  0.00000000000E+00  0.64665292341E+03  0.64665292341E+03  0.00000000000E+00 0. -1.
         -2   -1    0    0    0  501 -0.00000000000E+00 -0.00000000000E+00 -0.20409969046E+02  0.20409969046E+02  0.00000000000E+00 0.  1.
         23    2    1    2    0    0 -0.16909836383E+02  0.11066265909E+02  0.16682797477E+03  0.19049402389E+03  0.89710619032E+02 0.  0.
          5    1    1    2  502    0  0.51193981096E+02  0.19449615565E+02  0.98963103037E+02  0.11318250487E+03  0.41800000000E+01 0.  1.
         -5    1    1    2    0  502 -0.34284144712E+02 -0.30515881475E+02  0.36045187656E+03  0.36338636369E+03  0.41800000000E+01 0.  1.
        -11    1    3    3    0    0  0.97530525853E+01 -0.20372807920E+02  0.45224125932E+01  0.23035311001E+02  0.00000000000E+00 0.  1.
         11    1    3    3    0    0 -0.26662888968E+02  0.31439073829E+02  0.16230556217E+03  0.16745871289E+03  0.00000000000E+00 0. -1.
</event>
<event>
 7    1  0.6610867E-006  0.1085215E+03  0.7561462E-02  0.1263333E+00
          2   -1    0    0  501    0  0.00000000000E+00  0.00000000000E+00  0.38466637231E+03  0.38466637231E+03  0.00000000000E+00 0. -1.
         -2   -1    0    0    0  501 -0.00000000000E+00 -0.00000000000E+00 -0.32354499868E+02  0.32354499868E+02  0.00000000000E+00 0.  1.
         23    2    1    2    0    0  0.24974062153E+02 -0.76713947506E+01  0.12987899463E+03  0.16049244995E+03  0.90590944171E+02 0.  0.
          5    1    1    2  502    0  0.48420704185E+02 -0.21564231001E+01  0.55147386466E+02  0.73538570753E+02  0.41800000000E+01 0.  1.
         -5    1    1    2    0  502 -0.73394766338E+02  0.98278178507E+01  0.16728549135E+03  0.18298985148E+03  0.41800000000E+01 0.  1.
        -11    1    3    3    0    0 -0.12299176848E+02 -0.41871617140E+02  0.57393765830E+02  0.72100946105E+02  0.00000000000E+00 0. -1.
         11    1    3    3    0    0  0.37273239001E+02  0.34200222390E+02  0.72485228802E+02  0.88391503843E+02  0.00000000000E+00 0.  1.
</event>
<event>
 7    1  0.6610867E-006  0.1109798E+03  0.7561462E-02  0.1258766E+00
         -2   -1    0    0    0  501 -0.00000000000E+00  0.00000000000E+00  0.13213264794E+02  0.13213264794E+02  0.00000000000E+00 0.  1.
          2   -1    0    0  501    0  0.00000000000E+00 -0.00000000000E+00 -0.12770781888E+04  0.12770781888E+04  0.00000000000E+00 0. -1.
         23    2    1    2    0    0  0.66747099301E+02  0.67126567207E+01 -0.45687039323E+03  0.47090988647E+03  0.92332713296E+02 0.  0.
          5    1    1    2  502    0  0.17317134128E+02 -0.16159603216E+02 -0.50944572025E+03  0.51001316669E+03  0.41800000000E+01 0. -1.
         -5    1    1    2    0  502 -0.84064233429E+02  0.94469464953E+01 -0.29754881048E+03  0.30936840039E+03  0.41800000000E+01 0. -1.
        -11    1    3    3    0    0  0.43551325210E+02  0.48644258923E+02 -0.29238732934E+03  0.29958860494E+03  0.00000000000E+00 0. -1.
         11    1    3    3    0    0  0.23195774091E+02 -0.41931602202E+02 -0.16448306389E+03  0.17132128153E+03  0.00000000000E+00 0.  1.
</event>
<event>
 7    1  0.6610867E-006  0.9789072E+02  0.7561462E-02  0.1284795E+00
         -2   -1    0    0    0  501 -0.00000000000E+00  0.00000000000E+00  0.13308322090E+02  0.13308322090E+02  0.00000000000E+00 0.  1.
          2   -1    0    0  501    0  0.00000000000E+00 -0.00000000000E+00 -0.10796193893E+04  0.10796193893E+04  0.00000000000E+00 0. -1.
         23    2    1    2    0    0 -0.20773153359E+02 -0.33331220088E+02 -0.34503969819E+03  0.35983614701E+03  0.94271762646E+02 0.  0.
          5    1    1    2  502    0 -0.35743261111E+02  0.29385068818E+02 -0.11307153314E+03  0.12224445587E+03  0.41800000000E+01 0. -1.
         -5    1    1    2    0  502  0.56516414470E+02  0.39461512705E+01 -0.60819983592E+03  0.61084710856E+03  0.41800000000E+01 0. -1.
        -11    1    3    3    0    0  0.30299477055E+02 -0.27837924995E+02 -0.23269854154E+03  0.23630831473E+03  0.00000000000E+00 0. -1.
         11    1    3    3    0    0 -0.51072630414E+02 -0.54932950933E+01 -0.11234115665E+03  0.12352783227E+03  0.00000000000E+00 0.  1.
</event>
<event>
 7    1  0.6610867E-006  0.8049865E+02  0.7561462E-02  0.1327642E+00
         -2   -1    0    0    0  501 -0.00000000000E+00  0.00000000000E+00  0.16819372761E+03  0.16819372761E+03  0.00000000000E+00 0.  1.
          2   -1    0    0  501    0  0.00000000000E+00 -0.00000000000E+00 -0.78535013678E+02  0.78535013678E+02  0.00000000000E+00 0. -1.
         23    2    1    2    0    0  0.28078953896E+02  0.26499862339E+02  0.35075138996E+02  0.10489221240E+03  0.91002420249E+02 0.  0.
          5    1    1    2  502    0 -0.43704963853E+02 -0.26455719127E+02 -0.27502979023E+02  0.58171429371E+02  0.41800000000E+01 0.  1.
         -5    1    1    2    0  502  0.15626009957E+02 -0.44143212020E-01  0.82086553959E+02  0.83665099514E+02  0.41800000000E+01 0.  1.
        -11    1    3    3    0    0  0.53623394455E+02  0.37823588112E+02  0.39515097741E+02  0.76599838120E+02  0.00000000000E+00 0.  1.
         11    1    3    3    0    0 -0.25544440559E+02 -0.11323725773E+02 -0.44399587455E+01  0.28292374282E+02  0.00000000000E+00 0. -1.
</event>
<event>
 7    1  0.6610867E-006  0.1717497E+03  0.7561462E-02  0.1176035E+00
         -1   -1    0    0    0  501 -0.00000000000E+00  0.00000000000E+00  0.44280534332E+02  0.44280534332E+02  0.00000000000E+00 0.  1.
          1   -1    0    0  501    0  0.00000000000E+00 -0.00000000000E+00 -0.84887813910E+03  0.84887813910E+03  0.00000000000E+00 0. -1.
         23    2    1    2    0    0 -0.13114997881E+03 -0.38842110267E+02 -0.19105930835E+03  0.25222959081E+03  0.91690134144E+02 0.  0.
          5    1    1    2  502    0  0.87423927234E+02 -0.38204703743E+02 -0.28189799038E+03  0.29763482965E+03  0.41800000000E+01 0. -1.
         -5    1    1    2    0  502  0.43726051578E+02  0.77046814010E+02 -0.33164030604E+03  0.34329425297E+03  0.41800000000E+01 0. -1.
        -11    1    3    3    0    0 -0.89558948822E+02 -0.64568250084E+02 -0.10045014379E+03  0.14926518556E+03  0.00000000000E+00 0.  1.
         11    1    3    3    0    0 -0.41591029990E+02  0.25726139817E+02 -0.90609164562E+02  0.10296440525E+03  0.00000000000E+00 0. -1.
</event>
<event>
 7    1  0.6610867E-006  0.1120268E+03  0.7561462E-02  0.1256862E+00
          3   -1    0    0  501    0  0.00000000000E+00  0.00000000000E+00  0.78688753333E+02  0.78688753333E+02  0.00000000000E+00 0. -1.
         -3   -1    0    0    0  501 -0.00000000000E+00 -0.00000000000E+00 -0.20437163023E+03  0.20437163023E+03  0.00000000000E+00 0.  1.
         23    2    1    2    0    0  0.39426764236E+02  0.13972837982E+02 -0.10895135777E+03  0.15009526145E+03  0.94384740347E+02 0.  0.
          5    1    1    2  502    0  0.20265042665E+02 -0.55311121188E+02 -0.46219897018E+01  0.59235354900E+02  0.41800000000E+01 0.  1.
         -5    1    1    2    0  502 -0.59691806901E+02  0.41338283206E+02 -0.12109529418E+02  0.73729767206E+02  0.41800000000E+01 0.  1.
        -11    1    3    3    0    0  0.60097761878E+02  0.28985811627E+02 -0.43024900110E+02  0.79391814993E+02  0.00000000000E+00 0. -1.
         11    1    3    3    0    0 -0.20670997642E+02 -0.15012973645E+02 -0.65926457664E+02  0.70703446460E+02  0.00000000000E+00 0.  1.
</event>
<event>
 7    1  0.6610867E-006  0.1863682E+03  0.7561462E-02  0.1161778E+00
          1   -1    0    0  501    0  0.00000000000E+00  0.00000000000E+00  0.49853432366E+03  0.49853432366E+03  0.00000000000E+00 0. -1.
         -1   -1    0    0    0  501 -0.00000000000E+00 -0.00000000000E+00 -0.71468804823E+02  0.71468804823E+02  0.00000000000E+00 0.  1.
         23    2    1    2    0    0 -0.10776802211E+03  0.10660278458E+03  0.20296737407E+03  0.27193367808E+03  0.98863896678E+02 0.  0.
          5    1    1    2  502    0  0.11619236076E+03 -0.35543296969E+02  0.16623185356E+03  0.20594778998E+03  0.41800000000E+01 0. -1.
         -5    1    1    2    0  502 -0.84243386530E+01 -0.71059487613E+02  0.57866291197E+02  0.92121660420E+02  0.41800000000E+01 0. -1.
        -11    1    3    3    0    0 -0.84797537363E+01 -0.18152420895E+02  0.35086591414E+02  0.40404028324E+02  0.00000000000E+00 0. -1.
         11    1    3    3    0    0 -0.99288268372E+02  0.12475520548E+03  0.16788078266E+03  0.23152964975E+03  0.00000000000E+00 0.  1.
</event>
<event>
 7    1  0.6610867E-006  0.9555969E+02  0.7561462E-02  0.1289920E+00
         -2   -1    0    0    0  501 -0.00000000000E+00  0.00000000000E+00  0.74989499564E+02  0.74989499564E+02  0.00000000000E+00 0.  1.
          2   -1    0    0  501    0  0.00000000000E+00 -0.00000000000E+00 -0.33115014229E+03  0.33115014229E+03  0.00000000000E+00 0. -1.
         23    2    1    2    0    0 -0.69918222014E+02 -0.47360372631E+02 -0.20708671976E+02  0.12646673274E+03  0.91833668830E+02 0.  0.
          5    1    1    2  502    0  0.70920537179E+02  0.30082313089E+02 -0.24678769906E+03  0.25856586968E+03  0.41800000000E+01 0. -1.
         -5    1    1    2    0  502 -0.10023151649E+01  0.17278059541E+02  0.11335728312E+02  0.21107039431E+02  0.41800000000E+01 0. -1.
        -11    1    3    3    0    0 -0.44034168927E+02 -0.21717392079E+01  0.30358757054E+02  0.53529231399E+02  0.00000000000E+00 0.  1.
         11    1    3    3    0    0 -0.25884053087E+02 -0.45188633423E+02 -0.51067429030E+02  0.72937501346E+02  0.00000000000E+00 0. -1.
</event>
<event>
 6    1  0.6610867E-006  0.1222915E+03  0.7561462E-02  0.1239364E+00
         -2   -1    0    0    0  501 -0.00000000000E+00  0.00000000000E+00  0.10807360567E+03  0.10807360567E+03  0.00000000000E+00 0.  1.
          2   -1    0    0  501    0  0.00000000000E+00 -0.00000000000E+00 -0.25467465459E+03  0.25467465459E+03  0.00000000000E+00 0. -1.
          5    1    1    2  502    0 -0.10684690708E+03  0.16464601504E+02 -0.18771688445E+03  0.21666205427E+03  0.41800000000E+01 0. -1.
         -5    1    1    2    0  502  0.93667662496E+02  0.81075227261E+01  0.43066974923E+02  0.10349685817E+03  0.41800000000E+01 0.  1.
        -11    1    1    2    0    0  0.11828185910E+02  0.48836049972E+01  0.15720982731E+01  0.12892907843E+02  0.00000000000E+00 0. -1.
         11    1    1    2    0    0  0.13510586728E+01 -0.29455729227E+02 -0.35232376723E+01  0.29696439981E+02  0.00000000000E+00 0.  1.
</event>
<event>
 7    1  0.6610867E-006  0.9997361E+02  0.7561462E-02  0.1280351E+00
          2   -1    0    0  501    0  0.00000000000E+00  0.00000000000E+00  0.59434924371E+03  0.59434924371E+03  0.00000000000E+00 0. -1.
         -2   -1    0    0    0  501 -0.00000000000E+00 -0.00000000000E+00 -0.26158604062E+03  0.26158604062E+03  0.00000000000E+00 0.  1.
         23    2    1    2    0    0 -0.42866043196E+01  0.31341685544E+02 -0.24692518366E+03  0.26497147808E+03  0.90758810256E+02 0.  0.
          5    1    1    2  502    0 -0.33656972130E+02  0.23210415608E+02  0.33005082972E+03  0.33259966591E+03  0.41800000000E+01 0. -1.
         -5    1    1    2    0  502  0.37943576449E+02 -0.54552101152E+02  0.24963755704E+03  0.25836414035E+03  0.41800000000E+01 0.  1.
        -11    1    3    3    0    0 -0.44193348724E+02  0.27787809537E+02 -0.17523473929E+03  0.18284536714E+03  0.00000000000E+00 0.  1.
         11    1    3    3    0    0  0.39906744404E+02  0.35538760072E+01 -0.71690444369E+02  0.82126110936E+02  0.00000000000E+00 0. -1.
</event>
<event>
 7    1  0.6610867E-006  0.1373469E+03  0.7561462E-02  0.1216944E+00
         -2   -1    0    0    0  501 -0.00000000000E+00  0.00000000000E+00  0.58884586265E+02  0.58884586265E+02  0.00000000000E+00 0.  1.
          2   -1    0    0  501    0  0.00000000000E+00 -0.00000000000E+00 -0.44015522758E+03  0.44015522758E+03  0.00000000000E+00 0. -1.
         23    2    1    2    0    0  0.98977655464E+02 -0.53814338343E+02 -0.13132918467E+03  0.19769311354E+03  0.95617221782E+02 0.  0.
          5    1    1    2  502    0 -0.76909685926E+02 -0.61195867871E+01 -0.21492104669E+03  0.22838799847E+03  0.41800000000E+01 0.  1.
         -5    1    1    2    0  502 -0.22067969538E+02  0.59933925130E+02 -0.35020409949E+02  0.72958701839E+02  0.41800000000E+01 0.  1.
        -11    1    3    3    0    0 -0.10835130575E+02 -0.11335834841E+02 -0.55435095969E+02  0.57610338232E+02  0.00000000000E+00 0. -1.
         11    1    3    3    0    0  0.10981278604E+03 -0.42478503502E+02 -0.75894088702E+02  0.14008277531E+03  0.00000000000E+00 0.  1.
</event>
<event>
 7    1  0.6610867E-006  0.1361360E+03  0.7561462E-02  0.1218625E+00
          1   -1    0    0  501    0  0.00000000000E+00  0.00000000000E+00  0.28589318388E+03  0.28589318388E+03  0.00000000000E+00 0. -1.
         -1   -1    0    0    0  501 -0.00000000000E+00 -0.00000000000E+00 -0.13085004591E+03  0.13085004591E+03  0.00000000000E+00 0.  1.
         23    2    1    2    0    0 -0.32461563923E+02 -0.12311266920E+03 -0.32253379957E+02  0.15802988947E+03  0.87878797191E+02 0.  0.
          5    1    1    2  502    0 -0.12169516072E+02  0.56575493146E+02  0.34487607450E+01  0.58122714121E+02  0.41800000000E+01 0. -1.
         -5    1    1    2    0  502  0.44631079995E+02  0.66537176055E+02  0.18384775718E+03  0.20059062620E+03  0.41800000000E+01 0. -1.
        -11    1    3    3    0    0 -0.42524839285E+02 -0.92688007936E+02  0.12762054325E+02  0.10277304511E+03  0.00000000000E+00 0. -1.
         11    1    3    3    0    0  0.10063275362E+02 -0.30424661265E+02 -0.45015434282E+02  0.55256844352E+02  0.00000000000E+00 0.  1.
</event>
<event>
 7    1  0.6610867E-006  0.9749884E+02  0.7561462E-02  0.1285645E+00
         -2   -1    0    0    0  501 -0.00000000000E+00  0.00000000000E+00  0.14383749101E+03  0.14383749101E+03  0.00000000000E+00 0.  1.
          2   -1    0    0  501    0  0.00000000000E+00 -0.00000000000E+00 -0.10662434955E+03  0.10662434955E+03  0.00000000000E+00 0. -1.
         23    2    1    2    0    0 -0.29669087351E+02  0.40563590661E+02  0.52813251905E+02  0.11475134591E+03  0.88616997134E+02 0.  0.
          5    1    1    2  502    0  0.54398803504E+01 -0.62774905129E+02 -0.55342552350E+02  0.83967562266E+02  0.41800000000E+01 0. -1.
         -5    1    1    2    0  502  0.24229207000E+02  0.22211314469E+02  0.39742441910E+02  0.51742932380E+02  0.41800000000E+01 0. -1.
        -11    1    3    3    0    0 -0.74302648503E+01  0.65144551012E+02  0.21105388065E+02  0.68880031705E+02  0.00000000000E+00 0. -1.
         11    1    3    3    0    0 -0.22238822501E+02 -0.24580960352E+02  0.31707863840E+02  0.45871314210E+02  0.00000000000E+00 0.  1.
</event>
<event>
 7    1  0.6610867E-006  0.8965171E+02  0.7561462E-02  0.1303697E+00
         -1   -1    0    0    0  501 -0.00000000000E+00  0.00000000000E+00  0.15922434734E+02  0.15922434734E+02  0.00000000000E+00 0.  1.
          1   -1    0    0  501    0  0.00000000000E+00 -0.00000000000E+00 -0.95212193329E+03  0.95212193329E+03  0.00000000000E+00 0. -1.
         23    2    1    2    0    0 -0.91733127721E+01  0.50116108592E+02 -0.28913959679E+03  0.30706811590E+03  0.89963033315E+02 0.  0.
          5    1    1    2  502    0  0.33076237056E+02 -0.15303138003E+02 -0.47987558999E+02  0.60402828652E+02  0.41800000000E+01 0.  1.
         -5    1    1    2    0  502 -0.23902924283E+02 -0.34812970590E+02 -0.59907234277E+03  0.60057342347E+03  0.41800000000E+01 0.  1.
        -11    1    3    3    0    0 -0.46913124102E+02  0.16762014751E+02 -0.18175142958E+03  0.18845526924E+03  0.00000000000E+00 0. -1.
         11    1    3    3    0    0  0.37739811330E+02  0.33354093842E+02 -0.10738816721E+03  0.11861284665E+03  0.00000000000E+00 0.  1.
</event>
<event>
 7    1  0.6610867E-006  0.1699787E+03  0.7561462E-02  0.1177870E+00
          1   -1    0    0  501    0  0.00000000000E+00  0.00000000000E+00  0.76667011986E+03  0.76667011986E+03  0.00000000000E+00 0. -1.
         -1   -1    0    0    0  501 -0.00000000000E+00 -0.00000000000E+00 -0.55636717528E+02  0.55636717528E+02  0.00000000000E+00 0.  1.
         23    2    1    2    0    0  0.12224490755E+03  0.10194260525E+03  0.19255257214E+03  0.26570538367E+03  0.90480637057E+02 0.  0.
          5    1    1    2  502    0 -0.40304009448E+02 -0.20121833622E+02  0.29337205338E+02  0.53920732404E+02  0.41800000000E+01 0. -1.
         -5    1    1    2    0  502 -0.81940898105E+02 -0.81820771630E+02  0.48914362485E+03  0.50268072132E+03  0.41800000000E+01 0. -1.
        -11    1    3    3    0    0 -0.10564696484E+02  0.20470224978E+02  0.84872817489E+01  0.24549478079E+02  0.00000000000E+00 0.  1.
         11    1    3    3    0    0  0.13280960404E+03  0.81472380274E+02  0.18406529039E+03  0.24115590559E+03  0.00000000000E+00 0. -1.
</event>
<event>
 6    1  0.6610867E-006  0.9590965E+02  0.7561462E-02  0.1289140E+00
          2   -1    0    0  501    0  0.00000000000E+00  0.00000000000E+00  0.43560895332E+03  0.43560895332E+03  0.00000000000E+00 0. -1.
         -2   -1    0    0    0  501 -0.00000000000E+00 -0.00000000000E+00 -0.77696276401E+02  0.77696276401E+02  0.00000000000E+00 0.  1.
          5    1    1    2  502    0  0.86105134663E+01  0.52805019859E+02  0.34620904839E+03  0.35034367220E+03  0.41800000000E+01 0. -1.
         -5    1    1    2    0  502 -0.31568827788E+02 -0.88934812121E+02 -0.33301060480E+02  0.10016199241E+03  0.41800000000E+01 0.  1.
        -11    1    1    2    0    0  0.14719266446E+02  0.15023800649E+02  0.23886068825E+02  0.31826336179E+02  0.00000000000E+00 0.  1.
         11    1    1    2    0    0  0.82390478760E+01  0.21105991613E+02  0.21118620190E+02  0.30973228934E+02  0.00000000000E+00 0. -1.
</event>
<event>
 7    1  0.6610867E-006  0.1033070E+03  0.7561462E-02  0.1273492E+00
         -1   -1    0    0    0  501 -0.00000000000E+00  0.00000000000E+00  0.36878678548E+02  0.36878678548E+02  0.00000000000E+00 0.  1.
          1   -1    0    0  501    0  0.00000000000E+00 -0.00000000000E+00 -0.54020408623E+03  0.54020408623E+03  0.00000000000E+00 0. -1.
         23    2    1    2    0    0  0.18576598115E+02  0.50637444052E+02 -0.46991638384E+02  0.10084676951E+03  0.71081756489E+02 0.  0.
          5    1    1    2  502    0 -0.46367218851E+02 -0.81504361064E+02 -0.33616092328E+03  0.34901936708E+03  0.41800000000E+01 0. -1.
         -5    1    1    2    0  502  0.27790620736E+02  0.30866917013E+02 -0.12017284602E+03  0.12721662819E+03  0.41800000000E+01 0. -1.
        -11    1    3    3    0    0 -0.11886954279E+02  0.34588452168E+02  0.65825379830E+01  0.37161680690E+02  0.00000000000E+00 0.  1.
         11    1    3    3    0    0  0.30463552395E+02  0.16048991883E+02 -0.53574176367E+02  0.63685088823E+02  0.00000000000E+00 0. -1.
</event>
<event>
 7    1  0.6610867E-006  0.7762098E+02  0.7561462E-02  0.1335942E+00
         -1   -1    0    0    0  501 -0.00000000000E+00  0.00000000000E+00  0.14695457425E+02  0.14695457425E+02  0.00000000000E+00 0.  1.
          1   -1    0    0  501    0  0.00000000000E+00 -0.00000000000E+00 -0.85027767146E+03  0.85027767146E+03  0.00000000000E+00 0. -1.
         23    2    1    2    0    0  0.26514721761E+02 -0.36826402053E+02 -0.32166353053E+03  0.33672806977E+03  0.88651856958E+02 0.  0.
          5    1    1    2  502    0 -0.14150328499E+02 -0.19744707157E+01 -0.46147660575E+03  0.46171664512E+03  0.41800000000E+01 0. -1.
         -5    1    1    2    0  502 -0.12364393262E+02  0.38800872769E+02 -0.52442077761E+02  0.66528413992E+02  0.41800000000E+01 0.  1.
        -11    1    3    3    0    0  0.47564226163E+02  0.95274465432E+01 -0.14705692984E+03  0.15485111708E+03  0.00000000000E+00 0.  1.
         11    1    3    3    0    0 -0.21049504402E+02 -0.46353848596E+02 -0.17460660069E+03  0.18187695269E+03  0.00000000000E+00 0. -1.
</event>
<event>
 7    1  0.6610867E-006  0.1468491E+03  0.7561462E-02  0.1204399E+00
          1   -1    0    0  501    0  0.00000000000E+00  0.00000000000E+00  0.10604332285E+03  0.10604332285E+03  0.00000000000E+00 0. -1.
         -1   -1    0    0    0  501 -0.00000000000E+00 -0.00000000000E+00 -0.28316556035E+03  0.28316556035E+03  0.00000000000E+00 0.  1.
         23    2    1    2    0    0 -0.11851638267E+03  0.17932249586E+02 -0.15203924345E+03  0.21415398747E+03  0.91533055586E+02 0.  0.
          5    1    1    2  502    0  0.10460357063E+03 -0.55018892302E+02 -0.49643193696E+02  0.12826107975E+03  0.41800000000E+01 0.  1.
         -5    1    1    2    0  502  0.13912812038E+02  0.37086642716E+02  0.24560199643E+02  0.46793815972E+02  0.41800000000E+01 0.  1.
        -11    1    3    3    0    0 -0.17810504547E+02  0.29268351251E+02 -0.87595267355E+02  0.94057329965E+02  0.00000000000E+00 0.  1.
         11    1    3    3    0    0 -0.10070587812E+03 -0.11336101665E+02 -0.64443976096E+02  0.12009665751E+03  0.00000000000E+00 0. -1.
</event>
<event>
 7    1  0.6610867E-006  0.1144483E+03  0.7561462E-02  0.1252547E+00
         -2   -1    0    0    0  501 -0.00000000000E+00  0.00000000000E+00  0.86145027321E+02  0.86145027321E+02  0.00000000000E+00 0.  1.
          2   -1    0    0  501    0  0.00000000000E+00 -0.00000000000E+00 -0.18663090221E+03  0.18663090221E+03  0.00000000000E+00 0. -1.
         23    2    1    2    0    0  0.40314790547E+02 -0.21638299640E+02  0.66372557872E+01  0.10184704369E+03  0.90748381776E+02 0.  0.
          5    1    1    2  502    0  0.40345217883E+02  0.24725205831E+02 -0.18488614497E+02  0.50974245217E+02  0.41800000000E+01 0.  1.
         -5    1    1    2    0  502 -0.80660008431E+02 -0.30869061913E+01 -0.88634516178E+02  0.11995464063E+03  0.41800000000E+01 0.  1.
        -11    1    3    3    0    0 -0.10807573656E+02 -0.43604890017E+02  0.10281827902E+02  0.46085855387E+02  0.00000000000E+00 0.  1.
         11    1    3    3    0    0  0.51122364203E+02  0.21966590377E+02 -0.36445721150E+01  0.55761188298E+02  0.00000000000E+00 0. -1.
</event>
<event>
 7    1  0.6610867E-006  0.1153136E+03  0.7561462E-02  0.1251035E+00
          2   -1    0    0  501    0  0.00000000000E+00  0.00000000000E+00  0.32917196220E+03  0.32917196220E+03  0.00000000000E+00 0. -1.
         -2   -1    0    0    0  501 -0.00000000000E+00 -0.00000000000E+00 -0.51034327434E+02  0.51034327434E+02  0.00000000000E+00 0.  1.
         23    2    1    2    0    0 -0.13929784204E+02 -0.47580210838E+02  0.37324281502E+02  0.10435214530E+03  0.83894891906E+02 0.  0.
          5    1    1    2  502    0 -0.85499502484E+01 -0.41269421121E+02  0.86906067797E+02  0.96676800675E+02  0.41800000000E+01 0.  1.
         -5    1    1    2    0  502  0.22479734452E+02  0.88849631958E+02  0.15390728546E+03  0.17917734365E+03  0.41800000000E+01 0.  1.
        -11    1    3    3    0    0 -0.35635831777E+02  0.82935850044E+01  0.21171131862E+02  0.42271892351E+02  0.00000000000E+00 0.  1.
         11    1    3    3    0    0  0.21706047573E+02 -0.55873795842E+02  0.16153149640E+02  0.62080252950E+02  0.00000000000E+00 0. -1.
</event>
<event>
 7    1  0.6610867E-006  0.1783794E+03  0.7561462E-02  0.1169381E+00
         -1   -1    0    0    0  501 -0.00000000000E+00  0.00000000000E+00  0.89407716883E+02  0.89407716883E+02  0.00000000000E+00 0.  1.
          1   -1    0    0  501    0  0.00000000000E+00 -0.00000000000E+00 -0.36599954054E+03  0.36599954054E+03  0.00000000000E+00 0. -1.
         23    2    1    2    0    0 -0.37013172415E+02  0.13753943544E+03 -0.15899382845E+03  0.23232851431E+03  0.91708395709E+02 0.  0.
          5    1    1    2  502    0 -0.44631953872E+02 -0.28188927002E+02 -0.29989974314E+02  0.60856370835E+02  0.41800000000E+01 0.  1.
         -5    1    1    2    0  502  0.81645126287E+02 -0.10935050844E+03 -0.87608020888E+02  0.16222237227E+03  0.41800000000E+01 0.  1.
        -11    1    3    3    0    0 -0.64152686111E+02  0.11626236324E+03 -0.14000329736E+03  0.19295965255E+03  0.00000000000E+00 0.  1.
         11    1    3    3    0    0  0.27139513696E+02  0.21277072201E+02 -0.18990531088E+02  0.39368861758E+02  0.00000000000E+00 0. -1.
</event>
<event>
 7    1  0.6610867E-006  0.1042994E+03  0.7561462E-02  0.1271506E+00
         -2   -1    0    0    0  501 -0.00000000000E+00  0.00000000000E+00  0.15919430865E+03  0.15919430865E+03  0.00000000000E+00 0.  1.
          2   -1    0    0  501    0  0.00000000000E+00 -0.00000000000E+00 -0.11423958092E+03  0.11423958092E+03  0.00000000000E+00 0. -1.
         23    2    1    2    0    0 -0.46150760451E+02  0.38485330086E+02  0.77353297330E+02  0.13092905860E+03  0.86878492488E+02 0.  0.
          5    1    1    2  502    0  0.61614330744E+02 -0.76031698268E+02 -0.23003147985E+02  0.10061690768E+03  0.41800000000E+01 0.  1.
         -5    1    1    2    0  502 -0.15463570293E+02  0.37546368181E+02 -0.93954216074E+01  0.41887923283E+02  0.41800000000E+01 0.  1.
        -11    1    3    3    0    0 -0.96975228462E+01 -0.66870737013E+01 -0.16681573199E+02  0.20421405153E+02  0.00000000000E+00 0. -1.
         11    1    3    3    0    0 -0.36453237605E+02  0.45172403788E+02  0.94034870529E+02  0.11050765345E+03  0.00000000000E+00 0.  1.
</event>
<event>
 7    1  0.6610867E-006  0.1070747E+03  0.7561462E-02  0.1266085E+00
          1   -1    0    0  501    0  0.00000000000E+00  0.00000000000E+00  0.68575589710E+03  0.68575589710E+03  0.00000000000E+00 0. -1.
         -1   -1    0    0    0  501 -0.00000000000E+00 -0.00000000000E+00 -0.20207422462E+02  0.20207422462E+02  0.00000000000E+00 0.  1.
         23    2    1    2    0    0  0.22758054652E+02 -0.11780427347E+02  0.17254828955E+03  0.19669398623E+03  0.90878514925E+02 0.  0.
          5    1    1    2  502    0 -0.30227183657E+02  0.62299403843E+02  0.19676904561E+03  0.20863946909E+03  0.41800000000E+01 0.  1.
         -5    1    1    2    0  502  0.74691290043E+01 -0.50518976495E+02  0.29623113949E+03  0.30062986425E+03  0.41800000000E+01 0.  1.
        -11    1    3    3    0    0  0.19382224882E+01 -0.49988915932E+02  0.10555923844E+03  0.11681353194E+03  0.00000000000E+00 0. -1.
         11    1    3    3    0    0  0.20819832164E+02  0.38208488584E+02  0.66989051103E+02  0.79880454298E+02  0.00000000000E+00 0.  1.
</event>
<event>
 7    1  0.6610867E-006  0.9923187E+02  0.7561462E-02  0.1281920E+00
          2   -1    0    0  501    0  0.00000000000E+00  0.00000000000E+00  0.83063097945E+03  0.83063097945E+03  0.00000000000E+00 0. -1.
         -2   -1    0    0    0  501 -0.00000000000E+00 -0.00000000000E+00 -0.17392001978E+02  0.17392001978E+02  0.00000000000E+00 0.  1.
         23    2    1    2    0    0 -0.39795950468E+02 -0.31224785616E+02  0.23792245993E+03  0.25905466807E+03  0.89126422562E+02 0.  0.
          5    1    1    2  502    0  0.62647814792E+02  0.36020548071E+02  0.54812614535E+03  0.55288513472E+03  0.41800000000E+01 0. -1.
         -5    1    1    2    0  502 -0.22851864323E+02 -0.47957624548E+01  0.27190372195E+02  0.36083178639E+02  0.41800000000E+01 0.  1.
        -11    1    3    3    0    0 -0.64358234791E+02 -0.22846929347E+01  0.15575268965E+03  0.16854110045E+03  0.00000000000E+00 0.  1.
         11    1    3    3    0    0  0.24562284322E+02 -0.28940092681E+02  0.82169770287E+02  0.90513567627E+02  0.00000000000E+00 0. -1.
</event>
<event>
 7    1  0.6610867E-006  0.1069320E+03  0.7561462E-02  0.1266359E+00
          2   -1    0    0  501    0  0.00000000000E+00  0.00000000000E+00  0.84581023214E+03  0.84581023214E+03  0.00000000000E+00 0. -1.
         -2   -1    0    0    0  501 -0.00000000000E+00 -0.00000000000E+00 -0.25739124640E+02  0.25739124640E+02  0.00000000000E+00 0.  1.
         23    2    1    2    0    0  0.42371155011E+02  0.71393725292E+02  0.29080560539E+03  0.31967151005E+03  0.10358376044E+03 0.  0.
          5    1    1    2  502    0 -0.44775323171E+02 -0.49523619914E+02  0.52479415183E+03  0.52904044523E+03  0.41800000000E+01 0. -1.
         -5    1    1    2    0  502  0.24041681606E+01 -0.21870105377E+02  0.44713502803E+01  0.22837401496E+02  0.41800000000E+01 0.  1.
        -11    1    3    3    0    0  0.64151031152E+02  0.78761921523E+02  0.27068680087E+03  0.28911959333E+03  0.00000000000E+00 0.  1.
         11    1    3    3    0    0 -0.21779876142E+02 -0.73681962316E+01  0.20118804520E+02  0.30551916728E+02  0.00000000000E+00 0. -1.
</event>
<event>
 7    1  0.6610867E-006  0.1116827E+03  0.7561462E-02  0.1257485E+00
          2   -1    0    0  501    0  0.00000000000E+00  0.00000000000E+00  0.24088076792E+04  0.24088076792E+04  0.00000000000E+00 0. -1.
         -2   -1    0    0    0  501 -0.00000000000E+00 -0.00000000000E+00 -0.10751477000E+02  0.10751477000E+02  0.00000000000E+00 0.  1.
         23    2    1    2    0    0  0.94839450211E+02 -0.23658768151E+02  0.61900275622E+03  0.63343692390E+03  0.92323700815E+02 0.  0.
          5    1    1    2  502    0 -0.42759204121E+02  0.27448720684E+02  0.15621820651E+04  0.15630137743E+04  0.41800000000E+01 0. -1.
         -5    1    1    2    0  502 -0.52080246091E+02 -0.37899525330E+01  0.21687138087E+03  0.22310845796E+03  0.41800000000E+01 0. -1.
        -11    1    3    3    0    0 -0.18118650928E+01  0.15579869361E+02  0.19987619590E+02  0.25407088013E+02  0.00000000000E+00 0.  1.
         11    1    3    3    0    0  0.96651315304E+02 -0.39238637512E+02  0.59901513663E+03  0.60802983589E+03  0.00000000000E+00 0. -1.
</event>
<event>
 7    1  0.6610867E-006  0.1194388E+03  0.7561462E-02  0.1244026E+00
         -2   -1    0    0    0  501 -0.00000000000E+00  0.00000000000E+00  0.48813526630E+02  0.48813526630E+02  0.00000000000E+00 0.  1.
          2   -1    0    0  501    0  0.00000000000E+00 -0.00000000000E+00 -0.57616481276E+03  0.57616481276E+03  0.00000000000E+00 0. -1.
         23    2    1    2    0    0 -0.10958985380E+03 -0.46347066714E+02 -0.16048334405E+03  0.21951766808E+03  0.90967665867E+02 0.  0.
          5    1    1    2  502    0  0.58787610882E+02  0.19850907523E+02 -0.40818188867E+02  0.74388430990E+02  0.41800000000E+01 0. -1.
         -5    1    1    2    0  502  0.50802242922E+02  0.26496159191E+02 -0.32604975322E+03  0.33107224033E+03  0.41800000000E+01 0. -1.
        -11    1    3    3    0    0 -0.94848440677E+02 -0.37150883844E+02 -0.61434217622E+02  0.11895620187E+03  0.00000000000E+00 0.  1.
         11    1    3    3    0    0 -0.14741413127E+02 -0.91961828702E+01 -0.99049126423E+02  0.10056146621E+03  0.00000000000E+00 0. -1.
</event>
<event>
 7    1  0.6610867E-006  0.1112401E+03  0.7561462E-02  0.1258290E+00
         -2   -1    0    0    0  501 -0.00000000000E+00  0.00000000000E+00  0.38524884054E+02  0.38524884054E+02  0.00000000000E+00 0.  1.
          2   -1    0    0  501    0  0.00000000000E+00 -0.00000000000E+00 -0.43990092744E+03  0.43990092744E+03  0.00000000000E+00 0. -1.
         23    2    1    2    0    0  0.50623557313E+01  0.41201179324E+02 -0.67543981081E+02  0.11951724581E+03  0.89437229627E+02 0.  0.
          5    1    1    2  502    0 -0.12983628799E+02 -0.81491565416E+02 -0.27425676117E+03  0.28643270292E+03  0.41800000000E+01 0.  1.
         -5    1    1    2    0  502  0.79212730682E+01  0.40290386092E+02 -0.59575301133E+02  0.72475862765E+02  0.41800000000E+01 0.  1.
        -11    1    3    3    0    0  0.36397589747E+02 -0.10714389255E+02 -0.27170940891E+02  0.46667362314E+02  0.00000000000E+00 0.  1.
         11    1    3    3    0    0 -0.31335234016E+02  0.51915568578E+02 -0.40373040190E+02  0.72849883499E+02  0.00000000000E+00 0. -1.
</event>
<event>
 7    1  0.6610867E-006  0.1132076E+03  0.7561462E-02  0.1254743E+00
          1   -1    0    0  501    0  0.00000000000E+00  0.00000000000E+00  0.42199586970E+03  0.42199586970E+03  0.00000000000E+00 0. -1.
         -1   -1    0    0    0  501 -0.00000000000E+00 -0.00000000000E+00 -0.41411671597E+02  0.41411671597E+02  0.00000000000E+00 0.  1.
         23    2    1    2    0    0 -0.15811719375E+02  0.68329958000E+02  0.12320042286E+03  0.16876697667E+03  0.91569397681E+02 0.  0.
          5    1    1    2  502    0 -0.94556806930E+01 -0.87902873093E+02  0.98093619418E+02  0.13212174524E+03  0.41800000000E+01 0.  1.
         -5    1    1    2    0  502  0.25267400068E+02  0.19572915094E+02  0.15929015582E+03  0.16251881938E+03  0.41800000000E+01 0.  1.
        -11    1    3    3    0    0 -0.37852863862E+02  0.44697984835E+01  0.14493956655E+02  0.40778587280E+02  0.00000000000E+00 0.  1.
         11    1    3    3    0    0  0.22041144487E+02  0.63860159516E+02  0.10870646621E+03  0.12798838939E+03  0.00000000000E+00 0. -1.
</event>
<event>
 7    1  0.6610867E-006  0.9776478E+02  0.7561462E-02  0.1285068E+00
          1   -1    0    0  501    0  0.00000000000E+00  0.00000000000E+00  0.95718127359E+02  0.95718127359E+02  0.00000000000E+00 0. -1.
         -1   -1    0    0    0  501 -0.00000000000E+00 -0.00000000000E+00 -0.16713950807E+03  0.16713950807E+03  0.00000000000E+00 0.  1.
         23    2    1    2    0    0  0.64484725133E+01  0.34732808108E+02 -0.88907140938E+02  0.13171304476E+03  0.90531186297E+02 0.  0.
          5    1    1    2  502    0  0.15778045836E+02 -0.67742544009E+02 -0.23815558236E+02  0.73638659774E+02  0.41800000000E+01 0.  1.
         -5    1    1    2    0  502 -0.22226518350E+02  0.33009735901E+02  0.41301318461E+02  0.57505930901E+02  0.41800000000E+01 0.  1.
        -11    1    3    3    0    0 -0.32251033328E+02 -0.22177803648E+01 -0.66033624390E+02  0.73522018814E+02  0.00000000000E+00 0.  1.
         11    1    3    3    0    0  0.38699505842E+02  0.36950588472E+02 -0.22873516548E+02  0.58191025941E+02  0.00000000000E+00 0. -1.
</event>
<event>
 7    1  0.6610867E-006  0.8731063E+02  0.7561462E-02  0.1309498E+00
          1   -1    0    0  501    0  0.00000000000E+00  0.00000000000E+00  0.53446672974E+02  0.53446672974E+02  0.00000000000E+00 0. -1.
         -1   -1    0    0    0  501 -0.00000000000E+00 -0.00000000000E+00 -0.23919240919E+03  0.23919240919E+03  0.00000000000E+00 0.  1.
         23    2    1    2    0    0 -0.16773425489E+02 -0.12138091900E+02 -0.49727065624E+02  0.10669039789E+03  0.92094401938E+02 0.  0.
          5    1    1    2  502    0 -0.30947576503E+02 -0.33255690725E+01  0.88132785100E+01  0.32618371804E+02  0.41800000000E+01 0. -1.
         -5    1    1    2    0  502  0.47721001992E+02  0.15463660973E+02 -0.14483194910E+03  0.15333031247E+03  0.41800000000E+01 0. -1.
        -11    1    3    3    0    0 -0.12504217763E+02  0.39311316954E+02 -0.12713986985E+02  0.43166892031E+02  0.00000000000E+00 0.  1.
         11    1    3    3    0    0 -0.42692077263E+01 -0.51449408854E+02 -0.37013078638E+02  0.63523505857E+02  0.00000000000E+00 0. -1.
</event>
<event>
 7    1  0.6610867E-006  0.1257998E+03  0.7561462E-02  0.1233825E+00
          2   -1    0    0  501    0  0.00000000000E+00  0.00000000000E+00  0.94359146957E+02  0.94359146957E+02  0.00000000000E+00 0. -1.
         -2   -1    0    0    0  501 -0.00000000000E+00 -0.00000000000E+00 -0.25270263125E+03  0.25270263125E+03  0.00000000000E+00 0.  1.
         23    2    1    2    0    0  0.29261264390E+02 -0.10126077254E+03 -0.11115201218E+03  0.17681772357E+03  0.88316317339E+02 0.  0.
          5    1    1    2  502    0  0.25857468883E+02 -0.19536023773E+01  0.21983555232E+02  0.34251632952E+02  0.41800000000E+01 0.  1.
         -5    1    1    2    0  502 -0.55118733273E+02  0.10321437492E+03 -0.69175027338E+02  0.13599242168E+03  0.41800000000E+01 0.  1.
        -11    1    3    3    0    0  0.33432491009E+02 -0.82225006595E+02 -0.12471372518E+03  0.15307578650E+03  0.00000000000E+00 0.  1.
         11    1    3    3    0    0 -0.41712266187E+01 -0.19035765943E+02  0.13561712997E+02  0.23741937072E+02  0.00000000000E+00 0. -1.
</event>
<event>
 7    1  0.6610867E-006  0.1109233E+03  0.7561462E-02  0.1258870E+00
         -1   -1    0    0    0  501 -0.00000000000E+00  0.00000000000E+00  0.92469590876E+02  0.92469590876E+02  0.00000000000E+00 0.  1.
          1   -1    0    0  501    0  0.00000000000E+00 -0.00000000000E+00 -0.24578280664E+03  0.24578280664E+03  0.00000000000E+00 0. -1.
         23    2    1    2    0    0  0.34276668301E+02  0.58251561939E+02  0.20764192041E+02  0.11348884339E+03  0.88771794197E+02 0.  0.
          5    1    1    2  502    0  0.32620867541E+02 -0.19253199883E+02 -0.45979653176E+01  0.38385158460E+02  0.41800000000E+01 0. -1.
         -5    1    1    2    0  502 -0.66897535842E+02 -0.38998362056E+02 -0.16947944249E+03  0.18637839567E+03  0.41800000000E+01 0. -1.
        -11    1    3    3    0    0 -0.25499353804E+02  0.46878382332E+01  0.20777967130E+02  0.33225243261E+02  0.00000000000E+00 0.  1.
         11    1    3    3    0    0  0.59776022105E+02  0.53563723706E+02 -0.13775088860E-01  0.80263600130E+02  0.00000000000E+00 0. -1.
</event>
<event>
 7    1  0.6610867E-006  0.1133073E+03  0.7561462E-02  0.1254565E+00
         -2   -1    0    0    0  501 -0.00000000000E+00  0.00000000000E+00  0.17040911662E+03  0.17040911662E+03  0.00000000000E+00 0.  1.
          2   -1    0    0  501    0  0.00000000000E+00 -0.00000000000E+00 -0.18572648232E+03  0.18572648232E+03  0.00000000000E+00 0. -1.
         23    2    1    2    0    0 -0.45492708510E+01 -0.69526772649E+02  0.11461727761E+03  0.16278292126E+03  0.92230641033E+02 0.  0.
          5    1    1    2  502    0 -0.15193849224E+02 -0.28165887320E+02 -0.37379350310E+01  0.32490226547E+02  0.41800000000E+01 0.  1.
         -5    1    1    2    0  502  0.19743120075E+02  0.97692659969E+02 -0.12619670829E+03  0.16086245113E+03  0.41800000000E+01 0.  1.
        -11    1    3    3    0    0 -0.34276951958E+02 -0.40141213640E+02  0.10833930671E+03  0.12051403174E+03  0.00000000000E+00 0.  1.
         11    1    3    3    0    0  0.29727681107E+02 -0.29385559009E+02  0.62779709021E+01  0.42268889516E+02  0.00000000000E+00 0. -1.
</event>
<event>
 7    1  0.6610867E-006  0.1134162E+03  0.7561462E-02  0.1254371E+00
          1   -1    0    0  501    0  0.00000000000E+00  0.00000000000E+00  0.52954100238E+03  0.52954100238E+03  0.00000000000E+00 0. -1.
         -1   -1    0    0    0  501 -0.00000000000E+00 -0.00000000000E+00 -0.37490116947E+02  0.37490116947E+02  0.00000000000E+00 0.  1.
         23    2    1    2    0    0  0.48559427039E+02  0.59252866574E+02  0.12133693582E+03  0.16835155411E+03  0.88037910159E+02 0.  0.
          5    1    1    2  502    0 -0.51907229836E+02  0.24335190450E+02  0.20632072042E+03  0.21417813632E+03  0.41800000000E+01 0.  1.
         -5    1    1    2    0  502  0.33478027971E+01 -0.83588057024E+02  0.16439322919E+03  0.18450142889E+03  0.41800000000E+01 0.  1.
        -11    1    3    3    0    0  0.12238979302E+02  0.44900908656E+02  0.64197482537E+01  0.46979755003E+02  0.00000000000E+00 0.  1.
         11    1    3    3    0    0  0.36320447737E+02  0.14351957918E+02  0.11491718757E+03  0.12137179911E+03  0.00000000000E+00 0. -1.
</event>
<event>
 7    1  0.6610867E-006  0.1680455E+03  0.7561462E-02  0.1179902E+00
          1   -1    0    0  501    0  0.00000000000E+00  0.00000000000E+00  0.65083211912E+02  0.65083211912E+02  0.00000000000E+00 0. -1.
         -1   -1    0    0    0  501 -0.00000000000E+00 -0.00000000000E+00 -0.62560952299E+03  0.62560952299E+03  0.00000000000E+00 0.  1.
         23    2    1    2    0    0 -0.12524699929E+03 -0.96007082472E+02 -0.37296331286E+03  0.41549854809E+03  0.92915230244E+02 0.  0.
          5    1    1    2  502    0  0.98062480316E+02  0.10998091806E+03 -0.89636383746E+02  0.17252305954E+03  0.41800000000E+01 0.  1.
         -5    1    1    2    0  502  0.27184518972E+02 -0.13973835584E+02 -0.97926614480E+02  0.10267112728E+03  0.41800000000E+01 0.  1.
        -11    1    3    3    0    0 -0.56434374885E+02 -0.44865634636E+02 -0.27958331160E+03  0.28872927106E+03  0.00000000000E+00 0.  1.
         11    1    3    3    0    0 -0.68812624404E+02 -0.51141447837E+02 -0.93380001251E+02  0.12676927703E+03  0.00000000000E+00 0. -1.
</event>
<event>
 7    1  0.6610867E-006  0.1482217E+03  0.7561462E-02  0.1202675E+00
          1   -1    0    0  501    0  0.00000000000E+00  0.00000000000E+00  0.10296933711E+04  0.10296933711E+04  0.00000000000E+00 0. -1.
         -1   -1    0    0    0  501 -0.00000000000E+00 -0.00000000000E+00 -0.76623017339E+02  0.76623017339E+02  0.00000000000E+00 0.  1.
         23    2    1    2    0    0 -0.28012000414E+02 -0.12204950768E+03  0.18343615015E+02  0.15602150892E+03  0.91244005502E+02 0.  0.
          5    1    1    2  502    0  0.50767268559E+02  0.79765201035E+02  0.32055333547E+03  0.33423302670E+03  0.41800000000E+01 0. -1.
         -5    1    1    2    0  502 -0.22755268144E+02  0.42284306648E+02  0.61417340331E+03  0.61606185286E+03  0.41800000000E+01 0.  1.
        -11    1    3    3    0    0 -0.40932327694E+02 -0.11803779890E+02  0.14339984080E+02  0.44949080230E+02  0.00000000000E+00 0. -1.
         11    1    3    3    0    0  0.12920327280E+02 -0.11024572779E+03  0.40036309349E+01  0.11107242869E+03  0.00000000000E+00 0.  1.
</event>
<event>
 7    1  0.6610867E-006  0.1205530E+03  0.7561462E-02  0.1242188E+00
         -1   -1    0    0    0  501 -0.00000000000E+00  0.00000000000E+00  0.26788851641E+03  0.26788851641E+03  0.00000000000E+00 0.  1.
          1   -1    0    0  501    0  0.00000000000E+00 -0.00000000000E+00 -0.74802671850E+02  0.74802671850E+02  0.00000000000E+00 0. -1.
         23    2    1    2    0    0 -0.74970565646E+01  0.87259059230E+02  0.11888270833E+03  0.17291543756E+03  0.89979447280E+02 0.  0.
          5    1    1    2  502    0 -0.40912231515E+02 -0.88410224815E+02  0.71842085370E+02  0.12111538370E+03  0.41800000000E+01 0.  1.
         -5    1    1    2    0  502  0.48409288079E+02  0.11511655852E+01  0.23610508592E+01  0.48660366991E+02  0.41800000000E+01 0.  1.
        -11    1    3    3    0    0 -0.21894954775E+02  0.40104497334E+02  0.11466288839E+03  0.12343151026E+03  0.00000000000E+00 0.  1.
         11    1    3    3    0    0  0.14397898210E+02  0.47154561896E+02  0.42198199325E+01  0.49483927297E+02  0.00000000000E+00 0. -1.
</event>
<event>
 7    1  0.6610867E-006  0.2051187E+03  0.7561462E-02  0.1145491E+00
          2   -1    0    0  501    0  0.00000000000E+00  0.00000000000E+00  0.22898734506E+03  0.22898734506E+03  0.00000000000E+00 0. -1.
         -2   -1    0    0    0  501 -0.00000000000E+00 -0.00000000000E+00 -0.37138784139E+03  0.37138784139E+03  0.00000000000E+00 0.  1.
         23    2    1    2    0    0 -0.35928502391E+02  0.18064350693E+03 -0.27327402088E+03  0.34211520179E+03  0.91875932280E+02 0.  0.
          5    1    1    2  502    0  0.25042606282E+02 -0.19890158047E+03  0.11292798890E+03  0.23012860301E+03  0.41800000000E+01 0.  1.
         -5    1    1    2    0  502  0.10885896109E+02  0.18258073546E+02  0.17945535651E+02  0.28131381649E+02  0.41800000000E+01 0.  1.
        -11    1    3    3    0    0 -0.17674738671E+02  0.21326570348E+02 -0.10932996790E+03  0.11278413395E+03  0.00000000000E+00 0.  1.
         11    1    3    3    0    0 -0.18253763720E+02  0.15931693658E+03 -0.16394405297E+03  0.22933106784E+03  0.00000000000E+00 0. -1.
</event>
<event>
 7    1  0.6610867E-006  0.1404306E+03  0.7561462E-02  0.1212751E+00
         -1   -1    0    0    0  501 -0.00000000000E+00  0.00000000000E+00  0.36676502501E+02  0.36676502501E+02  0.00000000000E+00 0.  1.
          1   -1    0    0  501    0  0.00000000000E+00 -0.00000000000E+00 -0.55718819632E+03  0.55718819632E+03  0.00000000000E+00 0. -1.
         23    2    1    2    0    0  0.40260208625E+02  0.79072130133E+02 -0.18587226070E+03  0.22575612398E+03  0.92433998370E+02 0.  0.
          5    1    1    2  502    0 -0.52177536416E+02 -0.10882405113E+03 -0.27276587517E+03  0.29830163337E+03  0.41800000000E+01 0.  1.
         -5    1    1    2    0  502  0.11917327791E+02  0.29751920998E+02 -0.61873557942E+02  0.69806941469E+02  0.41800000000E+01 0.  1.
        -11    1    3    3    0    0  0.32651988247E+02  0.10016794207E+03 -0.15926856409E+03  0.19096136903E+03  0.00000000000E+00 0. -1.
         11    1    3    3    0    0  0.76082203784E+01 -0.21095811938E+02 -0.26603696616E+02  0.34794754953E+02  0.00000000000E+00 0.  1.
</event>
<event>
 7    1  0.6610867E-006  0.1270972E+03  0.7561462E-02  0.1231828E+00
         -2   -1    0    0    0  501 -0.00000000000E+00  0.00000000000E+00  0.26678881087E+02  0.26678881087E+02  0.00000000000E+00 0.  1.
          2   -1    0    0  501    0  0.00000000000E+00 -0.00000000000E+00 -0.73282923702E+03  0.73282923702E+03  0.00000000000E+00 0. -1.
         23    2    1    2    0    0 -0.29651373268E+02  0.73097978958E+02 -0.21550202194E+03  0.24705661464E+03  0.91505906440E+02 0.  0.
          5    1    1    2  502    0 -0.18111456804E+02  0.29350221192E+02 -0.11066120599E+03  0.11598635809E+03  0.41800000000E+01 0.  1.
         -5    1    1    2    0  502  0.47762830072E+02 -0.10244820015E+03 -0.37998712800E+03  0.39646514537E+03  0.41800000000E+01 0.  1.
        -11    1    3    3    0    0 -0.48422491358E+02  0.24549334145E+02 -0.16812284870E+03  0.17667116271E+03  0.00000000000E+00 0. -1.
         11    1    3    3    0    0  0.18771118090E+02  0.48548644813E+02 -0.47379173241E+02  0.70385451938E+02  0.00000000000E+00 0.  1.
</event>
<event>
 7    1  0.6610867E-006  0.1040018E+03  0.7561462E-02  0.1272099E+00
         -1   -1    0    0    0  501 -0.00000000000E+00  0.00000000000E+00  0.24741021025E+03  0.24741021025E+03  0.00000000000E+00 0.  1.
          1   -1    0    0  501    0  0.00000000000E+00 -0.00000000000E+00 -0.58224469116E+02  0.58224469116E+02  0.00000000000E+00 0. -1.
         23    2    1    2    0    0 -0.27384403617E+02  0.12016084719E+02  0.13733285899E+03  0.16698074741E+03  0.90155221665E+02 0.  0.
          5    1    1    2  502    0  0.11809169585E+02 -0.68101325432E+02  0.19542488834E+02  0.71948789300E+02  0.41800000000E+01 0. -1.
         -5    1    1    2    0  502  0.15575234032E+02  0.56085240713E+02  0.32310393310E+02  0.66705142657E+02  0.41800000000E+01 0. -1.
        -11    1    3    3    0    0  0.22822546395E+01  0.39735271578E+02  0.23724300444E+02  0.46335115465E+02  0.00000000000E+00 0. -1.
         11    1    3    3    0    0 -0.29666658257E+02 -0.27719186859E+02  0.11360855855E+03  0.12064563195E+03  0.00000000000E+00 0.  1.
</event>
<event>
 6    1  0.1080048E-005  0.7738778E+02  0.7561462E-02  0.1336632E+00
          2   -1    0    0  501    0  0.00000000000E+00  0.00000000000E+00  0.28151560439E+03  0.28151560439E+03  0.00000000000E+00 0. -1.
         -2   -1    0    0    0  501 -0.00000000000E+00 -0.00000000000E+00 -0.82596240948E+02  0.82596240948E+02  0.00000000000E+00 0.  1.
          5    1    1    2  502    0  0.92434398044E+00 -0.51812119266E+01  0.21339529835E+03  0.21350111271E+03  0.41800000000E+01 0. -1.
         -5    1    1    2    0  502  0.69887580723E+02  0.22960427140E+02 -0.12307896035E+02  0.74702154310E+02  0.41800000000E+01 0.  1.
        -11    1    1    2    0    0 -0.35316974782E+02 -0.16167737360E+02 -0.86433333906E+01  0.39791854081E+02  0.00000000000E+00 0.  1.
         11    1    1    2    0    0 -0.35494949922E+02 -0.16114778531E+01  0.64752945183E+01  0.36116724241E+02  0.00000000000E+00 0. -1.
</event>
<event>
 7    1  0.6610867E-006  0.3355263E+03  0.7561462E-02  0.1068718E+00
          2   -1    0    0  501    0  0.00000000000E+00  0.00000000000E+00  0.39000540577E+04  0.39000540577E+04  0.00000000000E+00 0.  1.
         -2   -1    0    0    0  501 -0.00000000000E+00 -0.00000000000E+00 -0.31977225962E+02  0.31977225962E+02  0.00000000000E+00 0. -1.
         23    2    1    2    0    0  0.32542716143E+03  0.43311487589E+02  0.15232619538E+04  0.15610434959E+04  0.93547282527E+02 0.  0.
          5    1    1    2  502    0 -0.25561986745E+03 -0.51734007542E+02  0.14397997685E+04  0.14632357192E+04  0.41800000000E+01 0. -1.
         -5    1    1    2    0  502 -0.69807293974E+02  0.84225199528E+01  0.90501510946E+03  0.90775206851E+03  0.41800000000E+01 0. -1.
        -11    1    3    3    0    0  0.20800351204E+03 -0.15251181003E+02  0.10065878154E+04  0.10279674555E+04  0.00000000000E+00 0. -1.
         11    1    3    3    0    0  0.11742364938E+03  0.58562668592E+02  0.51667413840E+03  0.53307604043E+03  0.00000000000E+00 0.  1.
</event>
<event>
 7    1  0.6610867E-006  0.1045539E+03  0.7561462E-02  0.1271001E+00
         -2   -1    0    0    0  501 -0.00000000000E+00  0.00000000000E+00  0.10507815711E+02  0.10507815711E+02  0.00000000000E+00 0.  1.
          2   -1    0    0  501    0  0.00000000000E+00 -0.00000000000E+00 -0.12881524602E+04  0.12881524602E+04  0.00000000000E+00 0. -1.
         23    2    1    2    0    0  0.91975249493E+01 -0.36462691082E+02 -0.42350299222E+03  0.43458862410E+03  0.89990918834E+02 0.  0.
          5    1    1    2  502    0 -0.54236333707E+02  0.42412435909E+02 -0.69804407478E+03  0.70144379486E+03  0.41800000000E+01 0.  1.
         -5    1    1    2    0  502  0.45038808758E+02 -0.59497448271E+01 -0.15609757752E+03  0.16262785698E+03  0.41800000000E+01 0.  1.
        -11    1    3    3    0    0 -0.36115569359E+02  0.36456268192E+00 -0.21715802942E+03  0.22014103888E+03  0.00000000000E+00 0. -1.
         11    1    3    3    0    0  0.45313094309E+02 -0.36827253764E+02 -0.20634496279E+03  0.21444758522E+03  0.00000000000E+00 0.  1.
</event>
<event>
 7    1  0.6610867E-006  0.5862855E+02  0.7561462E-02  0.1403679E+00
         -1   -1    0    0    0  501 -0.00000000000E+00  0.00000000000E+00  0.87534339304E+02  0.87534339304E+02  0.00000000000E+00 0.  1.
          1   -1    0    0  501    0  0.00000000000E+00 -0.00000000000E+00 -0.83154940172E+03  0.83154940172E+03  0.00000000000E+00 0. -1.
         23    2    1    2    0    0 -0.12426396297E+02 -0.67402210625E+01  0.58530402535E+02  0.10811159124E+03  0.89791214683E+02 0.  0.
          5    1    1    2  502    0  0.86183469302E-01  0.19204819589E+02 -0.78676621435E+03  0.78701167778E+03  0.41800000000E+01 0. -1.
         -5    1    1    2    0  502  0.12340212827E+02 -0.12464598526E+02 -0.15779250597E+02  0.23960472000E+02  0.41800000000E+01 0.  1.
        -11    1    3    3    0    0 -0.43365339075E+02  0.98429894146E+01  0.59132436320E+01  0.44859820820E+02  0.00000000000E+00 0.  1.
         11    1    3    3    0    0  0.30938942779E+02 -0.16583210477E+02  0.52617158903E+02  0.63251770418E+02  0.00000000000E+00 0. -1.
</event>
<event>
 7    1  0.6610867E-006  0.1508994E+03  0.7561462E-02  0.1199372E+00
         -1   -1    0    0    0  501 -0.00000000000E+00  0.00000000000E+00  0.16986519126E+02  0.16986519126E+02  0.00000000000E+00 0.  1.
          1   -1    0    0  501    0  0.00000000000E+00 -0.00000000000E+00 -0.21225078747E+04  0.21225078747E+04  0.00000000000E+00 0. -1.
         23    2    1    2    0    0 -0.83809014781E+02  0.71598421468E+02 -0.38317444812E+03  0.40909670594E+03  0.91581505786E+02 0.  0.
          5    1    1    2  502    0  0.15404421461E+02  0.32326725212E+02 -0.22340708076E+03  0.22629739171E+03  0.41800000000E+01 0. -1.
         -5    1    1    2    0  502  0.68404593320E+02 -0.10392514668E+03 -0.14989398267E+04  0.15041002962E+04  0.41800000000E+01 0. -1.
        -11    1    3    3    0    0 -0.27286476995E+02  0.79623804526E+02 -0.26112544777E+03  0.27435561147E+03  0.00000000000E+00 0. -1.
         11    1    3    3    0    0 -0.56522537787E+02 -0.80253830582E+01 -0.12204900035E+03  0.13474109447E+03  0.00000000000E+00 0.  1.
</event>
<event>
 7    1  0.6610867E-006  0.6010652E+02  0.7561462E-02  0.1397385E+00
          1   -1    0    0  501    0  0.00000000000E+00  0.00000000000E+00  0.89501894088E+02  0.89501894088E+02  0.00000000000E+00 0. -1.
         -1   -1    0    0    0  501 -0.00000000000E+00 -0.00000000000E+00 -0.14105307107E+03  0.14105307107E+03  0.00000000000E+00 0.  1.
         23    2    1    2    0    0 -0.11578488006E+02  0.79277530775E+01 -0.71294503792E+02  0.11789097359E+03  0.92835686723E+02 0.  0.
          5    1    1    2  502    0  0.78822509221E+01 -0.23535364104E+02  0.62192992644E+02  0.67093099325E+02  0.41800000000E+01 0. -1.
         -5    1    1    2    0  502  0.36962370841E+01  0.15607611026E+02 -0.42449665838E+02  0.45570892248E+02  0.41800000000E+01 0.  1.
        -11    1    3    3    0    0 -0.19886668490E+02 -0.32005082584E+02 -0.23108581473E+01  0.37751092173E+02  0.00000000000E+00 0.  1.
         11    1    3    3    0    0  0.83081804841E+01  0.39932835661E+02 -0.68983645644E+02  0.80139881416E+02  0.00000000000E+00 0. -1.
</event>
<event>
 7    1  0.6610867E-006  0.9550343E+02  0.7561462E-02  0.1290046E+00
         -3   -1    0    0    0  501 -0.00000000000E+00  0.00000000000E+00  0.19660221942E+02  0.19660221942E+02  0.00000000000E+00 0.  1.
          3   -1    0    0  501    0  0.00000000000E+00 -0.00000000000E+00 -0.65602979965E+03  0.65602979965E+03  0.00000000000E+00 0. -1.
         23    2    1    2    0    0 -0.13571639783E+02  0.32372552662E+02 -0.25892568683E+03  0.27651278240E+03  0.90468977861E+02 0.  0.
          5    1    1    2  502    0  0.48151141697E+02  0.57092317535E+01 -0.31229243793E+03  0.31606196696E+03  0.41800000000E+01 0.  1.
         -5    1    1    2    0  502 -0.34579501914E+02 -0.38081784416E+02 -0.65151452950E+02  0.83115272233E+02  0.41800000000E+01 0.  1.
        -11    1    3    3    0    0  0.35336681687E+02  0.86894638187E+01 -0.15526638979E+03  0.15947363309E+03  0.00000000000E+00 0.  1.
         11    1    3    3    0    0 -0.48908321469E+02  0.23683088844E+02 -0.10365929705E+03  0.11703914930E+03  0.00000000000E+00 0. -1.
</event>
<event>
 7    1  0.6610867E-006  0.1190283E+03  0.7561462E-02  0.1244709E+00
          1   -1    0    0  501    0  0.00000000000E+00  0.00000000000E+00  0.33326346027E+03  0.33326346027E+03  0.00000000000E+00 0. -1.
         -1   -1    0    0    0  501 -0.00000000000E+00 -0.00000000000E+00 -0.57015472650E+02  0.57015472650E+02  0.00000000000E+00 0.  1.
         23    2    1    2    0    0  0.27581130862E+02  0.62032583401E+02  0.51638838069E+02  0.12436953349E+03  0.90512159850E+02 0.  0.
          5    1    1    2  502    0 -0.72323940734E+01  0.38066372407E+02  0.77754867219E+02  0.86974984958E+02  0.41800000000E+01 0. -1.
         -5    1    1    2    0  502 -0.20348736789E+02 -0.10009895581E+03  0.14685428233E+03  0.17893441447E+03  0.41800000000E+01 0. -1.
        -11    1    3    3    0    0 -0.22014334548E+02  0.32103005053E+02  0.53796775052E+02  0.66402762480E+02  0.00000000000E+00 0. -1.
         11    1    3    3    0    0  0.49595465410E+02  0.29929578349E+02 -0.21579369831E+01  0.57966771011E+02  0.00000000000E+00 0.  1.
</event>
<event>
 7    1  0.6610867E-006  0.1414591E+03  0.7561462E-02  0.1211379E+00
          1   -1    0    0  501    0  0.00000000000E+00  0.00000000000E+00  0.15318184123E+04  0.15318184123E+04  0.00000000000E+00 0. -1.
         -1   -1    0    0    0  501 -0.00000000000E+00 -0.00000000000E+00 -0.19705460518E+02  0.19705460518E+02  0.00000000000E+00 0.  1.
         23    2    1    2    0    0  0.10056481563E+03  0.65348132047E+02  0.42148109893E+03  0.44721035637E+03  0.89258756362E+02 0.  0.
          5    1    1    2  502    0 -0.89114113203E+02 -0.94637332402E+02  0.99713408377E+03  0.10055801327E+04  0.41800000000E+01 0.  1.
         -5    1    1    2    0  502 -0.11450702432E+02  0.29289200355E+02  0.93497769141E+02  0.98733383807E+02  0.41800000000E+01 0.  1.
        -11    1    3    3    0    0  0.43072657325E+02  0.38134280592E+02  0.72857508894E+02  0.92831534338E+02  0.00000000000E+00 0.  1.
         11    1    3    3    0    0  0.57492158310E+02  0.27213851455E+02  0.34862359003E+03  0.35437882203E+03  0.00000000000E+00 0. -1.
</event>
<event>
 7    1  0.6610867E-006  0.1527018E+03  0.7561462E-02  0.1197192E+00
         -1   -1    0    0    0  501 -0.00000000000E+00  0.00000000000E+00  0.37932317031E+02  0.37932317031E+02  0.00000000000E+00 0.  1.
          1   -1    0    0  501    0  0.00000000000E+00 -0.00000000000E+00 -0.85475172691E+03  0.85475172691E+03  0.00000000000E+00 0. -1.
         23    2    1    2    0    0 -0.74283406543E+02 -0.10348496876E+03 -0.23296871861E+03  0.28214290839E+03  0.95409819507E+02 0.  0.
          5    1    1    2  502    0 -0.26642302756E+02 -0.65595296469E+01 -0.12273826226E+03  0.12583716918E+03  0.41800000000E+01 0. -1.
         -5    1    1    2    0  502  0.10092570930E+03  0.11004449840E+03 -0.46111242901E+03  0.48470396637E+03  0.41800000000E+01 0. -1.
        -11    1    3    3    0    0 -0.31401167357E+02 -0.56656904268E+02 -0.33733274755E+02  0.73034046433E+02  0.00000000000E+00 0.  1.
         11    1    3    3    0    0 -0.42882239185E+02 -0.46828064488E+02 -0.19923544386E+03  0.20910886196E+03  0.00000000000E+00 0. -1.
</event>
<event>
 7    1  0.6610867E-006  0.1090653E+03  0.7561462E-02  0.1262311E+00
          2   -1    0    0  501    0  0.00000000000E+00  0.00000000000E+00  0.50306964825E+03  0.50306964825E+03  0.00000000000E+00 0.  1.
         -2   -1    0    0    0  501 -0.00000000000E+00 -0.00000000000E+00 -0.30361868653E+02  0.30361868653E+02  0.00000000000E+00 0. -1.
         23    2    1    2    0    0 -0.48445402335E+02  0.65097291414E+01  0.13053642868E+03  0.16582997056E+03  0.89835885605E+02 0.  0.
          5    1    1    2  502    0 -0.21395721512E+02 -0.35527830716E+02  0.21955162008E+03  0.22347346584E+03  0.41800000000E+01 0.  1.
         -5    1    1    2    0  502  0.69841123847E+02  0.29018101574E+02  0.12261973084E+03  0.14412808050E+03  0.41800000000E+01 0.  1.
        -11    1    3    3    0    0  0.21409949454E+02  0.20294609140E+02  0.52281019694E+02  0.60029676961E+02  0.00000000000E+00 0.  1.
         11    1    3    3    0    0 -0.69855351788E+02 -0.13784879999E+02  0.78255408986E+02  0.10580029360E+03  0.00000000000E+00 0. -1.
</event>
<event>
 7    1  0.6610867E-006  0.1107472E+03  0.7561462E-02  0.1259192E+00
         -1   -1    0    0    0  501 -0.00000000000E+00  0.00000000000E+00  0.23725508863E+02  0.23725508863E+02  0.00000000000E+00 0.  1.
          1   -1    0    0  501    0  0.00000000000E+00 -0.00000000000E+00 -0.59888274748E+03  0.59888274748E+03  0.00000000000E+00 0. -1.
         23    2    1    2    0    0  0.41274846282E+02  0.29820367576E+02 -0.23610432534E+03  0.25763785158E+03  0.89661267384E+02 0.  0.
          5    1    1    2  502    0 -0.11171675318E+02  0.41757765232E+02 -0.52916659133E+02  0.68455551275E+02  0.41800000000E+01 0.  1.
         -5    1    1    2    0  502 -0.30103170964E+02 -0.71578132808E+02 -0.28613625415E+03  0.29651485349E+03  0.41800000000E+01 0.  1.
        -11    1    3    3    0    0  0.67927039485E+02  0.14148157930E+02 -0.18859650339E+03  0.20095495554E+03  0.00000000000E+00 0.  1.
         11    1    3    3    0    0 -0.26652193203E+02  0.15672209647E+02 -0.47507821947E+02  0.56682896044E+02  0.00000000000E+00 0. -1.
</event>
<event>
 7    1  0.6610867E-006  0.1335744E+03  0.7561462E-02  0.1222246E+00
         -4   -1    0    0    0  501 -0.00000000000E+00  0.00000000000E+00  0.11935452815E+03  0.11935452815E+03  0.00000000000E+00 0.  1.
          4   -1    0    0  501    0  0.00000000000E+00 -0.00000000000E+00 -0.22146031112E+03  0.22146031112E+03  0.00000000000E+00 0. -1.
         23    2    1    2    0    0 -0.10487872486E+03 -0.44328692817E+02 -0.91832181345E+01  0.14783063878E+03  0.93834888671E+02 0.  0.
          5    1    1    2  502    0  0.50646238915E+02 -0.17964320296E+01 -0.10864340963E+03  0.11995470620E+03  0.41800000000E+01 0.  1.
         -5    1    1    2    0  502  0.54232485948E+02  0.46125124846E+02  0.15720844790E+02  0.73029494282E+02  0.41800000000E+01 0.  1.
        -11    1    3    3    0    0 -0.61964473367E+02  0.22192572583E+02  0.94796645196E+01  0.66497896786E+02  0.00000000000E+00 0. -1.
         11    1    3    3    0    0 -0.42914251496E+02 -0.66521265400E+02 -0.18662882654E+02  0.81332741997E+02  0.00000000000E+00 0.  1.
</event>
<event>
 7    1  0.6610867E-006  0.8502077E+02  0.7561462E-02  0.1315378E+00
         -2   -1    0    0    0  501 -0.00000000000E+00  0.00000000000E+00  0.23132630751E+02  0.23132630751E+02  0.00000000000E+00 0.  1.
          2   -1    0    0  501    0  0.00000000000E+00 -0.00000000000E+00 -0.14391865724E+04  0.14391865724E+04  0.00000000000E+00 0. -1.
         23    2    1    2    0    0 -0.39268252086E+02 -0.20707882107E+02 -0.10968127694E+03  0.14922048254E+03  0.90917313504E+02 0.  0.
          5    1    1    2  502    0 -0.32366590552E+02 -0.13351490778E+02 -0.15370956139E+03  0.15770212476E+03  0.41800000000E+01 0. -1.
         -5    1    1    2    0  502  0.71634842638E+02  0.34059372885E+02 -0.11526631033E+04  0.11553965958E+04  0.41800000000E+01 0. -1.
        -11    1    3    3    0    0 -0.32579220778E+02  0.10419088685E+01  0.44003716650E+01  0.32891556233E+02  0.00000000000E+00 0.  1.
         11    1    3    3    0    0 -0.66890313077E+01 -0.21749790975E+02 -0.11408164860E+03  0.11632892631E+03  0.00000000000E+00 0. -1.
</event>
<event>
 7    1  0.6610867E-006  0.2064098E+03  0.7561462E-02  0.1144441E+00
         -4   -1    0    0    0  501 -0.00000000000E+00  0.00000000000E+00  0.14349554897E+03  0.14349554897E+03  0.00000000000E+00 0.  1.
          4   -1    0    0  501    0  0.00000000000E+00 -0.00000000000E+00 -0.36890013907E+03  0.36890013907E+03  0.00000000000E+00 0. -1.
         23    2    1    2    0    0 -0.17465880463E+03 -0.76606132036E+02 -0.42337596586E+02  0.21993418450E+03  0.10101671113E+03 0.  0.
          5    1    1    2  502    0  0.17925929668E+03  0.49187628637E+02 -0.11451337213E+03  0.21836690009E+03  0.41800000000E+01 0.  1.
         -5    1    1    2    0  502 -0.46004920516E+01  0.27418503399E+02 -0.68553621391E+02  0.74094603458E+02  0.41800000000E+01 0.  1.
        -11    1    3    3    0    0 -0.10956578422E+03 -0.17705678029E+02 -0.65852894722E+02  0.12905330623E+03  0.00000000000E+00 0.  1.
         11    1    3    3    0    0 -0.65093020407E+02 -0.58900454007E+02  0.23515298135E+02  0.90880878266E+02  0.00000000000E+00 0. -1.
</event>
<event>
 7    1  0.6610867E-006  0.2507314E+03  0.7561462E-02  0.1112843E+00
         -2   -1    0    0    0  501 -0.00000000000E+00  0.00000000000E+00  0.69362264666E+02  0.69362264666E+02  0.00000000000E+00 0. -1.
          2   -1    0    0  501    0  0.00000000000E+00 -0.00000000000E+00 -0.10264933434E+04  0.10264933434E+04  0.00000000000E+00 0.  1.
         23    2    1    2    0    0  0.17268179124E+03  0.16126717301E+03 -0.34594001937E+03  0.42875190577E+03  0.91255671525E+02 0.  0.
          5    1    1    2  502    0 -0.55400598772E+02 -0.13140383636E+03 -0.38416356377E+03  0.40979911015E+03  0.41800000000E+01 0.  1.
         -5    1    1    2    0  502 -0.11728119246E+03 -0.29863336652E+02 -0.22702749557E+03  0.25730459212E+03  0.41800000000E+01 0.  1.
        -11    1    3    3    0    0  0.78546906288E+02  0.55896892439E+02 -0.21706703941E+03  0.23751248108E+03  0.00000000000E+00 0.  1.
         11    1    3    3    0    0  0.94134884948E+02  0.10537028057E+03 -0.12887297996E+03  0.19123942469E+03  0.00000000000E+00 0. -1.
</event>
<event>
 7    1  0.6610867E-006  0.7550576E+02  0.7561462E-02  0.1342312E+00
         -1   -1    0    0    0  501 -0.00000000000E+00  0.00000000000E+00  0.18728122901E+03  0.18728122901E+03  0.00000000000E+00 0.  1.
          1   -1    0    0  501    0  0.00000000000E+00 -0.00000000000E+00 -0.84194002477E+03  0.84194002477E+03  0.00000000000E+00 0. -1.
         23    2    1    2    0    0 -0.17252296734E+02  0.55416940825E+02  0.16124878661E+03  0.19408775147E+03  0.91105460951E+02 0.  0.
          5    1    1    2  502    0  0.28105173964E+02 -0.40440817334E+02 -0.81463102508E+03  0.81612899712E+03  0.41800000000E+01 0. -1.
         -5    1    1    2    0  502 -0.10852877229E+02 -0.14976123492E+02 -0.12765572888E+01  0.19004505190E+02  0.41800000000E+01 0.  1.
        -11    1    3    3    0    0 -0.22400559691E+02 -0.41959339917E+01  0.11819781793E+03  0.12037489398E+03  0.00000000000E+00 0. -1.
         11    1    3    3    0    0  0.51482629571E+01  0.59612874817E+02  0.43050968673E+02  0.73712857488E+02  0.00000000000E+00 0.  1.
</event>
<event>
 7    1  0.6610867E-006  0.1023743E+03  0.7561462E-02  0.1275381E+00
          1   -1    0    0  501    0  0.00000000000E+00  0.00000000000E+00  0.10727364423E+04  0.10727364423E+04  0.00000000000E+00 0. -1.
         -1   -1    0    0    0  501 -0.00000000000E+00 -0.00000000000E+00 -0.17486174430E+02  0.17486174430E+02  0.00000000000E+00 0.  1.
         23    2    1    2    0    0 -0.80846218783E+02  0.32522437890E+01  0.38987279085E+03  0.40837207666E+03  0.90665714396E+02 0.  0.
          5    1    1    2  502    0  0.74029395113E+02  0.22406601095E+01  0.15978449833E+03  0.17616449757E+03  0.41800000000E+01 0.  1.
         -5    1    1    2    0  502  0.68168236701E+01 -0.54929038985E+01  0.50559297866E+03  0.50568604247E+03  0.41800000000E+01 0.  1.
        -11    1    3    3    0    0 -0.39042640948E+02 -0.43297423734E+02  0.20926248601E+03  0.21723209423E+03  0.00000000000E+00 0.  1.
         11    1    3    3    0    0 -0.41803577835E+02  0.46549667523E+02  0.18061030484E+03  0.19113998242E+03  0.00000000000E+00 0. -1.
</event>
<event>
 7    1  0.6610867E-006  0.8041556E+02  0.7561462E-02  0.1327876E+00
         -4   -1    0    0    0  501 -0.00000000000E+00  0.00000000000E+00  0.69671354972E+02  0.69671354972E+02  0.00000000000E+00 0. -1.
          4   -1    0    0  501    0  0.00000000000E+00 -0.00000000000E+00 -0.19213771472E+03  0.19213771472E+03  0.00000000000E+00 0.  1.
         23    2    1    2    0    0  0.21853405411E+02  0.20829411358E+02 -0.23638486541E+02  0.99553805293E+02  0.91873534801E+02 0.  0.
          5    1    1    2  502    0 -0.71986046505E+02 -0.75135206418E+01 -0.77189209367E+02  0.10589660205E+03  0.41800000000E+01 0.  1.
         -5    1    1    2    0  502  0.50132641095E+02 -0.13315890716E+02 -0.21638663843E+02  0.56358662347E+02  0.41800000000E+01 0.  1.
        -11    1    3    3    0    0  0.21960061452E+02  0.78597496931E+01 -0.58167272904E+02  0.62669383285E+02  0.00000000000E+00 0.  1.
         11    1    3    3    0    0 -0.10665604121E+00  0.12969661665E+02  0.34528786363E+02  0.36884422009E+02  0.00000000000E+00 0. -1.
</event>
<event>
 7    1  0.6610867E-006  0.1223695E+03  0.7561462E-02  0.1239239E+00
          2   -1    0    0  501    0  0.00000000000E+00  0.00000000000E+00  0.28225588913E+03  0.28225588913E+03  0.00000000000E+00 0. -1.
         -2   -1    0    0    0  501 -0.00000000000E+00 -0.00000000000E+00 -0.90308206210E+02  0.90308206210E+02  0.00000000000E+00 0.  1.
         23    2    1    2    0    0  0.81010835848E+02 -0.35022746503E+02  0.12235028333E+02  0.13648335336E+03  0.10338598323E+03 0.  0.
          5    1    1    2  502    0  0.49902493221E+01 -0.15881504653E+02 -0.11240064994E+02  0.20516730719E+02  0.41800000000E+01 0.  1.
         -5    1    1    2    0  502 -0.86001085170E+02  0.50904251157E+02  0.19095271958E+03  0.21556401126E+03  0.41800000000E+01 0.  1.
        -11    1    3    3    0    0  0.92025410035E+02 -0.12572983967E+01  0.29962400548E+02  0.96788441139E+02  0.00000000000E+00 0.  1.
         11    1    3    3    0    0 -0.11014574188E+02 -0.33765448107E+02 -0.17727372216E+02  0.39694912219E+02  0.00000000000E+00 0. -1.
</event>
<event>
 7    1  0.6610867E-006  0.1206743E+03  0.7561462E-02  0.1241989E+00
          1   -1    0    0  501    0  0.00000000000E+00  0.00000000000E+00  0.16886426129E+03  0.16886426129E+03  0.00000000000E+00 0. -1.
         -1   -1    0    0    0  501 -0.00000000000E+00 -0.00000000000E+00 -0.16678299871E+03  0.16678299871E+03  0.00000000000E+00 0.  1.
         23    2    1    2    0    0 -0.63109717679E+02  0.90193915508E+02 -0.59390819279E+02  0.15454782112E+03  0.90774339648E+02 0.  0.
          5    1    1    2  502    0  0.25252079009E+02 -0.67570855365E+02 -0.30952411318E+02  0.78606692816E+02  0.41800000000E+01 0. -1.
         -5    1    1    2    0  502  0.37857638670E+02 -0.22623060143E+02  0.92424493183E+02  0.10249274607E+03  0.41800000000E+01 0.  1.
        -11    1    3    3    0    0  0.68510511163E+01  0.35046075378E+02  0.14762400749E+02  0.38640558700E+02  0.00000000000E+00 0. -1.
         11    1    3    3    0    0 -0.69960768795E+02  0.55147840130E+02 -0.74153220028E+02  0.11590726242E+03  0.00000000000E+00 0.  1.
</event>
<event>
 7    1  0.6610867E-006  0.1397322E+03  0.7561462E-02  0.1213690E+00
         -1   -1    0    0    0  501 -0.00000000000E+00  0.00000000000E+00  0.40140363984E+03  0.40140363984E+03  0.00000000000E+00 0.  1.
          1   -1    0    0  501    0  0.00000000000E+00 -0.00000000000E+00 -0.72369419570E+02  0.72369419570E+02  0.00000000000E+00 0. -1.
         23    2    1    2    0    0 -0.97884853007E+02 -0.37024320763E+02  0.26491781409E+03  0.29853306832E+03  0.89377289507E+02 0.  0.
          5    1    1    2  502    0  0.99214871653E+02  0.61783391926E+02  0.12242361313E+02  0.11759305288E+03  0.41800000000E+01 0.  1.
         -5    1    1    2    0  502 -0.13300186466E+01 -0.24759071164E+02  0.51874044869E+02  0.57646938215E+02  0.41800000000E+01 0.  1.
        -11    1    3    3    0    0 -0.36908153854E+02 -0.61447326974E+02  0.14736107479E+03  0.16386968047E+03  0.00000000000E+00 0. -1.
         11    1    3    3    0    0 -0.60976699153E+02  0.24423006211E+02  0.11755673930E+03  0.13466338785E+03  0.00000000000E+00 0.  1.
</event>
<event>
 7    1  0.6610867E-006  0.9604007E+02  0.7561462E-02  0.1288851E+00
         -1   -1    0    0    0  501 -0.00000000000E+00  0.00000000000E+00  0.19996534067E+03  0.19996534067E+03  0.00000000000E+00 0.  1.
          1   -1    0    0  501    0  0.00000000000E+00 -0.00000000000E+00 -0.61503117305E+02  0.61503117305E+02  0.00000000000E+00 0. -1.
         23    2    1    2    0    0 -0.17112122090E+02  0.96163799925E+01  0.77609440292E+02  0.12098260274E+03  0.90709787001E+02 0.  0.
          5    1    1    2  502    0  0.58648965077E+02 -0.34628724253E+02  0.61432026707E+02  0.91816207465E+02  0.41800000000E+01 0.  1.
         -5    1    1    2    0  502 -0.41536842987E+02  0.25012344260E+02 -0.57924363068E+00  0.48669647769E+02  0.41800000000E+01 0.  1.
        -11    1    3    3    0    0  0.17836670190E+02 -0.21811007427E+02  0.67164445804E+02  0.72834947852E+02  0.00000000000E+00 0.  1.
         11    1    3    3    0    0 -0.34948792279E+02  0.31427387419E+02  0.10444994489E+02  0.48147654893E+02  0.00000000000E+00 0. -1.
</event>
<event>
 7    1  0.6610867E-006  0.1218116E+03  0.7561462E-02  0.1240138E+00
          2   -1    0    0  501    0  0.00000000000E+00  0.00000000000E+00  0.76495401781E+03  0.76495401781E+03  0.00000000000E+00 0. -1.
         -2   -1    0    0    0  501 -0.00000000000E+00 -0.00000000000E+00 -0.57110876009E+02  0.57110876009E+02  0.00000000000E+00 0.  1.
         23    2    1    2    0    0 -0.16595642963E+02  0.23893521957E+02  0.27989517634E+01  0.97166720171E+02  0.92667262940E+02 0.  0.
          5    1    1    2  502    0  0.44700280441E+02 -0.83512641495E+02  0.30370974037E+03  0.31816592394E+03  0.41800000000E+01 0. -1.
         -5    1    1    2    0  502 -0.28104637478E+02  0.59619119538E+02  0.40133444967E+03  0.40673224971E+03  0.41800000000E+01 0.  1.
        -11    1    3    3    0    0 -0.27839036065E+02  0.48381011950E+02  0.26029861457E+02  0.61589673922E+02  0.00000000000E+00 0.  1.
         11    1    3    3    0    0  0.11243393102E+02 -0.24487489993E+02 -0.23230909694E+02  0.35577046249E+02  0.00000000000E+00 0. -1.
</event>
<event>
 7    1  0.6610867E-006  0.9896869E+02  0.7561462E-02  0.1282480E+00
         -2   -1    0    0    0  501 -0.00000000000E+00  0.00000000000E+00  0.10056563700E+03  0.10056563700E+03  0.00000000000E+00 0.  1.
          2   -1    0    0  501    0  0.00000000000E+00 -0.00000000000E+00 -0.35040549522E+03  0.35040549522E+03  0.00000000000E+00 0. -1.
         23    2    1    2    0    0  0.47810969566E+02  0.14073405866E+02  0.55403118141E+02  0.11734728556E+03  0.90647285481E+02 0.  0.
          5    1    1    2  502    0 -0.77821945094E+02  0.17078696623E+02 -0.12558934339E+03  0.14878875156E+03  0.41800000000E+01 0. -1.
         -5    1    1    2    0  502  0.30010975528E+02 -0.31152102489E+02 -0.17965363297E+03  0.18483509510E+03  0.41800000000E+01 0. -1.
        -11    1    3    3    0    0  0.47790929574E+02 -0.11473658356E+02 -0.72547519321E+01  0.49681477547E+02  0.00000000000E+00 0. -1.
         11    1    3    3    0    0  0.20039991769E-01  0.25547064222E+02  0.62657870073E+02  0.67665808013E+02  0.00000000000E+00 0.  1.
</event>
<event>
 7    1  0.6610867E-006  0.1618824E+03  0.7561462E-02  0.1186588E+00
         -2   -1    0    0    0  501 -0.00000000000E+00  0.00000000000E+00  0.20421025546E+03  0.20421025546E+03  0.00000000000E+00 0.  1.
          2   -1    0    0  501    0  0.00000000000E+00 -0.00000000000E+00 -0.16308954421E+03  0.16308954421E+03  0.00000000000E+00 0. -1.
         23    2    1    2    0    0 -0.11240408265E+03 -0.85358951487E+02  0.57617084563E+02  0.17798435774E+03  0.91857905330E+02 0.  0.
          5    1    1    2  502    0  0.10170950632E+03  0.21554778959E+02 -0.50997127293E+02  0.11587757145E+03  0.41800000000E+01 0.  1.
         -5    1    1    2    0  502  0.10694576333E+02  0.63804172528E+02  0.34500753977E+02  0.73437870475E+02  0.41800000000E+01 0.  1.
        -11    1    3    3    0    0 -0.80237006117E+02 -0.21009841180E+02  0.65398438337E+02  0.10562360680E+03  0.00000000000E+00 0.  1.
         11    1    3    3    0    0 -0.32167076537E+02 -0.64349110307E+02 -0.77813537736E+01  0.72360750942E+02  0.00000000000E+00 0. -1.
</event>
<event>
 7    1  0.6610867E-006  0.1287433E+03  0.7561462E-02  0.1229332E+00
         -2   -1    0    0    0  501 -0.00000000000E+00  0.00000000000E+00  0.37626091322E+02  0.37626091322E+02  0.00000000000E+00 0.  1.
          2   -1    0    0  501    0  0.00000000000E+00 -0.00000000000E+00 -0.74647683912E+03  0.74647683912E+03  0.00000000000E+00 0. -1.
         23    2    1    2    0    0  0.45682074511E+02 -0.81829131502E+02 -0.12454026636E+03  0.17924662731E+03  0.88522408247E+02 0.  0.
          5    1    1    2  502    0 -0.94836138465E+01  0.10134113300E+03 -0.50757228086E+03  0.51769397994E+03  0.41800000000E+01 0. -1.
         -5    1    1    2    0  502 -0.36198460664E+02 -0.19512001495E+02 -0.76738200578E+02  0.87162323195E+02  0.41800000000E+01 0. -1.
        -11    1    3    3    0    0 -0.13935137087E+01  0.10528128451E+02 -0.51133940230E+02  0.52225120513E+02  0.00000000000E+00 0. -1.
         11    1    3    3    0    0  0.47075588220E+02 -0.92357259953E+02 -0.73406326131E+02  0.12702150679E+03  0.00000000000E+00 0.  1.
</event>
<event>
 7    1  0.6610867E-006  0.1408602E+03  0.7561462E-02  0.1212176E+00
          1   -1    0    0  501    0  0.00000000000E+00  0.00000000000E+00  0.61508000991E+03  0.61508000991E+03  0.00000000000E+00 0. -1.
         -1   -1    0    0    0  501 -0.00000000000E+00 -0.00000000000E+00 -0.38908635263E+02  0.38908635263E+02  0.00000000000E+00 0.  1.
         23    2    1    2    0    0  0.34762143298E+02  0.10290536156E+03  0.24782627238E+03  0.28621755117E+03  0.93299010006E+02 0.  0.
          5    1    1    2  502    0 -0.69284883813E+02 -0.95876887378E+02  0.18138292367E+03  0.21658718812E+03  0.41800000000E+01 0. -1.
         -5    1    1    2    0  502  0.34522740515E+02 -0.70284741832E+01  0.14696217859E+03  0.15118390588E+03  0.41800000000E+01 0. -1.
        -11    1    3    3    0    0  0.40498075645E+02  0.20717438921E+02  0.33185412967E+02  0.56307886128E+02  0.00000000000E+00 0.  1.
         11    1    3    3    0    0 -0.57359323468E+01  0.82187922640E+02  0.21464085941E+03  0.22990966504E+03  0.00000000000E+00 0. -1.
</event>
<event>
 7    1  0.6610867E-006  0.1137535E+03  0.7561462E-02  0.1253773E+00
          2   -1    0    0  501    0  0.00000000000E+00  0.00000000000E+00  0.17785476601E+03  0.17785476601E+03  0.00000000000E+00 0. -1.
         -2   -1    0    0    0  501 -0.00000000000E+00 -0.00000000000E+00 -0.86820249526E+02  0.86820249526E+02  0.00000000000E+00 0.  1.
         23    2    1    2    0    0  0.20436397306E+02  0.19143207461E+02 -0.79101438051E+01  0.10275971355E+03  0.98553942731E+02 0.  0.
          5    1    1    2  502    0  0.41240956887E+02  0.28212630855E+02  0.42618589553E+02  0.65807185323E+02  0.41800000000E+01 0. -1.
         -5    1    1    2    0  502 -0.61677354193E+02 -0.47355838316E+02  0.56326070733E+02  0.96108116655E+02  0.41800000000E+01 0. -1.
        -11    1    3    3    0    0  0.47147721393E+02 -0.20725933517E+02  0.81724707653E+01  0.52146536137E+02  0.00000000000E+00 0. -1.
         11    1    3    3    0    0 -0.26711324087E+02  0.39869140978E+02 -0.16082614570E+02  0.50613177417E+02  0.00000000000E+00 0.  1.
</event>
<event>
 7    1  0.6610867E-006  0.1340683E+03  0.7561462E-02  0.1221541E+00
         -1   -1    0    0    0  501 -0.00000000000E+00  0.00000000000E+00  0.32357641393E+02  0.32357641393E+02  0.00000000000E+00 0.  1.
          1   -1    0    0  501    0  0.00000000000E+00 -0.00000000000E+00 -0.61081712475E+03  0.61081712475E+03  0.00000000000E+00 0. -1.
         23    2    1    2    0    0 -0.48410402185E+02 -0.73282767677E+02 -0.24089141358E+03  0.27261694562E+03  0.92614225818E+02 0.  0.
          5    1    1    2  502    0  0.22762318567E+02  0.10577695492E+03 -0.27361807582E+03  0.29426384616E+03  0.41800000000E+01 0. -1.
         -5    1    1    2    0  502  0.25648083619E+02 -0.32494187244E+02 -0.63949993957E+02  0.76293974369E+02  0.41800000000E+01 0. -1.
        -11    1    3    3    0    0 -0.44686039692E+02  0.18659382078E+00 -0.45222163750E+02  0.63576104433E+02  0.00000000000E+00 0. -1.
         11    1    3    3    0    0 -0.37243624934E+01 -0.73469361497E+02 -0.19566924983E+03  0.20904084118E+03  0.00000000000E+00 0.  1.
</event>
<event>
 7    1  0.6610867E-006  0.1006000E+03  0.7561462E-02  0.1279039E+00
         -1   -1    0    0    0  501 -0.00000000000E+00  0.00000000000E+00  0.13649272297E+02  0.13649272297E+02  0.00000000000E+00 0. -1.
          1   -1    0    0  501    0  0.00000000000E+00 -0.00000000000E+00 -0.17902252801E+04  0.17902252801E+04  0.00000000000E+00 0.  1.
         23    2    1    2    0    0  0.13772035884E+02  0.82836350889E+02 -0.39648648543E+03  0.41558834592E+03  0.91981574955E+02 0.  0.
          5    1    1    2  502    0  0.27142323688E+02 -0.45122545032E+02 -0.19937320572E+03  0.20625202390E+03  0.41800000000E+01 0.  1.
         -5    1    1    2    0  502 -0.40914359573E+02 -0.37713805858E+02 -0.11807163167E+04  0.11820341826E+04  0.41800000000E+01 0.  1.
        -11    1    3    3    0    0 -0.13186632843E+02  0.17624785785E+02 -0.12791446251E+02  0.25458622447E+02  0.00000000000E+00 0. -1.
         11    1    3    3    0    0  0.26958668727E+02  0.65211565104E+02 -0.38369503918E+03  0.39012972347E+03  0.00000000000E+00 0.  1.
</event>
<event>
 7    1  0.6610867E-006  0.9307873E+02  0.7561462E-02  0.1295563E+00
          2   -1    0    0  501    0  0.00000000000E+00  0.00000000000E+00  0.78733426489E+02  0.78733426489E+02  0.00000000000E+00 0. -1.
         -2   -1    0    0    0  501 -0.00000000000E+00 -0.00000000000E+00 -0.14010295814E+03  0.14010295814E+03  0.00000000000E+00 0.  1.
         23    2    1    2    0    0 -0.30528884597E+02  0.77146342797E+01 -0.25857545062E+02  0.85043671271E+02  0.74647739482E+02 0.  0.
          5    1    1    2  502    0 -0.36907074812E+02 -0.10111245404E+02 -0.51522510204E+02  0.64314935377E+02  0.41800000000E+01 0. -1.
         -5    1    1    2    0  502  0.67435959409E+02  0.23966111244E+01  0.16010523619E+02  0.69477777978E+02  0.41800000000E+01 0. -1.
        -11    1    3    3    0    0  0.36785655922E+01  0.35681177671E+02 -0.51173054966E+01  0.36233480379E+02  0.00000000000E+00 0. -1.
         11    1    3    3    0    0 -0.34207450189E+02 -0.27966543391E+02 -0.20740239565E+02  0.48810190892E+02  0.00000000000E+00 0.  1.
</event>
<event>
 7    1  0.6610867E-006  0.9073053E+02  0.7561462E-02  0.1301092E+00
          1   -1    0    0  501    0  0.00000000000E+00  0.00000000000E+00  0.21646293656E+03  0.21646293656E+03  0.00000000000E+00 0. -1.
         -1   -1    0    0    0  501 -0.00000000000E+00 -0.00000000000E+00 -0.68540065664E+02  0.68540065664E+02  0.00000000000E+00 0.  1.
         23    2    1    2    0    0  0.10442026592E+02 -0.12977642648E+02  0.37672095733E+00  0.90850624993E+02  0.89309792380E+02 0.  0.
          5    1    1    2  502    0 -0.54275457692E+02 -0.12495599512E+02  0.12800354773E+03  0.13965796055E+03  0.41800000000E+01 0.  1.
         -5    1    1    2    0  502  0.43833431100E+02  0.25473242160E+02  0.19542602215E+02  0.54494416682E+02  0.41800000000E+01 0.  1.
        -11    1    3    3    0    0  0.36400904087E+02 -0.26919563486E+02 -0.25215931700E+02  0.51822118136E+02  0.00000000000E+00 0.  1.
         11    1    3    3    0    0 -0.25958877495E+02  0.13941920838E+02  0.25592652657E+02  0.39028506857E+02  0.00000000000E+00 0. -1.
</event>
<event>
 7    1  0.6610867E-006  0.1447670E+03  0.7561462E-02  0.1207055E+00
          2   -1    0    0  501    0  0.00000000000E+00  0.00000000000E+00  0.10205792132E+04  0.10205792132E+04  0.00000000000E+00 0. -1.
         -2   -1    0    0    0  501 -0.00000000000E+00 -0.00000000000E+00 -0.32499569584E+02  0.32499569584E+02  0.00000000000E+00 0.  1.
         23    2    1    2    0    0 -0.74643333223E+02  0.87201124804E+02  0.23025998187E+03  0.27647265062E+03  0.10120179804E+03 0.  0.
          5    1    1    2  502    0  0.21493668096E+02 -0.10951278758E+03  0.47674527016E+03  0.48965146118E+03  0.41800000000E+01 0. -1.
         -5    1    1    2    0  502  0.53149665127E+02  0.22311662777E+02  0.28107439161E+03  0.28695467102E+03  0.41800000000E+01 0. -1.
        -11    1    3    3    0    0 -0.42077712769E+02  0.22716107429E+02  0.16098656243E+02  0.50455150197E+02  0.00000000000E+00 0.  1.
         11    1    3    3    0    0 -0.32565620454E+02  0.64485017375E+02  0.21416132563E+03  0.22601750042E+03  0.00000000000E+00 0. -1.
</event>
<event>
 7    1  0.6610867E-006  0.1024704E+03  0.7561462E-02  0.1275185E+00
         -3   -1    0    0    0  501 -0.00000000000E+00  0.00000000000E+00  0.27654256524E+03  0.27654256524E+03  0.00000000000E+00 0.  1.
          3   -1    0    0  501    0  0.00000000000E+00 -0.00000000000E+00 -0.70105320297E+02  0.70105320297E+02  0.00000000000E+00 0. -1.
         23    2    1    2    0    0 -0.49759286755E+02 -0.37911778275E+02  0.16916928849E+03  0.20190075475E+03  0.90732447617E+02 0.  0.
          5    1    1    2  502    0 -0.20243784927E+02 -0.69868992657E+01 -0.30420522147E+02  0.37436722041E+02  0.41800000000E+01 0.  1.
         -5    1    1    2    0  502  0.70003071682E+02  0.44898677541E+02  0.67688478604E+02  0.10731040875E+03  0.41800000000E+01 0.  1.
        -11    1    3    3    0    0 -0.16117960478E+02 -0.58318549559E+02  0.57369891923E+02  0.83379532092E+02  0.00000000000E+00 0. -1.
         11    1    3    3    0    0 -0.33641326277E+02  0.20406771284E+02  0.11179939656E+03  0.11852122266E+03  0.00000000000E+00 0.  1.
</event>
<event>
 7    1  0.6610867E-006  0.8117363E+02  0.7561462E-02  0.1325753E+00
          2   -1    0    0  501    0  0.00000000000E+00  0.00000000000E+00  0.69619893910E+03  0.69619893910E+03  0.00000000000E+00 0.  1.
         -2   -1    0    0    0  501 -0.00000000000E+00 -0.00000000000E+00 -0.25997997988E+02  0.25997997988E+02  0.00000000000E+00 0. -1.
         23    2    1    2    0    0 -0.48942054862E+02  0.13630208941E+02  0.14115956773E+03  0.17619907113E+03  0.92406611101E+02 0.  0.
          5    1    1    2  502    0 -0.34011263679E+01  0.46512522982E+01  0.44602525379E+03  0.44608205660E+03  0.41800000000E+01 0. -1.
         -5    1    1    2    0  502  0.52343181230E+02 -0.18281461240E+02  0.83016119596E+02  0.99915809355E+02  0.41800000000E+01 0. -1.
        -11    1    3    3    0    0 -0.13716207748E+02 -0.36138455054E+02  0.84685759431E+02  0.93090279509E+02  0.00000000000E+00 0.  1.
         11    1    3    3    0    0 -0.35225847113E+02  0.49768663995E+02  0.56473808298E+02  0.83108791619E+02  0.00000000000E+00 0. -1.
</event>
<event>
 7    1  0.6610867E-006  0.1072060E+03  0.7561462E-02  0.1265833E+00
         -1   -1    0    0    0  501 -0.00000000000E+00  0.00000000000E+00  0.11628082429E+03  0.11628082429E+03  0.00000000000E+00 0.  1.
          1   -1    0    0  501    0  0.00000000000E+00 -0.00000000000E+00 -0.19113935963E+03  0.19113935963E+03  0.00000000000E+00 0. -1.
         23    2    1    2    0    0 -0.90622713378E+01 -0.34370208955E+02  0.65300448294E+02  0.11622321299E+03  0.89332248740E+02 0.  0.
          5    1    1    2  502    0  0.49248303802E+02 -0.18351362058E+02 -0.10141485740E+03  0.11430054076E+03  0.41800000000E+01 0. -1.
         -5    1    1    2    0  502 -0.40186032464E+02  0.52721571013E+02 -0.38744126235E+02  0.76896430171E+02  0.41800000000E+01 0. -1.
        -11    1    3    3    0    0 -0.44630269774E+02  0.16297220915E+01  0.22832970287E+02  0.50158364271E+02  0.00000000000E+00 0. -1.
         11    1    3    3    0    0  0.35567998436E+02 -0.35999931047E+02  0.42467478007E+02  0.66064848720E+02  0.00000000000E+00 0.  1.
</event>
<event>
 7    1  0.6610867E-006  0.2028610E+03  0.7561462E-02  0.1147347E+00
          1   -1    0    0  501    0  0.00000000000E+00  0.00000000000E+00  0.17323249224E+03  0.17323249224E+03  0.00000000000E+00 0. -1.
         -1   -1    0    0    0  501 -0.00000000000E+00 -0.00000000000E+00 -0.38617199991E+03  0.38617199991E+03  0.00000000000E+00 0.  1.
         23    2    1    2    0    0 -0.44772986264E+02 -0.17346440159E+03 -0.26729965260E+03  0.33423072389E+03  0.90368985779E+02 0.  0.
          5    1    1    2  502    0 -0.41257418244E+02  0.34321138490E+02  0.23069870689E+02  0.58564549354E+02  0.41800000000E+01 0. -1.
         -5    1    1    2    0  502  0.86030404508E+02  0.13914326310E+03  0.31290274241E+02  0.16660921892E+03  0.41800000000E+01 0. -1.
        -11    1    3    3    0    0 -0.34970558567E+02 -0.35136467922E+02 -0.12979868593E+03  0.13894319060E+03  0.00000000000E+00 0.  1.
         11    1    3    3    0    0 -0.98024276979E+01 -0.13832793367E+03 -0.13750096667E+03  0.19528753329E+03  0.00000000000E+00 0. -1.
</event>
<event>
 7    1  0.6610867E-006  0.8524806E+02  0.7561462E-02  0.1314785E+00
          1   -1    0    0  501    0  0.00000000000E+00  0.00000000000E+00  0.49816859211E+02  0.49816859211E+02  0.00000000000E+00 0. -1.
         -1   -1    0    0    0  501 -0.00000000000E+00 -0.00000000000E+00 -0.23542375578E+03  0.23542375578E+03  0.00000000000E+00 0.  1.
         23    2    1    2    0    0 -0.15769323243E+02 -0.11851330374E+02 -0.11034030092E+03  0.14346192713E+03  0.89538912994E+02 0.  0.
          5    1    1    2  502    0  0.12054407500E+01 -0.50563606415E+02 -0.13148005140E+02  0.52425888836E+02  0.41800000000E+01 0. -1.
         -5    1    1    2    0  502  0.14563882493E+02  0.62414936788E+02 -0.62118590509E+02  0.89352799029E+02  0.41800000000E+01 0.  1.
        -11    1    3    3    0    0  0.15489427377E+02 -0.17908479900E+02  0.46627985974E+01  0.24132503053E+02  0.00000000000E+00 0. -1.
         11    1    3    3    0    0 -0.31258750621E+02  0.60571495268E+01 -0.11500309952E+03  0.11932942407E+03  0.00000000000E+00 0.  1.
</event>
<event>
 7    1  0.6610867E-006  0.9383362E+02  0.7561462E-02  0.1293825E+00
         -1   -1    0    0    0  501 -0.00000000000E+00  0.00000000000E+00  0.36655542594E+02  0.36655542594E+02  0.00000000000E+00 0.  1.
          1   -1    0    0  501    0  0.00000000000E+00 -0.00000000000E+00 -0.47622366028E+03  0.47622366028E+03  0.00000000000E+00 0. -1.
         23    2    1    2    0    0 -0.24864216702E+02 -0.64648205854E+02 -0.14793915283E+03  0.18808282916E+03  0.93228417836E+02 0.  0.
          5    1    1    2  502    0 -0.85502238629E+00  0.54007597190E+01  0.12276938061E+02  0.14074618182E+02  0.41800000000E+01 0. -1.
         -5    1    1    2    0  502  0.25719239088E+02  0.59247446135E+02 -0.30390590292E+03  0.31072175553E+03  0.41800000000E+01 0. -1.
        -11    1    3    3    0    0  0.27439268330E+02 -0.56920609676E+02 -0.84064385865E+02  0.10516506180E+03  0.00000000000E+00 0.  1.
         11    1    3    3    0    0 -0.52303485032E+02 -0.77275961776E+01 -0.63874766962E+02  0.82917767357E+02  0.00000000000E+00 0. -1.
</event>
<event>
 7    1  0.6610867E-006  0.1416211E+03  0.7561462E-02  0.1211164E+00
          2   -1    0    0  501    0  0.00000000000E+00  0.00000000000E+00  0.21490811356E+03  0.21490811356E+03  0.00000000000E+00 0. -1.
         -2   -1    0    0    0  501 -0.00000000000E+00 -0.00000000000E+00 -0.12878179475E+03  0.12878179475E+03  0.00000000000E+00 0.  1.
         23    2    1    2    0    0  0.10800244410E+03 -0.63120362960E+02  0.24040163157E+02  0.15620006012E+03  0.90398126010E+02 0.  0.
          5    1    1    2  502    0  0.16027064364E+02  0.21671747030E+02  0.48893962180E+02  0.55987707125E+02  0.41800000000E+01 0. -1.
         -5    1    1    2    0  502 -0.12402950847E+03  0.41448615930E+02  0.13192193474E+02  0.13150214105E+03  0.41800000000E+01 0. -1.
        -11    1    3    3    0    0  0.80813627220E+02 -0.45790544829E+02  0.57893309287E+02  0.10944976748E+03  0.00000000000E+00 0. -1.
         11    1    3    3    0    0  0.27188816882E+02 -0.17329818131E+02 -0.33853146130E+02  0.46750292649E+02  0.00000000000E+00 0.  1.
</event>
<event>
 7    1  0.6610867E-006  0.9557345E+02  0.7561462E-02  0.1289890E+00
         -1   -1    0    0    0  501 -0.00000000000E+00  0.00000000000E+00  0.15448216160E+02  0.15448216160E+02  0.00000000000E+00 0.  1.
          1   -1    0    0  501    0  0.00000000000E+00 -0.00000000000E+00 -0.88187392963E+03  0.88187392963E+03  0.00000000000E+00 0. -1.
         23    2    1    2    0    0 -0.14967928170E+02  0.17631615250E+02 -0.20568408568E+03  0.22444601006E+03  0.86805274051E+02 0.  0.
          5    1    1    2  502    0 -0.46913124618E+02  0.18440000913E+02 -0.36853410777E+03  0.37198889216E+03  0.41800000000E+01 0. -1.
         -5    1    1    2    0  502  0.61881052788E+02 -0.36071616164E+02 -0.29220752002E+03  0.30088724357E+03  0.41800000000E+01 0. -1.
        -11    1    3    3    0    0 -0.38294342767E+02 -0.19760514410E+01 -0.18160216637E+03  0.18560632612E+03  0.00000000000E+00 0. -1.
         11    1    3    3    0    0  0.23326414597E+02  0.19607666691E+02 -0.24081919307E+02  0.38839683940E+02  0.00000000000E+00 0.  1.
</event>
<event>
 7    1  0.6610867E-006  0.6871148E+02  0.7561462E-02  0.1364530E+00
          1   -1    0    0  501    0  0.00000000000E+00  0.00000000000E+00  0.52762078233E+03  0.52762078233E+03  0.00000000000E+00 0. -1.
         -1   -1    0    0    0  501 -0.00000000000E+00 -0.00000000000E+00 -0.24872633817E+02  0.24872633817E+02  0.00000000000E+00 0.  1.
         23    2    1    2    0    0  0.10855239287E+02 -0.97874140871E+01  0.12709856805E+03  0.15629657390E+03  0.89782756245E+02 0.  0.
          5    1    1    2  502    0  0.28374187643E+02 -0.13381208181E+02  0.33018044613E+03  0.33169376037E+03  0.41800000000E+01 0. -1.
         -5    1    1    2    0  502 -0.39229426930E+02  0.23168622268E+02  0.45469134330E+02  0.64503081879E+02  0.41800000000E+01 0. -1.
        -11    1    3    3    0    0  0.34155451510E+02  0.13830995985E+01  0.12586860256E+03  0.13042780739E+03  0.00000000000E+00 0. -1.
         11    1    3    3    0    0 -0.23300212223E+02 -0.11170513686E+02  0.12299654957E+01  0.25868766510E+02  0.00000000000E+00 0.  1.
</event>
<event>
 7    1  0.6610867E-006  0.1354981E+03  0.7561462E-02  0.1219518E+00
          1   -1    0    0  501    0  0.00000000000E+00  0.00000000000E+00  0.44594072536E+02  0.44594072536E+02  0.00000000000E+00 0. -1.
         -1   -1    0    0    0  501 -0.00000000000E+00 -0.00000000000E+00 -0.54814207346E+03  0.54814207346E+03  0.00000000000E+00 0.  1.
         23    2    1    2    0    0 -0.45076648047E+02  0.10331164029E+03 -0.21932984108E+03  0.26238416858E+03  0.89636340383E+02 0.  0.
          5    1    1    2  502    0  0.42280950601E+01  0.14287356089E+02  0.43271562957E+01  0.16068665578E+02  0.41800000000E+01 0.  1.
         -5    1    1    2    0  502  0.40848552987E+02 -0.11759899638E+03 -0.28854531614E+03  0.31428331183E+03  0.41800000000E+01 0.  1.
        -11    1    3    3    0    0  0.16067607275E+02  0.85963276434E+01 -0.30370771053E+01  0.18474000375E+02  0.00000000000E+00 0. -1.
         11    1    3    3    0    0 -0.61144255322E+02  0.94715312645E+02 -0.21629276397E+03  0.24391016821E+03  0.00000000000E+00 0.  1.
</event>
<event>
 7    1  0.6610867E-006  0.1168071E+03  0.7561462E-02  0.1248459E+00
          1   -1    0    0  501    0  0.00000000000E+00  0.00000000000E+00  0.37364680065E+03  0.37364680065E+03  0.00000000000E+00 0. -1.
         -1   -1    0    0    0  501 -0.00000000000E+00 -0.00000000000E+00 -0.62301533650E+02  0.62301533650E+02  0.00000000000E+00 0.  1.
         23    2    1    2    0    0  0.74387427958E+02  0.20090246264E+02  0.40232538819E+02  0.12758755687E+03  0.93396038748E+02 0.  0.
          5    1    1    2  502    0 -0.86886035604E+02  0.26828770464E+02  0.21818680293E+03  0.23641471926E+03  0.41800000000E+01 0.  1.
         -5    1    1    2    0  502  0.12498607646E+02 -0.46919016728E+02  0.52925925249E+02  0.71946058177E+02  0.41800000000E+01 0.  1.
        -11    1    3    3    0    0  0.28174230621E+02  0.35329856524E+02  0.59958692242E+02  0.75080162550E+02  0.00000000000E+00 0. -1.
         11    1    3    3    0    0  0.46213197337E+02 -0.15239610259E+02 -0.19726153423E+02  0.52507394316E+02  0.00000000000E+00 0.  1.
</event>
<event>
 7    1  0.6610867E-006  0.9122786E+02  0.7561462E-02  0.1299905E+00
         -1   -1    0    0    0  501 -0.00000000000E+00  0.00000000000E+00  0.15610094273E+02  0.15610094273E+02  0.00000000000E+00 0.  1.
          1   -1    0    0  501    0  0.00000000000E+00 -0.00000000000E+00 -0.14325381558E+04  0.14325381558E+04  0.00000000000E+00 0. -1.
         23    2    1    2    0    0 -0.31984494304E+01  0.17698960852E+02 -0.15569028017E+03  0.18113181323E+03  0.90806316583E+02 0.  0.
          5    1    1    2  502    0 -0.25042231935E+02 -0.46390241081E+02 -0.10808800928E+04  0.10821730061E+04  0.41800000000E+01 0. -1.
         -5    1    1    2    0  502  0.28240681366E+02  0.28691280229E+02 -0.18035768861E+03  0.18484343074E+03  0.41800000000E+01 0.  1.
        -11    1    3    3    0    0  0.39678520391E+02 -0.59646134270E+01 -0.95143246018E+02  0.10325792394E+03  0.00000000000E+00 0.  1.
         11    1    3    3    0    0 -0.42876969822E+02  0.23663574279E+02 -0.60547034155E+02  0.77873889294E+02  0.00000000000E+00 0. -1.
</event>
<event>
 7    1  0.6610867E-006  0.1070692E+03  0.7561462E-02  0.1266096E+00
          1   -1    0    0  501    0  0.00000000000E+00  0.00000000000E+00  0.17879909245E+04  0.17879909245E+04  0.00000000000E+00 0. -1.
         -1   -1    0    0    0  501 -0.00000000000E+00 -0.00000000000E+00 -0.12863561383E+02  0.12863561383E+02  0.00000000000E+00 0.  1.
         23    2    1    2    0    0 -0.22562470286E+02 -0.28263690999E+02  0.23723496633E+03  0.25745931864E+03  0.93257547730E+02 0.  0.
          5    1    1    2  502    0 -0.20903642504E+02 -0.42198981636E+02  0.57703892544E+03  0.57897246065E+03  0.41800000000E+01 0.  1.
         -5    1    1    2    0  502  0.43466112790E+02  0.70462672635E+02  0.96085347138E+03  0.96442270662E+03  0.41800000000E+01 0.  1.
        -11    1    3    3    0    0 -0.50192248725E+02 -0.10995886442E+02  0.20604458342E+03  0.21235475438E+03  0.00000000000E+00 0.  1.
         11    1    3    3    0    0  0.27629778439E+02 -0.17267804557E+02  0.31190382913E+02  0.45104564260E+02  0.00000000000E+00 0. -1.
</event>
<event>
 7    1  0.6610867E-006  0.8743158E+02  0.7561462E-02  0.1309193E+00
         -1   -1    0    0    0  501 -0.00000000000E+00  0.00000000000E+00  0.83328769862E+02  0.83328769862E+02  0.00000000000E+00 0.  1.
          1   -1    0    0  501    0  0.00000000000E+00 -0.00000000000E+00 -0.59012035708E+03  0.59012035708E+03  0.00000000000E+00 0. -1.
         23    2    1    2    0    0 -0.37839853276E+02  0.34662686591E+02  0.40487184407E+02  0.10971585758E+03  0.88119242878E+02 0.  0.
          5    1    1    2  502    0 -0.98846555150E+01  0.32205568768E+02 -0.55025248978E+02  0.64654122061E+02  0.41800000000E+01 0. -1.
         -5    1    1    2    0  502  0.47724508791E+02 -0.66868255359E+02 -0.49225352264E+03  0.49907914730E+03  0.41800000000E+01 0. -1.
        -11    1    3    3    0    0 -0.39938869729E+02  0.21556934556E+02  0.66500744999E+02  0.80511886254E+02  0.00000000000E+00 0.  1.
         11    1    3    3    0    0  0.20990164532E+01  0.13105752035E+02 -0.26013560592E+02  0.29203971325E+02  0.00000000000E+00 0. -1.
</event>
<event>
 7    1  0.6610867E-006  0.1193276E+03  0.7561462E-02  0.1244211E+00
         -1   -1    0    0    0  501 -0.00000000000E+00  0.00000000000E+00  0.15205114136E+03  0.15205114136E+03  0.00000000000E+00 0.  1.
          1   -1    0    0  501    0  0.00000000000E+00 -0.00000000000E+00 -0.12083048875E+03  0.12083048875E+03  0.00000000000E+00 0. -1.
         23    2    1    2    0    0 -0.51721639431E+02 -0.61162594434E+02  0.30455233629E+02  0.12433072189E+03  0.90081164556E+02 0.  0.
          5    1    1    2  502    0  0.31365130376E+02 -0.36556857731E+02 -0.41376887299E+01  0.48525953043E+02  0.41800000000E+01 0.  1.
         -5    1    1    2    0  502  0.20356509055E+02  0.97719452165E+02  0.49031077185E+01  0.10002495517E+03  0.41800000000E+01 0.  1.
        -11    1    3    3    0    0 -0.57896150634E+02 -0.45726129324E+02  0.56848534494E+02  0.93137527535E+02  0.00000000000E+00 0.  1.
         11    1    3    3    0    0  0.61745112029E+01 -0.15436465110E+02 -0.26393300865E+02  0.31193194358E+02  0.00000000000E+00 0. -1.
</event>
<event>
 7    1  0.6610867E-006  0.2823151E+03  0.7561462E-02  0.1094431E+00
          2   -1    0    0  501    0  0.00000000000E+00  0.00000000000E+00  0.10868036687E+03  0.10868036687E+03  0.00000000000E+00 0. -1.
         -2   -1    0    0    0  501 -0.00000000000E+00 -0.00000000000E+00 -0.79212017798E+03  0.79212017798E+03  0.00000000000E+00 0.  1.
         23    2    1    2    0    0 -0.27054267121E+03 -0.28487634874E+02 -0.31666134118E+03  0.42732463735E+03  0.91252717259E+02 0.  0.
          5    1    1    2  502    0  0.26511004316E+03  0.75666650986E+01 -0.28738199025E+03  0.39108371243E+03  0.41800000000E+01 0.  1.
         -5    1    1    2    0  502  0.54326280420E+01  0.20920969775E+02 -0.79396479674E+02  0.82392195070E+02  0.41800000000E+01 0.  1.
        -11    1    3    3    0    0 -0.23166993014E+03 -0.43453454805E+02 -0.22152685694E+03  0.32347072142E+03  0.00000000000E+00 0. -1.
         11    1    3    3    0    0 -0.38872741061E+02  0.14965819932E+02 -0.95134484240E+02  0.10385391594E+03  0.00000000000E+00 0.  1.
</event>
<event>
 7    1  0.6610867E-006  0.8709558E+02  0.7561462E-02  0.1310042E+00
          1   -1    0    0  501    0  0.00000000000E+00  0.00000000000E+00  0.38158585735E+03  0.38158585735E+03  0.00000000000E+00 0. -1.
         -1   -1    0    0    0  501 -0.00000000000E+00 -0.00000000000E+00 -0.33357991051E+02  0.33357991051E+02  0.00000000000E+00 0.  1.
         23    2    1    2    0    0 -0.16444591801E+02  0.97757381537E+01  0.98789742574E+02  0.13524369152E+03  0.90362897260E+02 0.  0.
          5    1    1    2  502    0 -0.28645186116E+02  0.29154792187E+02  0.19371032882E+03  0.19801947501E+03  0.41800000000E+01 0. -1.
         -5    1    1    2    0  502  0.45089777918E+02 -0.38930530341E+02  0.55727794907E+02  0.81680681868E+02  0.41800000000E+01 0. -1.
        -11    1    3    3    0    0  0.12986032356E+02  0.33280038363E+02  0.75186690784E+01  0.36506552487E+02  0.00000000000E+00 0.  1.
         11    1    3    3    0    0 -0.29430624157E+02 -0.23504300209E+02  0.91271073495E+02  0.98737139029E+02  0.00000000000E+00 0. -1.
</event>
<event>
 7    1  0.6610867E-006  0.1156419E+03  0.7561462E-02  0.1250465E+00
         -2   -1    0    0    0  501 -0.00000000000E+00  0.00000000000E+00  0.13972954398E+02  0.13972954398E+02  0.00000000000E+00 0.  1.
          2   -1    0    0  501    0  0.00000000000E+00 -0.00000000000E+00 -0.13524142966E+04  0.13524142966E+04  0.00000000000E+00 0. -1.
         23    2    1    2    0    0  0.29363429790E+02  0.71183601455E+02 -0.43884380986E+03  0.45487610544E+03  0.91646416868E+02 0.  0.
          5    1    1    2  502    0  0.35337220710E+02 -0.55311593653E+02 -0.25048087899E+03  0.25897149399E+03  0.41800000000E+01 0.  1.
         -5    1    1    2    0  502 -0.64700650500E+02 -0.15872007802E+02 -0.64911665331E+03  0.65253965152E+03  0.41800000000E+01 0.  1.
        -11    1    3    3    0    0  0.48426400360E+02  0.43136978144E+02 -0.39035354387E+03  0.39570418793E+03  0.00000000000E+00 0. -1.
         11    1    3    3    0    0 -0.19062970569E+02  0.28046623311E+02 -0.48490265992E+02  0.59171917512E+02  0.00000000000E+00 0.  1.
</event>
<event>
 7    1  0.6610867E-006  0.1136338E+03  0.7561462E-02  0.1253985E+00
          1   -1    0    0  501    0  0.00000000000E+00  0.00000000000E+00  0.54219256353E+03  0.54219256353E+03  0.00000000000E+00 0. -1.
         -1   -1    0    0    0  501 -0.00000000000E+00 -0.00000000000E+00 -0.51496398878E+02  0.51496398878E+02  0.00000000000E+00 0.  1.
         23    2    1    2    0    0  0.28171350867E+02  0.10556201600E+03  0.11273359753E+03  0.18084526675E+03  0.89772948378E+02 0.  0.
          5    1    1    2  502    0 -0.13122363836E+02 -0.19120377956E+02  0.28108709750E+03  0.28207306512E+03  0.41800000000E+01 0. -1.
         -5    1    1    2    0  502 -0.15048987031E+02 -0.86441638043E+02  0.96875469623E+02  0.13077063054E+03  0.41800000000E+01 0. -1.
        -11    1    3    3    0    0 -0.89763028049E+01  0.34839384418E+02  0.91302828009E+02  0.98135432546E+02  0.00000000000E+00 0. -1.
         11    1    3    3    0    0  0.37147653672E+02  0.70722631581E+02  0.21430769524E+02  0.82709834200E+02  0.00000000000E+00 0.  1.
</event>
<event>
 7    1  0.6610867E-006  0.7445351E+02  0.7561462E-02  0.1345572E+00
         -2   -1    0    0    0  501 -0.00000000000E+00  0.00000000000E+00  0.34827050305E+03  0.34827050305E+03  0.00000000000E+00 0.  1.
          2   -1    0    0  501    0  0.00000000000E+00 -0.00000000000E+00 -0.37087444991E+02  0.37087444991E+02  0.00000000000E+00 0. -1.
         23    2    1    2    0    0 -0.28068468796E+02 -0.43724729879E+01  0.15320591218E+03  0.18185822720E+03  0.93773161464E+02 0.  0.
          5    1    1    2  502    0 -0.28043867237E+02  0.22115299877E+02  0.11887961872E+01  0.35978196379E+02  0.41800000000E+01 0. -1.
         -5    1    1    2    0  502  0.56112336033E+02 -0.17742826889E+02  0.15678834969E+03  0.16752152447E+03  0.41800000000E+01 0. -1.
        -11    1    3    3    0    0 -0.17145577684E+02 -0.25171892759E+02  0.15531280272E+03  0.15827084920E+03  0.00000000000E+00 0.  1.
         11    1    3    3    0    0 -0.10922891112E+02  0.20799419771E+02 -0.21068905333E+01  0.23587377997E+02  0.00000000000E+00 0. -1.
</event>
<event>
 7    1  0.6610867E-006  0.6420353E+02  0.7561462E-02  0.1380993E+00
          1   -1    0    0  501    0  0.00000000000E+00  0.00000000000E+00  0.70137833617E+02  0.70137833617E+02  0.00000000000E+00 0. -1.
         -1   -1    0    0    0  501 -0.00000000000E+00 -0.00000000000E+00 -0.19099630855E+03  0.19099630855E+03  0.00000000000E+00 0.  1.
         23    2    1    2    0    0  0.17586923876E+02 -0.23018063893E+02 -0.80835207281E+02  0.12664302969E+03  0.93085955309E+02 0.  0.
          5    1    1    2  502    0 -0.23451079256E+02 -0.28440946506E+02 -0.66519219814E+02  0.76165080983E+02  0.41800000000E+01 0. -1.
         -5    1    1    2    0  502  0.58641553796E+01  0.51459010399E+02  0.26495952159E+02  0.58326031499E+02  0.41800000000E+01 0. -1.
        -11    1    3    3    0    0 -0.65101044992E+01 -0.10073773796E+02  0.19363706346E+02  0.22777521870E+02  0.00000000000E+00 0. -1.
         11    1    3    3    0    0  0.24097028375E+02 -0.12944290097E+02 -0.10019891363E+03  0.10386550782E+03  0.00000000000E+00 0.  1.
</event>
<event>
 7    1  0.6610867E-006  0.1321317E+03  0.7561462E-02  0.1224327E+00
          1   -1    0    0  501    0  0.00000000000E+00  0.00000000000E+00  0.30656174531E+03  0.30656174531E+03  0.00000000000E+00 0. -1.
         -1   -1    0    0    0  501 -0.00000000000E+00 -0.00000000000E+00 -0.73155102633E+02  0.73155102633E+02  0.00000000000E+00 0.  1.
         23    2    1    2    0    0 -0.18401665637E+02 -0.86766072721E+02  0.54441936782E+02  0.14403634843E+03  0.99576967785E+02 0.  0.
          5    1    1    2  502    0 -0.53276702649E+02  0.28722680786E+02  0.63211973445E+02  0.87616353631E+02  0.41800000000E+01 0. -1.
         -5    1    1    2    0  502  0.71678368287E+02  0.58043391935E+02  0.11575273245E+03  0.14806414589E+03  0.41800000000E+01 0. -1.
        -11    1    3    3    0    0  0.15606760495E+02  0.24408634912E+01 -0.18180487398E+02  0.24084412174E+02  0.00000000000E+00 0.  1.
         11    1    3    3    0    0 -0.34008426133E+02 -0.89206936213E+02  0.72622424181E+02  0.11995193625E+03  0.00000000000E+00 0. -1.
</event>
<event>
 7    1  0.6610867E-006  0.1261103E+03  0.7561462E-02  0.1233344E+00
          2   -1    0    0  501    0  0.00000000000E+00  0.00000000000E+00  0.50725129929E+03  0.50725129929E+03  0.00000000000E+00 0.  1.
         -2   -1    0    0    0  501 -0.00000000000E+00 -0.00000000000E+00 -0.37698210767E+02  0.37698210767E+02  0.00000000000E+00 0. -1.
         23    2    1    2    0    0 -0.59369259901E+02 -0.61500460870E+02  0.20686289372E+03  0.24169805023E+03  0.91206770474E+02 0.  0.
          5    1    1    2  502    0 -0.11503929204E+02 -0.19457045535E+02  0.43850546875E+01  0.23401241692E+02  0.41800000000E+01 0. -1.
         -5    1    1    2    0  502  0.70873189106E+02  0.80957506406E+02  0.25830514011E+03  0.27985021813E+03  0.41800000000E+01 0. -1.
        -11    1    3    3    0    0  0.10253016692E+02 -0.49938151482E+02  0.11550020790E+03  0.12625070831E+03  0.00000000000E+00 0. -1.
         11    1    3    3    0    0 -0.69622276593E+02 -0.11562309388E+02  0.91362685823E+02  0.11544734192E+03  0.00000000000E+00 0.  1.
</event>
<event>
 7    1  0.6610867E-006  0.7993762E+02  0.7561462E-02  0.1329229E+00
         -2   -1    0    0    0  501 -0.00000000000E+00  0.00000000000E+00  0.50778960584E+02  0.50778960584E+02  0.00000000000E+00 0.  1.
          2   -1    0    0  501    0  0.00000000000E+00 -0.00000000000E+00 -0.25726908517E+03  0.25726908517E+03  0.00000000000E+00 0. -1.
         23    2    1    2    0    0 -0.31906931802E+01 -0.16108492094E+00 -0.43281652016E+02  0.10239161962E+03  0.92739074263E+02 0.  0.
          5    1    1    2  502    0 -0.52018371307E+02  0.11281510950E+02 -0.30635097527E+02  0.61556194190E+02  0.41800000000E+01 0. -1.
         -5    1    1    2    0  502  0.55209064487E+02 -0.11120426029E+02 -0.13257337504E+03  0.14410023194E+03  0.41800000000E+01 0. -1.
        -11    1    3    3    0    0  0.96725641975E+01  0.22199052141E+02 -0.64560139453E+02  0.68951925429E+02  0.00000000000E+00 0. -1.
         11    1    3    3    0    0 -0.12863257378E+02 -0.22360137062E+02  0.21278487437E+02  0.33439694188E+02  0.00000000000E+00 0.  1.
</event>
<event>
 7    1  0.6610867E-006  0.1523802E+03  0.7561462E-02  0.1197578E+00
         -2   -1    0    0    0  501 -0.00000000000E+00  0.00000000000E+00  0.15081025470E+03  0.15081025470E+03  0.00000000000E+00 0.  1.
          2   -1    0    0  501    0  0.00000000000E+00 -0.00000000000E+00 -0.26094926245E+03  0.26094926245E+03  0.00000000000E+00 0. -1.
         23    2    1    2    0    0  0.93000423976E+02 -0.11381250802E+03  0.28736593419E+02  0.17399065923E+03  0.88569700553E+02 0.  0.
          5    1    1    2  502    0 -0.76352780835E+02  0.73484109007E+02 -0.15927199074E+02  0.10724182714E+03  0.41800000000E+01 0.  1.
         -5    1    1    2    0  502 -0.16647643142E+02  0.40328399009E+02 -0.12294840210E+03  0.13052703079E+03  0.41800000000E+01 0.  1.
        -11    1    3    3    0    0  0.75002766532E+02 -0.54006856917E+02 -0.20249946369E+02  0.94616150363E+02  0.00000000000E+00 0. -1.
         11    1    3    3    0    0  0.17997657444E+02 -0.59805651100E+02  0.48986539788E+02  0.79374508864E+02  0.00000000000E+00 0.  1.
</event>
<event>
 7    1  0.6610867E-006  0.1085585E+03  0.7561462E-02  0.1263263E+00
         -4   -1    0    0    0  501 -0.00000000000E+00  0.00000000000E+00  0.71723088448E+03  0.71723088448E+03  0.00000000000E+00 0.  1.
          4   -1    0    0  501    0  0.00000000000E+00 -0.00000000000E+00 -0.30268376077E+02  0.30268376077E+02  0.00000000000E+00 0. -1.
         23    2    1    2    0    0 -0.78012444736E+02 -0.45085738980E+02  0.41428056696E+03  0.43425443197E+03  0.93967324810E+02 0.  0.
          5    1    1    2  502    0  0.44037214711E+02  0.30784764795E+02  0.27078695747E+03  0.27609785722E+03  0.41800000000E+01 0. -1.
         -5    1    1    2    0  502  0.33975230026E+02  0.14300974185E+02  0.18949839749E+01  0.37146971373E+02  0.41800000000E+01 0. -1.
        -11    1    3    3    0    0 -0.42500478598E+02  0.23737604955E+02  0.21527911015E+03  0.22071443052E+03  0.00000000000E+00 0.  1.
         11    1    3    3    0    0 -0.35511966138E+02 -0.68823343935E+02  0.19900145680E+03  0.21354000145E+03  0.00000000000E+00 0. -1.
</event>
<event>
 7    1  0.6610867E-006  0.1132552E+03  0.7561462E-02  0.1254658E+00
          2   -1    0    0  501    0  0.00000000000E+00  0.00000000000E+00  0.19577213593E+03  0.19577213593E+03  0.00000000000E+00 0. -1.
         -2   -1    0    0    0  501 -0.00000000000E+00 -0.00000000000E+00 -0.85297756313E+02  0.85297756313E+02  0.00000000000E+00 0.  1.
         23    2    1    2    0    0  0.44638770041E+02 -0.53903408508E+02  0.52781244408E+02  0.12656136347E+03  0.91289220193E+02 0.  0.
          5    1    1    2  502    0  0.31980447923E+02  0.15650886899E+02 -0.18020914930E+02  0.40123871760E+02  0.41800000000E+01 0. -1.
         -5    1    1    2    0  502 -0.76619217964E+02  0.38252521609E+02  0.75714050139E+02  0.11438465701E+03  0.41800000000E+01 0. -1.
        -11    1    3    3    0    0  0.70387562983E+01  0.20436149828E+02 -0.84127851946E+01  0.23193862652E+02  0.00000000000E+00 0.  1.
         11    1    3    3    0    0  0.37600013743E+02 -0.74339558336E+02  0.61194029602E+02  0.10336750082E+03  0.00000000000E+00 0. -1.
</event>
<event>
 7    1  0.6610867E-006  0.3038351E+03  0.7561462E-02  0.1083339E+00
         -1   -1    0    0    0  501 -0.00000000000E+00  0.00000000000E+00  0.62678923706E+03  0.62678923706E+03  0.00000000000E+00 0.  1.
          1   -1    0    0  501    0  0.00000000000E+00 -0.00000000000E+00 -0.19453372668E+03  0.19453372668E+03  0.00000000000E+00 0. -1.
         23    2    1    2    0    0  0.20129751136E+03 -0.20227970686E+03  0.41206787922E+03  0.50908751398E+03  0.89063976543E+02 0.  0.
          5    1    1    2  502    0 -0.17816821951E+03  0.10115654882E+03  0.33228132437E+02  0.20760092244E+03  0.41800000000E+01 0. -1.
         -5    1    1    2    0  502 -0.23129291853E+02  0.10112315804E+03 -0.13040501272E+02  0.10463452732E+03  0.41800000000E+01 0. -1.
        -11    1    3    3    0    0  0.17059136146E+03 -0.20659047846E+03  0.36744719428E+03  0.45475100767E+03  0.00000000000E+00 0.  1.
         11    1    3    3    0    0  0.30706149899E+02  0.43107715933E+01  0.44620684941E+02  0.54336506310E+02  0.00000000000E+00 0. -1.
</event>
<event>
 7    1  0.6610867E-006  0.2142034E+03  0.7561462E-02  0.1138280E+00
         -2   -1    0    0    0  501 -0.00000000000E+00  0.00000000000E+00  0.22735774549E+02  0.22735774549E+02  0.00000000000E+00 0.  1.
          2   -1    0    0  501    0  0.00000000000E+00 -0.00000000000E+00 -0.23163415942E+04  0.23163415942E+04  0.00000000000E+00 0. -1.
         23    2    1    2    0    0 -0.63649219930E+02  0.18195269063E+03 -0.80389874562E+03  0.83174994442E+03  0.91633902049E+02 0.  0.
          5    1    1    2  502    0 -0.18824229288E+02 -0.89762569357E+02 -0.90618191796E+03  0.91082095458E+03  0.41800000000E+01 0.  1.
         -5    1    1    2    0  502  0.82473449219E+02 -0.92190121274E+02 -0.58352515611E+03  0.59650646979E+03  0.41800000000E+01 0.  1.
        -11    1    3    3    0    0  0.44011160528E+01  0.12216804982E+03 -0.43042811003E+03  0.44745140532E+03  0.00000000000E+00 0. -1.
         11    1    3    3    0    0 -0.68050335983E+02  0.59784640808E+02 -0.37347063559E+03  0.38429853910E+03  0.00000000000E+00 0.  1.
</event>
<event>
 7    1  0.6610867E-006  0.1279714E+03  0.7561462E-02  0.1230497E+00
         -2   -1    0    0    0  501 -0.00000000000E+00  0.00000000000E+00  0.15048331259E+02  0.15048331259E+02  0.00000000000E+00 0.  1.
          2   -1    0    0  501    0  0.00000000000E+00 -0.00000000000E+00 -0.14173908034E+04  0.14173908034E+04  0.00000000000E+00 0. -1.
         23    2    1    2    0    0  0.36649552201E+02 -0.88972119632E+02 -0.53180695078E+03  0.54771400226E+03  0.88953738666E+02 0.  0.
          5    1    1    2  502    0  0.29213034023E+02  0.30746521270E+02 -0.93895635306E+02  0.10311456084E+03  0.41800000000E+01 0. -1.
         -5    1    1    2    0  502 -0.65862586224E+02  0.58225598362E+02 -0.77663988603E+03  0.78161057154E+03  0.41800000000E+01 0. -1.
        -11    1    3    3    0    0  0.32704564736E+02  0.33814366757E+01 -0.79013506595E+02  0.85581288218E+02  0.00000000000E+00 0.  1.
         11    1    3    3    0    0  0.39449874650E+01 -0.92353556308E+02 -0.45279344419E+03  0.46213271404E+03  0.00000000000E+00 0. -1.
</event>
<event>
 7    1  0.6610867E-006  0.6974726E+02  0.7561462E-02  0.1360955E+00
         -2   -1    0    0    0  501 -0.00000000000E+00  0.00000000000E+00  0.51181138694E+02  0.51181138694E+02  0.00000000000E+00 0.  1.
          2   -1    0    0  501    0  0.00000000000E+00 -0.00000000000E+00 -0.25317667897E+03  0.25317667897E+03  0.00000000000E+00 0. -1.
         23    2    1    2    0    0  0.36299552418E+02 -0.25780485717E+02 -0.85265319205E+02  0.12756462012E+03  0.83787031796E+02 0.  0.
          5    1    1    2  502    0 -0.20287115553E+02 -0.13289086621E+02  0.21201461464E+02  0.32482937813E+02  0.41800000000E+01 0. -1.
         -5    1    1    2    0  502 -0.16012436865E+02  0.39069572339E+02 -0.13793168253E+03  0.14431025973E+03  0.41800000000E+01 0. -1.
        -11    1    3    3    0    0  0.10997496786E+02 -0.41322284836E+02 -0.63272701553E+01  0.43226271030E+02  0.00000000000E+00 0.  1.
         11    1    3    3    0    0  0.25302055633E+02  0.15541799118E+02 -0.78938049049E+02  0.84338349087E+02  0.00000000000E+00 0. -1.
</event>
<event>
 7    1  0.6610867E-006  0.9041296E+02  0.7561462E-02  0.1301855E+00
         -2   -1    0    0    0  501 -0.00000000000E+00  0.00000000000E+00  0.18494762796E+03  0.18494762796E+03  0.00000000000E+00 0.  1.
          2   -1    0    0  501    0  0.00000000000E+00 -0.00000000000E+00 -0.61523679213E+02  0.61523679213E+02  0.00000000000E+00 0. -1.
         23    2    1    2    0    0 -0.30510396817E+01  0.15779923906E+02  0.54129484795E+02  0.10256756033E+03  0.85625863307E+02 0.  0.
          5    1    1    2  502    0  0.29556384413E+02  0.29884195161E+02 -0.14598661131E+02  0.44690471992E+02  0.41800000000E+01 0. -1.
         -5    1    1    2    0  502 -0.26505344732E+02 -0.45664119067E+02  0.83893125087E+02  0.99213274850E+02  0.41800000000E+01 0. -1.
        -11    1    3    3    0    0 -0.43373532784E+02  0.12642205381E+02  0.19053626593E+02  0.49031922147E+02  0.00000000000E+00 0. -1.
         11    1    3    3    0    0  0.40322493102E+02  0.31377185253E+01  0.35075858202E+02  0.53535638187E+02  0.00000000000E+00 0.  1.
</event>
<event>
 7    1  0.6610867E-006  0.1227614E+03  0.7561462E-02  0.1238610E+00
          1   -1    0    0  501    0  0.00000000000E+00  0.00000000000E+00  0.25081145915E+03  0.25081145915E+03  0.00000000000E+00 0. -1.
         -1   -1    0    0    0  501 -0.00000000000E+00 -0.00000000000E+00 -0.69165373938E+02  0.69165373938E+02  0.00000000000E+00 0.  1.
         23    2    1    2    0    0  0.60959690999E+02  0.14483199453E+01  0.28805271913E+02  0.11356310277E+03  0.91370964005E+02 0.  0.
          5    1    1    2  502    0  0.34225169101E+02 -0.19831269714E+02  0.60908204185E+02  0.72745606022E+02  0.41800000000E+01 0. -1.
         -5    1    1    2    0  502 -0.95184860100E+02  0.18382949768E+02  0.91932609112E+02  0.13366812430E+03  0.41800000000E+01 0.  1.
        -11    1    3    3    0    0 -0.23869414880E+02  0.75163545230E+00  0.13269780537E+02  0.27320340372E+02  0.00000000000E+00 0.  1.
         11    1    3    3    0    0  0.84829105879E+02  0.69668449298E+00  0.15535491376E+02  0.86242762396E+02  0.00000000000E+00 0. -1.
</event>
<event>
 7    1  0.6610867E-006  0.1014942E+03  0.7561462E-02  0.1277185E+00
         -2   -1    0    0    0  501 -0.00000000000E+00  0.00000000000E+00  0.40818354547E+03  0.40818354547E+03  0.00000000000E+00 0.  1.
          2   -1    0    0  501    0  0.00000000000E+00 -0.00000000000E+00 -0.30429016033E+02  0.30429016033E+02  0.00000000000E+00 0. -1.
         23    2    1    2    0    0  0.23059595155E+02  0.11742332317E+02  0.16739370216E+03  0.19250605880E+03  0.91478433818E+02 0.  0.
          5    1    1    2  502    0 -0.38682621783E+02 -0.62401170237E+02  0.10647420294E+03  0.12940046200E+03  0.41800000000E+01 0. -1.
         -5    1    1    2    0  502  0.15623026628E+02  0.50658837920E+02  0.10388662434E+03  0.11670604070E+03  0.41800000000E+01 0. -1.
        -11    1    3    3    0    0 -0.10457977148E+02  0.34308717738E+02  0.13788004676E+03  0.14246882007E+03  0.00000000000E+00 0.  1.
         11    1    3    3    0    0  0.33517572303E+02 -0.22566385421E+02  0.29513655406E+02  0.50037238728E+02  0.00000000000E+00 0. -1.
</event>
<event>
 7    1  0.6610867E-006  0.2000493E+03  0.7561462E-02  0.1149697E+00
          2   -1    0    0  501    0  0.00000000000E+00  0.00000000000E+00  0.98958973997E+03  0.98958973997E+03  0.00000000000E+00 0. -1.
         -2   -1    0    0    0  501 -0.00000000000E+00 -0.00000000000E+00 -0.45674883501E+02  0.45674883501E+02  0.00000000000E+00 0.  1.
         23    2    1    2    0    0 -0.17647178634E+03  0.39527681371E+02  0.39269616655E+03  0.44180514251E+03  0.90976786891E+02 0.  0.
          5    1    1    2  502    0  0.16143899616E+03 -0.75005765174E+02  0.48601542727E+03  0.51760688001E+03  0.41800000000E+01 0.  1.
         -5    1    1    2    0  502  0.15032790184E+02  0.35478083803E+02  0.65203262637E+02  0.75852600941E+02  0.41800000000E+01 0.  1.
        -11    1    3    3    0    0 -0.93377068132E+02  0.56615450534E+01  0.10591059515E+03  0.14130953298E+03  0.00000000000E+00 0.  1.
         11    1    3    3    0    0 -0.83094718213E+02  0.33866136318E+02  0.28678557140E+03  0.30049560953E+03  0.00000000000E+00 0. -1.
</event>
<event>
 7    1  0.6610867E-006  0.1107757E+03  0.7561462E-02  0.1259140E+00
          2   -1    0    0  501    0  0.00000000000E+00  0.00000000000E+00  0.56109815591E+02  0.56109815591E+02  0.00000000000E+00 0. -1.
         -2   -1    0    0    0  501 -0.00000000000E+00 -0.00000000000E+00 -0.29995102925E+03  0.29995102925E+03  0.00000000000E+00 0.  1.
         23    2    1    2    0    0  0.46912832209E+02 -0.27463243664E+02 -0.16703396110E+03  0.19953049577E+03  0.94641592349E+02 0.  0.
          5    1    1    2  502    0 -0.23271583696E+02 -0.45344543278E+02 -0.58519306658E+02  0.77715351537E+02  0.41800000000E+01 0. -1.
         -5    1    1    2    0  502 -0.23641248513E+02  0.72807786942E+02 -0.18287945897E+02  0.78814997531E+02  0.41800000000E+01 0. -1.
        -11    1    3    3    0    0  0.30968226923E+02 -0.54313111598E+02 -0.15302551507E+03  0.16530503148E+03  0.00000000000E+00 0.  1.
         11    1    3    3    0    0  0.15944605286E+02  0.26849867933E+02 -0.14008446036E+02  0.34225464293E+02  0.00000000000E+00 0. -1.
</event>
<event>
 7    1  0.6610867E-006  0.1294714E+03  0.7561462E-02  0.1228242E+00
          1   -1    0    0  501    0  0.00000000000E+00  0.00000000000E+00  0.18290374573E+03  0.18290374573E+03  0.00000000000E+00 0. -1.
         -1   -1    0    0    0  501 -0.00000000000E+00 -0.00000000000E+00 -0.11393989292E+03  0.11393989292E+03  0.00000000000E+00 0.  1.
         23    2    1    2    0    0  0.75514489654E+02  0.58146768217E+02  0.41043146183E+02  0.13712081493E+03  0.89633103464E+02 0.  0.
          5    1    1    2  502    0 -0.62176631127E+02  0.28289937179E+02  0.22315353917E+02  0.71984035899E+02  0.41800000000E+01 0.  1.
         -5    1    1    2    0  502 -0.13337858527E+02 -0.86436705396E+02  0.56053527092E+01  0.87738787824E+02  0.41800000000E+01 0.  1.
        -11    1    3    3    0    0  0.72067009061E+00  0.18082747322E+02  0.48674598453E+02  0.51929968714E+02  0.00000000000E+00 0. -1.
         11    1    3    3    0    0  0.74793819563E+02  0.40064020895E+02 -0.76314522702E+01  0.85190846216E+02  0.00000000000E+00 0.  1.
</event>
<event>
 7    1  0.6610867E-006  0.1624456E+03  0.7561462E-02  0.1185963E+00
          2   -1    0    0  501    0  0.00000000000E+00  0.00000000000E+00  0.77312920772E+03  0.77312920772E+03  0.00000000000E+00 0. -1.
         -2   -1    0    0    0  501 -0.00000000000E+00 -0.00000000000E+00 -0.43157685521E+02  0.43157685521E+02  0.00000000000E+00 0.  1.
         23    2    1    2    0    0  0.99034046269E+02  0.86926288904E+02  0.19934223497E+03  0.25541334229E+03  0.90192720071E+02 0.  0.
          5    1    1    2  502    0 -0.10317686706E+03 -0.11145178300E+03  0.40111347228E+03  0.42892476715E+03  0.41800000000E+01 0. -1.
         -5    1    1    2    0  502  0.41428207956E+01  0.24525494092E+02  0.12951581495E+03  0.13194878380E+03  0.41800000000E+01 0. -1.
        -11    1    3    3    0    0  0.91755397193E+02  0.39743633616E+02  0.84042379903E+02  0.13062056096E+03  0.00000000000E+00 0.  1.
         11    1    3    3    0    0  0.72786490766E+01  0.47182655288E+02  0.11529985507E+03  0.12479278132E+03  0.00000000000E+00 0. -1.
</event>
<event>
 7    1  0.6610867E-006  0.1269715E+03  0.7561462E-02  0.1232020E+00
          2   -1    0    0  501    0  0.00000000000E+00  0.00000000000E+00  0.40860078622E+03  0.40860078622E+03  0.00000000000E+00 0. -1.
         -2   -1    0    0    0  501 -0.00000000000E+00 -0.00000000000E+00 -0.60425850978E+02  0.60425850978E+02  0.00000000000E+00 0.  1.
         23    2    1    2    0    0  0.94841868312E+02 -0.48419731644E+02  0.83745868112E+02  0.16318778922E+03  0.90980402983E+02 0.  0.
          5    1    1    2  502    0  0.17743282449E+02  0.71940107165E+01  0.10224446462E+03  0.10410562332E+03  0.41800000000E+01 0. -1.
         -5    1    1    2    0  502 -0.11258515076E+03  0.41225720928E+02  0.16218460251E+03  0.20173322465E+03  0.41800000000E+01 0.  1.
        -11    1    3    3    0    0  0.96477784537E+02 -0.37777918368E+02  0.99799567080E+02  0.14385787297E+03  0.00000000000E+00 0. -1.
         11    1    3    3    0    0 -0.16359162253E+01 -0.10641813276E+02 -0.16053698968E+02  0.19329916251E+02  0.00000000000E+00 0.  1.
</event>
<event>
 7    1  0.6610867E-006  0.1235190E+03  0.7561462E-02  0.1237402E+00
          2   -1    0    0  501    0  0.00000000000E+00  0.00000000000E+00  0.37810919627E+03  0.37810919627E+03  0.00000000000E+00 0. -1.
         -2   -1    0    0    0  501 -0.00000000000E+00 -0.00000000000E+00 -0.47766135498E+02  0.47766135498E+02  0.00000000000E+00 0.  1.
         23    2    1    2    0    0  0.62315700653E+02 -0.90191606998E+01  0.14446751090E+03  0.18192704652E+03  0.90895526529E+02 0.  0.
          5    1    1    2  502    0  0.15219549722E+02  0.55870483258E+02  0.11509444515E+03  0.12890829802E+03  0.41800000000E+01 0. -1.
         -5    1    1    2    0  502 -0.77535250375E+02 -0.46851322558E+02  0.70781104726E+02  0.11503998723E+03  0.41800000000E+01 0.  1.
        -11    1    3    3    0    0  0.73155954810E+02 -0.26429764179E+02  0.69854447042E+02  0.10454649650E+03  0.00000000000E+00 0.  1.
         11    1    3    3    0    0 -0.10840254157E+02  0.17410603479E+02  0.74613063855E+02  0.77380550021E+02  0.00000000000E+00 0. -1.
</event>
<event>
 7    1  0.6610867E-006  0.8443792E+02  0.7561462E-02  0.1316909E+00
         -1   -1    0    0    0  501 -0.00000000000E+00  0.00000000000E+00  0.10663788161E+03  0.10663788161E+03  0.00000000000E+00 0.  1.
          1   -1    0    0  501    0  0.00000000000E+00 -0.00000000000E+00 -0.22680636603E+03  0.22680636603E+03  0.00000000000E+00 0. -1.
         23    2    1    2    0    0  0.51850087002E+02  0.23528931270E+02  0.44321612078E+02  0.11910942065E+03  0.94766062816E+02 0.  0.
          5    1    1    2  502    0 -0.23374334795E+02 -0.22187230678E+02  0.12645427415E+02  0.34871363134E+02  0.41800000000E+01 0. -1.
         -5    1    1    2    0  502 -0.28475752208E+02 -0.13417005912E+01 -0.17713552391E+03  0.17946346385E+03  0.41800000000E+01 0. -1.
        -11    1    3    3    0    0  0.26624081527E+02 -0.34916386457E+02  0.31845453822E+02  0.54241392769E+02  0.00000000000E+00 0.  1.
         11    1    3    3    0    0  0.25226005475E+02  0.58445317726E+02  0.12476158255E+02  0.64868027881E+02  0.00000000000E+00 0. -1.
</event>
<event>
 7    1  0.6610867E-006  0.1068494E+03  0.7561462E-02  0.1266518E+00
         -1   -1    0    0    0  501 -0.00000000000E+00  0.00000000000E+00  0.39016365555E+02  0.39016365555E+02  0.00000000000E+00 0.  1.
          1   -1    0    0  501    0  0.00000000000E+00 -0.00000000000E+00 -0.52772162419E+03  0.52772162419E+03  0.00000000000E+00 0. -1.
         23    2    1    2    0    0 -0.20120470494E+02 -0.55416565791E+02 -0.70637325419E+02  0.12639456065E+03  0.86660972310E+02 0.  0.
          5    1    1    2  502    0 -0.45538272694E+02 -0.56961817734E+01 -0.10534186572E+03  0.11498070203E+03  0.41800000000E+01 0. -1.
         -5    1    1    2    0  502  0.65658743188E+02  0.61112747564E+02 -0.31272606750E+03  0.32536272707E+03  0.41800000000E+01 0. -1.
        -11    1    3    3    0    0 -0.19418741675E+02  0.27819289634E+01  0.13697180695E+02  0.23925706176E+02  0.00000000000E+00 0.  1.
         11    1    3    3    0    0 -0.70172881844E+00 -0.58198494754E+02 -0.84334506115E+02  0.10246885447E+03  0.00000000000E+00 0. -1.
</event>
<event>
 7    1  0.6610867E-006  0.1059061E+03  0.7561462E-02  0.1268345E+00
          3   -1    0    0  501    0  0.00000000000E+00  0.00000000000E+00  0.82041269304E+03  0.82041269304E+03  0.00000000000E+00 0. -1.
         -3   -1    0    0    0  501 -0.00000000000E+00 -0.00000000000E+00 -0.21210393162E+02  0.21210393162E+02  0.00000000000E+00 0.  1.
         23    2    1    2    0    0  0.71148982736E+02  0.78538923858E+01  0.31210617467E+03  0.33365238523E+03  0.93753872074E+02 0.  0.
          5    1    1    2  502    0 -0.98159428933E+02 -0.45879233924E+01  0.24037757594E+03  0.25972133902E+03  0.41800000000E+01 0. -1.
         -5    1    1    2    0  502  0.27010446197E+02 -0.32659689934E+01  0.24671854926E+03  0.24824936195E+03  0.41800000000E+01 0. -1.
        -11    1    3    3    0    0  0.25475439656E+02 -0.20039748383E+02  0.23272267889E+02  0.39902230435E+02  0.00000000000E+00 0.  1.
         11    1    3    3    0    0  0.45673543079E+02  0.27893640769E+02  0.28883390678E+03  0.29375015479E+03  0.00000000000E+00 0. -1.
</event>
<event>
 7    1  0.6610867E-006  0.1736585E+03  0.7561462E-02  0.1174085E+00
         -2   -1    0    0    0  501 -0.00000000000E+00  0.00000000000E+00  0.19944977095E+02  0.19944977095E+02  0.00000000000E+00 0.  1.
          2   -1    0    0  501    0  0.00000000000E+00 -0.00000000000E+00 -0.19720632546E+04  0.19720632546E+04  0.00000000000E+00 0. -1.
         23    2    1    2    0    0 -0.88709373505E+02  0.13536279095E+03 -0.75433471539E+03  0.77688664175E+03  0.91321154058E+02 0.  0.
          5    1    1    2  502    0  0.30795714660E+02 -0.36005652526E+02 -0.78945148202E+03  0.79088298624E+03  0.41800000000E+01 0.  1.
         -5    1    1    2    0  502  0.57913658845E+02 -0.99357138419E+02 -0.40833208011E+03  0.42423860372E+03  0.41800000000E+01 0.  1.
        -11    1    3    3    0    0 -0.30400609543E+02  0.12081074429E+03 -0.54775810973E+03  0.56174583200E+03  0.00000000000E+00 0. -1.
         11    1    3    3    0    0 -0.58308763962E+02  0.14552046660E+02 -0.20657660566E+03  0.21514080976E+03  0.00000000000E+00 0.  1.
</event>
<event>
 7    1  0.6610867E-006  0.6994644E+02  0.7561462E-02  0.1360275E+00
         -2   -1    0    0    0  501 -0.00000000000E+00  0.00000000000E+00  0.10047060646E+03  0.10047060646E+03  0.00000000000E+00 0.  1.
          2   -1    0    0  501    0  0.00000000000E+00 -0.00000000000E+00 -0.15329924019E+03  0.15329924019E+03  0.00000000000E+00 0. -1.
         23    2    1    2    0    0  0.51685659467E+02 -0.97848629127E+01  0.50772286796E+01  0.10623455153E+03  0.92156664166E+02 0.  0.
          5    1    1    2  502    0 -0.52142147949E+02  0.35249294638E+01 -0.95633295256E+02  0.10906158023E+03  0.41800000000E+01 0.  1.
         -5    1    1    2    0  502  0.45648848172E+00  0.62599334489E+01  0.37727432849E+02  0.38473714896E+02  0.41800000000E+01 0.  1.
        -11    1    3    3    0    0  0.43002718315E+01  0.22291529479E+02 -0.31123468431E+02  0.38523692859E+02  0.00000000000E+00 0. -1.
         11    1    3    3    0    0  0.47385387636E+02 -0.32076392391E+02  0.36200697110E+02  0.67710858667E+02  0.00000000000E+00 0.  1.
</event>
<event>
 7    1  0.6610867E-006  0.1426760E+03  0.7561462E-02  0.1209773E+00
          2   -1    0    0  501    0  0.00000000000E+00  0.00000000000E+00  0.96624933304E+02  0.96624933304E+02  0.00000000000E+00 0. -1.
         -2   -1    0    0    0  501 -0.00000000000E+00 -0.00000000000E+00 -0.26381488034E+03  0.26381488034E+03  0.00000000000E+00 0.  1.
         23    2    1    2    0    0  0.10884539107E+03  0.40833388306E+02 -0.95739069312E+02  0.17532239283E+03  0.89762393449E+02 0.  0.
          5    1    1    2  502    0 -0.10054786356E+02  0.37214474849E+02 -0.39084892835E+02  0.55055582050E+02  0.41800000000E+01 0. -1.
         -5    1    1    2    0  502 -0.98790604717E+02 -0.78047863155E+02 -0.32365984885E+02  0.13006183876E+03  0.41800000000E+01 0. -1.
        -11    1    3    3    0    0  0.62777904231E+02  0.64210947786E+01 -0.99361118348E+02  0.11770695628E+03  0.00000000000E+00 0.  1.
         11    1    3    3    0    0  0.46067486842E+02  0.34412293527E+02  0.36220490362E+01  0.57615436551E+02  0.00000000000E+00 0. -1.
</event>
<event>
 7    1  0.6610867E-006  0.1399466E+03  0.7561462E-02  0.1213401E+00
         -1   -1    0    0    0  501 -0.00000000000E+00  0.00000000000E+00  0.11125373689E+03  0.11125373689E+03  0.00000000000E+00 0.  1.
          1   -1    0    0  501    0  0.00000000000E+00 -0.00000000000E+00 -0.21369391115E+03  0.21369391115E+03  0.00000000000E+00 0. -1.
         23    2    1    2    0    0 -0.95952039813E+00  0.10562719044E+03 -0.18528086761E+02  0.14097318835E+03  0.91499321279E+02 0.  0.
          5    1    1    2  502    0  0.33862786394E+02  0.56850440551E+01  0.84168014770E+01  0.35599479987E+02  0.41800000000E+01 0.  1.
         -5    1    1    2    0  502 -0.32903265996E+02 -0.11131223450E+03 -0.92328888981E+02  0.14837497971E+03  0.41800000000E+01 0.  1.
        -11    1    3    3    0    0 -0.35610300665E+02  0.32406430465E+02  0.18917222612E+02  0.51731340213E+02  0.00000000000E+00 0.  1.
         11    1    3    3    0    0  0.34650780267E+02  0.73220759979E+02 -0.37445309373E+02  0.89241848138E+02  0.00000000000E+00 0. -1.
</event>
<event>
 7    1  0.6610867E-006  0.1231491E+03  0.7561462E-02  0.1237991E+00
          1   -1    0    0  501    0  0.00000000000E+00  0.00000000000E+00  0.68022777314E+02  0.68022777314E+02  0.00000000000E+00 0. -1.
         -1   -1    0    0    0  501 -0.00000000000E+00 -0.00000000000E+00 -0.53266521353E+03  0.53266521353E+03  0.00000000000E+00 0.  1.
         23    2    1    2    0    0  0.89579580304E+01 -0.11370644377E+03 -0.39008307677E+03  0.41570960841E+03  0.87408645874E+02 0.  0.
          5    1    1    2  502    0  0.35571778686E+01  0.65553880657E+02 -0.10688022069E+03  0.12550226595E+03  0.41800000000E+01 0.  1.
         -5    1    1    2    0  502 -0.12515135899E+02  0.48152563118E+02  0.32320861240E+02  0.59476116490E+02  0.41800000000E+01 0.  1.
        -11    1    3    3    0    0  0.36583378982E+02 -0.65842372571E+02 -0.30567993311E+03  0.31482341582E+03  0.00000000000E+00 0.  1.
         11    1    3    3    0    0 -0.27625420952E+02 -0.47864071204E+02 -0.84403143654E+02  0.10088619258E+03  0.00000000000E+00 0. -1.
</event>
<event>
 7    1  0.6610867E-006  0.9850156E+02  0.7561462E-02  0.1283479E+00
          2   -1    0    0  501    0  0.00000000000E+00  0.00000000000E+00  0.62395687955E+03  0.62395687955E+03  0.00000000000E+00 0. -1.
         -2   -1    0    0    0  501 -0.00000000000E+00 -0.00000000000E+00 -0.25316285830E+02  0.25316285830E+02  0.00000000000E+00 0.  1.
         23    2    1    2    0    0  0.50742062304E+02 -0.37855235142E+02  0.24993131778E+03  0.27343563479E+03  0.91069243190E+02 0.  0.
          5    1    1    2  502    0 -0.70382038157E+02  0.19672309629E+02  0.91363954410E+02  0.11707038749E+03  0.41800000000E+01 0. -1.
         -5    1    1    2    0  502  0.19639975853E+02  0.18182925513E+02  0.25734532153E+03  0.25876714310E+03  0.41800000000E+01 0. -1.
        -11    1    3    3    0    0  0.50243711800E+02  0.79830409049E+01  0.63055355367E+02  0.81019364092E+02  0.00000000000E+00 0.  1.
         11    1    3    3    0    0  0.49835050418E+00 -0.45838276047E+02  0.18687596241E+03  0.19241627070E+03  0.00000000000E+00 0. -1.
</event>
<event>
 7    1  0.6610867E-006  0.1323327E+03  0.7561462E-02  0.1224035E+00
          2   -1    0    0  501    0  0.00000000000E+00  0.00000000000E+00  0.82515586747E+03  0.82515586747E+03  0.00000000000E+00 0. -1.
         -2   -1    0    0    0  501 -0.00000000000E+00 -0.00000000000E+00 -0.25005409931E+02  0.25005409931E+02  0.00000000000E+00 0.  1.
         23    2    1    2    0    0  0.81465925746E+02 -0.47175099325E+02  0.29133859048E+03  0.31780848017E+03  0.85216598789E+02 0.  0.
          5    1    1    2  502    0  0.29739825157E+02  0.31219149120E+02  0.11835877050E+03  0.12603715098E+03  0.41800000000E+01 0. -1.
         -5    1    1    2    0  502 -0.11120575090E+03  0.15955950205E+02  0.39045309656E+03  0.40631564626E+03  0.41800000000E+01 0. -1.
        -11    1    3    3    0    0  0.22092931342E+01 -0.27065692594E+02  0.18193284186E+02  0.32686821216E+02  0.00000000000E+00 0.  1.
         11    1    3    3    0    0  0.79256632612E+02 -0.20109406731E+02  0.27314530630E+03  0.28512165895E+03  0.00000000000E+00 0. -1.
</event>
<event>
 7    1  0.6610867E-006  0.1390060E+03  0.7561462E-02  0.1214673E+00
         -1   -1    0    0    0  501 -0.00000000000E+00  0.00000000000E+00  0.39630666702E+02  0.39630666702E+02  0.00000000000E+00 0.  1.
          1   -1    0    0  501    0  0.00000000000E+00 -0.00000000000E+00 -0.56958859259E+03  0.56958859259E+03  0.00000000000E+00 0. -1.
         23    2    1    2    0    0 -0.99752451907E+02 -0.87846720298E+01 -0.18666723555E+03  0.23037423087E+03  0.90553339506E+02 0.  0.
          5    1    1    2  502    0 -0.29320108743E+02 -0.48303050482E+01 -0.75003686989E+02  0.80783823167E+02  0.41800000000E+01 0.  1.
         -5    1    1    2    0  502  0.12907256065E+03  0.13614977078E+02 -0.26828700335E+03  0.29806120526E+03  0.41800000000E+01 0.  1.
        -11    1    3    3    0    0 -0.42530095319E+02  0.27262999524E+02 -0.27688862463E+02  0.57608621363E+02  0.00000000000E+00 0.  1.
         11    1    3    3    0    0 -0.57222356588E+02 -0.36047671554E+02 -0.15897837309E+03  0.17276560951E+03  0.00000000000E+00 0. -1.
</event>
<event>
 7    1  0.6610867E-006  0.1959094E+03  0.7561462E-02  0.1153237E+00
         -2   -1    0    0    0  501 -0.00000000000E+00  0.00000000000E+00  0.42726987817E+02  0.42726987817E+02  0.00000000000E+00 0.  1.
          2   -1    0    0  501    0  0.00000000000E+00 -0.00000000000E+00 -0.12283260115E+04  0.12283260115E+04  0.00000000000E+00 0. -1.
         23    2    1    2    0    0 -0.19956005883E+02 -0.18104862151E+03 -0.33720561076E+03  0.39435678702E+03  0.92912894815E+02 0.  0.
          5    1    1    2  502    0 -0.14013136994E+02  0.52580671653E+02 -0.79730253217E+02  0.96620291440E+02  0.41800000000E+01 0.  1.
         -5    1    1    2    0  502  0.33969142878E+02  0.12846794985E+03 -0.76866315973E+03  0.78007592088E+03  0.41800000000E+01 0.  1.
        -11    1    3    3    0    0  0.37339749367E+02 -0.72690681879E+02 -0.12683131044E+03  0.15087867120E+03  0.00000000000E+00 0. -1.
         11    1    3    3    0    0 -0.57295755250E+02 -0.10835793963E+03 -0.21037430032E+03  0.24347811583E+03  0.00000000000E+00 0.  1.
</event>
<event>
 7    1  0.6610867E-006  0.9369579E+02  0.7561462E-02  0.1294141E+00
         -1   -1    0    0    0  501 -0.00000000000E+00  0.00000000000E+00  0.40227699385E+02  0.40227699385E+02  0.00000000000E+00 0.  1.
          1   -1    0    0  501    0  0.00000000000E+00 -0.00000000000E+00 -0.43303126777E+03  0.43303126777E+03  0.00000000000E+00 0. -1.
         23    2    1    2    0    0 -0.23957202490E+02  0.59569196125E+02 -0.80387988820E+02  0.13066063739E+03  0.80545246527E+02 0.  0.
          5    1    1    2  502    0 -0.14633339192E+02 -0.37927358146E+02 -0.17673624854E+02  0.44524695702E+02  0.41800000000E+01 0. -1.
         -5    1    1    2    0  502  0.38590541682E+02 -0.21641837979E+02 -0.29474195471E+03  0.29807363407E+03  0.41800000000E+01 0. -1.
        -11    1    3    3    0    0  0.26216789591E+02  0.40833280159E+02 -0.29538046967E+02  0.56808212819E+02  0.00000000000E+00 0.  1.
         11    1    3    3    0    0 -0.50173992080E+02  0.18735915966E+02 -0.50849941853E+02  0.73852424570E+02  0.00000000000E+00 0. -1.
</event>
<event>
 7    1  0.6610867E-006  0.9387597E+02  0.7561462E-02  0.1293728E+00
          1   -1    0    0  501    0  0.00000000000E+00  0.00000000000E+00  0.70755127569E+02  0.70755127569E+02  0.00000000000E+00 0. -1.
         -1   -1    0    0    0  501 -0.00000000000E+00 -0.00000000000E+00 -0.24485731786E+03  0.24485731786E+03  0.00000000000E+00 0.  1.
         23    2    1    2    0    0  0.13719948808E+01  0.68251533466E+02 -0.11011301636E+03  0.15940248132E+03  0.92866142865E+02 0.  0.
          5    1    1    2  502    0  0.30918409333E+02  0.41128323401E+01 -0.69880497281E+02  0.76639544138E+02  0.41800000000E+01 0. -1.
         -5    1    1    2    0  502 -0.32290404214E+02 -0.72364365806E+02  0.58913233472E+01  0.79570419966E+02  0.41800000000E+01 0. -1.
        -11    1    3    3    0    0  0.17940219824E+02  0.26402445691E+02 -0.10984827125E+03  0.11439223454E+03  0.00000000000E+00 0.  1.
         11    1    3    3    0    0 -0.16568224943E+02  0.41849087776E+02 -0.26474510178E+00  0.45010246782E+02  0.00000000000E+00 0. -1.
</event>
<event>
 7    1  0.6610867E-006  0.1241207E+03  0.7561462E-02  0.1236450E+00
          2   -1    0    0  501    0  0.00000000000E+00  0.00000000000E+00  0.10190508330E+04  0.10190508330E+04  0.00000000000E+00 0. -1.
         -2   -1    0    0    0  501 -0.00000000000E+00 -0.00000000000E+00 -0.31202134997E+02  0.31202134997E+02  0.00000000000E+00 0.  1.
         23    2    1    2    0    0  0.89889333120E+01  0.10991293262E+03  0.20966466892E+03  0.25440187774E+03  0.92732886978E+02 0.  0.
          5    1    1    2  502    0 -0.24017741774E+02 -0.11311091765E+03  0.76861024982E+03  0.77727094385E+03  0.41800000000E+01 0.  1.
         -5    1    1    2    0  502  0.15028808462E+02  0.31979850298E+01  0.95737793003E+01  0.18580146451E+02  0.41800000000E+01 0.  1.
        -11    1    3    3    0    0 -0.93743674652E+01  0.85747463385E+02  0.68887751489E+02  0.11039034626E+03  0.00000000000E+00 0.  1.
         11    1    3    3    0    0  0.18363300777E+02  0.24165469233E+02  0.14077691743E+03  0.14401153148E+03  0.00000000000E+00 0. -1.
</event>
<event>
 7    1  0.6610867E-006  0.1665193E+03  0.7561462E-02  0.1181527E+00
         -2   -1    0    0    0  501 -0.00000000000E+00  0.00000000000E+00  0.42488331182E+03  0.42488331182E+03  0.00000000000E+00 0.  1.
          2   -1    0    0  501    0  0.00000000000E+00 -0.00000000000E+00 -0.89988313683E+02  0.89988313683E+02  0.00000000000E+00 0. -1.
         23    2    1    2    0    0  0.59776542431E+02 -0.13705790941E+03  0.76141441188E+02  0.19089667805E+03  0.91027012847E+02 0.  0.
          5    1    1    2  502    0 -0.62156491790E+02  0.24261014774E+02  0.16213240915E+03  0.17537507465E+03  0.41800000000E+01 0.  1.
         -5    1    1    2    0  502  0.23799493595E+01  0.11279689463E+03  0.96621147798E+02  0.14859987281E+03  0.41800000000E+01 0.  1.
        -11    1    3    3    0    0  0.16915048928E+02 -0.80844431296E+02  0.86328925995E+02  0.11947645967E+03  0.00000000000E+00 0.  1.
         11    1    3    3    0    0  0.42861493503E+02 -0.56213478110E+02 -0.10187484807E+02  0.71420218379E+02  0.00000000000E+00 0. -1.
</event>
<event>
 7    1  0.6610867E-006  0.1125050E+03  0.7561462E-02  0.1256000E+00
         -1   -1    0    0    0  501 -0.00000000000E+00  0.00000000000E+00  0.28204775756E+02  0.28204775756E+02  0.00000000000E+00 0.  1.
          1   -1    0    0  501    0  0.00000000000E+00 -0.00000000000E+00 -0.57195484842E+03  0.57195484842E+03  0.00000000000E+00 0. -1.
         23    2    1    2    0    0  0.35191802951E+02  0.15427275225E+02 -0.10839921034E+03  0.14556556411E+03  0.89232734111E+02 0.  0.
          5    1    1    2  502    0 -0.26750050899E+02  0.54193850721E+02 -0.19690784247E+03  0.20601628456E+03  0.41800000000E+01 0. -1.
         -5    1    1    2    0  502 -0.84417520522E+01 -0.69621125946E+02 -0.23844301986E+03  0.24857777551E+03  0.41800000000E+01 0. -1.
        -11    1    3    3    0    0 -0.71665700858E+01 -0.30713376445E+02 -0.20435399546E+02  0.37580271075E+02  0.00000000000E+00 0.  1.
         11    1    3    3    0    0  0.42358373037E+02  0.46140651670E+02 -0.87963810789E+02  0.10798529303E+03  0.00000000000E+00 0. -1.
</event>
<event>
 7    1  0.6610867E-006  0.7386694E+02  0.7561462E-02  0.1347416E+00
         -1   -1    0    0    0  501 -0.00000000000E+00  0.00000000000E+00  0.32131912138E+03  0.32131912138E+03  0.00000000000E+00 0.  1.
          1   -1    0    0  501    0  0.00000000000E+00 -0.00000000000E+00 -0.42133506674E+02  0.42133506674E+02  0.00000000000E+00 0. -1.
         23    2    1    2    0    0 -0.28149038043E+02  0.17015447593E+02  0.16840049261E+03  0.19311375075E+03  0.88613210168E+02 0.  0.
          5    1    1    2  502    0  0.90509141488E+01 -0.53239955042E+02  0.11679053423E+03  0.12873971084E+03  0.41800000000E+01 0.  1.
         -5    1    1    2    0  502  0.19098123894E+02  0.36224507449E+02 -0.60054121376E+01  0.41599166472E+02  0.41800000000E+01 0.  1.
        -11    1    3    3    0    0 -0.14966158713E+02 -0.12871536888E+02 -0.17862390329E+01  0.19820520133E+02  0.00000000000E+00 0. -1.
         11    1    3    3    0    0 -0.13182879330E+02  0.29886984481E+02  0.17018673164E+03  0.17329323061E+03  0.00000000000E+00 0.  1.
</event>
<event>
 7    1  0.6610867E-006  0.1071029E+03  0.7561462E-02  0.1266031E+00
          1   -1    0    0  501    0  0.00000000000E+00  0.00000000000E+00  0.44904112034E+02  0.44904112034E+02  0.00000000000E+00 0. -1.
         -1   -1    0    0    0  501 -0.00000000000E+00 -0.00000000000E+00 -0.32651285244E+03  0.32651285244E+03  0.00000000000E+00 0.  1.
         23    2    1    2    0    0 -0.53969841390E+02  0.31916987236E+01 -0.13100193818E+03  0.16830733803E+03  0.90790536431E+02 0.  0.
          5    1    1    2  502    0  0.69296636428E+02  0.46830333019E+02 -0.89876037645E+02  0.12284249450E+03  0.41800000000E+01 0.  1.
         -5    1    1    2    0  502 -0.15326795038E+02 -0.50022031742E+02 -0.60730764582E+02  0.80267131956E+02  0.41800000000E+01 0.  1.
        -11    1    3    3    0    0 -0.15059019881E+02  0.28029070404E+02 -0.11520326792E+03  0.11951650851E+03  0.00000000000E+00 0.  1.
         11    1    3    3    0    0 -0.38910821509E+02 -0.24837371681E+02 -0.15798670261E+02  0.48790829512E+02  0.00000000000E+00 0. -1.
</event>
<event>
 7    1  0.6610867E-006  0.1432694E+03  0.7561462E-02  0.1208996E+00
         -2   -1    0    0    0  501 -0.00000000000E+00  0.00000000000E+00  0.71825903086E+03  0.71825903086E+03  0.00000000000E+00 0.  1.
          2   -1    0    0  501    0  0.00000000000E+00 -0.00000000000E+00 -0.43496826425E+02  0.43496826425E+02  0.00000000000E+00 0. -1.
         23    2    1    2    0    0 -0.91694341338E+02  0.71419542973E+02  0.48365890005E+03  0.50548094717E+03  0.89869088095E+02 0.  0.
          5    1    1    2  502    0 -0.15539608023E+02 -0.17699826971E+02  0.10721709577E+03  0.10985327176E+03  0.41800000000E+01 0.  1.
         -5    1    1    2    0  502  0.10723394936E+03 -0.53719716002E+02  0.83886208612E+02  0.14642163835E+03  0.41800000000E+01 0.  1.
        -11    1    3    3    0    0 -0.86833441095E+02  0.17638179127E+02  0.23805269047E+03  0.25400833706E+03  0.00000000000E+00 0.  1.
         11    1    3    3    0    0 -0.48609002434E+01  0.53781363846E+02  0.24560620958E+03  0.25147261011E+03  0.00000000000E+00 0. -1.
</event>
<event>
 7    1  0.6610867E-006  0.1154577E+03  0.7561462E-02  0.1250784E+00
          2   -1    0    0  501    0  0.00000000000E+00  0.00000000000E+00  0.73010684614E+03  0.73010684614E+03  0.00000000000E+00 0. -1.
         -2   -1    0    0    0  501 -0.00000000000E+00 -0.00000000000E+00 -0.53855318258E+02  0.53855318258E+02  0.00000000000E+00 0.  1.
         23    2    1    2    0    0  0.73911249469E+02  0.69829231104E+02  0.57349750812E+02  0.14698725029E+03  0.89315527849E+02 0.  0.
          5    1    1    2  502    0 -0.28714180518E+02 -0.41170274568E+02  0.53502916574E+03  0.53739480484E+03  0.41800000000E+01 0. -1.
         -5    1    1    2    0  502 -0.45197068951E+02 -0.28658956536E+02  0.83872611329E+02  0.99580109272E+02  0.41800000000E+01 0.  1.
        -11    1    3    3    0    0 -0.15935556816E+02  0.12898720893E+02  0.31403440140E+02  0.37503266849E+02  0.00000000000E+00 0. -1.
         11    1    3    3    0    0  0.89846806285E+02  0.56930510211E+02  0.25946310672E+02  0.10948398344E+03  0.00000000000E+00 0.  1.
</event>
<event>
 7    1  0.6610867E-006  0.8321538E+02  0.7561462E-02  0.1320167E+00
          2   -1    0    0  501    0  0.00000000000E+00  0.00000000000E+00  0.26282484546E+03  0.26282484546E+03  0.00000000000E+00 0. -1.
         -2   -1    0    0    0  501 -0.00000000000E+00 -0.00000000000E+00 -0.85687234894E+02  0.85687234894E+02  0.00000000000E+00 0.  1.
         23    2    1    2    0    0  0.61084182417E+01 -0.26096369112E+02 -0.37132797087E+02  0.98957183085E+02  0.87723122439E+02 0.  0.
          5    1    1    2  502    0 -0.32898405903E+02 -0.32928548887E+02  0.33588701150E+02  0.57552303931E+02  0.41800000000E+01 0. -1.
         -5    1    1    2    0  502  0.26789987661E+02  0.59024917999E+02  0.18068170650E+03  0.19200259333E+03  0.41800000000E+01 0. -1.
        -11    1    3    3    0    0  0.21456381991E+02 -0.31805836928E+02 -0.59766198747E+02  0.71021025785E+02  0.00000000000E+00 0.  1.
         11    1    3    3    0    0 -0.15347963749E+02  0.57094678161E+01  0.22633401661E+02  0.27936157300E+02  0.00000000000E+00 0. -1.
</event>
<event>
 7    1  0.6610867E-006  0.1045454E+03  0.7561462E-02  0.1271018E+00
          2   -1    0    0  501    0  0.00000000000E+00  0.00000000000E+00  0.11879927569E+04  0.11879927569E+04  0.00000000000E+00 0. -1.
         -2   -1    0    0    0  501 -0.00000000000E+00 -0.00000000000E+00 -0.12204230465E+02  0.12204230465E+02  0.00000000000E+00 0.  1.
         23    2    1    2    0    0  0.42632218266E+02  0.10896428564E+01  0.36154408468E+03  0.37529659483E+03  0.91185062190E+02 0.  0.
          5    1    1    2  502    0  0.31553908811E+02  0.10128272828E+02  0.52474641206E+03  0.52580842561E+03  0.41800000000E+01 0. -1.
         -5    1    1    2    0  502 -0.74186127077E+02 -0.11217915684E+02  0.28949802967E+03  0.29909196691E+03  0.41800000000E+01 0. -1.
        -11    1    3    3    0    0 -0.12755463711E+02  0.33862724016E+02  0.12137489812E+03  0.12665406359E+03  0.00000000000E+00 0.  1.
         11    1    3    3    0    0  0.55387681977E+02 -0.32773081160E+02  0.24016918657E+03  0.24864253124E+03  0.00000000000E+00 0. -1.
</event>
<event>
 7    1  0.6610867E-006  0.1056405E+03  0.7561462E-02  0.1268863E+00
          2   -1    0    0  501    0  0.00000000000E+00  0.00000000000E+00  0.12359465683E+04  0.12359465683E+04  0.00000000000E+00 0. -1.
         -2   -1    0    0    0  501 -0.00000000000E+00 -0.00000000000E+00 -0.15947354230E+02  0.15947354230E+02  0.00000000000E+00 0.  1.
         23    2    1    2    0    0 -0.18508120604E+02  0.42230869970E+01  0.25862343832E+03  0.28304616638E+03  0.11344013603E+03 0.  0.
          5    1    1    2  502    0  0.13652041069E+02 -0.49352663292E+02  0.78492132826E+03  0.78660093284E+03  0.41800000000E+01 0. -1.
         -5    1    1    2    0  502  0.48560795348E+01  0.45129576295E+02  0.17645444752E+03  0.18224682333E+03  0.41800000000E+01 0.  1.
        -11    1    3    3    0    0 -0.64240153292E+02  0.17721967028E+02  0.13517291160E+03  0.15070693893E+03  0.00000000000E+00 0. -1.
         11    1    3    3    0    0  0.45732032688E+02 -0.13498880031E+02  0.12345052672E+03  0.13233922745E+03  0.00000000000E+00 0.  1.
</event>
<event>
 7    1  0.6610867E-006  0.1639490E+03  0.7561462E-02  0.1184309E+00
          2   -1    0    0  501    0  0.00000000000E+00  0.00000000000E+00  0.39572854623E+03  0.39572854623E+03  0.00000000000E+00 0. -1.
         -2   -1    0    0    0  501 -0.00000000000E+00 -0.00000000000E+00 -0.83680469226E+02  0.83680469226E+02  0.00000000000E+00 0.  1.
         23    2    1    2    0    0  0.12203441352E+03 -0.39770309945E+02  0.54562851869E+02  0.16584311258E+03  0.89737158134E+02 0.  0.
          5    1    1    2  502    0  0.15605684107E+02  0.36884574025E+02  0.72554788525E+02  0.82979991054E+02  0.41800000000E+01 0. -1.
         -5    1    1    2    0  502 -0.13764009763E+03  0.28857359204E+01  0.18493043661E+03  0.23058591182E+03  0.41800000000E+01 0. -1.
        -11    1    3    3    0    0  0.10823778536E+02 -0.37107780940E+02  0.36461717923E+02  0.53137542867E+02  0.00000000000E+00 0. -1.
         11    1    3    3    0    0  0.11121063498E+03 -0.26625290055E+01  0.18101133946E+02  0.11270556971E+03  0.00000000000E+00 0.  1.
</event>
<event>
 7    1  0.6610867E-006  0.1183500E+03  0.7561462E-02  0.1245844E+00
          2   -1    0    0  501    0  0.00000000000E+00  0.00000000000E+00  0.15322507472E+03  0.15322507472E+03  0.00000000000E+00 0. -1.
         -2   -1    0    0    0  501 -0.00000000000E+00 -0.00000000000E+00 -0.59423558057E+03  0.59423558057E+03  0.00000000000E+00 0.  1.
         23    2    1    2    0    0 -0.57624821240E+02 -0.32911158435E+02 -0.40012235634E+03  0.42468405159E+03  0.12591615966E+03 0.  0.
          5    1    1    2  502    0  0.66435393049E+02 -0.14059254227E+02  0.12921851358E+03  0.14603499831E+03  0.41800000000E+01 0. -1.
         -5    1    1    2    0  502 -0.88105718096E+01  0.46970412662E+02 -0.17010666310E+03  0.17674160538E+03  0.41800000000E+01 0.  1.
        -11    1    3    3    0    0 -0.68393866996E+02 -0.60351944583E+02 -0.37505833323E+03  0.38599071437E+03  0.00000000000E+00 0.  1.
         11    1    3    3    0    0  0.10769045757E+02  0.27440786147E+02 -0.25064023114E+02  0.38693337224E+02  0.00000000000E+00 0. -1.
</event>
<event>
 7    1  0.6610867E-006  0.1095797E+03  0.7561462E-02  0.1261350E+00
          2   -1    0    0  501    0  0.00000000000E+00  0.00000000000E+00  0.16842936435E+04  0.16842936435E+04  0.00000000000E+00 0. -1.
         -2   -1    0    0    0  501 -0.00000000000E+00 -0.00000000000E+00 -0.86951631096E+01  0.86951631096E+01  0.00000000000E+00 0.  1.
         23    2    1    2    0    0 -0.79249138944E+01 -0.17000071011E+02  0.41250623633E+03  0.42357898019E+03  0.94371345088E+02 0.  0.
          5    1    1    2  502    0 -0.55685121074E+02 -0.35818970597E+01  0.72664113315E+03  0.72879247491E+03  0.41800000000E+01 0. -1.
         -5    1    1    2    0  502  0.63610034968E+02  0.20581968071E+02  0.53645111088E+03  0.54061735148E+03  0.41800000000E+01 0. -1.
        -11    1    3    3    0    0  0.20967212969E+02 -0.48882396910E+02  0.22933612554E+03  0.23542338717E+03  0.00000000000E+00 0.  1.
         11    1    3    3    0    0 -0.28892126863E+02  0.31882325899E+02  0.18317011079E+03  0.18815559303E+03  0.00000000000E+00 0. -1.
</event>
<event>
 7    1  0.6610867E-006  0.8880468E+02  0.7561462E-02  0.1305772E+00
          1   -1    0    0  501    0  0.00000000000E+00  0.00000000000E+00  0.13027952625E+03  0.13027952625E+03  0.00000000000E+00 0. -1.
         -1   -1    0    0    0  501 -0.00000000000E+00 -0.00000000000E+00 -0.97391235415E+02  0.97391235415E+02  0.00000000000E+00 0.  1.
         23    2    1    2    0    0 -0.32101463852E+02 -0.87368521717E+00  0.16344270119E+02  0.97466488937E+02  0.90561106402E+02 0.  0.
          5    1    1    2  502    0  0.55340476556E+02 -0.17949544175E+02  0.55770947897E+02  0.80700839592E+02  0.41800000000E+01 0.  1.
         -5    1    1    2    0  502 -0.23239012703E+02  0.18823229392E+02 -0.39226927181E+02  0.49503433136E+02  0.41800000000E+01 0.  1.
        -11    1    3    3    0    0 -0.59364716533E+02 -0.10271049746E+02  0.27908347753E+02  0.66396836568E+02  0.00000000000E+00 0.  1.
         11    1    3    3    0    0  0.27263252681E+02  0.93973645288E+01 -0.11564077633E+02  0.31069652369E+02  0.00000000000E+00 0. -1.
</event>
<event>
 7    1  0.6610867E-006  0.1768214E+03  0.7561462E-02  0.1170915E+00
          2   -1    0    0  501    0  0.00000000000E+00  0.00000000000E+00  0.27262609746E+03  0.27262609746E+03  0.00000000000E+00 0.  1.
         -2   -1    0    0    0  501 -0.00000000000E+00 -0.00000000000E+00 -0.14716116607E+03  0.14716116607E+03  0.00000000000E+00 0. -1.
         23    2    1    2    0    0 -0.37190163360E+01 -0.14513520585E+03 -0.28683767885E+02  0.17384478089E+03  0.91220558233E+02 0.  0.
          5    1    1    2  502    0  0.56354062340E+02  0.85993470930E+02  0.12396992573E+03  0.16111074536E+03  0.41800000000E+01 0. -1.
         -5    1    1    2    0  502 -0.52635046004E+02  0.59141734919E+02  0.30178773548E+02  0.84831737280E+02  0.41800000000E+01 0. -1.
        -11    1    3    3    0    0  0.42998728123E+02 -0.53796706050E+02 -0.11434078427E+02  0.69811992892E+02  0.00000000000E+00 0.  1.
         11    1    3    3    0    0 -0.46717744459E+02 -0.91338499799E+02 -0.17249689458E+02  0.10403278800E+03  0.00000000000E+00 0. -1.
</event>
<event>
 7    1  0.6610867E-006  0.1645404E+03  0.7561462E-02  0.1183664E+00
          1   -1    0    0  501    0  0.00000000000E+00  0.00000000000E+00  0.29987756758E+03  0.29987756758E+03  0.00000000000E+00 0. -1.
         -1   -1    0    0    0  501 -0.00000000000E+00 -0.00000000000E+00 -0.94641978981E+02  0.94641978981E+02  0.00000000000E+00 0.  1.
         23    2    1    2    0    0 -0.46213635414E+02  0.11458478685E+03  0.59531811963E+02  0.16617251587E+03  0.93829072894E+02 0.  0.
          5    1    1    2  502    0  0.10044271247E+02 -0.13405617011E+03  0.11336362467E+03  0.17589976671E+03  0.41800000000E+01 0.  1.
         -5    1    1    2    0  502  0.36169364167E+02  0.19471383263E+02  0.32340151965E+02  0.52447263985E+02  0.41800000000E+01 0.  1.
        -11    1    3    3    0    0  0.11407509973E+02  0.89879033375E+02  0.22477397070E+02  0.93346694121E+02  0.00000000000E+00 0.  1.
         11    1    3    3    0    0 -0.57621145387E+02  0.24705753470E+02  0.37054414894E+02  0.72825821749E+02  0.00000000000E+00 0. -1.
</event>
<event>
 7    1  0.6610867E-006  0.1452191E+03  0.7561462E-02  0.1206474E+00
          1   -1    0    0  501    0  0.00000000000E+00  0.00000000000E+00  0.36176309614E+03  0.36176309614E+03  0.00000000000E+00 0. -1.
         -1   -1    0    0    0  501 -0.00000000000E+00 -0.00000000000E+00 -0.76384093792E+02  0.76384093792E+02  0.00000000000E+00 0.  1.
         23    2    1    2    0    0  0.10573611414E+03 -0.55414244706E+02  0.11120160948E+03  0.19272752508E+03  0.10260232270E+03 0.  0.
          5    1    1    2  502    0 -0.12337358709E+03  0.32459974593E+02  0.17446311257E+03  0.21617016906E+03  0.41800000000E+01 0. -1.
         -5    1    1    2    0  502  0.17637472949E+02  0.22954270114E+02 -0.28571970344E+00  0.29249495794E+02  0.41800000000E+01 0. -1.
        -11    1    3    3    0    0  0.62350329652E+02 -0.63968508726E+02  0.20248954565E+02  0.91594507899E+02  0.00000000000E+00 0.  1.
         11    1    3    3    0    0  0.43385784488E+02  0.85542640191E+01  0.90952654912E+02  0.10113301718E+03  0.00000000000E+00 0. -1.
</event>
<event>
 7    1  0.6610867E-006  0.8271935E+02  0.7561462E-02  0.1321507E+00
         -2   -1    0    0    0  501 -0.00000000000E+00  0.00000000000E+00  0.67926182219E+02  0.67926182219E+02  0.00000000000E+00 0.  1.
          2   -1    0    0  501    0  0.00000000000E+00 -0.00000000000E+00 -0.17521548651E+03  0.17521548651E+03  0.00000000000E+00 0. -1.
         23    2    1    2    0    0  0.68811735391E+00 -0.21929080982E+02 -0.23536320918E+02  0.91012416320E+02  0.85134854342E+02 0.  0.
          5    1    1    2  502    0  0.26109164233E+02  0.60976145253E+02 -0.80620695908E+02  0.10448419859E+03  0.41800000000E+01 0.  1.
         -5    1    1    2    0  502 -0.26797281587E+02 -0.39047064271E+02 -0.31322874676E+01  0.47645053819E+02  0.41800000000E+01 0.  1.
        -11    1    3    3    0    0 -0.22918181148E+02 -0.10954925038E+02  0.25186135265E+02  0.35771424619E+02  0.00000000000E+00 0.  1.
         11    1    3    3    0    0  0.23606298501E+02 -0.10974155944E+02 -0.48722456183E+02  0.55240991701E+02  0.00000000000E+00 0. -1.
</event>
<event>
 6    1  0.6610867E-006  0.9890361E+02  0.7561462E-02  0.1282619E+00
          2   -1    0    0  501    0  0.00000000000E+00  0.00000000000E+00  0.26107307296E+03  0.26107307296E+03  0.00000000000E+00 0.  1.
         -2   -1    0    0    0  501 -0.00000000000E+00 -0.00000000000E+00 -0.46868444545E+02  0.46868444545E+02  0.00000000000E+00 0. -1.
          5    1    1    2  502    0  0.31648662532E+02 -0.63503532650E+02  0.64325483716E+02  0.95862280143E+02  0.41800000000E+01 0.  1.
         -5    1    1    2    0  502 -0.52815240706E+02  0.17792977429E+02  0.12148828497E+03  0.13372701852E+03  0.41800000000E+01 0.  1.
        -11    1    1    2    0    0 -0.11476377330E+02  0.34451367232E+02  0.24039801494E+02  0.43549006839E+02  0.00000000000E+00 0. -1.
         11    1    1    2    0    0  0.32642955504E+02  0.11259187989E+02  0.43510582389E+01  0.34803212007E+02  0.00000000000E+00 0.  1.
</event>
<event>
 7    1  0.6610867E-006  0.1845795E+03  0.7561462E-02  0.1163443E+00
          2   -1    0    0  501    0  0.00000000000E+00  0.00000000000E+00  0.18435876469E+03  0.18435876469E+03  0.00000000000E+00 0. -1.
         -2   -1    0    0    0  501 -0.00000000000E+00 -0.00000000000E+00 -0.24428742520E+03  0.24428742520E+03  0.00000000000E+00 0.  1.
         23    2    1    2    0    0 -0.11690008645E+03  0.10293617303E+03 -0.10475639286E+03  0.20970206125E+03  0.93485649782E+02 0.  0.
          5    1    1    2  502    0  0.82283025252E+02 -0.12291569669E+03  0.77601466933E+02  0.16708747651E+03  0.41800000000E+01 0. -1.
         -5    1    1    2    0  502  0.34617061200E+02  0.19979523660E+02 -0.32773734582E+02  0.51856652131E+02  0.41800000000E+01 0.  1.
        -11    1    3    3    0    0 -0.29087856412E+02  0.87023166241E+02 -0.44146904910E+02  0.10182378929E+03  0.00000000000E+00 0.  1.
         11    1    3    3    0    0 -0.87812230040E+02  0.15913006791E+02 -0.60609487952E+02  0.10787827195E+03  0.00000000000E+00 0. -1.
</event>
<event>
 7    1  0.6610867E-006  0.1314725E+03  0.7561462E-02  0.1225287E+00
          2   -1    0    0  501    0  0.00000000000E+00  0.00000000000E+00  0.17113858061E+03  0.17113858061E+03  0.00000000000E+00 0. -1.
         -2   -1    0    0    0  501 -0.00000000000E+00 -0.00000000000E+00 -0.18435754046E+03  0.18435754046E+03  0.00000000000E+00 0.  1.
         23    2    1    2    0    0 -0.96807392086E+02 -0.36050025395E+02 -0.86579103725E+02  0.17743532464E+03  0.11539531071E+03 0.  0.
          5    1    1    2  502    0  0.99906783053E+02  0.56166337655E+02  0.94361209597E+02  0.14851778702E+03  0.41800000000E+01 0. -1.
         -5    1    1    2    0  502 -0.30993909672E+01 -0.20116312260E+02 -0.21001065717E+02  0.29543009403E+02  0.41800000000E+01 0. -1.
        -11    1    3    3    0    0 -0.23785183166E+02  0.23362090325E+02 -0.75642387894E+02  0.82663734787E+02  0.00000000000E+00 0.  1.
         11    1    3    3    0    0 -0.73022208920E+02 -0.59412115720E+02 -0.10936715831E+02  0.94771589852E+02  0.00000000000E+00 0. -1.
</event>
<event>
 7    1  0.6610867E-006  0.1591449E+03  0.7561462E-02  0.1189666E+00
         -2   -1    0    0    0  501 -0.00000000000E+00  0.00000000000E+00  0.20158094634E+02  0.20158094634E+02  0.00000000000E+00 0.  1.
          2   -1    0    0  501    0  0.00000000000E+00 -0.00000000000E+00 -0.20116414038E+04  0.20116414038E+04  0.00000000000E+00 0. -1.
         23    2    1    2    0    0  0.45256403018E+02 -0.10809148193E+03 -0.48181646795E+03  0.50478325066E+03  0.94483389464E+02 0.  0.
          5    1    1    2  502    0  0.20179190591E+01  0.11915808034E+03 -0.14196961770E+04  0.14246955561E+04  0.41800000000E+01 0. -1.
         -5    1    1    2    0  502 -0.47274322077E+02 -0.11066598409E+02 -0.89970664168E+02  0.10232069165E+03  0.41800000000E+01 0.  1.
        -11    1    3    3    0    0  0.73822377975E+02 -0.90382920612E+02 -0.36232272480E+03  0.38065282441E+03  0.00000000000E+00 0. -1.
         11    1    3    3    0    0 -0.28565974958E+02 -0.17708561317E+02 -0.11949374315E+03  0.12413042625E+03  0.00000000000E+00 0.  1.
</event>
<event>
 7    1  0.6610867E-006  0.1105519E+03  0.7561462E-02  0.1259551E+00
         -1   -1    0    0    0  501 -0.00000000000E+00  0.00000000000E+00  0.79690265542E+02  0.79690265542E+02  0.00000000000E+00 0.  1.
          1   -1    0    0  501    0  0.00000000000E+00 -0.00000000000E+00 -0.29135510766E+03  0.29135510766E+03  0.00000000000E+00 0. -1.
         23    2    1    2    0    0 -0.87016590455E+02 -0.11086159472E+02 -0.24717615469E+02  0.12961108878E+03  0.92159014072E+02 0.  0.
          5    1    1    2  502    0  0.45904102558E+02 -0.28258976692E+02 -0.17496801235E+03  0.18313119380E+03  0.41800000000E+01 0. -1.
         -5    1    1    2    0  502  0.41112487898E+02  0.39345136164E+02 -0.11979214298E+02  0.58303090622E+02  0.41800000000E+01 0. -1.
        -11    1    3    3    0    0 -0.56216142875E+02  0.25858333818E+02 -0.45910313569E+02  0.77049756908E+02  0.00000000000E+00 0. -1.
         11    1    3    3    0    0 -0.30800447581E+02 -0.36944493291E+02  0.21192698100E+02  0.52561331875E+02  0.00000000000E+00 0.  1.
</event>
<event>
 7    1  0.6610867E-006  0.7782855E+02  0.7561462E-02  0.1335329E+00
         -1   -1    0    0    0  501 -0.00000000000E+00  0.00000000000E+00  0.84864791244E+02  0.84864791244E+02  0.00000000000E+00 0.  1.
          1   -1    0    0  501    0  0.00000000000E+00 -0.00000000000E+00 -0.47665000738E+03  0.47665000738E+03  0.00000000000E+00 0. -1.
         23    2    1    2    0    0  0.43040949631E+01 -0.34335625458E+02  0.45813110462E+02  0.10507457297E+03  0.88002070348E+02 0.  0.
          5    1    1    2  502    0 -0.23535705890E+02  0.34911293179E+02 -0.39587875731E+02  0.57943076791E+02  0.41800000000E+01 0. -1.
         -5    1    1    2    0  502  0.19231610927E+02 -0.57566772118E+00 -0.39801045087E+03  0.39849714886E+03  0.41800000000E+01 0. -1.
        -11    1    3    3    0    0  0.42453141796E+02 -0.18191615079E+00  0.28022957952E+02  0.50868344913E+02  0.00000000000E+00 0.  1.
         11    1    3    3    0    0 -0.38149046833E+02 -0.34153709307E+02  0.17790152510E+02  0.54206228056E+02  0.00000000000E+00 0. -1.
</event>
<event>
 7    1  0.6610867E-006  0.1206394E+03  0.7561462E-02  0.1242046E+00
          2   -1    0    0  501    0  0.00000000000E+00  0.00000000000E+00  0.19100622718E+03  0.19100622718E+03  0.00000000000E+00 0. -1.
         -2   -1    0    0    0  501 -0.00000000000E+00 -0.00000000000E+00 -0.11711111479E+03  0.11711111479E+03  0.00000000000E+00 0.  1.
         23    2    1    2    0    0  0.97794863841E+02  0.32296054968E+02  0.38764467105E+02  0.14232039893E+03  0.90252653603E+02 0.  0.
          5    1    1    2  502    0  0.98850021110E+01 -0.14273828844E+02  0.52239643873E+02  0.55207864010E+02  0.41800000000E+01 0. -1.
         -5    1    1    2    0  502 -0.10767986595E+03 -0.18022226124E+02 -0.17108998588E+02  0.11058907902E+03  0.41800000000E+01 0. -1.
        -11    1    3    3    0    0  0.94428151321E+02  0.13881715398E+02 -0.41162071927E+01  0.95531779770E+02  0.00000000000E+00 0.  1.
         11    1    3    3    0    0  0.33667125194E+01  0.18414339571E+02  0.42880674297E+02  0.46788619163E+02  0.00000000000E+00 0. -1.
</event>
<event>
 7    1  0.6610867E-006  0.1080302E+03  0.7561462E-02  0.1264262E+00
          2   -1    0    0  501    0  0.00000000000E+00  0.00000000000E+00  0.11053746580E+04  0.11053746580E+04  0.00000000000E+00 0. -1.
         -2   -1    0    0    0  501 -0.00000000000E+00 -0.00000000000E+00 -0.13905740758E+02  0.13905740758E+02  0.00000000000E+00 0.  1.
         23    2    1    2    0    0  0.27107036880E+02  0.10199293651E+02  0.23733324179E+03  0.25556928500E+03  0.90276102804E+02 0.  0.
          5    1    1    2  502    0 -0.62659872559E+02 -0.45522946638E+02  0.55086980459E+03  0.55630352534E+03  0.41800000000E+01 0.  1.
         -5    1    1    2    0  502  0.35552835679E+02  0.35323652987E+02  0.30326587083E+03  0.30740758839E+03  0.41800000000E+01 0.  1.
        -11    1    3    3    0    0 -0.13380099401E+02 -0.28946076043E+02  0.44950344101E+02  0.55112936894E+02  0.00000000000E+00 0.  1.
         11    1    3    3    0    0  0.40487136281E+02  0.39145369694E+02  0.19238289769E+03  0.20045634811E+03  0.00000000000E+00 0. -1.
</event>
<event>
 7    1  0.6610867E-006  0.2157959E+03  0.7561462E-02  0.1137057E+00
          2   -1    0    0  501    0  0.00000000000E+00  0.00000000000E+00  0.32159031934E+04  0.32159031934E+04  0.00000000000E+00 0. -1.
         -2   -1    0    0    0  501 -0.00000000000E+00 -0.00000000000E+00 -0.19280219214E+02  0.19280219214E+02  0.00000000000E+00 0.  1.
         23    2    1    2    0    0  0.34266935423E+02 -0.19320483207E+03  0.85580744654E+03  0.88283043620E+03  0.92091603995E+02 0.  0.
          5    1    1    2  502    0  0.24959161346E+02  0.17891603190E+01  0.12864165855E+03  0.13111944762E+03  0.41800000000E+01 0.  1.
         -5    1    1    2    0  502 -0.59226096769E+02  0.19141567175E+03  0.22121738691E+04  0.22212335288E+04  0.41800000000E+01 0.  1.
        -11    1    3    3    0    0  0.50748289586E+02 -0.11217532356E+03  0.36761632985E+03  0.38768603029E+03  0.00000000000E+00 0.  1.
         11    1    3    3    0    0 -0.16481354163E+02 -0.81029508510E+02  0.48819111670E+03  0.49514440591E+03  0.00000000000E+00 0. -1.
</event>
<event>
 7    1  0.6610867E-006  0.1298950E+03  0.7561462E-02  0.1227612E+00
         -2   -1    0    0    0  501 -0.00000000000E+00  0.00000000000E+00  0.89710887232E+03  0.89710887232E+03  0.00000000000E+00 0.  1.
          2   -1    0    0  501    0  0.00000000000E+00 -0.00000000000E+00 -0.35162846080E+02  0.35162846080E+02  0.00000000000E+00 0. -1.
         23    2    1    2    0    0 -0.26572415384E+02 -0.11537698390E+03  0.60053548548E+03  0.61922048204E+03  0.93665331787E+02 0.  0.
          5    1    1    2  502    0  0.49261915430E+02  0.10147968073E+03  0.10443658947E+03  0.15378340461E+03  0.41800000000E+01 0. -1.
         -5    1    1    2    0  502 -0.22689500046E+02  0.13897303171E+02  0.15697395129E+03  0.15926783176E+03  0.41800000000E+01 0. -1.
        -11    1    3    3    0    0 -0.77680398579E+01 -0.87440899521E+01  0.31660161964E+01  0.12117145327E+02  0.00000000000E+00 0. -1.
         11    1    3    3    0    0 -0.18804375526E+02 -0.10663289395E+03  0.59736946929E+03  0.60710333671E+03  0.00000000000E+00 0.  1.
</event>
<event>
 7    1  0.6610867E-006  0.9706378E+02  0.7561462E-02  0.1286594E+00
          2   -1    0    0  501    0  0.00000000000E+00  0.00000000000E+00  0.62487473052E+03  0.62487473052E+03  0.00000000000E+00 0. -1.
         -2   -1    0    0    0  501 -0.00000000000E+00 -0.00000000000E+00 -0.24439710724E+02  0.24439710724E+02  0.00000000000E+00 0.  1.
         23    2    1    2    0    0 -0.23647613979E+02  0.20407935756E+02  0.13120462865E+03  0.16269373431E+03  0.90988477936E+02 0.  0.
          5    1    1    2  502    0  0.53550878067E+02  0.16465899578E+02  0.39100606783E+03  0.39502156887E+03  0.41800000000E+01 0. -1.
         -5    1    1    2    0  502 -0.29903264088E+02 -0.36873835335E+02  0.78224323314E+02  0.91599138060E+02  0.41800000000E+01 0. -1.
        -11    1    3    3    0    0 -0.23678819816E+01 -0.32850421071E+02  0.77135320438E+02  0.83872609883E+02  0.00000000000E+00 0.  1.
         11    1    3    3    0    0 -0.21279731997E+02  0.53258356828E+02  0.54069308207E+02  0.78821124427E+02  0.00000000000E+00 0. -1.
</event>
<event>
 7    1  0.6610867E-006  0.1441174E+03  0.7561462E-02  0.1207894E+00
         -2   -1    0    0    0  501 -0.00000000000E+00  0.00000000000E+00  0.22855175003E+02  0.22855175003E+02  0.00000000000E+00 0.  1.
          2   -1    0    0  501    0  0.00000000000E+00 -0.00000000000E+00 -0.11961327513E+04  0.11961327513E+04  0.00000000000E+00 0. -1.
         23    2    1    2    0    0 -0.12390075544E+03 -0.13557353186E+02 -0.52347523811E+03  0.54561870589E+03  0.90212240184E+02 0.  0.
          5    1    1    2  502    0  0.69272288898E+02  0.36000313878E+02 -0.14176342194E+03  0.16189197883E+03  0.41800000000E+01 0.  1.
         -5    1    1    2    0  502  0.54628466538E+02 -0.22442960692E+02 -0.50803891627E+03  0.51147724161E+03  0.41800000000E+01 0.  1.
        -11    1    3    3    0    0 -0.13231283669E+03  0.29227813316E+01 -0.48774960024E+03  0.50538589409E+03  0.00000000000E+00 0. -1.
         11    1    3    3    0    0  0.84120812502E+01 -0.16480134518E+02 -0.35725637864E+02  0.40232811802E+02  0.00000000000E+00 0.  1.
</event>
<event>
 7    1  0.6610867E-006  0.8597150E+02  0.7561462E-02  0.1312911E+00
         -2   -1    0    0    0  501 -0.00000000000E+00  0.00000000000E+00  0.33895181306E+02  0.33895181306E+02  0.00000000000E+00 0.  1.
          2   -1    0    0  501    0  0.00000000000E+00 -0.00000000000E+00 -0.47923866992E+03  0.47923866992E+03  0.00000000000E+00 0. -1.
         23    2    1    2    0    0  0.45525916675E+02  0.48800221623E+02 -0.19330189913E+03  0.22395088635E+03  0.91292412457E+02 0.  0.
          5    1    1    2  502    0 -0.18205354184E+01 -0.38822557254E+02 -0.65960253665E+01  0.39641963266E+02  0.41800000000E+01 0.  1.
         -5    1    1    2    0  502 -0.43705381257E+02 -0.99776643688E+01 -0.24544556412E+03  0.24954100160E+03  0.41800000000E+01 0.  1.
        -11    1    3    3    0    0  0.49285827029E+02  0.11852698004E+02 -0.35620137637E+02  0.61954607586E+02  0.00000000000E+00 0.  1.
         11    1    3    3    0    0 -0.37599103531E+01  0.36947523619E+02 -0.15768176149E+03  0.16199627877E+03  0.00000000000E+00 0. -1.
</event>
<event>
 7    1  0.6610867E-006  0.1347042E+03  0.7561462E-02  0.1220638E+00
          1   -1    0    0  501    0  0.00000000000E+00  0.00000000000E+00  0.13283552334E+03  0.13283552334E+03  0.00000000000E+00 0. -1.
         -1   -1    0    0    0  501 -0.00000000000E+00 -0.00000000000E+00 -0.20837907982E+03  0.20837907982E+03  0.00000000000E+00 0.  1.
         23    2    1    2    0    0  0.47408051954E+02  0.11586806481E+03 -0.49564832141E+02  0.16235267839E+03  0.90712665948E+02 0.  0.
          5    1    1    2  502    0 -0.27067468092E+02 -0.92063951152E+00  0.37089519673E+02  0.46115076446E+02  0.41800000000E+01 0.  1.
         -5    1    1    2    0  502 -0.20340583861E+02 -0.11494742530E+03 -0.63068244020E+02  0.13274684832E+03  0.41800000000E+01 0.  1.
        -11    1    3    3    0    0  0.28604761325E+02  0.71357736811E+02 -0.75296545565E+02  0.10760914806E+03  0.00000000000E+00 0.  1.
         11    1    3    3    0    0  0.18803290629E+02  0.44510328001E+02  0.25731713424E+02  0.54743530330E+02  0.00000000000E+00 0. -1.
</event>
<event>
 7    1  0.6610867E-006  0.1115518E+03  0.7561462E-02  0.1257723E+00
         -1   -1    0    0    0  501 -0.00000000000E+00  0.00000000000E+00  0.33552722455E+03  0.33552722455E+03  0.00000000000E+00 0.  1.
          1   -1    0    0  501    0  0.00000000000E+00 -0.00000000000E+00 -0.49304650669E+02  0.49304650669E+02  0.00000000000E+00 0. -1.
         23    2    1    2    0    0  0.29112911524E+02  0.38024038999E+02  0.20218250343E+03  0.22670574410E+03  0.90688150032E+02 0.  0.
          5    1    1    2  502    0 -0.71260560084E+02 -0.35376566129E+02  0.83885937075E+02  0.11568877082E+03  0.41800000000E+01 0.  1.
         -5    1    1    2    0  502  0.42147648561E+02 -0.26474728701E+01  0.15413337517E+00  0.42437360296E+02  0.41800000000E+01 0.  1.
        -11    1    3    3    0    0  0.53002085125E+02  0.51219792078E+02  0.16369957603E+03  0.17952782325E+03  0.00000000000E+00 0. -1.
         11    1    3    3    0    0 -0.23889173601E+02 -0.13195753079E+02  0.38482927394E+02  0.47177920848E+02  0.00000000000E+00 0.  1.
</event>
<event>
 7    1  0.6610867E-006  0.1766981E+03  0.7561462E-02  0.1171037E+00
          2   -1    0    0  501    0  0.00000000000E+00  0.00000000000E+00  0.33154794501E+03  0.33154794501E+03  0.00000000000E+00 0. -1.
         -2   -1    0    0    0  501 -0.00000000000E+00 -0.00000000000E+00 -0.10202025156E+03  0.10202025156E+03  0.00000000000E+00 0.  1.
         23    2    1    2    0    0  0.70641618789E+02 -0.33774895001E+02  0.60321314118E+02  0.13230812877E+03  0.87953386314E+02 0.  0.
          5    1    1    2  502    0  0.40434275811E+02  0.10567288106E+03  0.10380346067E+03  0.15360442473E+03  0.41800000000E+01 0. -1.
         -5    1    1    2    0  502 -0.11107589460E+03 -0.71897986055E+02  0.65402918671E+02  0.14765564307E+03  0.41800000000E+01 0.  1.
        -11    1    3    3    0    0 -0.15791340195E+02 -0.32001287668E+01  0.32867714255E+02  0.36604561049E+02  0.00000000000E+00 0.  1.
         11    1    3    3    0    0  0.86432958984E+02 -0.30574766234E+02  0.27453599863E+02  0.95703567720E+02  0.00000000000E+00 0. -1.
</event>
<event>
 7    1  0.6610867E-006  0.8733620E+02  0.7561462E-02  0.1309434E+00
         -3   -1    0    0    0  501 -0.00000000000E+00  0.00000000000E+00  0.36030583396E+03  0.36030583396E+03  0.00000000000E+00 0.  1.
          3   -1    0    0  501    0  0.00000000000E+00 -0.00000000000E+00 -0.49451513203E+02  0.49451513203E+02  0.00000000000E+00 0. -1.
         23    2    1    2    0    0  0.67037793675E+01 -0.12510649810E+02  0.25750873306E+03  0.27302867093E+03  0.89623939509E+02 0.  0.
          5    1    1    2  502    0  0.39806771081E+02 -0.25362057439E+02  0.59755472944E+02  0.76262716501E+02  0.41800000000E+01 0. -1.
         -5    1    1    2    0  502 -0.46510550448E+02  0.37872707249E+02 -0.64098852439E+01  0.60465959731E+02  0.41800000000E+01 0. -1.
        -11    1    3    3    0    0  0.65749497026E+01 -0.39565228160E+02  0.23330478494E+03  0.23672718458E+03  0.00000000000E+00 0.  1.
         11    1    3    3    0    0  0.12882966488E+00  0.27054578350E+02  0.24203948114E+02  0.36301486348E+02  0.00000000000E+00 0. -1.
</event>
<event>
 7    1  0.6610867E-006  0.1183552E+03  0.7561462E-02  0.1245835E+00
         -1   -1    0    0    0  501 -0.00000000000E+00  0.00000000000E+00  0.76378760390E+02  0.76378760390E+02  0.00000000000E+00 0.  1.
          1   -1    0    0  501    0  0.00000000000E+00 -0.00000000000E+00 -0.21155530732E+03  0.21155530732E+03  0.00000000000E+00 0. -1.
         23    2    1    2    0    0  0.34307418312E+02  0.48633314662E+02 -0.22649582894E+02  0.10946159148E+03  0.89031669404E+02 0.  0.
          5    1    1    2  502    0  0.31939563749E+02 -0.54264558021E+02 -0.23629057796E+02  0.67383846447E+02  0.41800000000E+01 0.  1.
         -5    1    1    2    0  502 -0.66246982060E+02  0.56312433592E+01 -0.88897906240E+02  0.11108862979E+03  0.41800000000E+01 0.  1.
        -11    1    3    3    0    0 -0.11088643603E+01  0.67057236650E+02 -0.16529653646E+02  0.69073381392E+02  0.00000000000E+00 0.  1.
         11    1    3    3    0    0  0.35416282672E+02 -0.18423921988E+02 -0.61199292478E+01  0.40388210083E+02  0.00000000000E+00 0. -1.
</event>
<event>
 7    1  0.6610867E-006  0.1733064E+03  0.7561462E-02  0.1174443E+00
         -1   -1    0    0    0  501 -0.00000000000E+00  0.00000000000E+00  0.23314583001E+03  0.23314583001E+03  0.00000000000E+00 0.  1.
          1   -1    0    0  501    0  0.00000000000E+00 -0.00000000000E+00 -0.14069672846E+03  0.14069672846E+03  0.00000000000E+00 0. -1.
         23    2    1    2    0    0 -0.99466130674E+02 -0.92735542861E+02  0.91435966523E+02  0.18906727880E+03  0.94300094790E+02 0.  0.
          5    1    1    2  502    0  0.79086078388E+02  0.12402762228E+03  0.23467744516E+01  0.14717485734E+03  0.41800000000E+01 0.  1.
         -5    1    1    2    0  502  0.20380052286E+02 -0.31292079416E+02 -0.13336394189E+01  0.37600422331E+02  0.41800000000E+01 0.  1.
        -11    1    3    3    0    0  0.14661127780E+02  0.25737614636E+00  0.21648269198E+02  0.26146939965E+02  0.00000000000E+00 0.  1.
         11    1    3    3    0    0 -0.11412725845E+03 -0.92992919007E+02  0.69787697325E+02  0.16292033883E+03  0.00000000000E+00 0. -1.
</event>
<event>
 7    1  0.6610867E-006  0.1636800E+03  0.7561462E-02  0.1184604E+00
          2   -1    0    0  501    0  0.00000000000E+00  0.00000000000E+00  0.16489402138E+04  0.16489402138E+04  0.00000000000E+00 0. -1.
         -2   -1    0    0    0  501 -0.00000000000E+00 -0.00000000000E+00 -0.32124980093E+02  0.32124980093E+02  0.00000000000E+00 0.  1.
         23    2    1    2    0    0  0.84341444986E+01 -0.26240003164E+02  0.18382584838E+03  0.20642761267E+03  0.89781647241E+02 0.  0.
          5    1    1    2  502    0  0.12336391522E+03 -0.12794077175E+02  0.11815416632E+04  0.11880406215E+04  0.41800000000E+01 0. -1.
         -5    1    1    2    0  502 -0.13179805972E+03  0.39034080339E+02  0.25144772210E+03  0.28659695973E+03  0.41800000000E+01 0.  1.
        -11    1    3    3    0    0 -0.17350724950E+02 -0.34542212693E+02  0.26690342623E+02  0.46974317487E+02  0.00000000000E+00 0.  1.
         11    1    3    3    0    0  0.25784869449E+02  0.83022095298E+01  0.15713550576E+03  0.15945329518E+03  0.00000000000E+00 0. -1.
</event>
<event>
 7    1  0.6610867E-006  0.1849802E+03  0.7561462E-02  0.1163068E+00
         -1   -1    0    0    0  501 -0.00000000000E+00  0.00000000000E+00  0.84607597622E+03  0.84607597622E+03  0.00000000000E+00 0.  1.
          1   -1    0    0  501    0  0.00000000000E+00 -0.00000000000E+00 -0.77441553668E+02  0.77441553668E+02  0.00000000000E+00 0. -1.
         23    2    1    2    0    0  0.41954746854E+02  0.15278840906E+03  0.68018275418E+03  0.70311774075E+03  0.81372474151E+02 0.  0.
          5    1    1    2  502    0 -0.62265476342E+02 -0.19412428540E+02  0.41835765694E+02  0.77598554220E+02  0.41800000000E+01 0. -1.
         -5    1    1    2    0  502  0.20310729488E+02 -0.13337598052E+03  0.46615902678E+02  0.14280123492E+03  0.41800000000E+01 0. -1.
        -11    1    3    3    0    0  0.48920214841E+02  0.63949879312E+02  0.21733592720E+03  0.23177074823E+03  0.00000000000E+00 0. -1.
         11    1    3    3    0    0 -0.69654679869E+01  0.88838529745E+02  0.46284682698E+03  0.47134699252E+03  0.00000000000E+00 0.  1.
</event>
<event>
 7    1  0.6610867E-006  0.1140926E+03  0.7561462E-02  0.1253173E+00
          2   -1    0    0  501    0  0.00000000000E+00  0.00000000000E+00  0.37924348035E+03  0.37924348035E+03  0.00000000000E+00 0. -1.
         -2   -1    0    0    0  501 -0.00000000000E+00 -0.00000000000E+00 -0.47381877862E+02  0.47381877862E+02  0.00000000000E+00 0.  1.
         23    2    1    2    0    0  0.22568017776E+02 -0.23175854776E+02  0.11610668715E+03  0.17513847039E+03  0.12706803429E+03 0.  0.
          5    1    1    2  502    0 -0.56945519258E+02 -0.57560693214E+01  0.39802697762E+02  0.69840186474E+02  0.41800000000E+01 0. -1.
         -5    1    1    2    0  502  0.34377501481E+02  0.28931924098E+02  0.17595221758E+03  0.18164670135E+03  0.41800000000E+01 0. -1.
        -11    1    3    3    0    0  0.71769458180E+02 -0.26137574667E+02  0.45104306663E+02  0.88704151067E+02  0.00000000000E+00 0.  1.
         11    1    3    3    0    0 -0.49201440403E+02  0.29617198906E+01  0.71002380485E+02  0.86434319324E+02  0.00000000000E+00 0. -1.
</event>
<event>
 7    1  0.6610867E-006  0.1125503E+03  0.7561462E-02  0.1255919E+00
          2   -1    0    0  501    0  0.00000000000E+00  0.00000000000E+00  0.35875728502E+03  0.35875728502E+03  0.00000000000E+00 0. -1.
         -2   -1    0    0    0  501 -0.00000000000E+00 -0.00000000000E+00 -0.13388773638E+03  0.13388773638E+03  0.00000000000E+00 0.  1.
         23    2    1    2    0    0 -0.13426605173E+02 -0.34397442918E+02 -0.10301309063E+03  0.13626550406E+03  0.81198109283E+02 0.  0.
          5    1    1    2  502    0  0.37958632280E+02  0.78702475380E+02  0.23038731576E+03  0.24643604659E+03  0.41800000000E+01 0. -1.
         -5    1    1    2    0  502 -0.24532027107E+02 -0.44305032461E+02  0.97495323508E+02  0.10994347075E+03  0.41800000000E+01 0.  1.
        -11    1    3    3    0    0  0.26394807071E+02  0.90198586145E+01 -0.19378581729E+02  0.33964291831E+02  0.00000000000E+00 0. -1.
         11    1    3    3    0    0 -0.39821412244E+02 -0.43417301533E+02 -0.83634508896E+02  0.10230121223E+03  0.00000000000E+00 0.  1.
</event>
<event>
 7    1  0.6610867E-006  0.6096194E+02  0.7561462E-02  0.1393839E+00
         -1   -1    0    0    0  501 -0.00000000000E+00  0.00000000000E+00  0.35579785945E+02  0.35579785945E+02  0.00000000000E+00 0.  1.
          1   -1    0    0  501    0  0.00000000000E+00 -0.00000000000E+00 -0.66619474691E+03  0.66619474691E+03  0.00000000000E+00 0. -1.
         23    2    1    2    0    0  0.22034739731E+01 -0.61337089712E+01 -0.36352363681E+02  0.96906488665E+02  0.89592943454E+02 0.  0.
          5    1    1    2  502    0 -0.81193861316E+00 -0.14216157807E+02 -0.57865798561E+03  0.57884824876E+03  0.41800000000E+01 0. -1.
         -5    1    1    2    0  502 -0.13915353600E+01  0.20349866778E+02 -0.15604611677E+02  0.26019795429E+02  0.41800000000E+01 0.  1.
        -11    1    3    3    0    0 -0.20534824525E+02 -0.40294905754E+02 -0.32494273357E+02  0.55688744365E+02  0.00000000000E+00 0.  1.
         11    1    3    3    0    0  0.22738298498E+02  0.34161196782E+02 -0.38580903235E+01  0.41217744299E+02  0.00000000000E+00 0. -1.
</event>
<event>
 7    1  0.6610867E-006  0.1058485E+03  0.7561462E-02  0.1268457E+00
          1   -1    0    0  501    0  0.00000000000E+00  0.00000000000E+00  0.55679401695E+03  0.55679401695E+03  0.00000000000E+00 0. -1.
         -1   -1    0    0    0  501 -0.00000000000E+00 -0.00000000000E+00 -0.27635648089E+02  0.27635648089E+02  0.00000000000E+00 0.  1.
         23    2    1    2    0    0 -0.42587926442E+02  0.31236926209E+02  0.16803323742E+03  0.19862193953E+03  0.91793403606E+02 0.  0.
          5    1    1    2  502    0 -0.11687143963E+02 -0.55782494824E+02  0.79419305248E+02  0.97842600686E+02  0.41800000000E+01 0. -1.
         -5    1    1    2    0  502  0.54275070405E+02  0.24545568614E+02  0.28170582619E+03  0.28796512482E+03  0.41800000000E+01 0. -1.
        -11    1    3    3    0    0 -0.25825919653E+02 -0.25127214612E+02  0.11100493947E+03  0.11670669059E+03  0.00000000000E+00 0. -1.
         11    1    3    3    0    0 -0.16762006790E+02  0.56364140822E+02  0.57028297946E+02  0.81915248940E+02  0.00000000000E+00 0.  1.
</event>
<event>
 7    1  0.6610867E-006  0.1293273E+03  0.7561462E-02  0.1228457E+00
         -2   -1    0    0    0  501 -0.00000000000E+00  0.00000000000E+00  0.19242320441E+03  0.19242320441E+03  0.00000000000E+00 0.  1.
          2   -1    0    0  501    0  0.00000000000E+00 -0.00000000000E+00 -0.11506953845E+03  0.11506953845E+03  0.00000000000E+00 0. -1.
         23    2    1    2    0    0 -0.29837949641E+02 -0.78981348440E+02  0.94012548898E+02  0.15566103302E+03  0.90904571999E+02 0.  0.
          5    1    1    2  502    0  0.19185821642E+02 -0.24178904050E+02 -0.34539516871E+02  0.46509846042E+02  0.41800000000E+01 0.  1.
         -5    1    1    2    0  502  0.10652127999E+02  0.10316025249E+03  0.17880633926E+02  0.10532186380E+03  0.41800000000E+01 0.  1.
        -11    1    3    3    0    0 -0.53277531287E+02 -0.14664397732E+02  0.47835059431E+02  0.73087159006E+02  0.00000000000E+00 0. -1.
         11    1    3    3    0    0  0.23439581646E+02 -0.64316950708E+02  0.46177489467E+02  0.82573874014E+02  0.00000000000E+00 0.  1.
</event>
<event>
 7    1  0.6610867E-006  0.1154976E+03  0.7561462E-02  0.1250715E+00
          1   -1    0    0  501    0  0.00000000000E+00  0.00000000000E+00  0.26146248556E+03  0.26146248556E+03  0.00000000000E+00 0.  1.
         -1   -1    0    0    0  501 -0.00000000000E+00 -0.00000000000E+00 -0.71645470423E+02  0.71645470423E+02  0.00000000000E+00 0. -1.
         23    2    1    2    0    0  0.55757140522E+02 -0.58958352923E+02  0.63888106347E+02  0.13794247001E+03  0.91441176732E+02 0.  0.
          5    1    1    2  502    0 -0.73014355852E+02  0.10053602558E+02  0.12250009841E+03  0.14302418536E+03  0.41800000000E+01 0.  1.
         -5    1    1    2    0  502  0.17257215330E+02  0.48904750365E+02  0.34288103750E+01  0.52141300615E+02  0.41800000000E+01 0.  1.
        -11    1    3    3    0    0  0.20080213579E+01 -0.50730136403E+02  0.66309090595E+02  0.83513318607E+02  0.00000000000E+00 0.  1.
         11    1    3    3    0    0  0.53749119164E+02 -0.82282165202E+01 -0.24209842487E+01  0.54429151406E+02  0.00000000000E+00 0. -1.
</event>
<event>
 7    1  0.6610867E-006  0.1260117E+03  0.7561462E-02  0.1233497E+00
          1   -1    0    0  501    0  0.00000000000E+00  0.00000000000E+00  0.30988243184E+03  0.30988243184E+03  0.00000000000E+00 0. -1.
         -1   -1    0    0    0  501 -0.00000000000E+00 -0.00000000000E+00 -0.67027979833E+02  0.67027979833E+02  0.00000000000E+00 0.  1.
         23    2    1    2    0    0  0.36528567835E+02 -0.87643389762E+02  0.10318384373E+03  0.16674165742E+03  0.90222916583E+02 0.  0.
          5    1    1    2  502    0 -0.82207711542E+02  0.56920834756E+02  0.74535365193E+02  0.12478414295E+03  0.41800000000E+01 0.  1.
         -5    1    1    2    0  502  0.45679143707E+02  0.30722555006E+02  0.65135243087E+02  0.85384611306E+02  0.41800000000E+01 0.  1.
        -11    1    3    3    0    0  0.35166379460E+02 -0.63756190932E+02  0.11795897509E+03  0.13862123189E+03  0.00000000000E+00 0. -1.
         11    1    3    3    0    0  0.13621883745E+01 -0.23887198830E+02 -0.14775131365E+02  0.28120425530E+02  0.00000000000E+00 0.  1.
</event>
<event>
 7    1  0.6610867E-006  0.1450090E+03  0.7561462E-02  0.1206744E+00
         -2   -1    0    0    0  501 -0.00000000000E+00  0.00000000000E+00  0.65204963065E+02  0.65204963065E+02  0.00000000000E+00 0.  1.
          2   -1    0    0  501    0  0.00000000000E+00 -0.00000000000E+00 -0.58696786303E+03  0.58696786303E+03  0.00000000000E+00 0. -1.
         23    2    1    2    0    0 -0.12062203979E+03 -0.24872885142E+02 -0.69768524134E+02  0.16519675262E+03  0.85170318872E+02 0.  0.
          5    1    1    2  502    0  0.11571314456E+03  0.42691238614E+02 -0.45145616919E+03  0.46801946410E+03  0.41800000000E+01 0. -1.
         -5    1    1    2    0  502  0.49088952255E+01 -0.17818353472E+02 -0.53820664457E+00  0.18956609380E+02  0.41800000000E+01 0.  1.
        -11    1    3    3    0    0 -0.62257857654E+01  0.22869685033E+02 -0.22042294740E+02  0.32367354840E+02  0.00000000000E+00 0. -1.
         11    1    3    3    0    0 -0.11439625402E+03 -0.47742570174E+02 -0.47726229394E+02  0.13282939778E+03  0.00000000000E+00 0.  1.
</event>
<event>
 7    1  0.6610867E-006  0.1140212E+03  0.7561462E-02  0.1253299E+00
          1   -1    0    0  501    0  0.00000000000E+00  0.00000000000E+00  0.27598273627E+03  0.27598273627E+03  0.00000000000E+00 0. -1.
         -1   -1    0    0    0  501 -0.00000000000E+00 -0.00000000000E+00 -0.61263105492E+02  0.61263105492E+02  0.00000000000E+00 0.  1.
         23    2    1    2    0    0  0.26210598003E+02  0.41635993823E+02  0.27252095850E+02  0.10656829618E+03  0.90518360534E+02 0.  0.
          5    1    1    2  502    0 -0.38718756205E+02  0.36452053180E+02  0.94830713685E+02  0.10880363469E+03  0.41800000000E+01 0.  1.
         -5    1    1    2    0  502  0.12508158202E+02 -0.78088047003E+02  0.92636821247E+02  0.12187391090E+03  0.41800000000E+01 0.  1.
        -11    1    3    3    0    0 -0.25765043107E+02 -0.43235708450E+01  0.26457746449E+02  0.37182563902E+02  0.00000000000E+00 0. -1.
         11    1    3    3    0    0  0.51975641109E+02  0.45959564668E+02  0.79434940130E+00  0.69385732281E+02  0.00000000000E+00 0.  1.
</event>
<event>
 7    1  0.6610867E-006  0.1174619E+03  0.7561462E-02  0.1247344E+00
         -2   -1    0    0    0  501 -0.00000000000E+00  0.00000000000E+00  0.15932100910E+03  0.15932100910E+03  0.00000000000E+00 0.  1.
          2   -1    0    0  501    0  0.00000000000E+00 -0.00000000000E+00 -0.16432204623E+03  0.16432204623E+03  0.00000000000E+00 0. -1.
         23    2    1    2    0    0 -0.11692396929E+03 -0.29942576274E+01  0.25470819404E+02  0.14970224544E+03  0.89898940347E+02 0.  0.
          5    1    1    2  502    0  0.94251548450E+02  0.26864722822E+01  0.37959304435E+02  0.10172980248E+03  0.41800000000E+01 0.  1.
         -5    1    1    2    0  502  0.22672420845E+02  0.30778534521E+00 -0.68431160973E+02  0.72211007408E+02  0.41800000000E+01 0.  1.
        -11    1    3    3    0    0 -0.63248696291E+02  0.38984799514E+01  0.58550008857E+02  0.86276875613E+02  0.00000000000E+00 0.  1.
         11    1    3    3    0    0 -0.53675273003E+02 -0.68927375788E+01 -0.33079189453E+02  0.63425369831E+02  0.00000000000E+00 0. -1.
</event>
<event>
 7    1  0.6610867E-006  0.7467718E+02  0.7561462E-02  0.1344874E+00
          2   -1    0    0  501    0  0.00000000000E+00  0.00000000000E+00  0.93594511730E+03  0.93594511730E+03  0.00000000000E+00 0. -1.
         -2   -1    0    0    0  501 -0.00000000000E+00 -0.00000000000E+00 -0.19446525815E+02  0.19446525815E+02  0.00000000000E+00 0.  1.
         23    2    1    2    0    0 -0.61198331159E+02  0.62612434324E+01  0.22766287657E+03  0.25259186099E+03  0.90486595500E+02 0.  0.
          5    1    1    2  502    0  0.28571210502E+02 -0.15287895364E+02  0.65115205746E+03  0.65197124794E+03  0.41800000000E+01 0.  1.
         -5    1    1    2    0  502  0.32627120657E+02  0.90266519320E+01  0.37683657455E+02  0.50828534178E+02  0.41800000000E+01 0.  1.
        -11    1    3    3    0    0 -0.64504267107E+02 -0.10617574282E+02  0.22605464634E+03  0.23531731022E+03  0.00000000000E+00 0. -1.
         11    1    3    3    0    0  0.33059359477E+01  0.16878817714E+02  0.16082302344E+01  0.17274550773E+02  0.00000000000E+00 0.  1.
</event>
<event>
 7    1  0.6610867E-006  0.1450082E+03  0.7561462E-02  0.1206745E+00
          2   -1    0    0  501    0  0.00000000000E+00  0.00000000000E+00  0.14336135610E+04  0.14336135610E+04  0.00000000000E+00 0. -1.
         -2   -1    0    0    0  501 -0.00000000000E+00 -0.00000000000E+00 -0.50263459429E+02  0.50263459429E+02  0.00000000000E+00 0.  1.
         23    2    1    2    0    0  0.85960310450E+02 -0.56789812901E+02  0.79093484616E+02  0.15679458708E+03  0.87832257209E+02 0.  0.
          5    1    1    2  502    0  0.40607761066E+02  0.51537205022E+00  0.87625678534E+03  0.87720731992E+03  0.41800000000E+01 0. -1.
         -5    1    1    2    0  502 -0.12656807152E+03  0.56274440851E+02  0.42799983157E+03  0.44987511339E+03  0.41800000000E+01 0.  1.
        -11    1    3    3    0    0  0.76698022715E+02 -0.30153720880E+02  0.93905873629E+02  0.12494057257E+03  0.00000000000E+00 0.  1.
         11    1    3    3    0    0  0.92622877350E+01 -0.26636092021E+02 -0.14812389013E+02  0.31854014511E+02  0.00000000000E+00 0. -1.
</event>
<event>
 7    1  0.6610867E-006  0.1157041E+03  0.7561462E-02  0.1250357E+00
         -2   -1    0    0    0  501 -0.00000000000E+00  0.00000000000E+00  0.47142567936E+02  0.47142567936E+02  0.00000000000E+00 0.  1.
          2   -1    0    0  501    0  0.00000000000E+00 -0.00000000000E+00 -0.63956262428E+03  0.63956262428E+03  0.00000000000E+00 0. -1.
         23    2    1    2    0    0  0.52321010036E+01  0.14611091061E+02 -0.60395387675E+02  0.11031220335E+03  0.90996266369E+02 0.  0.
          5    1    1    2  502    0  0.56676240368E+01  0.68058998205E+02 -0.46310281433E+03  0.46813015096E+03  0.41800000000E+01 0. -1.
         -5    1    1    2    0  502 -0.10899725040E+02 -0.82670089266E+02 -0.68921854342E+02  0.10826283790E+03  0.41800000000E+01 0.  1.
        -11    1    3    3    0    0 -0.31293246052E+02 -0.12819118825E+02 -0.54659783109E+02  0.64275103620E+02  0.00000000000E+00 0. -1.
         11    1    3    3    0    0  0.36525347056E+02  0.27430209886E+02 -0.57356045662E+01  0.46037099731E+02  0.00000000000E+00 0.  1.
</event>
<event>
 7    1  0.6610867E-006  0.1338062E+03  0.7561462E-02  0.1221915E+00
          2   -1    0    0  501    0  0.00000000000E+00  0.00000000000E+00  0.89976828933E+03  0.89976828933E+03  0.00000000000E+00 0. -1.
         -2   -1    0    0    0  501 -0.00000000000E+00 -0.00000000000E+00 -0.35113170200E+02  0.35113170200E+02  0.00000000000E+00 0.  1.
         23    2    1    2    0    0 -0.50418306423E+02 -0.10649373830E+03  0.20517823895E+03  0.25338307598E+03  0.90674977425E+02 0.  0.
          5    1    1    2  502    0  0.22253910775E+02  0.64030708937E+02  0.10748721370E+03  0.12714614324E+03  0.41800000000E+01 0.  1.
         -5    1    1    2    0  502  0.28164395649E+02  0.42463029361E+02  0.55198966648E+03  0.55435224032E+03  0.41800000000E+01 0.  1.
        -11    1    3    3    0    0 -0.36042967890E+01 -0.10141800344E+03  0.14456030416E+03  0.17662469793E+03  0.00000000000E+00 0.  1.
         11    1    3    3    0    0 -0.46814009634E+02 -0.50757348544E+01  0.60617934790E+02  0.76758378048E+02  0.00000000000E+00 0. -1.
</event>
<event>
 7    1  0.6610867E-006  0.1409595E+03  0.7561462E-02  0.1212044E+00
          1   -1    0    0  501    0  0.00000000000E+00  0.00000000000E+00  0.38462628770E+02  0.38462628770E+02  0.00000000000E+00 0. -1.
         -1   -1    0    0    0  501 -0.00000000000E+00 -0.00000000000E+00 -0.76049920691E+03  0.76049920691E+03  0.00000000000E+00 0.  1.
         23    2    1    2    0    0  0.12080518202E+02 -0.17874971411E+01 -0.17782808978E+03  0.20025865009E+03  0.91277397834E+02 0.  0.
          5    1    1    2  502    0 -0.10682774139E+03 -0.12263735421E+02 -0.45565663243E+03  0.46819120519E+03  0.41800000000E+01 0. -1.
         -5    1    1    2    0  502  0.94747223192E+02  0.14051232562E+02 -0.88551855921E+02  0.13051198039E+03  0.41800000000E+01 0.  1.
        -11    1    3    3    0    0  0.40614002231E+02  0.17257204355E+02 -0.44820361709E+02  0.62898116849E+02  0.00000000000E+00 0.  1.
         11    1    3    3    0    0 -0.28533484029E+02 -0.19044701496E+02 -0.13300772808E+03  0.13736053325E+03  0.00000000000E+00 0. -1.
</event>
<event>
 7    1  0.6610867E-006  0.1616435E+03  0.7561462E-02  0.1186854E+00
          2   -1    0    0  501    0  0.00000000000E+00  0.00000000000E+00  0.10546663122E+03  0.10546663122E+03  0.00000000000E+00 0. -1.
         -2   -1    0    0    0  501 -0.00000000000E+00 -0.00000000000E+00 -0.31576367862E+03  0.31576367862E+03  0.00000000000E+00 0.  1.
         23    2    1    2    0    0 -0.28780638572E+02  0.14368202396E+03 -0.10928307702E+03  0.20368262195E+03  0.89838579670E+02 0.  0.
          5    1    1    2  502    0  0.26329671185E+00 -0.10796145271E+03 -0.12543963309E+03  0.16555457876E+03  0.41800000000E+01 0.  1.
         -5    1    1    2    0  502  0.28517341860E+02 -0.35720571252E+02  0.24425662708E+02  0.51993109121E+02  0.41800000000E+01 0.  1.
        -11    1    3    3    0    0  0.42216923117E+01 -0.10685871003E+02  0.34178185662E+00  0.11494665716E+02  0.00000000000E+00 0.  1.
         11    1    3    3    0    0 -0.33002330884E+02  0.15436789497E+03 -0.10962485887E+03  0.19218795624E+03  0.00000000000E+00 0. -1.
</event>
<event>
 7    1  0.6610867E-006  0.1722170E+03  0.7561462E-02  0.1175555E+00
         -2   -1    0    0    0  501 -0.00000000000E+00  0.00000000000E+00  0.28249794724E+02  0.28249794724E+02  0.00000000000E+00 0.  1.
          2   -1    0    0  501    0  0.00000000000E+00 -0.00000000000E+00 -0.13323789273E+04  0.13323789273E+04  0.00000000000E+00 0. -1.
         23    2    1    2    0    0 -0.13760494458E+03  0.69349074691E+02 -0.46580091791E+03  0.49912683665E+03  0.91720711964E+02 0.  0.
          5    1    1    2  502    0  0.15258469285E+02 -0.56667174518E+02 -0.45782419795E+03  0.46158905770E+03  0.41800000000E+01 0.  1.
         -5    1    1    2    0  502  0.12234647530E+03 -0.12681900172E+02 -0.38050401672E+03  0.39991282769E+03  0.41800000000E+01 0.  1.
        -11    1    3    3    0    0 -0.82919964841E+02  0.12872081015E+02 -0.34455077019E+03  0.35462183277E+03  0.00000000000E+00 0.  1.
         11    1    3    3    0    0 -0.54684979739E+02  0.56476993676E+02 -0.12125014772E+03  0.14450500388E+03  0.00000000000E+00 0. -1.
</event>
<event>
 7    1  0.6610867E-006  0.9980961E+02  0.7561462E-02  0.1280697E+00
         -2   -1    0    0    0  501 -0.00000000000E+00  0.00000000000E+00  0.86323687596E+02  0.86323687596E+02  0.00000000000E+00 0.  1.
          2   -1    0    0  501    0  0.00000000000E+00 -0.00000000000E+00 -0.14946892687E+03  0.14946892687E+03  0.00000000000E+00 0. -1.
         23    2    1    2    0    0 -0.28726488218E+02  0.19425349438E+02 -0.57802883922E+01  0.93881776107E+02  0.87050679635E+02 0.  0.
          5    1    1    2  502    0  0.64546017602E+02  0.94673872555E+01  0.35328328418E+01  0.65465816405E+02  0.41800000000E+01 0.  1.
         -5    1    1    2    0  502 -0.35819529384E+02 -0.28892736693E+02 -0.60897783723E+02  0.76445021952E+02  0.41800000000E+01 0.  1.
        -11    1    3    3    0    0  0.26592193584E+02 -0.58373391611E+01 -0.16921490716E+02  0.32055516469E+02  0.00000000000E+00 0.  1.
         11    1    3    3    0    0 -0.55318681802E+02  0.25262688599E+02  0.11141202324E+02  0.61826259638E+02  0.00000000000E+00 0. -1.
</event>
<event>
 7    1  0.6610867E-006  0.1329919E+03  0.7561462E-02  0.1223083E+00
         -1   -1    0    0    0  501 -0.00000000000E+00  0.00000000000E+00  0.16876979216E+03  0.16876979216E+03  0.00000000000E+00 0.  1.
          1   -1    0    0  501    0  0.00000000000E+00 -0.00000000000E+00 -0.11562039388E+03  0.11562039388E+03  0.00000000000E+00 0. -1.
         23    2    1    2    0    0 -0.78190116608E+02  0.38291316183E+02  0.30972212777E+02  0.13037937919E+03  0.91976004069E+02 0.  0.
          5    1    1    2  502    0  0.23406409624E+02 -0.75733792349E+02  0.34220777669E+02  0.86440738887E+02  0.41800000000E+01 0.  1.
         -5    1    1    2    0  502  0.54783706984E+02  0.37442476166E+02 -0.12043592167E+02  0.67570067964E+02  0.41800000000E+01 0.  1.
        -11    1    3    3    0    0  0.10115935070E+02 -0.14164742150E+02  0.20865002042E+02  0.27172051316E+02  0.00000000000E+00 0.  1.
         11    1    3    3    0    0 -0.88306051678E+02  0.52456058333E+02  0.10107210735E+02  0.10320732788E+03  0.00000000000E+00 0. -1.
</event>
<event>
 7    1  0.6610867E-006  0.1172658E+03  0.7561462E-02  0.1247677E+00
         -2   -1    0    0    0  501 -0.00000000000E+00  0.00000000000E+00  0.27474724451E+03  0.27474724451E+03  0.00000000000E+00 0.  1.
          2   -1    0    0  501    0  0.00000000000E+00 -0.00000000000E+00 -0.86586195786E+02  0.86586195786E+02  0.00000000000E+00 0. -1.
         23    2    1    2    0    0  0.41551564204E+02  0.10068739766E+03  0.10733784862E+03  0.17681940869E+03  0.88764886136E+02 0.  0.
          5    1    1    2  502    0 -0.40385821244E+02 -0.66717130553E+02  0.11310592918E+03  0.13745040445E+03  0.41800000000E+01 0. -1.
         -5    1    1    2    0  502 -0.11657429594E+01 -0.33970267103E+02 -0.32282729079E+02  0.47063627150E+02  0.41800000000E+01 0. -1.
        -11    1    3    3    0    0  0.52526063039E+02  0.97514044855E+02  0.55784910852E+02  0.12401585593E+03  0.00000000000E+00 0. -1.
         11    1    3    3    0    0 -0.10974498835E+02  0.31733528008E+01  0.51552937766E+02  0.52803552769E+02  0.00000000000E+00 0.  1.
</event>
<event>
 7    1  0.6610867E-006  0.1187416E+03  0.7561462E-02  0.1245188E+00
         -3   -1    0    0    0  501 -0.00000000000E+00  0.00000000000E+00  0.72900013543E+03  0.72900013543E+03  0.00000000000E+00 0.  1.
          3   -1    0    0  501    0  0.00000000000E+00 -0.00000000000E+00 -0.31456907220E+02  0.31456907220E+02  0.00000000000E+00 0. -1.
         23    2    1    2    0    0 -0.10164517300E+03 -0.15604280723E+01  0.39024194468E+03  0.41344523623E+03  0.91181203352E+02 0.  0.
          5    1    1    2  502    0  0.28820761375E+02 -0.23817251037E+02  0.24475369614E+03  0.24762823326E+03  0.41800000000E+01 0.  1.
         -5    1    1    2    0  502  0.72824411625E+02  0.25377679109E+02  0.62547587387E+02  0.99383573157E+02  0.41800000000E+01 0.  1.
        -11    1    3    3    0    0 -0.46217196990E+02  0.33466101959E+02  0.27498795385E+03  0.28084583679E+03  0.00000000000E+00 0.  1.
         11    1    3    3    0    0 -0.55427976009E+02 -0.35026530032E+02  0.11525399083E+03  0.13259939944E+03  0.00000000000E+00 0. -1.
</event>
<event>
 7    1  0.6610867E-006  0.1998787E+03  0.7561462E-02  0.1149841E+00
          2   -1    0    0  501    0  0.00000000000E+00  0.00000000000E+00  0.12108151673E+03  0.12108151673E+03  0.00000000000E+00 0. -1.
         -2   -1    0    0    0  501 -0.00000000000E+00 -0.00000000000E+00 -0.55160428796E+03  0.55160428796E+03  0.00000000000E+00 0.  1.
         23    2    1    2    0    0  0.18403597795E+03  0.66944193401E+02 -0.37661535579E+03  0.43413909634E+03  0.91032206128E+02 0.  0.
          5    1    1    2  502    0 -0.33061742266E+02  0.94912460063E+01 -0.59864984774E+02  0.69169728599E+02  0.41800000000E+01 0. -1.
         -5    1    1    2    0  502 -0.15097423568E+03 -0.76435439407E+02  0.59575693288E+01  0.16937697975E+03  0.41800000000E+01 0. -1.
        -11    1    3    3    0    0  0.94070387094E+02  0.33806084819E+02 -0.10005713418E+03  0.14143379794E+03  0.00000000000E+00 0. -1.
         11    1    3    3    0    0  0.89965590851E+02  0.33138108582E+02 -0.27655822160E+03  0.29270529840E+03  0.00000000000E+00 0.  1.
</event>
<event>
 7    1  0.6610867E-006  0.1222087E+03  0.7561462E-02  0.1239497E+00
          1   -1    0    0  501    0  0.00000000000E+00  0.00000000000E+00  0.10773722012E+04  0.10773722012E+04  0.00000000000E+00 0. -1.
         -1   -1    0    0    0  501 -0.00000000000E+00 -0.00000000000E+00 -0.17844687936E+02  0.17844687936E+02  0.00000000000E+00 0.  1.
         23    2    1    2    0    0 -0.21512572101E+02  0.71480266392E+02  0.27907310571E+03  0.30198586650E+03  0.87985487395E+02 0.  0.
          5    1    1    2  502    0  0.53172954781E+02 -0.80545865697E+02  0.40716514103E+03  0.41846854609E+03  0.41800000000E+01 0. -1.
         -5    1    1    2    0  502 -0.31660382681E+02  0.90655993057E+01  0.37328926654E+03  0.37476247656E+03  0.41800000000E+01 0. -1.
        -11    1    3    3    0    0 -0.34164726039E+02  0.87656569408E+02  0.21446895772E+03  0.23419614961E+03  0.00000000000E+00 0.  1.
         11    1    3    3    0    0  0.12652153938E+02 -0.16176303016E+02  0.64604147989E+02  0.67789716889E+02  0.00000000000E+00 0. -1.
</event>
<event>
 7    1  0.6610867E-006  0.1496408E+03  0.7561462E-02  0.1200915E+00
          1   -1    0    0  501    0  0.00000000000E+00  0.00000000000E+00  0.65572509558E+02  0.65572509558E+02  0.00000000000E+00 0. -1.
         -1   -1    0    0    0  501 -0.00000000000E+00 -0.00000000000E+00 -0.34729091018E+03  0.34729091018E+03  0.00000000000E+00 0.  1.
         23    2    1    2    0    0 -0.24963499464E+02 -0.98831860018E+02 -0.14975972688E+03  0.20441211319E+03  0.94685919571E+02 0.  0.
          5    1    1    2  502    0 -0.50392310682E+02  0.38756012535E+02 -0.40297213021E+02  0.75384025236E+02  0.41800000000E+01 0. -1.
         -5    1    1    2    0  502  0.75355810146E+02  0.60075847484E+02 -0.91661460729E+02  0.13306728132E+03  0.41800000000E+01 0. -1.
        -11    1    3    3    0    0 -0.24481117805E+02 -0.11770806610E+03 -0.13053643206E+03  0.17746626172E+03  0.00000000000E+00 0. -1.
         11    1    3    3    0    0 -0.48238165918E+00  0.18876206079E+02 -0.19223294821E+02  0.26945851476E+02  0.00000000000E+00 0.  1.
</event>
<event>
 7    1  0.6610867E-006  0.1184997E+03  0.7561462E-02  0.1245593E+00
         -1   -1    0    0    0  501 -0.00000000000E+00  0.00000000000E+00  0.10528701899E+02  0.10528701899E+02  0.00000000000E+00 0.  1.
          1   -1    0    0  501    0  0.00000000000E+00 -0.00000000000E+00 -0.28727529000E+04  0.28727529000E+04  0.00000000000E+00 0. -1.
         23    2    1    2    0    0 -0.24650144879E+02  0.57823140105E+02 -0.33736795539E+03  0.35432920622E+03  0.88209431946E+02 0.  0.
          5    1    1    2  502    0  0.61095924632E+02 -0.10135280595E+01 -0.17740253374E+04  0.17750822824E+04  0.41800000000E+01 0. -1.
         -5    1    1    2    0  502 -0.36445779753E+02 -0.56809612046E+02 -0.75083090534E+03  0.75387011328E+03  0.41800000000E+01 0.  1.
        -11    1    3    3    0    0 -0.55386584412E+02  0.53647878839E+02 -0.24975650566E+03  0.26138875408E+03  0.00000000000E+00 0.  1.
         11    1    3    3    0    0  0.30736439534E+02  0.41752612666E+01 -0.87611449727E+02  0.92940452146E+02  0.00000000000E+00 0. -1.
</event>
<event>
 7    1  0.6610867E-006  0.1937889E+03  0.7561462E-02  0.1155088E+00
          1   -1    0    0  501    0  0.00000000000E+00  0.00000000000E+00  0.80659692958E+03  0.80659692958E+03  0.00000000000E+00 0. -1.
         -1   -1    0    0    0  501 -0.00000000000E+00 -0.00000000000E+00 -0.56549675520E+02  0.56549675520E+02  0.00000000000E+00 0.  1.
         23    2    1    2    0    0  0.97292129623E+02  0.15705316139E+03  0.35775300289E+03  0.41184463147E+03  0.86587154952E+02 0.  0.
          5    1    1    2  502    0 -0.54057249953E+02 -0.33149157892E+02  0.39395562213E+02  0.74769884737E+02  0.41800000000E+01 0. -1.
         -5    1    1    2    0  502 -0.43234879670E+02 -0.12390400350E+03  0.35289868895E+03  0.37653208890E+03  0.41800000000E+01 0. -1.
        -11    1    3    3    0    0  0.10418056980E+03  0.14144803629E+03  0.35274186475E+03  0.39406593514E+03  0.00000000000E+00 0. -1.
         11    1    3    3    0    0 -0.68884401759E+01  0.15605125102E+02  0.50111381393E+01  0.17778696323E+02  0.00000000000E+00 0.  1.
</event>
<event>
 7    1  0.6610867E-006  0.1137881E+03  0.7561462E-02  0.1253711E+00
         -2   -1    0    0    0  501 -0.00000000000E+00  0.00000000000E+00  0.14964662187E+02  0.14964662187E+02  0.00000000000E+00 0.  1.
          2   -1    0    0  501    0  0.00000000000E+00 -0.00000000000E+00 -0.23397700696E+04  0.23397700696E+04  0.00000000000E+00 0. -1.
         23    2    1    2    0    0 -0.82004299706E+02 -0.28587092187E+02 -0.32293909021E+03  0.34708463950E+03  0.92930963502E+02 0.  0.
          5    1    1    2  502    0  0.10762095390E+03  0.13682238438E+02 -0.18284063361E+04  0.18316267839E+04  0.41800000000E+01 0. -1.
         -5    1    1    2    0  502 -0.25616654196E+02  0.14904853750E+02 -0.17345998107E+03  0.17602330832E+03  0.41800000000E+01 0. -1.
        -11    1    3    3    0    0 -0.55694132136E+02 -0.28942367783E+02 -0.31255887573E+03  0.31879860070E+03  0.00000000000E+00 0. -1.
         11    1    3    3    0    0 -0.26310167570E+02  0.35527559547E+00 -0.10380214480E+02  0.28286038800E+02  0.00000000000E+00 0.  1.
</event>
<event>
 7    1  0.6610867E-006  0.1282719E+03  0.7561462E-02  0.1230043E+00
         -1   -1    0    0    0  501 -0.00000000000E+00  0.00000000000E+00  0.10144264171E+03  0.10144264171E+03  0.00000000000E+00 0.  1.
          1   -1    0    0  501    0  0.00000000000E+00 -0.00000000000E+00 -0.21366891588E+03  0.21366891588E+03  0.00000000000E+00 0. -1.
         23    2    1    2    0    0  0.38263091934E+02  0.90653484367E+02 -0.41393607332E+02  0.14090895477E+03  0.91977086140E+02 0.  0.
          5    1    1    2  502    0  0.34905519751E+01  0.29812045482E+02 -0.52154426793E+01  0.30750857732E+02  0.41800000000E+01 0.  1.
         -5    1    1    2    0  502 -0.41753643909E+02 -0.12046552985E+03 -0.65617224155E+02  0.14345174508E+03  0.41800000000E+01 0.  1.
        -11    1    3    3    0    0  0.17572434724E+02  0.32458944379E+02 -0.65032072039E+02  0.74776626870E+02  0.00000000000E+00 0. -1.
         11    1    3    3    0    0  0.20690657210E+02  0.58194539988E+02  0.23638464707E+02  0.66132327903E+02  0.00000000000E+00 0.  1.
</event>
<event>
 7    1  0.6610867E-006  0.1121161E+03  0.7561462E-02  0.1256701E+00
         -1   -1    0    0    0  501 -0.00000000000E+00  0.00000000000E+00  0.65986095168E+03  0.65986095168E+03  0.00000000000E+00 0.  1.
          1   -1    0    0  501    0  0.00000000000E+00 -0.00000000000E+00 -0.31229747217E+02  0.31229747217E+02  0.00000000000E+00 0. -1.
         23    2    1    2    0    0 -0.20437006790E+01 -0.81052132807E+02  0.40102167931E+03  0.41901356212E+03  0.90445303992E+02 0.  0.
          5    1    1    2  502    0 -0.36653295333E+02  0.51243568396E+02  0.21110919648E+03  0.22034956909E+03  0.41800000000E+01 0.  1.
         -5    1    1    2    0  502  0.38696996012E+02  0.29808564411E+02  0.16500328670E+02  0.51727567687E+02  0.41800000000E+01 0.  1.
        -11    1    3    3    0    0  0.36892772116E+02 -0.28284185266E+02  0.91625253418E+02  0.10274365593E+03  0.00000000000E+00 0. -1.
         11    1    3    3    0    0 -0.38936472795E+02 -0.52767947541E+02  0.30939642589E+03  0.31626990618E+03  0.00000000000E+00 0.  1.
</event>
<event>
 7    1  0.6610867E-006  0.1183861E+03  0.7561462E-02  0.1245783E+00
         -2   -1    0    0    0  501 -0.00000000000E+00  0.00000000000E+00  0.12209059388E+03  0.12209059388E+03  0.00000000000E+00 0.  1.
          2   -1    0    0  501    0  0.00000000000E+00 -0.00000000000E+00 -0.16977503561E+03  0.16977503561E+03  0.00000000000E+00 0. -1.
         23    2    1    2    0    0  0.50336858358E+02  0.35591088460E+02  0.44710711100E+02  0.12457853483E+03  0.98591271244E+02 0.  0.
          5    1    1    2  502    0  0.34940660041E+02 -0.27423135797E+02 -0.61806791279E+02  0.76226176273E+02  0.41800000000E+01 0. -1.
         -5    1    1    2    0  502 -0.85277518399E+02 -0.81679526627E+01 -0.30588361553E+02  0.91060918387E+02  0.41800000000E+01 0. -1.
        -11    1    3    3    0    0 -0.23648218999E+02 -0.13651561674E+01  0.33634416686E+02  0.41138496557E+02  0.00000000000E+00 0.  1.
         11    1    3    3    0    0  0.73985077358E+02  0.36956244627E+02  0.11076294414E+02  0.83440038270E+02  0.00000000000E+00 0. -1.
</event>
<event>
 7    1  0.6610867E-006  0.3939548E+03  0.7561462E-02  0.1045893E+00
          1   -1    0    0  501    0  0.00000000000E+00  0.00000000000E+00  0.89812756736E+03  0.89812756736E+03  0.00000000000E+00 0. -1.
         -1   -1    0    0    0  501 -0.00000000000E+00 -0.00000000000E+00 -0.29342365848E+03  0.29342365848E+03  0.00000000000E+00 0.  1.
         23    2    1    2    0    0  0.34889251330E+03  0.14922621910E+03 -0.80522600316E+02  0.39834424225E+03  0.90552724217E+02 0.  0.
          5    1    1    2  502    0 -0.11620590102E+03 -0.11322438361E+03  0.31668823766E+03  0.35585458371E+03  0.41800000000E+01 0. -1.
         -5    1    1    2    0  502 -0.23268661228E+03 -0.36001835484E+02  0.36853827154E+03  0.43735239988E+03  0.41800000000E+01 0. -1.
        -11    1    3    3    0    0  0.13472116238E+03  0.10648538508E+03 -0.36210825099E+02  0.17549972275E+03  0.00000000000E+00 0. -1.
         11    1    3    3    0    0  0.21417135092E+03  0.42740834016E+02 -0.44311775217E+02  0.22284451950E+03  0.00000000000E+00 0.  1.
</event>
<event>
 7    1  0.6610867E-006  0.7739432E+02  0.7561462E-02  0.1336613E+00
          3   -1    0    0  501    0  0.00000000000E+00  0.00000000000E+00  0.17805751015E+03  0.17805751015E+03  0.00000000000E+00 0. -1.
         -3   -1    0    0    0  501 -0.00000000000E+00 -0.00000000000E+00 -0.86158775462E+02  0.86158775462E+02  0.00000000000E+00 0.  1.
         23    2    1    2    0    0 -0.53897018017E+02 -0.53135899990E+01  0.19919464769E+02  0.11007152108E+03  0.93732768476E+02 0.  0.
          5    1    1    2  502    0  0.50590838358E+02  0.16532253153E+02 -0.23162626065E+02  0.58195600919E+02  0.41800000000E+01 0. -1.
         -5    1    1    2    0  502  0.33061796588E+01 -0.11218663154E+02  0.95141895984E+02  0.95949163615E+02  0.41800000000E+01 0. -1.
        -11    1    3    3    0    0 -0.66930053452E+02 -0.19503729191E+02 -0.13958870630E+02  0.71097662245E+02  0.00000000000E+00 0.  1.
         11    1    3    3    0    0  0.13033035435E+02  0.14190139192E+02  0.33878335399E+02  0.38973858833E+02  0.00000000000E+00 0. -1.
</event>
<event>
 7    1  0.6610867E-006  0.8288862E+02  0.7561462E-02  0.1321048E+00
         -1   -1    0    0    0  501 -0.00000000000E+00  0.00000000000E+00  0.18309597473E+02  0.18309597473E+02  0.00000000000E+00 0.  1.
          1   -1    0    0  501    0  0.00000000000E+00 -0.00000000000E+00 -0.67590685958E+03  0.67590685958E+03  0.00000000000E+00 0. -1.
         23    2    1    2    0    0 -0.12370937463E+01  0.16388543255E+01 -0.22103418270E+03  0.24008188120E+03  0.93696229973E+02 0.  0.
          5    1    1    2  502    0 -0.37599601330E+02  0.29349749038E+02 -0.35729531518E+03  0.36048932361E+03  0.41800000000E+01 0.  1.
         -5    1    1    2    0  502  0.38836695077E+02 -0.30988603364E+02 -0.79267764223E+02  0.93645252244E+02  0.41800000000E+01 0.  1.
        -11    1    3    3    0    0 -0.31123944016E+02 -0.14201126991E+02 -0.19340369723E+03  0.19640611498E+03  0.00000000000E+00 0. -1.
         11    1    3    3    0    0  0.29886850270E+02  0.15839981317E+02 -0.27630485474E+02  0.43675766218E+02  0.00000000000E+00 0.  1.
</event>
<event>
 7    1  0.6610867E-006  0.1048932E+03  0.7561462E-02  0.1270330E+00
         -1   -1    0    0    0  501 -0.00000000000E+00  0.00000000000E+00  0.43670068218E+03  0.43670068218E+03  0.00000000000E+00 0.  1.
          1   -1    0    0  501    0  0.00000000000E+00 -0.00000000000E+00 -0.40786342435E+02  0.40786342435E+02  0.00000000000E+00 0. -1.
         23    2    1    2    0    0  0.10792131794E+02 -0.21387065681E+01  0.31794228921E+03  0.32967501032E+03  0.86471203212E+02 0.  0.
          5    1    1    2  502    0  0.72486212497E+01  0.62179434402E+02  0.38539246161E+02  0.73631314448E+02  0.41800000000E+01 0.  1.
         -5    1    1    2    0  502 -0.18040753043E+02 -0.60040727834E+02  0.39432804373E+02  0.74180699848E+02  0.41800000000E+01 0.  1.
        -11    1    3    3    0    0  0.46978330068E+02 -0.76951622283E+01  0.22054797934E+03  0.22562710433E+03  0.00000000000E+00 0.  1.
         11    1    3    3    0    0 -0.36186198274E+02  0.55564556602E+01  0.97394309867E+02  0.10404790598E+03  0.00000000000E+00 0. -1.
</event>
<event>
 7    1  0.6610867E-006  0.1150598E+03  0.7561462E-02  0.1251477E+00
          2   -1    0    0  501    0  0.00000000000E+00  0.00000000000E+00  0.67775900515E+03  0.67775900515E+03  0.00000000000E+00 0. -1.
         -2   -1    0    0    0  501 -0.00000000000E+00 -0.00000000000E+00 -0.20622571947E+02  0.20622571947E+02  0.00000000000E+00 0.  1.
         23    2    1    2    0    0 -0.48921320451E+00  0.40120846626E+02  0.21470890776E+03  0.23686362432E+03  0.91621721187E+02 0.  0.
          5    1    1    2  502    0  0.20806447602E+02  0.41783397389E+02  0.15502927143E+03  0.16195773510E+03  0.41800000000E+01 0.  1.
         -5    1    1    2    0  502 -0.20317234397E+02 -0.81904244016E+02  0.28739825402E+03  0.29956021768E+03  0.41800000000E+01 0.  1.
        -11    1    3    3    0    0 -0.56658385203E+01 -0.28950952630E+02  0.82381978976E+02  0.87504570419E+02  0.00000000000E+00 0.  1.
         11    1    3    3    0    0  0.51766253158E+01  0.69071799256E+02  0.13232692878E+03  0.14935905390E+03  0.00000000000E+00 0. -1.
</event>
<event>
 7    1  0.6610867E-006  0.7787859E+02  0.7561462E-02  0.1335182E+00
         -2   -1    0    0    0  501 -0.00000000000E+00  0.00000000000E+00  0.19708506191E+02  0.19708506191E+02  0.00000000000E+00 0. -1.
          2   -1    0    0  501    0  0.00000000000E+00 -0.00000000000E+00 -0.90111880074E+03  0.90111880074E+03  0.00000000000E+00 0.  1.
         23    2    1    2    0    0 -0.61797949148E+02 -0.31276634118E+02 -0.28129264300E+03  0.30391149945E+03  0.91866392828E+02 0.  0.
          5    1    1    2  502    0  0.23822597592E+02 -0.11335403671E+02 -0.50640800357E+03  0.50711196595E+03  0.41800000000E+01 0.  1.
         -5    1    1    2    0  502  0.37975351555E+02  0.42612037789E+02 -0.93709647989E+02  0.10980384154E+03  0.41800000000E+01 0.  1.
        -11    1    3    3    0    0 -0.12756343223E+02  0.14770427000E+01  0.33113890581E+01  0.13261645639E+02  0.00000000000E+00 0. -1.
         11    1    3    3    0    0 -0.49041605925E+02 -0.32753676818E+02 -0.28460403205E+03  0.29064985381E+03  0.00000000000E+00 0.  1.
</event>
<event>
 7    1  0.6610867E-006  0.9737432E+02  0.7561462E-02  0.1285916E+00
         -2   -1    0    0    0  501 -0.00000000000E+00  0.00000000000E+00  0.92738606213E+02  0.92738606213E+02  0.00000000000E+00 0.  1.
          2   -1    0    0  501    0  0.00000000000E+00 -0.00000000000E+00 -0.14004711621E+03  0.14004711621E+03  0.00000000000E+00 0. -1.
         23    2    1    2    0    0 -0.24758777263E+02  0.13596865692E+02  0.33827462369E+01  0.94896335247E+02  0.90531760521E+02 0.  0.
          5    1    1    2  502    0 -0.28737574145E+02  0.22998635277E+02 -0.61745149975E+02  0.72005009116E+02  0.41800000000E+01 0.  1.
         -5    1    1    2    0  502  0.53496351408E+02 -0.36595500969E+02  0.11053893743E+02  0.65884378057E+02  0.41800000000E+01 0.  1.
        -11    1    3    3    0    0 -0.33492885010E+02 -0.32003490766E+02  0.11576803785E+02  0.47749546107E+02  0.00000000000E+00 0.  1.
         11    1    3    3    0    0  0.87341077475E+01  0.45600356458E+02 -0.81940575478E+01  0.47146789141E+02  0.00000000000E+00 0. -1.
</event>
<event>
 7    1  0.6610867E-006  0.1144048E+03  0.7561462E-02  0.1252624E+00
          1   -1    0    0  501    0  0.00000000000E+00  0.00000000000E+00  0.21829319545E+03  0.21829319545E+03  0.00000000000E+00 0. -1.
         -1   -1    0    0    0  501 -0.00000000000E+00 -0.00000000000E+00 -0.13043959392E+03  0.13043959392E+03  0.00000000000E+00 0.  1.
         23    2    1    2    0    0  0.18862793661E+02  0.27471825496E+02 -0.37355021585E+02  0.10503355355E+03  0.92337119046E+02 0.  0.
          5    1    1    2  502    0  0.55818441976E+02 -0.41266539423E+02  0.14864734639E+03  0.16411012074E+03  0.41800000000E+01 0. -1.
         -5    1    1    2    0  502 -0.74681235637E+02  0.13794713927E+02 -0.23438723279E+02  0.79589115070E+02  0.41800000000E+01 0.  1.
        -11    1    3    3    0    0  0.41594164297E+02 -0.67360782624E+01 -0.46713034044E+02  0.62909115425E+02  0.00000000000E+00 0. -1.
         11    1    3    3    0    0 -0.22731370636E+02  0.34207903759E+02  0.93580124589E+01  0.42124438130E+02  0.00000000000E+00 0.  1.
</event>
<event>
 7    1  0.6610867E-006  0.1006068E+03  0.7561462E-02  0.1279025E+00
          2   -1    0    0  501    0  0.00000000000E+00  0.00000000000E+00  0.91386835462E+03  0.91386835462E+03  0.00000000000E+00 0.  1.
         -2   -1    0    0    0  501 -0.00000000000E+00 -0.00000000000E+00 -0.14280821607E+02  0.14280821607E+02  0.00000000000E+00 0. -1.
         23    2    1    2    0    0  0.26483384848E+02 -0.22736289557E+02  0.39821887917E+03  0.41023326725E+03  0.92166964266E+02 0.  0.
          5    1    1    2  502    0 -0.16284838659E+02 -0.39412317080E+02  0.70882379284E+02  0.82826993189E+02  0.41800000000E+01 0.  1.
         -5    1    1    2    0  502 -0.10198546189E+02  0.62148606637E+02  0.43048627457E+03  0.43508891579E+03  0.41800000000E+01 0.  1.
        -11    1    3    3    0    0  0.77557700876E+01 -0.56289284891E+02  0.18325422274E+03  0.19186126685E+03  0.00000000000E+00 0.  1.
         11    1    3    3    0    0  0.18727614760E+02  0.33552995334E+02  0.21496465642E+03  0.21837200041E+03  0.00000000000E+00 0. -1.
</event>
<event>
 7    1  0.6610867E-006  0.3024885E+03  0.7561462E-02  0.1084003E+00
         -1   -1    0    0    0  501 -0.00000000000E+00  0.00000000000E+00  0.41190271299E+03  0.41190271299E+03  0.00000000000E+00 0.  1.
          1   -1    0    0  501    0  0.00000000000E+00 -0.00000000000E+00 -0.27721876654E+03  0.27721876654E+03  0.00000000000E+00 0. -1.
         23    2    1    2    0    0 -0.24618237526E+03 -0.17037657482E+03  0.16098063100E+03  0.35196519822E+03  0.91273205618E+02 0.  0.
          5    1    1    2  502    0  0.98977656985E+02  0.61511673521E+02 -0.85604495306E+02  0.14465774980E+03  0.41800000000E+01 0. -1.
         -5    1    1    2    0  502  0.14720471827E+03  0.10886490130E+03  0.59307810748E+02  0.19249853151E+03  0.41800000000E+01 0.  1.
        -11    1    3    3    0    0 -0.13385662295E+03 -0.56537766901E+02  0.37922258556E+02  0.15017394011E+03  0.00000000000E+00 0.  1.
         11    1    3    3    0    0 -0.11232575231E+03 -0.11383880792E+03  0.12305837245E+03  0.20179125811E+03  0.00000000000E+00 0. -1.
</event>
<event>
 7    1  0.6610867E-006  0.1642968E+03  0.7561462E-02  0.1183929E+00
         -2   -1    0    0    0  501 -0.00000000000E+00  0.00000000000E+00  0.37757733123E+02  0.37757733123E+02  0.00000000000E+00 0.  1.
          2   -1    0    0  501    0  0.00000000000E+00 -0.00000000000E+00 -0.77098617920E+03  0.77098617920E+03  0.00000000000E+00 0. -1.
         23    2    1    2    0    0  0.66151403993E+02 -0.10432529862E+03 -0.30138787582E+03  0.34248919105E+03  0.10585092402E+03 0.  0.
          5    1    1    2  502    0  0.10591517120E+02 -0.21519973132E+02 -0.32860389689E+02  0.40897030320E+02  0.41800000000E+01 0. -1.
         -5    1    1    2    0  502 -0.76742921113E+02  0.12584527175E+03 -0.39898018057E+03  0.42535769095E+03  0.41800000000E+01 0. -1.
        -11    1    3    3    0    0  0.70041267168E+02 -0.12092181902E+03 -0.29021809443E+03  0.32210931026E+03  0.00000000000E+00 0. -1.
         11    1    3    3    0    0 -0.38898631746E+01  0.16596520399E+02 -0.11169781387E+02  0.20379880792E+02  0.00000000000E+00 0.  1.
</event>
<event>
 7    1  0.6610867E-006  0.2058898E+03  0.7561462E-02  0.1144863E+00
          2   -1    0    0  501    0  0.00000000000E+00  0.00000000000E+00  0.82122183746E+02  0.82122183746E+02  0.00000000000E+00 0. -1.
         -2   -1    0    0    0  501 -0.00000000000E+00 -0.00000000000E+00 -0.59116408868E+03  0.59116408868E+03  0.00000000000E+00 0.  1.
         23    2    1    2    0    0  0.17293757770E+03  0.66147372290E+02 -0.16871147770E+03  0.26615411570E+03  0.89953154236E+02 0.  0.
          5    1    1    2  502    0 -0.15278741647E+03 -0.99079058114E+02 -0.25492523046E+03  0.31331294246E+03  0.41800000000E+01 0.  1.
         -5    1    1    2    0  502 -0.20150161226E+02  0.32931685824E+02 -0.85405196774E+02  0.93819214261E+02  0.41800000000E+01 0.  1.
        -11    1    3    3    0    0  0.16293477213E+03  0.73135386218E+02 -0.17696552288E+03  0.25142259440E+03  0.00000000000E+00 0.  1.
         11    1    3    3    0    0  0.10002805562E+02 -0.69880139275E+01  0.82540451859E+01  0.14731521296E+02  0.00000000000E+00 0. -1.
</event>
<event>
 7    1  0.6610867E-006  0.7141804E+02  0.7561462E-02  0.1355336E+00
          2   -1    0    0  501    0  0.00000000000E+00  0.00000000000E+00  0.21259836354E+03  0.21259836354E+03  0.00000000000E+00 0. -1.
         -2   -1    0    0    0  501 -0.00000000000E+00 -0.00000000000E+00 -0.75139671837E+02  0.75139671837E+02  0.00000000000E+00 0.  1.
         23    2    1    2    0    0  0.48426087213E+02  0.34014045078E+02  0.27772453658E+02  0.11579698947E+03  0.95580292958E+02 0.  0.
          5    1    1    2  502    0 -0.51863755844E+02 -0.17141602843E+02  0.13231074028E+03  0.14320365956E+03  0.41800000000E+01 0. -1.
         -5    1    1    2    0  502  0.34376686316E+01 -0.16872442235E+02 -0.22624502237E+02  0.28737386348E+02  0.41800000000E+01 0.  1.
        -11    1    3    3    0    0  0.29244807638E+02 -0.22275437343E+01 -0.31938557186E+02  0.43362335730E+02  0.00000000000E+00 0.  1.
         11    1    3    3    0    0  0.19181279574E+02  0.36241588813E+02  0.59711010844E+02  0.72434653736E+02  0.00000000000E+00 0. -1.
</event>
<event>
 7    1  0.6610867E-006  0.1246577E+03  0.7561462E-02  0.1235605E+00
         -2   -1    0    0    0  501 -0.00000000000E+00  0.00000000000E+00  0.17272058865E+02  0.17272058865E+02  0.00000000000E+00 0.  1.
          2   -1    0    0  501    0  0.00000000000E+00 -0.00000000000E+00 -0.10664347443E+04  0.10664347443E+04  0.00000000000E+00 0. -1.
         23    2    1    2    0    0  0.63295758034E+02  0.49600963214E+02 -0.45094742094E+03  0.46728534918E+03  0.92387296585E+02 0.  0.
          5    1    1    2  502    0 -0.78028900763E+02  0.19623496760E+01 -0.20241849955E+03  0.21698636255E+03  0.41800000000E+01 0.  1.
         -5    1    1    2    0  502  0.14733142728E+02 -0.51563312890E+02 -0.39579676493E+03  0.39943509142E+03  0.41800000000E+01 0.  1.
        -11    1    3    3    0    0  0.27663471494E+02  0.70721151737E+02 -0.22220748078E+03  0.23482528287E+03  0.00000000000E+00 0.  1.
         11    1    3    3    0    0  0.35632286540E+02 -0.21120188523E+02 -0.22873994016E+03  0.23246006632E+03  0.00000000000E+00 0. -1.
</event>
<event>
 7    1  0.6610867E-006  0.8068974E+02  0.7561462E-02  0.1327105E+00
          1   -1    0    0  501    0  0.00000000000E+00  0.00000000000E+00  0.40115889211E+02  0.40115889211E+02  0.00000000000E+00 0. -1.
         -1   -1    0    0    0  501 -0.00000000000E+00 -0.00000000000E+00 -0.41452015667E+03  0.41452015667E+03  0.00000000000E+00 0.  1.
         23    2    1    2    0    0 -0.91913865081E+01 -0.58883827572E+02 -0.10090261853E+03  0.14804006731E+03  0.90458478694E+02 0.  0.
          5    1    1    2  502    0 -0.23121810887E+02  0.16425637280E+02 -0.24361749032E+03  0.24529853992E+03  0.41800000000E+01 0. -1.
         -5    1    1    2    0  502  0.32313197395E+02  0.42458190293E+02 -0.29884158608E+02  0.61297438646E+02  0.41800000000E+01 0. -1.
        -11    1    3    3    0    0 -0.24884131349E+02 -0.83038020493E+01  0.75926126103E+01  0.27309721487E+02  0.00000000000E+00 0. -1.
         11    1    3    3    0    0  0.15692744840E+02 -0.50580025523E+02 -0.10849523114E+03  0.12073034582E+03  0.00000000000E+00 0.  1.
</event>
<event>
 7    1  0.6610867E-006  0.1009207E+03  0.7561462E-02  0.1278372E+00
          2   -1    0    0  501    0  0.00000000000E+00  0.00000000000E+00  0.14469845729E+03  0.14469845729E+03  0.00000000000E+00 0. -1.
         -2   -1    0    0    0  501 -0.00000000000E+00 -0.00000000000E+00 -0.12666326384E+03  0.12666326384E+03  0.00000000000E+00 0.  1.
         23    2    1    2    0    0 -0.17110575220E+01  0.74885354482E+02 -0.25736588334E+02  0.11913062910E+03  0.88988711508E+02 0.  0.
          5    1    1    2  502    0 -0.28727455641E+01  0.25203248499E+02 -0.20706167186E+02  0.33010212989E+02  0.41800000000E+01 0.  1.
         -5    1    1    2    0  502  0.45838030862E+01 -0.10008860298E+03  0.64477948964E+02  0.11922087904E+03  0.41800000000E+01 0.  1.
        -11    1    3    3    0    0 -0.68862956660E+01  0.44335728245E+02  0.30965098293E+02  0.54515274733E+02  0.00000000000E+00 0. -1.
         11    1    3    3    0    0  0.51752381439E+01  0.30549626237E+02 -0.56701686626E+02  0.64615354362E+02  0.00000000000E+00 0.  1.
</event>
<event>
 7    1  0.6610867E-006  0.1885126E+03  0.7561462E-02  0.1159810E+00
         -2   -1    0    0    0  501 -0.00000000000E+00  0.00000000000E+00  0.12140605260E+03  0.12140605260E+03  0.00000000000E+00 0. -1.
          2   -1    0    0  501    0  0.00000000000E+00 -0.00000000000E+00 -0.42107074169E+03  0.42107074169E+03  0.00000000000E+00 0.  1.
         23    2    1    2    0    0 -0.17213545395E+03 -0.34128630573E+02 -0.34736746844E+02  0.20096530596E+03  0.91569835019E+02 0.  0.
          5    1    1    2  502    0  0.13007909083E+03 -0.18471431257E+02 -0.10604058964E+03  0.16889003137E+03  0.41800000000E+01 0.  1.
         -5    1    1    2    0  502  0.42056363122E+02  0.52600061830E+02 -0.15888735261E+03  0.17262145696E+03  0.41800000000E+01 0.  1.
        -11    1    3    3    0    0 -0.69705643419E+02  0.12923539802E+01 -0.57320294862E+02  0.90256097336E+02  0.00000000000E+00 0.  1.
         11    1    3    3    0    0 -0.10242981054E+03 -0.35420984553E+02  0.22583548018E+02  0.11070920862E+03  0.00000000000E+00 0. -1.
</event>
<event>
 7    1  0.6610867E-006  0.1033502E+03  0.7561462E-02  0.1273405E+00
         -1   -1    0    0    0  501 -0.00000000000E+00  0.00000000000E+00  0.11213796684E+02  0.11213796684E+02  0.00000000000E+00 0.  1.
          1   -1    0    0  501    0  0.00000000000E+00 -0.00000000000E+00 -0.14772478649E+04  0.14772478649E+04  0.00000000000E+00 0. -1.
         23    2    1    2    0    0  0.13119888600E+01  0.27357989517E+02 -0.27923387021E+03  0.29477306298E+03  0.90384863102E+02 0.  0.
          5    1    1    2  502    0 -0.52650581937E+02  0.48239806731E+01 -0.83512009573E+03  0.83680248641E+03  0.41800000000E+01 0.  1.
         -5    1    1    2    0  502  0.51338593077E+02 -0.32181970190E+02 -0.35168010226E+03  0.35688611219E+03  0.41800000000E+01 0.  1.
        -11    1    3    3    0    0  0.33491077383E+02 -0.17449014241E+02 -0.88464344038E+02  0.96187631889E+02  0.00000000000E+00 0. -1.
         11    1    3    3    0    0 -0.32179088523E+02  0.44807003758E+02 -0.19076952618E+03  0.19858543109E+03  0.00000000000E+00 0.  1.
</event>
<event>
 7    1  0.6610867E-006  0.8362659E+02  0.7561462E-02  0.1319064E+00
          2   -1    0    0  501    0  0.00000000000E+00  0.00000000000E+00  0.15520782949E+04  0.15520782949E+04  0.00000000000E+00 0.  1.
         -2   -1    0    0    0  501 -0.00000000000E+00 -0.00000000000E+00 -0.10663050497E+02  0.10663050497E+02  0.00000000000E+00 0. -1.
         23    2    1    2    0    0 -0.13178617994E+02 -0.21459813706E+01  0.26906273098E+03  0.28418451252E+03  0.90486478258E+02 0.  0.
          5    1    1    2  502    0  0.10974294219E+02  0.38565980682E+02  0.11524759932E+04  0.11531808867E+04  0.41800000000E+01 0. -1.
         -5    1    1    2    0  502  0.22043237750E+01 -0.36419999311E+02  0.11987652014E+03  0.12537594616E+03  0.41800000000E+01 0. -1.
        -11    1    3    3    0    0 -0.31237028427E+02 -0.38525841285E+02  0.17088592805E+03  0.17793817128E+03  0.00000000000E+00 0.  1.
         11    1    3    3    0    0  0.18058410433E+02  0.36379859915E+02  0.98176802929E+02  0.10624634125E+03  0.00000000000E+00 0. -1.
</event>
<event>
 7    1  0.6610867E-006  0.9378718E+02  0.7561462E-02  0.1293931E+00
          3   -1    0    0  501    0  0.00000000000E+00  0.00000000000E+00  0.10633114048E+03  0.10633114048E+03  0.00000000000E+00 0. -1.
         -3   -1    0    0    0  501 -0.00000000000E+00 -0.00000000000E+00 -0.26386641319E+03  0.26386641319E+03  0.00000000000E+00 0.  1.
         23    2    1    2    0    0 -0.26803924547E+02  0.14179255075E+02 -0.21075427226E+03  0.23091459023E+03  0.89357053771E+02 0.  0.
          5    1    1    2  502    0 -0.18722000924E+02 -0.39666216366E+02 -0.20721991013E+02  0.48690813825E+02  0.41800000000E+01 0.  1.
         -5    1    1    2    0  502  0.45525925471E+02  0.25486961291E+02  0.73940990564E+02  0.90592149613E+02  0.41800000000E+01 0.  1.
        -11    1    3    3    0    0 -0.58047357912E+02  0.14864344274E+02 -0.10794779342E+03  0.12346323580E+03  0.00000000000E+00 0.  1.
         11    1    3    3    0    0  0.31243433365E+02 -0.68508919917E+00 -0.10280647885E+03  0.10745135443E+03  0.00000000000E+00 0. -1.
</event>
<event>
 7    1  0.6610867E-006  0.9143330E+02  0.7561462E-02  0.1299417E+00
         -1   -1    0    0    0  501 -0.00000000000E+00  0.00000000000E+00  0.50796829879E+02  0.50796829879E+02  0.00000000000E+00 0.  1.
          1   -1    0    0  501    0  0.00000000000E+00 -0.00000000000E+00 -0.38658208024E+03  0.38658208024E+03  0.00000000000E+00 0. -1.
         23    2    1    2    0    0  0.39219023152E+02  0.31338130499E+02 -0.38036162284E+02  0.11054314134E+03  0.90845067314E+02 0.  0.
          5    1    1    2  502    0 -0.52087372139E+02  0.36248346679E+02 -0.17287134282E+03  0.18419829136E+03  0.41800000000E+01 0. -1.
         -5    1    1    2    0  502  0.12868348987E+02 -0.67586477179E+02 -0.12487774526E+03  0.14263747742E+03  0.41800000000E+01 0. -1.
        -11    1    3    3    0    0  0.10351587284E+02  0.10462073698E+02 -0.64504167775E+02  0.66161907513E+02  0.00000000000E+00 0. -1.
         11    1    3    3    0    0  0.28867435868E+02  0.20876056801E+02  0.26468005491E+02  0.44381233825E+02  0.00000000000E+00 0.  1.
</event>
<event>
 7    1  0.6610867E-006  0.2741859E+03  0.7561462E-02  0.1098908E+00
          1   -1    0    0  501    0  0.00000000000E+00  0.00000000000E+00  0.18299566647E+04  0.18299566647E+04  0.00000000000E+00 0. -1.
         -1   -1    0    0    0  501 -0.00000000000E+00 -0.00000000000E+00 -0.46633213205E+02  0.46633213205E+02  0.00000000000E+00 0.  1.
         23    2    1    2    0    0 -0.26709931641E+03  0.37953833667E+02  0.79082511730E+03  0.84050046477E+03  0.90852225108E+02 0.  0.
          5    1    1    2  502    0  0.21127720489E+03 -0.56215295288E+02  0.58829560776E+03  0.62762043564E+03  0.41800000000E+01 0. -1.
         -5    1    1    2    0  502  0.55822111522E+02  0.18261461622E+02  0.40420272647E+03  0.40846897752E+03  0.41800000000E+01 0. -1.
        -11    1    3    3    0    0 -0.51566878595E+02  0.16891625036E+02  0.74573014899E+02  0.92225834317E+02  0.00000000000E+00 0.  1.
         11    1    3    3    0    0 -0.21553243781E+03  0.21062208630E+02  0.71625210241E+03  0.74827463045E+03  0.00000000000E+00 0. -1.
</event>
<event>
 7    1  0.6610867E-006  0.1170301E+03  0.7561462E-02  0.1248078E+00
          1   -1    0    0  501    0  0.00000000000E+00  0.00000000000E+00  0.14813786448E+02  0.14813786448E+02  0.00000000000E+00 0. -1.
         -1   -1    0    0    0  501 -0.00000000000E+00 -0.00000000000E+00 -0.94034177571E+03  0.94034177571E+03  0.00000000000E+00 0.  1.
         23    2    1    2    0    0 -0.41781657150E+02 -0.19122801287E+02 -0.39305135579E+03  0.40625655692E+03  0.91889245022E+02 0.  0.
          5    1    1    2  502    0 -0.33381205634E+02  0.42036226746E+02 -0.18863942883E+03  0.19617251529E+03  0.41800000000E+01 0.  1.
         -5    1    1    2    0  502  0.75162862785E+02 -0.22913425459E+02 -0.34383720465E+03  0.35272648995E+03  0.41800000000E+01 0.  1.
        -11    1    3    3    0    0  0.23779815081E+02  0.14498108083E+02 -0.13767811003E+03  0.14046685276E+03  0.00000000000E+00 0.  1.
         11    1    3    3    0    0 -0.65561472231E+02 -0.33620909370E+02 -0.25537324576E+03  0.26578970416E+03  0.00000000000E+00 0. -1.
</event>
<event>
 7    1  0.6610867E-006  0.1615446E+03  0.7561462E-02  0.1186964E+00
          3   -1    0    0  501    0  0.00000000000E+00  0.00000000000E+00  0.68456725386E+02  0.68456725386E+02  0.00000000000E+00 0. -1.
         -3   -1    0    0    0  501 -0.00000000000E+00 -0.00000000000E+00 -0.53084792974E+03  0.53084792974E+03  0.00000000000E+00 0.  1.
         23    2    1    2    0    0 -0.15899896116E+02  0.15333232966E+03 -0.26162420837E+03  0.31695951526E+03  0.90843260006E+02 0.  0.
          5    1    1    2  502    0  0.35835799679E+02 -0.41527286762E+02 -0.40490082818E+01  0.55159649677E+02  0.41800000000E+01 0. -1.
         -5    1    1    2    0  502 -0.19935903563E+02 -0.11180504290E+03 -0.19671798770E+03  0.22718549019E+03  0.41800000000E+01 0. -1.
        -11    1    3    3    0    0 -0.13681939421E+02  0.87502535975E+02 -0.22452846618E+03  0.24136470619E+03  0.00000000000E+00 0.  1.
         11    1    3    3    0    0 -0.22179566957E+01  0.65829793689E+02 -0.37095742189E+02  0.75594809066E+02  0.00000000000E+00 0. -1.
</event>
<event>
 7    1  0.6610867E-006  0.1989587E+03  0.7561462E-02  0.1150621E+00
         -4   -1    0    0    0  501 -0.00000000000E+00  0.00000000000E+00  0.21618379640E+03  0.21618379640E+03  0.00000000000E+00 0.  1.
          4   -1    0    0  501    0  0.00000000000E+00 -0.00000000000E+00 -0.26505076763E+03  0.26505076763E+03  0.00000000000E+00 0. -1.
         23    2    1    2    0    0  0.13915804077E+03 -0.12243308993E+03  0.81557980905E+02  0.22236637402E+03  0.91870986850E+02 0.  0.
          5    1    1    2  502    0 -0.89537900070E+02  0.14121682925E+02 -0.13233101751E+02  0.91700844378E+02  0.41800000000E+01 0. -1.
         -5    1    1    2    0  502 -0.49620140700E+02  0.10831140700E+03 -0.11719185039E+03  0.16716734564E+03  0.41800000000E+01 0. -1.
        -11    1    3    3    0    0  0.12598098992E+03 -0.95855901065E+02  0.10018284720E+03  0.18733970873E+03  0.00000000000E+00 0.  1.
         11    1    3    3    0    0  0.13177050846E+02 -0.26577188865E+02 -0.18624866300E+02  0.35026665295E+02  0.00000000000E+00 0. -1.
</event>
<event>
 7    1  0.6610867E-006  0.6841133E+02  0.7561462E-02  0.1365580E+00
         -2   -1    0    0    0  501 -0.00000000000E+00  0.00000000000E+00  0.33062497603E+02  0.33062497603E+02  0.00000000000E+00 0.  1.
          2   -1    0    0  501    0  0.00000000000E+00 -0.00000000000E+00 -0.10192798214E+04  0.10192798214E+04  0.00000000000E+00 0. -1.
         23    2    1    2    0    0  0.13812200596E+01  0.58011910601E+01 -0.43770733808E+02  0.10161043135E+03  0.91505415328E+02 0.  0.
          5    1    1    2  502    0  0.81547908247E+01 -0.33794276604E+02 -0.74996145778E+02  0.82767433366E+02  0.41800000000E+01 0. -1.
         -5    1    1    2    0  502 -0.95360108843E+01  0.27993085544E+02 -0.86745044419E+03  0.86796445427E+03  0.41800000000E+01 0. -1.
        -11    1    3    3    0    0 -0.27203732959E+02  0.25451616007E+02  0.91255365151E+01  0.38354963967E+02  0.00000000000E+00 0.  1.
         11    1    3    3    0    0  0.28584953018E+02 -0.19650424947E+02 -0.52896270324E+02  0.63255467383E+02  0.00000000000E+00 0. -1.
</event>
<event>
 7    1  0.6610867E-006  0.7705962E+02  0.7561462E-02  0.1337609E+00
         -1   -1    0    0    0  501 -0.00000000000E+00  0.00000000000E+00  0.22509841829E+02  0.22509841829E+02  0.00000000000E+00 0.  1.
          1   -1    0    0  501    0  0.00000000000E+00 -0.00000000000E+00 -0.65533877119E+03  0.65533877119E+03  0.00000000000E+00 0. -1.
         23    2    1    2    0    0  0.48047474825E+02  0.27365274988E+02 -0.23620238812E+03  0.25830466027E+03  0.88726046079E+02 0.  0.
          5    1    1    2  502    0 -0.41494187901E+02 -0.27650014156E+02 -0.43414772304E+02  0.66246552866E+02  0.41800000000E+01 0.  1.
         -5    1    1    2    0  502 -0.65532869244E+01  0.28473916855E+00 -0.35321176894E+03  0.35329739988E+03  0.41800000000E+01 0.  1.
        -11    1    3    3    0    0 -0.21819328996E+02  0.11473810685E+02 -0.11409065387E+03  0.11672364264E+03  0.00000000000E+00 0. -1.
         11    1    3    3    0    0  0.69866803821E+02  0.15891464303E+02 -0.12211173425E+03  0.14158101764E+03  0.00000000000E+00 0.  1.
</event>
<event>
 7    1  0.6610867E-006  0.9915733E+02  0.7561462E-02  0.1282078E+00
         -2   -1    0    0    0  501 -0.00000000000E+00  0.00000000000E+00  0.51892141054E+02  0.51892141054E+02  0.00000000000E+00 0.  1.
          2   -1    0    0  501    0  0.00000000000E+00 -0.00000000000E+00 -0.42203654013E+03  0.42203654013E+03  0.00000000000E+00 0. -1.
         23    2    1    2    0    0  0.58774179660E+02 -0.26608109558E+02 -0.46512728689E+02  0.12101621009E+03  0.91209064707E+02 0.  0.
          5    1    1    2  502    0 -0.64754553921E+02  0.55480210433E+02 -0.12089866411E+03  0.14800393706E+03  0.41800000000E+01 0. -1.
         -5    1    1    2    0  502  0.59803742606E+01 -0.28872100875E+02 -0.20273300629E+03  0.20490853404E+03  0.41800000000E+01 0. -1.
        -11    1    3    3    0    0  0.64689137013E+02 -0.99068127096E+01 -0.67184722389E+02  0.93790278323E+02  0.00000000000E+00 0. -1.
         11    1    3    3    0    0 -0.59149573522E+01 -0.16701296848E+02  0.20671993699E+02  0.27225931764E+02  0.00000000000E+00 0.  1.
</event>
<event>
 7    1  0.6610867E-006  0.1288020E+03  0.7561462E-02  0.1229244E+00
         -1   -1    0    0    0  501 -0.00000000000E+00  0.00000000000E+00  0.11280618647E+03  0.11280618647E+03  0.00000000000E+00 0.  1.
          1   -1    0    0  501    0  0.00000000000E+00 -0.00000000000E+00 -0.18460736951E+03  0.18460736951E+03  0.00000000000E+00 0. -1.
         23    2    1    2    0    0  0.31725385853E+02 -0.75629520364E+02  0.18129382038E+02  0.12288183537E+03  0.89693625819E+02 0.  0.
          5    1    1    2  502    0 -0.75878785015E+02  0.69884873915E+02 -0.74137880382E+02  0.12710382892E+03  0.41800000000E+01 0.  1.
         -5    1    1    2    0  502  0.44153399161E+02  0.57446464489E+01 -0.15792684693E+02  0.47427891689E+02  0.41800000000E+01 0.  1.
        -11    1    3    3    0    0  0.17971127965E+02 -0.88798220452E+02  0.35308677782E+02  0.97235734802E+02  0.00000000000E+00 0.  1.
         11    1    3    3    0    0  0.13754257888E+02  0.13168700088E+02 -0.17179295744E+02  0.25646100567E+02  0.00000000000E+00 0. -1.
</event>
<event>
 7    1  0.6610867E-006  0.1424681E+03  0.7561462E-02  0.1210046E+00
          1   -1    0    0  501    0  0.00000000000E+00  0.00000000000E+00  0.12661828502E+03  0.12661828502E+03  0.00000000000E+00 0. -1.
         -1   -1    0    0    0  501 -0.00000000000E+00 -0.00000000000E+00 -0.17586613968E+03  0.17586613968E+03  0.00000000000E+00 0.  1.
         23    2    1    2    0    0  0.99380789533E+02  0.11778202593E+02 -0.48081488187E+02  0.14228473761E+03  0.88982299729E+02 0.  0.
          5    1    1    2  502    0  0.19943155426E+02 -0.33061453323E+02  0.18851256642E+01  0.38882068398E+02  0.41800000000E+01 0. -1.
         -5    1    1    2    0  502 -0.11932394496E+03  0.21283250730E+02 -0.30514921355E+01  0.12131761870E+03  0.41800000000E+01 0. -1.
        -11    1    3    3    0    0  0.91489144029E+02 -0.18662803013E+02 -0.57251637386E+02  0.10952768451E+03  0.00000000000E+00 0.  1.
         11    1    3    3    0    0  0.78916455042E+01  0.30441005606E+02  0.91701491984E+01  0.32757053094E+02  0.00000000000E+00 0. -1.
</event>
<event>
 7    1  0.6610867E-006  0.1146574E+03  0.7561462E-02  0.1252180E+00
         -2   -1    0    0    0  501 -0.00000000000E+00  0.00000000000E+00  0.33608406678E+02  0.33608406678E+02  0.00000000000E+00 0.  1.
          2   -1    0    0  501    0  0.00000000000E+00 -0.00000000000E+00 -0.47259673951E+03  0.47259673951E+03  0.00000000000E+00 0. -1.
         23    2    1    2    0    0 -0.45680251196E+02  0.61492565510E+01 -0.10389280531E+03  0.14556190082E+03  0.90939833241E+02 0.  0.
          5    1    1    2  502    0  0.65475839490E+02  0.41783209142E+02 -0.15873804725E+03  0.17677149705E+03  0.41800000000E+01 0.  1.
         -5    1    1    2    0  502 -0.19795588294E+02 -0.47932465693E+02 -0.17635748027E+03  0.18387174832E+03  0.41800000000E+01 0.  1.
        -11    1    3    3    0    0  0.14562417575E+02 -0.27048079775E+02 -0.47732434240E+02  0.56763085748E+02  0.00000000000E+00 0. -1.
         11    1    3    3    0    0 -0.60242668770E+02  0.33197336326E+02 -0.56160371074E+02  0.88798815076E+02  0.00000000000E+00 0.  1.
</event>
<event>
 7    1  0.6610867E-006  0.1407411E+03  0.7561462E-02  0.1212335E+00
         -2   -1    0    0    0  501 -0.00000000000E+00  0.00000000000E+00  0.21904842584E+02  0.21904842584E+02  0.00000000000E+00 0.  1.
          2   -1    0    0  501    0  0.00000000000E+00 -0.00000000000E+00 -0.97751364222E+03  0.97751364222E+03  0.00000000000E+00 0. -1.
         23    2    1    2    0    0 -0.69496077491E+02  0.62940590076E+02 -0.53748024898E+03  0.55302077265E+03  0.90309104050E+02 0.  0.
          5    1    1    2  502    0  0.71074269207E+02 -0.96590011400E+02 -0.28990613847E+03  0.31375822470E+03  0.41800000000E+01 0. -1.
         -5    1    1    2    0  502 -0.15781917152E+01  0.33649421324E+02 -0.12822241218E+03  0.13263948745E+03  0.41800000000E+01 0. -1.
        -11    1    3    3    0    0 -0.37507256330E+02 -0.17193311398E+02 -0.22964028861E+03  0.23331752267E+03  0.00000000000E+00 0. -1.
         11    1    3    3    0    0 -0.31988821161E+02  0.80133901475E+02 -0.30783996037E+03  0.31970324998E+03  0.00000000000E+00 0.  1.
</event>
<event>
 7    1  0.6610867E-006  0.8915184E+02  0.7561462E-02  0.1304919E+00
          1   -1    0    0  501    0  0.00000000000E+00  0.00000000000E+00  0.40228479120E+03  0.40228479120E+03  0.00000000000E+00 0. -1.
         -1   -1    0    0    0  501 -0.00000000000E+00 -0.00000000000E+00 -0.35816782946E+02  0.35816782946E+02  0.00000000000E+00 0.  1.
         23    2    1    2    0    0  0.18100718980E+02 -0.48620878498E+02  0.16122140342E+03  0.19220547846E+03  0.90878925918E+02 0.  0.
          5    1    1    2  502    0  0.26225589271E+02  0.49133732567E+02  0.26744585491E+02  0.61924554594E+02  0.41800000000E+01 0. -1.
         -5    1    1    2    0  502 -0.44326308251E+02 -0.51285406899E+00  0.17850201934E+03  0.18397154109E+03  0.41800000000E+01 0. -1.
        -11    1    3    3    0    0  0.36517209739E+02 -0.46885088496E+02  0.16312178431E+03  0.17361000734E+03  0.00000000000E+00 0. -1.
         11    1    3    3    0    0 -0.18416490759E+02 -0.17357900013E+01 -0.19003808909E+01  0.18595471124E+02  0.00000000000E+00 0.  1.
</event>
<event>
 7    1  0.6610867E-006  0.1056822E+03  0.7561462E-02  0.1268781E+00
         -2   -1    0    0    0  501 -0.00000000000E+00  0.00000000000E+00  0.13283043221E+02  0.13283043221E+02  0.00000000000E+00 0.  1.
          2   -1    0    0  501    0  0.00000000000E+00 -0.00000000000E+00 -0.12733072779E+04  0.12733072779E+04  0.00000000000E+00 0. -1.
         23    2    1    2    0    0  0.17045501217E+02  0.59968424735E+02 -0.38164632514E+03  0.39716158223E+03  0.90535318169E+02 0.  0.
          5    1    1    2  502    0 -0.34354540886E+02  0.47962793708E+01 -0.69704862271E+02  0.77971013842E+02  0.41800000000E+01 0.  1.
         -5    1    1    2    0  502  0.17309039670E+02 -0.64764704106E+02 -0.80867304729E+03  0.81145772506E+03  0.41800000000E+01 0.  1.
        -11    1    3    3    0    0 -0.14825114522E+02  0.73246555304E+02 -0.28052028257E+03  0.29030410058E+03  0.00000000000E+00 0.  1.
         11    1    3    3    0    0  0.31870615739E+02 -0.13278130569E+02 -0.10112604257E+03  0.10685748165E+03  0.00000000000E+00 0. -1.
</event>
<event>
 7    1  0.6610867E-006  0.1379015E+03  0.7561462E-02  0.1216181E+00
         -2   -1    0    0    0  501 -0.00000000000E+00  0.00000000000E+00  0.14270148981E+03  0.14270148981E+03  0.00000000000E+00 0.  1.
          2   -1    0    0  501    0  0.00000000000E+00 -0.00000000000E+00 -0.22509222558E+03  0.22509222558E+03  0.00000000000E+00 0. -1.
         23    2    1    2    0    0  0.26807511511E+02 -0.83101907137E+02  0.77315389193E+02  0.14693784467E+03  0.89378359499E+02 0.  0.
          5    1    1    2  502    0  0.42676121412E+02  0.69253941716E+02 -0.89729827881E+02  0.12118693904E+03  0.41800000000E+01 0. -1.
         -5    1    1    2    0  502 -0.69483632923E+02  0.13847965422E+02 -0.69976297078E+02  0.99668931685E+02  0.41800000000E+01 0. -1.
        -11    1    3    3    0    0 -0.31861740586E+02 -0.36497467058E+02  0.19197928696E+02  0.52113300424E+02  0.00000000000E+00 0. -1.
         11    1    3    3    0    0  0.58669252097E+02 -0.46604440079E+02  0.58117460497E+02  0.94824544245E+02  0.00000000000E+00 0.  1.
</event>
<event>
 7    1  0.6610867E-006  0.2003381E+03  0.7561462E-02  0.1149454E+00
         -1   -1    0    0    0  501 -0.00000000000E+00  0.00000000000E+00  0.38047194983E+02  0.38047194983E+02  0.00000000000E+00 0.  1.
          1   -1    0    0  501    0  0.00000000000E+00 -0.00000000000E+00 -0.12188616673E+04  0.12188616673E+04  0.00000000000E+00 0. -1.
         23    2    1    2    0    0 -0.11486731827E+03  0.13724351395E+03 -0.42165138342E+03  0.46696806270E+03  0.90768934762E+02 0.  0.
          5    1    1    2  502    0  0.33509490534E+02 -0.12396249713E+03 -0.35753752166E+03  0.37992122663E+03  0.41800000000E+01 0. -1.
         -5    1    1    2    0  502  0.81357827731E+02 -0.13281016829E+02 -0.40162556719E+03  0.41001957291E+03  0.41800000000E+01 0. -1.
        -11    1    3    3    0    0 -0.22790491694E+02  0.75322003471E+02 -0.25409068662E+03  0.26599790929E+03  0.00000000000E+00 0. -1.
         11    1    3    3    0    0 -0.92076826572E+02  0.61921510483E+02 -0.16756069680E+03  0.20097015341E+03  0.00000000000E+00 0.  1.
</event>
<event>
 7    1  0.6610867E-006  0.8241690E+02  0.7561462E-02  0.1322329E+00
          1   -1    0    0  501    0  0.00000000000E+00  0.00000000000E+00  0.30370931455E+03  0.30370931455E+03  0.00000000000E+00 0. -1.
         -1   -1    0    0    0  501 -0.00000000000E+00 -0.00000000000E+00 -0.56949352015E+02  0.56949352015E+02  0.00000000000E+00 0.  1.
         23    2    1    2    0    0  0.65684689532E+02 -0.60846164288E+01  0.62205684397E+02  0.12815506627E+03  0.90568608487E+02 0.  0.
          5    1    1    2  502    0 -0.17595358947E+02 -0.27714936088E+02 -0.54784896171E+01  0.33544009708E+02  0.41800000000E+01 0.  1.
         -5    1    1    2    0  502 -0.48089330585E+02  0.33799552516E+02  0.19003276775E+03  0.19895959059E+03  0.41800000000E+01 0.  1.
        -11    1    3    3    0    0  0.50108493649E+02  0.92494629631E+01  0.83383863078E+02  0.97720429403E+02  0.00000000000E+00 0. -1.
         11    1    3    3    0    0  0.15576195883E+02 -0.15334079392E+02 -0.21178178681E+02  0.30434636867E+02  0.00000000000E+00 0.  1.
</event>
<event>
 7    1  0.6610867E-006  0.1514983E+03  0.7561462E-02  0.1198644E+00
          1   -1    0    0  501    0  0.00000000000E+00  0.00000000000E+00  0.37347045539E+02  0.37347045539E+02  0.00000000000E+00 0. -1.
         -1   -1    0    0    0  501 -0.00000000000E+00 -0.00000000000E+00 -0.72832147860E+03  0.72832147860E+03  0.00000000000E+00 0.  1.
         23    2    1    2    0    0  0.37875643427E+02  0.11810667030E+03 -0.37279310933E+03  0.40197693963E+03  0.85011809177E+02 0.  0.
          5    1    1    2  502    0 -0.63211784941E+02 -0.10784656916E+03 -0.15987326890E+03  0.20298656789E+03  0.41800000000E+01 0.  1.
         -5    1    1    2    0  502  0.25336141514E+02 -0.10260101139E+02 -0.15830805483E+03  0.16070501661E+03  0.41800000000E+01 0.  1.
        -11    1    3    3    0    0 -0.24222759251E+02  0.11318567380E+02 -0.60854490793E+02  0.66468948261E+02  0.00000000000E+00 0. -1.
         11    1    3    3    0    0  0.62098402679E+02  0.10678810292E+03 -0.31193861853E+03  0.33550799137E+03  0.00000000000E+00 0.  1.
</event>
<event>
 7    1  0.6610867E-006  0.7635642E+02  0.7561462E-02  0.1339721E+00
         -1   -1    0    0    0  501 -0.00000000000E+00  0.00000000000E+00  0.24667208415E+02  0.24667208415E+02  0.00000000000E+00 0.  1.
          1   -1    0    0  501    0  0.00000000000E+00 -0.00000000000E+00 -0.14869118379E+04  0.14869118379E+04  0.00000000000E+00 0. -1.
         23    2    1    2    0    0 -0.20780614939E+02 -0.37017369259E+02 -0.92116334202E+02  0.13564683880E+03  0.90069563482E+02 0.  0.
          5    1    1    2  502    0  0.34521615842E+00  0.42419222787E+02 -0.13273473078E+04  0.13280315725E+04  0.41800000000E+01 0. -1.
         -5    1    1    2    0  502  0.20435398780E+02 -0.54018535282E+01 -0.42780987507E+02  0.47900635037E+02  0.41800000000E+01 0.  1.
        -11    1    3    3    0    0  0.29360212510E+02 -0.72989749731E+01 -0.47532989940E+01  0.30625005561E+02  0.00000000000E+00 0.  1.
         11    1    3    3    0    0 -0.50140827449E+02 -0.29718394286E+02 -0.87363035208E+02  0.10502183324E+03  0.00000000000E+00 0. -1.
</event>
<event>
 7    1  0.6610867E-006  0.1196431E+03  0.7561462E-02  0.1243687E+00
          1   -1    0    0  501    0  0.00000000000E+00  0.00000000000E+00  0.74324651446E+03  0.74324651446E+03  0.00000000000E+00 0. -1.
         -1   -1    0    0    0  501 -0.00000000000E+00 -0.00000000000E+00 -0.25654128282E+02  0.25654128282E+02  0.00000000000E+00 0.  1.
         23    2    1    2    0    0 -0.49355221121E+02  0.70380174504E+02  0.28304356969E+03  0.30860716536E+03  0.87951198685E+02 0.  0.
          5    1    1    2  502    0 -0.36101938480E+02 -0.50815824811E-01  0.16348283036E+03  0.16747376143E+03  0.41800000000E+01 0. -1.
         -5    1    1    2    0  502  0.85457159600E+02 -0.70329358679E+02  0.27106598613E+03  0.29281971597E+03  0.41800000000E+01 0. -1.
        -11    1    3    3    0    0 -0.24712791855E+02  0.94403304552E+01  0.10857134232E+02  0.28595791371E+02  0.00000000000E+00 0. -1.
         11    1    3    3    0    0 -0.24642429265E+02  0.60939844049E+02  0.27218643546E+03  0.28001137398E+03  0.00000000000E+00 0.  1.
</event>
<event>
 7    1  0.6610867E-006  0.1155441E+03  0.7561462E-02  0.1250634E+00
         -1   -1    0    0    0  501 -0.00000000000E+00  0.00000000000E+00  0.32623748412E+03  0.32623748412E+03  0.00000000000E+00 0.  1.
          1   -1    0    0  501    0  0.00000000000E+00 -0.00000000000E+00 -0.51004568648E+02  0.51004568648E+02  0.00000000000E+00 0. -1.
         23    2    1    2    0    0 -0.38420994672E+02  0.33789581603E+02  0.19043432314E+03  0.21769169520E+03  0.92230873753E+02 0.  0.
          5    1    1    2  502    0  0.84326395096E+02 -0.25200672978E+02  0.51730872947E+02  0.10217421614E+03  0.41800000000E+01 0. -1.
         -5    1    1    2    0  502 -0.45905400424E+02 -0.85889086254E+01  0.33067719383E+02  0.57376141423E+02  0.41800000000E+01 0. -1.
        -11    1    3    3    0    0  0.96171045888E+01  0.45614041773E+02  0.48004413055E+02  0.66914521446E+02  0.00000000000E+00 0.  1.
         11    1    3    3    0    0 -0.48038099260E+02 -0.11824460170E+02  0.14242991009E+03  0.15077717376E+03  0.00000000000E+00 0. -1.
</event>
<event>
 7    1  0.6610867E-006  0.1021193E+03  0.7561462E-02  0.1275901E+00
         -2   -1    0    0    0  501 -0.00000000000E+00  0.00000000000E+00  0.50008118091E+02  0.50008118091E+02  0.00000000000E+00 0.  1.
          2   -1    0    0  501    0  0.00000000000E+00 -0.00000000000E+00 -0.38038636687E+03  0.38038636687E+03  0.00000000000E+00 0. -1.
         23    2    1    2    0    0  0.54354357069E+02 -0.56551149799E+02 -0.93038126371E+02  0.15088010108E+03  0.89198000353E+02 0.  0.
          5    1    1    2  502    0 -0.28118461464E+02  0.51997781702E+02 -0.23130082176E+02  0.63615173335E+02  0.41800000000E+01 0. -1.
         -5    1    1    2    0  502 -0.26235895605E+02  0.45533680968E+01 -0.21421004024E+03  0.21589921055E+03  0.41800000000E+01 0. -1.
        -11    1    3    3    0    0  0.20774013257E+02 -0.76292235064E+02 -0.54126834501E+02  0.95821599710E+02  0.00000000000E+00 0.  1.
         11    1    3    3    0    0  0.33580343812E+02  0.19741085265E+02 -0.38911291871E+02  0.55058501369E+02  0.00000000000E+00 0. -1.
</event>
<event>
 6    1  0.6610867E-006  0.7930542E+02  0.7561462E-02  0.1331034E+00
         -2   -1    0    0    0  501 -0.00000000000E+00  0.00000000000E+00  0.20159386082E+02  0.20159386082E+02  0.00000000000E+00 0.  1.
          2   -1    0    0  501    0  0.00000000000E+00 -0.00000000000E+00 -0.57405245282E+03  0.57405245282E+03  0.00000000000E+00 0. -1.
          5    1    1    2  502    0 -0.65138616182E+02  0.31086347501E+02 -0.44071572349E+03  0.44660633857E+03  0.41800000000E+01 0. -1.
         -5    1    1    2    0  502  0.36347523160E+02  0.27058526557E+01 -0.61791343662E+02  0.71861718808E+02  0.41800000000E+01 0.  1.
        -11    1    1    2    0    0  0.26036571666E+02 -0.13842195611E+02 -0.46432252395E+02  0.55004213529E+02  0.00000000000E+00 0.  1.
         11    1    1    2    0    0  0.27545213561E+01 -0.19950004546E+02 -0.49537471858E+01  0.20739567991E+02  0.00000000000E+00 0. -1.
</event>
<event>
 7    1  0.6610867E-006  0.1055344E+03  0.7561462E-02  0.1269070E+00
         -1   -1    0    0    0  501 -0.00000000000E+00  0.00000000000E+00  0.11483864353E+03  0.11483864353E+03  0.00000000000E+00 0.  1.
          1   -1    0    0  501    0  0.00000000000E+00 -0.00000000000E+00 -0.11332702244E+03  0.11332702244E+03  0.00000000000E+00 0. -1.
         23    2    1    2    0    0 -0.22431186508E+02  0.46371376427E+01  0.16124154556E+02  0.10015894797E+03  0.96162182402E+02 0.  0.
          5    1    1    2  502    0 -0.10949525481E+02 -0.53350505011E+02  0.21453886419E+02  0.58684837358E+02  0.41800000000E+01 0.  1.
         -5    1    1    2    0  502  0.33380711989E+02  0.48713367369E+02 -0.36066419882E+02  0.69321880647E+02  0.41800000000E+01 0.  1.
        -11    1    3    3    0    0 -0.28917982186E+01 -0.44381618838E+02  0.16358919946E+02  0.47388868412E+02  0.00000000000E+00 0. -1.
         11    1    3    3    0    0 -0.19539388290E+02  0.49018756480E+02 -0.23476538948E+00  0.52770079556E+02  0.00000000000E+00 0.  1.
</event>
<event>
 7    1  0.6610867E-006  0.1241324E+03  0.7561462E-02  0.1236431E+00
          1   -1    0    0  501    0  0.00000000000E+00  0.00000000000E+00  0.46128142600E+03  0.46128142600E+03  0.00000000000E+00 0. -1.
         -1   -1    0    0    0  501 -0.00000000000E+00 -0.00000000000E+00 -0.40400008982E+02  0.40400008982E+02  0.00000000000E+00 0.  1.
         23    2    1    2    0    0  0.29845537207E+02  0.57611722987E+02  0.96326224572E+02  0.14785435619E+03  0.91500286273E+02 0.  0.
          5    1    1    2  502    0 -0.78390690137E+02 -0.28565538871E+02  0.17630464496E+03  0.19509456821E+03  0.41800000000E+01 0. -1.
         -5    1    1    2    0  502  0.48545152930E+02 -0.29046184116E+02  0.14825054749E+03  0.15873251058E+03  0.41800000000E+01 0. -1.
        -11    1    3    3    0    0 -0.21741731968E+02  0.51688799459E+02  0.69831829109E+02  0.89559584943E+02  0.00000000000E+00 0. -1.
         11    1    3    3    0    0  0.51587269175E+02  0.59229235283E+01  0.26494395463E+02  0.58294771249E+02  0.00000000000E+00 0.  1.
</event>
<event>
 7    1  0.6610867E-006  0.1368997E+03  0.7561462E-02  0.1217563E+00
         -2   -1    0    0    0  501 -0.00000000000E+00  0.00000000000E+00  0.42470021445E+02  0.42470021445E+02  0.00000000000E+00 0.  1.
          2   -1    0    0  501    0  0.00000000000E+00 -0.00000000000E+00 -0.59101586574E+03  0.59101586574E+03  0.00000000000E+00 0. -1.
         23    2    1    2    0    0 -0.95346328901E+02  0.65832188745E+02 -0.24126049227E+03  0.28206112077E+03  0.89033989064E+02 0.  0.
          5    1    1    2  502    0  0.74136474242E+02 -0.11060715200E+02 -0.27333030002E+03  0.28345278538E+03  0.41800000000E+01 0. -1.
         -5    1    1    2    0  502  0.21209854658E+02 -0.54771473544E+02 -0.33955052009E+02  0.67971981035E+02  0.41800000000E+01 0. -1.
        -11    1    3    3    0    0 -0.50162870192E+02  0.78282081368E+02 -0.19587003384E+03  0.21681666902E+03  0.00000000000E+00 0.  1.
         11    1    3    3    0    0 -0.45183458709E+02 -0.12449892623E+02 -0.45390458431E+02  0.65244451747E+02  0.00000000000E+00 0. -1.
</event>
<event>
 7    1  0.7334690E-006  0.1769637E+03  0.7561462E-02  0.1170774E+00
          4   -1    0    0  501    0  0.00000000000E+00  0.00000000000E+00  0.23271658500E+03  0.23271658500E+03  0.00000000000E+00 0. -1.
         -4   -1    0    0    0  501 -0.00000000000E+00 -0.00000000000E+00 -0.13892748948E+03  0.13892748948E+03  0.00000000000E+00 0.  1.
         23    2    1    2    0    0 -0.94605411263E+02 -0.10742369647E+03  0.28947283095E+02  0.17079128855E+03  0.88553287024E+02 0.  0.
          5    1    1    2  502    0 -0.22205831485E+02 -0.89658284304E+01  0.22046451206E+01  0.24409381219E+02  0.41800000000E+01 0. -1.
         -5    1    1    2    0  502  0.11681124275E+03  0.11638952490E+03  0.62637167302E+02  0.17644340471E+03  0.41800000000E+01 0. -1.
        -11    1    3    3    0    0 -0.62659888858E+02 -0.11577827168E+03  0.84304640877E+01  0.13191642275E+03  0.00000000000E+00 0.  1.
         11    1    3    3    0    0 -0.31945522405E+02  0.83545752185E+01  0.20516819007E+02  0.38874865801E+02  0.00000000000E+00 0. -1.
</event>
<event>
 7    1  0.6610867E-006  0.1155522E+03  0.7561462E-02  0.1250620E+00
         -2   -1    0    0    0  501 -0.00000000000E+00  0.00000000000E+00  0.29794029359E+03  0.29794029359E+03  0.00000000000E+00 0.  1.
          2   -1    0    0  501    0  0.00000000000E+00 -0.00000000000E+00 -0.82009084700E+02  0.82009084700E+02  0.00000000000E+00 0. -1.
         23    2    1    2    0    0 -0.23117743599E+02  0.87829319439E+02  0.19990047650E+03  0.23603147474E+03  0.86615455550E+02 0.  0.
          5    1    1    2  502    0  0.53304631312E+01 -0.10587189583E+03 -0.10972614587E+02  0.10665431466E+03  0.41800000000E+01 0. -1.
         -5    1    1    2    0  502  0.17787280468E+02  0.18042576392E+02  0.27003346976E+02  0.37263588893E+02  0.41800000000E+01 0.  1.
        -11    1    3    3    0    0 -0.33175750222E+02  0.48631711842E+02  0.18289515571E+03  0.19213618030E+03  0.00000000000E+00 0.  1.
         11    1    3    3    0    0  0.10058006623E+02  0.39197607596E+02  0.17005320794E+02  0.43895294438E+02  0.00000000000E+00 0. -1.
</event>
<event>
 7    1  0.6610867E-006  0.8620359E+02  0.7561462E-02  0.1312315E+00
          1   -1    0    0  501    0  0.00000000000E+00  0.00000000000E+00  0.10154238108E+03  0.10154238108E+03  0.00000000000E+00 0. -1.
         -1   -1    0    0    0  501 -0.00000000000E+00 -0.00000000000E+00 -0.14681860130E+03  0.14681860130E+03  0.00000000000E+00 0.  1.
         23    2    1    2    0    0 -0.14522925169E+02 -0.28092096141E+02 -0.64391143400E+02  0.11789903380E+03  0.93562180403E+02 0.  0.
          5    1    1    2  502    0 -0.23319736310E+02  0.69037857167E+02  0.76758683355E+01  0.73392282827E+02  0.41800000000E+01 0.  1.
         -5    1    1    2    0  502  0.37842661480E+02 -0.40945761026E+02  0.11439054849E+02  0.57069665758E+02  0.41800000000E+01 0.  1.
        -11    1    3    3    0    0 -0.19430583438E+02 -0.52288053012E+01 -0.84619961480E+02  0.86979456531E+02  0.00000000000E+00 0.  1.
         11    1    3    3    0    0  0.49076582683E+01 -0.22863290840E+02  0.20228818079E+02  0.30919577270E+02  0.00000000000E+00 0. -1.
</event>
<event>
 7    1  0.6610867E-006  0.1546798E+03  0.7561462E-02  0.1194838E+00
          2   -1    0    0  501    0  0.00000000000E+00  0.00000000000E+00  0.10431748218E+04  0.10431748218E+04  0.00000000000E+00 0. -1.
         -2   -1    0    0    0  501 -0.00000000000E+00 -0.00000000000E+00 -0.35057619344E+02  0.35057619344E+02  0.00000000000E+00 0.  1.
         23    2    1    2    0    0 -0.75004376149E+02 -0.13021554908E+03  0.34908650678E+03  0.39080885661E+03  0.91040801415E+02 0.  0.
          5    1    1    2  502    0  0.82479921494E+02  0.12005715736E+03  0.36386559638E+03  0.39195956821E+03  0.41800000000E+01 0. -1.
         -5    1    1    2    0  502 -0.74755453448E+01  0.10158391725E+02  0.29516509934E+03  0.29546401637E+03  0.41800000000E+01 0. -1.
        -11    1    3    3    0    0 -0.54459950741E+02 -0.90019380776E+02  0.13059832429E+03  0.16770598516E+03  0.00000000000E+00 0.  1.
         11    1    3    3    0    0 -0.20544425408E+02 -0.40196168309E+02  0.21848818249E+03  0.22310287145E+03  0.00000000000E+00 0. -1.
</event>
<event>
 7    1  0.6610867E-006  0.2047677E+03  0.7561462E-02  0.1145778E+00
         -2   -1    0    0    0  501 -0.00000000000E+00  0.00000000000E+00  0.33935444319E+02  0.33935444319E+02  0.00000000000E+00 0.  1.
          2   -1    0    0  501    0  0.00000000000E+00 -0.00000000000E+00 -0.13739619596E+04  0.13739619596E+04  0.00000000000E+00 0. -1.
         23    2    1    2    0    0 -0.89185677648E+02 -0.16537236511E+03 -0.65888476474E+03  0.69032928213E+03  0.84399527906E+02 0.  0.
          5    1    1    2  502    0  0.10250949219E+03  0.16881231248E+03 -0.52785444896E+03  0.56360765122E+03  0.41800000000E+01 0. -1.
         -5    1    1    2    0  502 -0.13323814538E+02 -0.34399473720E+01 -0.15328730154E+03  0.15396047053E+03  0.41800000000E+01 0. -1.
        -11    1    3    3    0    0 -0.32165793665E+02 -0.12144502740E+03 -0.31777737491E+03  0.34171039341E+03  0.00000000000E+00 0.  1.
         11    1    3    3    0    0 -0.57019883983E+02 -0.43927337705E+02 -0.34110738983E+03  0.34861888871E+03  0.00000000000E+00 0. -1.
</event>
<event>
 7    1  0.6610867E-006  0.9586625E+02  0.7561462E-02  0.1289237E+00
         -2   -1    0    0    0  501 -0.00000000000E+00  0.00000000000E+00  0.71083140402E+02  0.71083140402E+02  0.00000000000E+00 0.  1.
          2   -1    0    0  501    0  0.00000000000E+00 -0.00000000000E+00 -0.50275674093E+03  0.50275674093E+03  0.00000000000E+00 0. -1.
         23    2    1    2    0    0  0.84041436000E+02 -0.24221578497E+02 -0.15709767196E+02  0.13075696477E+03  0.95921526374E+02 0.  0.
          5    1    1    2  502    0 -0.29251426926E+01  0.77260643926E+01 -0.30213359895E+03  0.30227542497E+03  0.41800000000E+01 0.  1.
         -5    1    1    2    0  502 -0.81116293307E+02  0.16495514105E+02 -0.11383023438E+03  0.14080749158E+03  0.41800000000E+01 0.  1.
        -11    1    3    3    0    0  0.75188939880E+02 -0.37195082189E+02 -0.46703585329E+02  0.96010810339E+02  0.00000000000E+00 0. -1.
         11    1    3    3    0    0  0.88524961195E+01  0.12973503692E+02  0.30993818133E+02  0.34746154436E+02  0.00000000000E+00 0.  1.
</event>
<event>
 7    1  0.6610867E-006  0.1288600E+03  0.7561462E-02  0.1229157E+00
          2   -1    0    0  501    0  0.00000000000E+00  0.00000000000E+00  0.11603066540E+04  0.11603066540E+04  0.00000000000E+00 0. -1.
         -2   -1    0    0    0  501 -0.00000000000E+00 -0.00000000000E+00 -0.17477913067E+02  0.17477913067E+02  0.00000000000E+00 0.  1.
         23    2    1    2    0    0 -0.74497804817E+02  0.47747796095E+02  0.42594774279E+03  0.44471200923E+03  0.92236200091E+02 0.  0.
          5    1    1    2  502    0  0.61402900865E+00  0.26094530333E+02  0.36588845179E+03  0.36684210922E+03  0.41800000000E+01 0. -1.
         -5    1    1    2    0  502  0.73883775809E+02 -0.73842326428E+02  0.35099254632E+03  0.36623044859E+03  0.41800000000E+01 0. -1.
        -11    1    3    3    0    0 -0.41626153572E+02  0.73847157315E+02  0.31078395031E+03  0.32213786346E+03  0.00000000000E+00 0.  1.
         11    1    3    3    0    0 -0.32871651246E+02 -0.26099361220E+02  0.11516379248E+03  0.12257414577E+03  0.00000000000E+00 0. -1.
</event>
<event>
 7    1  0.6610867E-006  0.2126124E+03  0.7561462E-02  0.1139514E+00
         -1   -1    0    0    0  501 -0.00000000000E+00  0.00000000000E+00  0.11811956318E+03  0.11811956318E+03  0.00000000000E+00 0.  1.
          1   -1    0    0  501    0  0.00000000000E+00 -0.00000000000E+00 -0.45552125199E+03  0.45552125199E+03  0.00000000000E+00 0. -1.
         23    2    1    2    0    0 -0.17486514286E+03 -0.78234843562E+02 -0.71841889147E+02  0.22311663865E+03  0.89001508249E+02 0.  0.
          5    1    1    2  502    0  0.17467444827E+03  0.42930310470E+02 -0.25739954091E+03  0.31404803852E+03  0.41800000000E+01 0.  1.
         -5    1    1    2    0  502  0.19069458536E+00  0.35304533092E+02 -0.81602587583E+01  0.36476138012E+02  0.41800000000E+01 0.  1.
        -11    1    3    3    0    0 -0.13418091975E+03 -0.96376831439E+02 -0.67123440465E+02  0.17832153298E+03  0.00000000000E+00 0.  1.
         11    1    3    3    0    0 -0.40684223108E+02  0.18141987877E+02 -0.47184486824E+01  0.44795105670E+02  0.00000000000E+00 0. -1.
</event>
<event>
 7    1  0.6610867E-006  0.9879866E+02  0.7561462E-02  0.1282843E+00
          2   -1    0    0  501    0  0.00000000000E+00  0.00000000000E+00  0.39834578232E+03  0.39834578232E+03  0.00000000000E+00 0. -1.
         -2   -1    0    0    0  501 -0.00000000000E+00 -0.00000000000E+00 -0.47135014691E+02  0.47135014691E+02  0.00000000000E+00 0.  1.
         23    2    1    2    0    0 -0.19882379920E+02 -0.49136860855E+02  0.60950101141E+02  0.12499917210E+03  0.95394643830E+02 0.  0.
          5    1    1    2  502    0 -0.23970547886E+02  0.64633096760E+02  0.24821782415E+03  0.25764624000E+03  0.41800000000E+01 0. -1.
         -5    1    1    2    0  502  0.43852927806E+02 -0.15496235905E+02  0.42042842344E+02  0.62835384910E+02  0.41800000000E+01 0. -1.
        -11    1    3    3    0    0  0.11562821890E+02 -0.49048145778E+02  0.75161764006E+02  0.90491492543E+02  0.00000000000E+00 0. -1.
         11    1    3    3    0    0 -0.31445201810E+02 -0.88715077376E-01 -0.14211662864E+02  0.34507679560E+02  0.00000000000E+00 0.  1.
</event>
<event>
 7    1  0.6610867E-006  0.1630342E+03  0.7561462E-02  0.1185313E+00
          2   -1    0    0  501    0  0.00000000000E+00  0.00000000000E+00  0.34759151926E+03  0.34759151926E+03  0.00000000000E+00 0. -1.
         -2   -1    0    0    0  501 -0.00000000000E+00 -0.00000000000E+00 -0.10179093786E+03  0.10179093786E+03  0.00000000000E+00 0.  1.
         23    2    1    2    0    0 -0.14996269767E+03 -0.65012134658E+01  0.61465333855E+02  0.18548985354E+03  0.89985676812E+02 0.  0.
          5    1    1    2  502    0  0.13542072977E+03  0.29037152766E+01  0.77867030382E+02  0.15629444147E+03  0.41800000000E+01 0. -1.
         -5    1    1    2    0  502  0.14541967905E+02  0.35974981893E+01  0.10646821716E+03  0.10759816211E+03  0.41800000000E+01 0.  1.
        -11    1    3    3    0    0 -0.15980966036E+03  0.49631736919E+01  0.55582152452E+02  0.16927237314E+03  0.00000000000E+00 0.  1.
         11    1    3    3    0    0  0.98469626888E+01 -0.11464387158E+02  0.58831814032E+01  0.16217480400E+02  0.00000000000E+00 0. -1.
</event>
<event>
 7    1  0.6610867E-006  0.1036371E+03  0.7561462E-02  0.1272828E+00
          2   -1    0    0  501    0  0.00000000000E+00  0.00000000000E+00  0.70784784789E+03  0.70784784789E+03  0.00000000000E+00 0. -1.
         -2   -1    0    0    0  501 -0.00000000000E+00 -0.00000000000E+00 -0.19164927397E+02  0.19164927397E+02  0.00000000000E+00 0.  1.
         23    2    1    2    0    0 -0.31939222060E+02  0.28008379380E+02  0.18630977880E+03  0.20756110804E+03  0.81028986632E+02 0.  0.
          5    1    1    2  502    0  0.73517921532E+02 -0.44408486792E+02  0.29513263473E+03  0.30740485190E+03  0.41800000000E+01 0. -1.
         -5    1    1    2    0  502 -0.41578699471E+02  0.16400107412E+02  0.20724050696E+03  0.21204681535E+03  0.41800000000E+01 0. -1.
        -11    1    3    3    0    0 -0.18442715971E+02 -0.19596861975E+02  0.18622509902E+02  0.32725657315E+02  0.00000000000E+00 0.  1.
         11    1    3    3    0    0 -0.13496506090E+02  0.47605241355E+02  0.16768726889E+03  0.17483545073E+03  0.00000000000E+00 0. -1.
</event>
<event>
 7    1  0.6610867E-006  0.1080040E+03  0.7561462E-02  0.1264311E+00
         -1   -1    0    0    0  501 -0.00000000000E+00  0.00000000000E+00  0.16881882473E+03  0.16881882473E+03  0.00000000000E+00 0.  1.
          1   -1    0    0  501    0  0.00000000000E+00 -0.00000000000E+00 -0.74982834215E+02  0.74982834215E+02  0.00000000000E+00 0. -1.
         23    2    1    2    0    0  0.11003343881E+02 -0.24790156182E+02  0.60313022042E+02  0.11148701267E+03  0.89755601191E+02 0.  0.
          5    1    1    2  502    0 -0.59928778324E+02 -0.17811803109E+02  0.11709383971E+02  0.63744026186E+02  0.41800000000E+01 0.  1.
         -5    1    1    2    0  502  0.48925434443E+02  0.42601959290E+02  0.21813584500E+02  0.68570620091E+02  0.41800000000E+01 0.  1.
        -11    1    3    3    0    0  0.16176151888E+02 -0.55185733938E+02  0.20327642934E+02  0.60994640645E+02  0.00000000000E+00 0. -1.
         11    1    3    3    0    0 -0.51728080067E+01  0.30395577756E+02  0.39985379108E+02  0.50492372020E+02  0.00000000000E+00 0.  1.
</event>
<event>
 7    1  0.6610867E-006  0.1047601E+03  0.7561462E-02  0.1270593E+00
          2   -1    0    0  501    0  0.00000000000E+00  0.00000000000E+00  0.11885422389E+04  0.11885422389E+04  0.00000000000E+00 0.  1.
         -2   -1    0    0    0  501 -0.00000000000E+00 -0.00000000000E+00 -0.13113058419E+02  0.13113058419E+02  0.00000000000E+00 0. -1.
         23    2    1    2    0    0  0.45253703950E+00  0.12473469718E+02  0.23461938377E+03  0.25248392690E+03  0.92445042410E+02 0.  0.
          5    1    1    2  502    0 -0.38467694918E+02 -0.53820484856E+02  0.61122124835E+03  0.61480508698E+03  0.41800000000E+01 0.  1.
         -5    1    1    2    0  502  0.38015157879E+02  0.41347015138E+02  0.32958854834E+03  0.33436628341E+03  0.41800000000E+01 0.  1.
        -11    1    3    3    0    0 -0.15958371443E+02  0.46484899451E+02  0.17616343342E+03  0.18289087120E+03  0.00000000000E+00 0.  1.
         11    1    3    3    0    0  0.16410908482E+02 -0.34011429733E+02  0.58455950352E+02  0.69593055697E+02  0.00000000000E+00 0. -1.
</event>
<event>
 7    1  0.6610867E-006  0.1192468E+03  0.7561462E-02  0.1244345E+00
          2   -1    0    0  501    0  0.00000000000E+00  0.00000000000E+00  0.51133741956E+03  0.51133741956E+03  0.00000000000E+00 0. -1.
         -2   -1    0    0    0  501 -0.00000000000E+00 -0.00000000000E+00 -0.34083950873E+02  0.34083950873E+02  0.00000000000E+00 0.  1.
         23    2    1    2    0    0  0.56231597575E+02 -0.55982010576E+02  0.11395390105E+03  0.15308246854E+03  0.64442009092E+02 0.  0.
          5    1    1    2  502    0 -0.22304925741E+01  0.85028014102E+02  0.23802303785E+03  0.25279868913E+03  0.41800000000E+01 0.  1.
         -5    1    1    2    0  502 -0.54001105001E+02 -0.29046003525E+02  0.12527652978E+03  0.13954021276E+03  0.41800000000E+01 0.  1.
        -11    1    3    3    0    0  0.53454999122E+02 -0.22042561112E+02  0.36251353035E+02  0.68245674064E+02  0.00000000000E+00 0.  1.
         11    1    3    3    0    0  0.27765984529E+01 -0.33939449464E+02  0.77702548019E+02  0.84836794480E+02  0.00000000000E+00 0. -1.
</event>
<event>
 7    1  0.6610867E-006  0.8106049E+02  0.7561462E-02  0.1326069E+00
         -1   -1    0    0    0  501 -0.00000000000E+00  0.00000000000E+00  0.24269107222E+03  0.24269107222E+03  0.00000000000E+00 0.  1.
          1   -1    0    0  501    0  0.00000000000E+00 -0.00000000000E+00 -0.57505911875E+02  0.57505911875E+02  0.00000000000E+00 0. -1.
         23    2    1    2    0    0  0.15231782539E+02  0.27240860005E+02  0.12901733870E+03  0.15957099263E+03  0.88562725519E+02 0.  0.
          5    1    1    2  502    0 -0.51644762422E+02 -0.42029131239E+02  0.71901542465E+02  0.98086357701E+02  0.41800000000E+01 0.  1.
         -5    1    1    2    0  502  0.36412979883E+02  0.14788271233E+02 -0.15733720817E+02  0.42539633764E+02  0.41800000000E+01 0.  1.
        -11    1    3    3    0    0  0.25298404204E+02 -0.15853161755E+01  0.12641016349E+03  0.12892653689E+03  0.00000000000E+00 0.  1.
         11    1    3    3    0    0 -0.10066621665E+02  0.28826176181E+02  0.26071752136E+01  0.30644455739E+02  0.00000000000E+00 0. -1.
</event>
<event>
 7    1  0.6610867E-006  0.8920892E+02  0.7561462E-02  0.1304779E+00
          1   -1    0    0  501    0  0.00000000000E+00  0.00000000000E+00  0.20638975385E+03  0.20638975385E+03  0.00000000000E+00 0. -1.
         -1   -1    0    0    0  501 -0.00000000000E+00 -0.00000000000E+00 -0.77066709738E+02  0.77066709738E+02  0.00000000000E+00 0.  1.
         23    2    1    2    0    0 -0.64214189217E+01  0.43351422442E+02  0.53554348819E+01  0.10197106528E+03  0.91917555577E+02 0.  0.
          5    1    1    2  502    0 -0.43779695078E+02 -0.22051420042E+02  0.36650345720E+01  0.49333879894E+02  0.41800000000E+01 0.  1.
         -5    1    1    2    0  502  0.50201114000E+02 -0.21300002400E+02  0.12030257466E+03  0.13215151841E+03  0.41800000000E+01 0.  1.
        -11    1    3    3    0    0 -0.22970227354E+01 -0.15430706391E+02 -0.29597869780E+02  0.33457688334E+02  0.00000000000E+00 0.  1.
         11    1    3    3    0    0 -0.41243961863E+01  0.58782128833E+02  0.34953304661E+02  0.68513376948E+02  0.00000000000E+00 0. -1.
</event>
<event>
 7    1  0.6610867E-006  0.9568315E+02  0.7561462E-02  0.1289645E+00
         -2   -1    0    0    0  501 -0.00000000000E+00  0.00000000000E+00  0.34473127239E+03  0.34473127239E+03  0.00000000000E+00 0.  1.
          2   -1    0    0  501    0  0.00000000000E+00 -0.00000000000E+00 -0.36496791206E+02  0.36496791206E+02  0.00000000000E+00 0. -1.
         23    2    1    2    0    0  0.13971594202E+02  0.10856627303E+02  0.17432546011E+03  0.19712676192E+03  0.90313467556E+02 0.  0.
          5    1    1    2  502    0  0.16658386084E+02 -0.62653405592E+02  0.57537219966E+02  0.86781075936E+02  0.41800000000E+01 0. -1.
         -5    1    1    2    0  502 -0.30629980286E+02  0.51796778289E+02  0.76371801115E+02  0.97320225745E+02  0.41800000000E+01 0. -1.
        -11    1    3    3    0    0  0.31011836527E+02  0.28092225251E+02  0.31802504664E+02  0.52557648608E+02  0.00000000000E+00 0. -1.
         11    1    3    3    0    0 -0.17040242325E+02 -0.17235597948E+02  0.14252295544E+03  0.14456911331E+03  0.00000000000E+00 0.  1.
</event>
<event>
 7    1  0.6610867E-006  0.1582686E+03  0.7561462E-02  0.1190666E+00
          1   -1    0    0  501    0  0.00000000000E+00  0.00000000000E+00  0.43023008441E+02  0.43023008441E+02  0.00000000000E+00 0. -1.
         -1   -1    0    0    0  501 -0.00000000000E+00 -0.00000000000E+00 -0.63957376559E+03  0.63957376559E+03  0.00000000000E+00 0.  1.
         23    2    1    2    0    0  0.10887707265E+03  0.49294706065E+02 -0.35482262740E+03  0.38533311822E+03  0.91095170503E+02 0.  0.
          5    1    1    2  502    0  0.24727774951E+02 -0.20292385136E+02 -0.74756596943E+02  0.81420298053E+02  0.41800000000E+01 0. -1.
         -5    1    1    2    0  502 -0.13360484760E+03 -0.29002320929E+02 -0.16697153281E+03  0.21584335776E+03  0.41800000000E+01 0. -1.
        -11    1    3    3    0    0  0.12606957634E+02  0.49650335201E+02 -0.90035407739E+02  0.10358796172E+03  0.00000000000E+00 0. -1.
         11    1    3    3    0    0  0.96270115011E+02 -0.35562913665E+00 -0.26478721966E+03  0.28174515650E+03  0.00000000000E+00 0.  1.
</event>
<event>
 7    1  0.6610867E-006  0.9779704E+02  0.7561462E-02  0.1284998E+00
          2   -1    0    0  501    0  0.00000000000E+00  0.00000000000E+00  0.16876849853E+03  0.16876849853E+03  0.00000000000E+00 0.  1.
         -2   -1    0    0    0  501 -0.00000000000E+00 -0.00000000000E+00 -0.12219280599E+03  0.12219280599E+03  0.00000000000E+00 0. -1.
         23    2    1    2    0    0  0.25615329975E+01 -0.85380239437E+01 -0.73161445612E+02  0.11757394465E+03  0.91605545855E+02 0.  0.
          5    1    1    2  502    0 -0.52933246655E+02  0.79625160906E+01  0.12935905125E+02  0.55228075336E+02  0.41800000000E+01 0. -1.
         -5    1    1    2    0  502  0.50371713657E+02  0.57550785313E+00  0.10680123303E+03  0.11815928454E+03  0.41800000000E+01 0. -1.
        -11    1    3    3    0    0 -0.35652347954E+02 -0.30812692912E+02 -0.44871229977E+02  0.65068727042E+02  0.00000000000E+00 0. -1.
         11    1    3    3    0    0  0.38213880952E+02  0.22274668968E+02 -0.28290215635E+02  0.52505217605E+02  0.00000000000E+00 0.  1.
</event>
<event>
 7    1  0.6610867E-006  0.7777919E+02  0.7561462E-02  0.1335475E+00
         -1   -1    0    0    0  501 -0.00000000000E+00  0.00000000000E+00  0.18450965934E+03  0.18450965934E+03  0.00000000000E+00 0.  1.
          1   -1    0    0  501    0  0.00000000000E+00 -0.00000000000E+00 -0.14970340881E+03  0.14970340881E+03  0.00000000000E+00 0. -1.
         23    2    1    2    0    0  0.19425171855E+02 -0.42868085145E+02  0.13248132076E+03  0.16868075245E+03  0.93203464911E+02 0.  0.
          5    1    1    2  502    0  0.38672886670E+02  0.77365704356E+01 -0.88388727700E+02  0.96878719386E+02  0.41800000000E+01 0. -1.
         -5    1    1    2    0  502 -0.58098058525E+02  0.35131514709E+02 -0.92863425240E+01  0.68653596320E+02  0.41800000000E+01 0. -1.
        -11    1    3    3    0    0  0.16399913920E+02 -0.26012156638E+02  0.14451494704E+03  0.14775032787E+03  0.00000000000E+00 0.  1.
         11    1    3    3    0    0  0.30252579348E+01 -0.16855928507E+02 -0.12033626281E+02  0.20930424574E+02  0.00000000000E+00 0. -1.
</event>
<event>
 7    1  0.6610867E-006  0.1046415E+03  0.7561462E-02  0.1270828E+00
         -2   -1    0    0    0  501 -0.00000000000E+00  0.00000000000E+00  0.35811857390E+02  0.35811857390E+02  0.00000000000E+00 0.  1.
          2   -1    0    0  501    0  0.00000000000E+00 -0.00000000000E+00 -0.62199268049E+03  0.62199268049E+03  0.00000000000E+00 0. -1.
         23    2    1    2    0    0  0.17061104883E+02 -0.95959339469E+02 -0.20121261970E+03  0.24145051635E+03  0.91173227378E+02 0.  0.
          5    1    1    2  502    0 -0.87877035744E+01  0.79160119128E+02 -0.38870815793E+03  0.39680606426E+03  0.41800000000E+01 0.  1.
         -5    1    1    2    0  502 -0.82734013083E+01  0.16799220340E+02  0.37399545287E+01  0.19547957262E+02  0.41800000000E+01 0.  1.
        -11    1    3    3    0    0  0.35162613127E+02 -0.73630883607E+02 -0.71183051192E+02  0.10828177667E+03  0.00000000000E+00 0.  1.
         11    1    3    3    0    0 -0.18101508244E+02 -0.22328455861E+02 -0.13002956851E+03  0.13316873968E+03  0.00000000000E+00 0. -1.
</event>
<event>
 7    1  0.6610867E-006  0.1595502E+03  0.7561462E-02  0.1189206E+00
          1   -1    0    0  501    0  0.00000000000E+00  0.00000000000E+00  0.10369710062E+03  0.10369710062E+03  0.00000000000E+00 0. -1.
         -1   -1    0    0    0  501 -0.00000000000E+00 -0.00000000000E+00 -0.29679414828E+03  0.29679414828E+03  0.00000000000E+00 0.  1.
         23    2    1    2    0    0  0.12102431479E+03 -0.42597121419E+02 -0.14939057077E+03  0.21605251201E+03  0.88880514104E+02 0.  0.
          5    1    1    2  502    0 -0.89863878807E+02  0.85244660375E+02 -0.43826773716E+02  0.13145503920E+03  0.41800000000E+01 0. -1.
         -5    1    1    2    0  502 -0.31160435985E+02 -0.42647538955E+02  0.12029683045E+00  0.52983697691E+02  0.41800000000E+01 0. -1.
        -11    1    3    3    0    0 -0.51776291132E+01 -0.10890752937E+02 -0.52369984462E+02  0.53740409520E+02  0.00000000000E+00 0.  1.
         11    1    3    3    0    0  0.12620194390E+03 -0.31706368482E+02 -0.97020586308E+02  0.16231210249E+03  0.00000000000E+00 0. -1.
</event>
<event>
 7    1  0.6610867E-006  0.2205517E+03  0.7561462E-02  0.1133472E+00
          2   -1    0    0  501    0  0.00000000000E+00  0.00000000000E+00  0.62078457796E+03  0.62078457796E+03  0.00000000000E+00 0. -1.
         -2   -1    0    0    0  501 -0.00000000000E+00 -0.00000000000E+00 -0.20947267312E+03  0.20947267312E+03  0.00000000000E+00 0.  1.
         23    2    1    2    0    0 -0.17549141301E+03 -0.12044537718E+03 -0.10794882621E+03  0.25529213339E+03  0.90646562902E+02 0.  0.
          5    1    1    2  502    0  0.53583418907E+02  0.77178119405E+02  0.34688871906E+03  0.35941188170E+03  0.41800000000E+01 0. -1.
         -5    1    1    2    0  502  0.12190799410E+03  0.43267257778E+02  0.17237201199E+03  0.21555323598E+03  0.41800000000E+01 0. -1.
        -11    1    3    3    0    0 -0.12160166245E+03 -0.56741382920E+02 -0.10735801228E+03  0.17184961928E+03  0.00000000000E+00 0.  1.
         11    1    3    3    0    0 -0.53889750559E+02 -0.63703994263E+02 -0.59081393777E+00  0.83442514113E+02  0.00000000000E+00 0. -1.
</event>
<event>
 7    1  0.6610867E-006  0.1836717E+03  0.7561462E-02  0.1164296E+00
         -3   -1    0    0    0  501 -0.00000000000E+00  0.00000000000E+00  0.61557944112E+03  0.61557944112E+03  0.00000000000E+00 0. -1.
          3   -1    0    0  501    0  0.00000000000E+00 -0.00000000000E+00 -0.72423892926E+02  0.72423892926E+02  0.00000000000E+00 0.  1.
         23    2    1    2    0    0 -0.74550111104E+02  0.15828875825E+03  0.33454261027E+03  0.38837226640E+03  0.91110971738E+02 0.  0.
          5    1    1    2  502    0  0.62060588564E+02 -0.81542334197E+02  0.33342908856E+02  0.10784197184E+03  0.41800000000E+01 0.  1.
         -5    1    1    2    0  502  0.12489522540E+02 -0.76746424058E+02  0.17527002907E+03  0.19178909580E+03  0.41800000000E+01 0.  1.
        -11    1    3    3    0    0 -0.55583945936E+02  0.43527014474E+02  0.70154965049E+02  0.99528363575E+02  0.00000000000E+00 0.  1.
         11    1    3    3    0    0 -0.18966165167E+02  0.11476174378E+03  0.26438764522E+03  0.28884390283E+03  0.00000000000E+00 0. -1.
</event>
<event>
 7    1  0.6610867E-006  0.1117926E+03  0.7561462E-02  0.1257286E+00
          2   -1    0    0  501    0  0.00000000000E+00  0.00000000000E+00  0.10110959417E+04  0.10110959417E+04  0.00000000000E+00 0. -1.
         -2   -1    0    0    0  501 -0.00000000000E+00 -0.00000000000E+00 -0.18639093311E+02  0.18639093311E+02  0.00000000000E+00 0.  1.
         23    2    1    2    0    0 -0.13091280717E+01  0.53082677347E+02  0.19763631519E+03  0.22338061069E+03  0.89550542727E+02 0.  0.
          5    1    1    2  502    0  0.40506380961E+02 -0.76298232455E+02  0.60203621900E+03  0.60821646522E+03  0.41800000000E+01 0.  1.
         -5    1    1    2    0  502 -0.39197252889E+02  0.23215555108E+02  0.19278431415E+03  0.19813795905E+03  0.41800000000E+01 0.  1.
        -11    1    3    3    0    0 -0.37814901284E+02  0.28224885708E+02  0.47785976773E+02  0.67157356324E+02  0.00000000000E+00 0.  1.
         11    1    3    3    0    0  0.36505773212E+02  0.24857791640E+02  0.14985033842E+03  0.15622325437E+03  0.00000000000E+00 0. -1.
</event>
<event>
 7    1  0.6610867E-006  0.1674777E+03  0.7561462E-02  0.1180504E+00
         -2   -1    0    0    0  501 -0.00000000000E+00  0.00000000000E+00  0.15884147814E+02  0.15884147814E+02  0.00000000000E+00 0.  1.
          2   -1    0    0  501    0  0.00000000000E+00 -0.00000000000E+00 -0.22304771291E+04  0.22304771291E+04  0.00000000000E+00 0. -1.
         23    2    1    2    0    0 -0.35885487628E+02 -0.14250421752E+03 -0.84530222577E+03  0.86353807713E+03  0.97810723005E+02 0.  0.
          5    1    1    2  502    0  0.47226983102E+02  0.67583396975E+02 -0.30957577294E+03  0.32039434307E+03  0.41800000000E+01 0. -1.
         -5    1    1    2    0  502 -0.11341495475E+02  0.74920820550E+02 -0.10597149825E+04  0.10624288567E+04  0.41800000000E+01 0. -1.
        -11    1    3    3    0    0  0.97696524052E+01  0.11958489100E+02 -0.70582728167E+02  0.72252149346E+02  0.00000000000E+00 0.  1.
         11    1    3    3    0    0 -0.45655140033E+02 -0.15446270662E+03 -0.77471949760E+03  0.79128592779E+03  0.00000000000E+00 0. -1.
</event>
<event>
 7    1  0.6610867E-006  0.1143762E+03  0.7561462E-02  0.1252674E+00
         -1   -1    0    0    0  501 -0.00000000000E+00  0.00000000000E+00  0.16190774235E+02  0.16190774235E+02  0.00000000000E+00 0.  1.
          1   -1    0    0  501    0  0.00000000000E+00 -0.00000000000E+00 -0.14634898079E+04  0.14634898079E+04  0.00000000000E+00 0. -1.
         23    2    1    2    0    0  0.66045096754E+02 -0.61434367540E+02 -0.37711472738E+03  0.39844132773E+03  0.91672447955E+02 0.  0.
          5    1    1    2  502    0 -0.39190829164E+02  0.76013112593E+02 -0.34736358934E+03  0.35776088380E+03  0.41800000000E+01 0.  1.
         -5    1    1    2    0  502 -0.26854267590E+02 -0.14578745053E+02 -0.72282071692E+03  0.72347837059E+03  0.41800000000E+01 0.  1.
        -11    1    3    3    0    0  0.66856275329E+01 -0.51706143045E+02 -0.27523599082E+03  0.28013045797E+03  0.00000000000E+00 0. -1.
         11    1    3    3    0    0  0.59359469222E+02 -0.97282244955E+01 -0.10187873657E+03  0.11831086976E+03  0.00000000000E+00 0.  1.
</event>
<event>
 7    1  0.6610867E-006  0.1325078E+03  0.7561462E-02  0.1223781E+00
          2   -1    0    0  501    0  0.00000000000E+00  0.00000000000E+00  0.60302325133E+03  0.60302325133E+03  0.00000000000E+00 0. -1.
         -2   -1    0    0    0  501 -0.00000000000E+00 -0.00000000000E+00 -0.41895077192E+02  0.41895077192E+02  0.00000000000E+00 0.  1.
         23    2    1    2    0    0 -0.15952700631E+01  0.91760739364E+02  0.11952686289E+03  0.17685670497E+03  0.92569136133E+02 0.  0.
          5    1    1    2  502    0  0.19581796886E+01  0.30232320708E+02  0.58923272612E+02  0.66387138351E+02  0.41800000000E+01 0.  1.
         -5    1    1    2    0  502 -0.36290962545E+00 -0.12199306007E+03  0.38267803863E+03  0.40167448520E+03  0.41800000000E+01 0.  1.
        -11    1    3    3    0    0 -0.33226115734E+02  0.47234653266E+02  0.16194542054E+02  0.59977916172E+02  0.00000000000E+00 0.  1.
         11    1    3    3    0    0  0.31630845671E+02  0.44526086097E+02  0.10333232083E+03  0.11687878879E+03  0.00000000000E+00 0. -1.
</event>
<event>
 7    1  0.6610867E-006  0.1273052E+03  0.7561462E-02  0.1231510E+00
          1   -1    0    0  501    0  0.00000000000E+00  0.00000000000E+00  0.15325701085E+04  0.15325701085E+04  0.00000000000E+00 0. -1.
         -1   -1    0    0    0  501 -0.00000000000E+00 -0.00000000000E+00 -0.13141909315E+02  0.13141909315E+02  0.00000000000E+00 0.  1.
         23    2    1    2    0    0 -0.26009397435E+02  0.81023120958E+02  0.51036116640E+03  0.52536609475E+03  0.91103119880E+02 0.  0.
          5    1    1    2  502    0  0.60721948834E+01  0.23040437186E+02  0.51198639363E+02  0.56626022013E+02  0.41800000000E+01 0. -1.
         -5    1    1    2    0  502  0.19937202551E+02 -0.10406355814E+03  0.95786839341E+03  0.96371990104E+03  0.41800000000E+01 0. -1.
        -11    1    3    3    0    0 -0.48043329448E+02  0.87629500668E+01  0.18336039220E+03  0.18975242877E+03  0.00000000000E+00 0.  1.
         11    1    3    3    0    0  0.22033932013E+02  0.72260170891E+02  0.32700077420E+03  0.33561366597E+03  0.00000000000E+00 0. -1.
</event>
<event>
 7    1  0.6610867E-006  0.2249577E+03  0.7561462E-02  0.1130240E+00
          2   -1    0    0  501    0  0.00000000000E+00  0.00000000000E+00  0.70304486903E+02  0.70304486903E+02  0.00000000000E+00 0. -1.
         -2   -1    0    0    0  501 -0.00000000000E+00 -0.00000000000E+00 -0.86850934914E+03  0.86850934914E+03  0.00000000000E+00 0.  1.
         23    2    1    2    0    0  0.58558810854E+02  0.21226125224E+03 -0.43922480289E+03  0.49949929693E+03  0.89984146535E+02 0.  0.
          5    1    1    2  502    0 -0.64632797102E+02 -0.15378982530E+03 -0.15775347668E+03  0.22963523387E+03  0.41800000000E+01 0.  1.
         -5    1    1    2    0  502  0.60739862482E+01 -0.58471426935E+02 -0.20122658267E+03  0.20967930525E+03  0.41800000000E+01 0.  1.
        -11    1    3    3    0    0  0.10508334366E+02  0.11645894809E+03 -0.31173552555E+03  0.33294466443E+03  0.00000000000E+00 0.  1.
         11    1    3    3    0    0  0.48050476488E+02  0.95802304148E+02 -0.12748927735E+03  0.16655463250E+03  0.00000000000E+00 0. -1.
</event>
<event>
 7    1  0.6610867E-006  0.1087393E+03  0.7561462E-02  0.1262923E+00
          1   -1    0    0  501    0  0.00000000000E+00  0.00000000000E+00  0.90982164789E+03  0.90982164789E+03  0.00000000000E+00 0. -1.
         -1   -1    0    0    0  501 -0.00000000000E+00 -0.00000000000E+00 -0.17605716908E+02  0.17605716908E+02  0.00000000000E+00 0.  1.
         23    2    1    2    0    0  0.33725007174E+00 -0.24391124209E+02  0.15911407534E+03  0.18332992957E+03  0.87735588158E+02 0.  0.
          5    1    1    2  502    0 -0.57178156830E+02 -0.13553669214E+02  0.35095745339E+03  0.35586746136E+03  0.41800000000E+01 0.  1.
         -5    1    1    2    0  502  0.56840906758E+02  0.37944793423E+02  0.38214440226E+03  0.38822997387E+03  0.41800000000E+01 0.  1.
        -11    1    3    3    0    0  0.15489009634E+02  0.29931186260E+02  0.47042389684E+02  0.57868573143E+02  0.00000000000E+00 0.  1.
         11    1    3    3    0    0 -0.15151759562E+02 -0.54322310469E+02  0.11207168565E+03  0.12546135643E+03  0.00000000000E+00 0. -1.
</event>
<event>
 7    1  0.6610867E-006  0.1209575E+03  0.7561462E-02  0.1241526E+00
          3   -1    0    0  501    0  0.00000000000E+00  0.00000000000E+00  0.10822627354E+04  0.10822627354E+04  0.00000000000E+00 0. -1.
         -3   -1    0    0    0  501 -0.00000000000E+00 -0.00000000000E+00 -0.16120365453E+02  0.16120365453E+02  0.00000000000E+00 0.  1.
         23    2    1    2    0    0 -0.21429614139E+01 -0.77836115761E+02  0.45625819139E+03  0.47095280403E+03  0.86959491788E+02 0.  0.
          5    1    1    2  502    0  0.62983635980E+02  0.48782033465E+02  0.32554401103E+03  0.33517607419E+03  0.41800000000E+01 0.  1.
         -5    1    1    2    0  502 -0.60840674566E+02  0.29054082296E+02  0.28434016752E+03  0.29225422263E+03  0.41800000000E+01 0.  1.
        -11    1    3    3    0    0  0.98597531404E+01  0.48831403809E+01  0.51181261542E+01  0.12134867420E+02  0.00000000000E+00 0.  1.
         11    1    3    3    0    0 -0.12002714554E+02 -0.82719256142E+02  0.45114006523E+03  0.45881793661E+03  0.00000000000E+00 0. -1.
</event>
<event>
 7    1  0.6610867E-006  0.8974014E+02  0.7561462E-02  0.1303482E+00
          2   -1    0    0  501    0  0.00000000000E+00  0.00000000000E+00  0.54673481093E+03  0.54673481093E+03  0.00000000000E+00 0. -1.
         -2   -1    0    0    0  501 -0.00000000000E+00 -0.00000000000E+00 -0.28767435656E+02  0.28767435656E+02  0.00000000000E+00 0.  1.
         23    2    1    2    0    0  0.18147653178E+02  0.45029999600E+02  0.14723997711E+03  0.18123672873E+03  0.93862147873E+02 0.  0.
          5    1    1    2  502    0  0.34943883199E+02 -0.62204545650E+01  0.28386881846E+02  0.45640513680E+02  0.41800000000E+01 0. -1.
         -5    1    1    2    0  502 -0.53091536377E+02 -0.38809545035E+02  0.34234051632E+03  0.34862500418E+03  0.41800000000E+01 0. -1.
        -11    1    3    3    0    0  0.28193292784E+02 -0.33878834656E+01  0.27611749399E+01  0.28530047309E+02  0.00000000000E+00 0.  1.
         11    1    3    3    0    0 -0.10045639606E+02  0.48417883065E+02  0.14447880217E+03  0.15270668142E+03  0.00000000000E+00 0. -1.
</event>
<event>
 7    1  0.6610867E-006  0.1100897E+03  0.7561462E-02  0.1260404E+00
          2   -1    0    0  501    0  0.00000000000E+00  0.00000000000E+00  0.88811327670E+02  0.88811327670E+02  0.00000000000E+00 0. -1.
         -2   -1    0    0    0  501 -0.00000000000E+00 -0.00000000000E+00 -0.30827933523E+03  0.30827933523E+03  0.00000000000E+00 0.  1.
         23    2    1    2    0    0  0.71016810328E+02 -0.32594687291E+02 -0.22002469976E+03  0.24960222060E+03  0.88230374796E+02 0.  0.
          5    1    1    2  502    0 -0.70408935832E+01  0.68207879595E+02 -0.19582264758E+02  0.71434071103E+02  0.41800000000E+01 0. -1.
         -5    1    1    2    0  502 -0.63975916744E+02 -0.35613192303E+02  0.20138956964E+02  0.76054371189E+02  0.41800000000E+01 0. -1.
        -11    1    3    3    0    0  0.46829771919E+02 -0.21158330562E+02 -0.21662016405E+03  0.22263197875E+03  0.00000000000E+00 0.  1.
         11    1    3    3    0    0  0.24187038409E+02 -0.11436356729E+02 -0.34045357134E+01  0.26970241854E+02  0.00000000000E+00 0. -1.
</event>
<event>
 7    1  0.6610867E-006  0.9740996E+02  0.7561462E-02  0.1285839E+00
         -2   -1    0    0    0  501 -0.00000000000E+00  0.00000000000E+00  0.26819923871E+02  0.26819923871E+02  0.00000000000E+00 0.  1.
          2   -1    0    0  501    0  0.00000000000E+00 -0.00000000000E+00 -0.14321891234E+04  0.14321891234E+04  0.00000000000E+00 0. -1.
         23    2    1    2    0    0  0.59714815308E+02  0.57969038810E+01 -0.10581789647E+03  0.15207367479E+03  0.91266160707E+02 0.  0.
          5    1    1    2  502    0 -0.78441014230E+02 -0.39005796675E+02 -0.60476980844E+03  0.61109609595E+03  0.41800000000E+01 0. -1.
         -5    1    1    2    0  502  0.18726198921E+02  0.33208892794E+02 -0.69478149463E+03  0.69583927653E+03  0.41800000000E+01 0. -1.
        -11    1    3    3    0    0  0.30420408111E+02 -0.13917305752E+02 -0.11140940862E+03  0.11632346692E+03  0.00000000000E+00 0. -1.
         11    1    3    3    0    0  0.29294407197E+02  0.19714209633E+02  0.55915121501E+01  0.35750207868E+02  0.00000000000E+00 0.  1.
</event>
<event>
 7    1  0.6610867E-006  0.1044105E+03  0.7561462E-02  0.1271286E+00
         -1   -1    0    0    0  501 -0.00000000000E+00  0.00000000000E+00  0.25270048965E+03  0.25270048965E+03  0.00000000000E+00 0. -1.
          1   -1    0    0  501    0  0.00000000000E+00 -0.00000000000E+00 -0.59276636272E+02  0.59276636272E+02  0.00000000000E+00 0.  1.
         23    2    1    2    0    0 -0.14805739937E+02 -0.22004353451E+02  0.14854978245E+03  0.17646250976E+03  0.91479932099E+02 0.  0.
          5    1    1    2  502    0 -0.21264778522E+01 -0.44804776647E+02 -0.11365507733E+02  0.46461135205E+02  0.41800000000E+01 0. -1.
         -5    1    1    2    0  502  0.16932217789E+02  0.66809130098E+02  0.56239578662E+02  0.89053480965E+02  0.41800000000E+01 0. -1.
        -11    1    3    3    0    0  0.18697064778E+02  0.28518771296E+02  0.44833714441E+02  0.56329055541E+02  0.00000000000E+00 0. -1.
         11    1    3    3    0    0 -0.33502804714E+02 -0.50523124747E+02  0.10371606801E+03  0.12013345422E+03  0.00000000000E+00 0.  1.
</event>
<event>
 7    1  0.6610867E-006  0.1055176E+03  0.7561462E-02  0.1269103E+00
         -1   -1    0    0    0  501 -0.00000000000E+00  0.00000000000E+00  0.20011177871E+03  0.20011177871E+03  0.00000000000E+00 0.  1.
          1   -1    0    0  501    0  0.00000000000E+00 -0.00000000000E+00 -0.87026223552E+02  0.87026223552E+02  0.00000000000E+00 0. -1.
         23    2    1    2    0    0 -0.76364804864E+02 -0.92755310502E+01  0.44728691068E+02  0.12515412507E+03  0.88007274243E+02 0.  0.
          5    1    1    2  502    0  0.62027162207E+02  0.56808572496E+02  0.73653783951E+02  0.11187910909E+03  0.41800000000E+01 0. -1.
         -5    1    1    2    0  502  0.14337642656E+02 -0.47533041446E+02 -0.52969198634E+01  0.50104768097E+02  0.41800000000E+01 0. -1.
        -11    1    3    3    0    0 -0.10255881674E+02 -0.23878990679E+01  0.56655493807E+02  0.57625776779E+02  0.00000000000E+00 0.  1.
         11    1    3    3    0    0 -0.66108923189E+02 -0.68876319823E+01 -0.11926802739E+02  0.67528348293E+02  0.00000000000E+00 0. -1.
</event>
<event>
 7    1  0.6610867E-006  0.1055000E+03  0.7561462E-02  0.1269138E+00
         -2   -1    0    0    0  501 -0.00000000000E+00  0.00000000000E+00  0.41751811810E+02  0.41751811810E+02  0.00000000000E+00 0. -1.
          2   -1    0    0  501    0  0.00000000000E+00 -0.00000000000E+00 -0.42793552805E+03  0.42793552805E+03  0.00000000000E+00 0.  1.
         23    2    1    2    0    0  0.60068782905E+02 -0.67726650912E+01 -0.10324678258E+03  0.15447934838E+03  0.97723299635E+02 0.  0.
          5    1    1    2  502    0  0.15135334784E+02 -0.13335464717E+02 -0.20121121132E+03  0.20226303898E+03  0.41800000000E+01 0.  1.
         -5    1    1    2    0  502 -0.75204117689E+02  0.20108129809E+02 -0.81725722337E+02  0.11294495249E+03  0.41800000000E+01 0.  1.
        -11    1    3    3    0    0  0.42629361650E+02 -0.50072733300E+02 -0.75710499411E+02  0.10028270447E+03  0.00000000000E+00 0.  1.
         11    1    3    3    0    0  0.17439421255E+02  0.43300068209E+02 -0.27536283172E+02  0.54196643914E+02  0.00000000000E+00 0. -1.
</event>
<event>
 7    1  0.6610867E-006  0.1228550E+03  0.7561462E-02  0.1238460E+00
         -1   -1    0    0    0  501 -0.00000000000E+00  0.00000000000E+00  0.31973243784E+03  0.31973243784E+03  0.00000000000E+00 0.  1.
          1   -1    0    0  501    0  0.00000000000E+00 -0.00000000000E+00 -0.57451136203E+02  0.57451136203E+02  0.00000000000E+00 0. -1.
         23    2    1    2    0    0  0.39782922789E+02  0.68119008673E+02  0.14132045710E+03  0.18612783514E+03  0.91919634101E+02 0.  0.
          5    1    1    2  502    0 -0.72593195196E+02 -0.49156610069E+02  0.30550048144E+02  0.92935042604E+02  0.41800000000E+01 0. -1.
         -5    1    1    2    0  502  0.32810272407E+02 -0.18962398604E+02  0.90410796395E+02  0.98120696293E+02  0.41800000000E+01 0. -1.
        -11    1    3    3    0    0  0.68806700522E+02  0.54387524387E+02  0.11488768216E+03  0.14453907554E+03  0.00000000000E+00 0. -1.
         11    1    3    3    0    0 -0.29023777734E+02  0.13731484286E+02  0.26432774938E+02  0.41588759606E+02  0.00000000000E+00 0.  1.
</event>
<event>
 7    1  0.6610867E-006  0.1188730E+03  0.7561462E-02  0.1244968E+00
          1   -1    0    0  501    0  0.00000000000E+00  0.00000000000E+00  0.11015340809E+04  0.11015340809E+04  0.00000000000E+00 0. -1.
         -1   -1    0    0    0  501 -0.00000000000E+00 -0.00000000000E+00 -0.19781268497E+02  0.19781268497E+02  0.00000000000E+00 0.  1.
         23    2    1    2    0    0  0.98096226450E+02  0.15475451373E+02  0.45816929387E+03  0.47760205945E+03  0.91226455083E+02 0.  0.
          5    1    1    2  502    0 -0.41024142426E+02  0.67222271091E+01  0.53094132637E+03  0.53258270067E+03  0.41800000000E+01 0. -1.
         -5    1    1    2    0  502 -0.57072084024E+02 -0.22197678482E+02  0.92642192146E+02  0.11113058927E+03  0.41800000000E+01 0. -1.
        -11    1    3    3    0    0  0.91994891886E+02 -0.23650919822E+02  0.30935679303E+03  0.32361095706E+03  0.00000000000E+00 0.  1.
         11    1    3    3    0    0  0.61013345641E+01  0.39126371194E+02  0.14881250085E+03  0.15399110239E+03  0.00000000000E+00 0. -1.
</event>
<event>
 7    1  0.6610867E-006  0.1053255E+03  0.7561462E-02  0.1269480E+00
         -2   -1    0    0    0  501 -0.00000000000E+00  0.00000000000E+00  0.58100039598E+02  0.58100039598E+02  0.00000000000E+00 0.  1.
          2   -1    0    0  501    0  0.00000000000E+00 -0.00000000000E+00 -0.32557967832E+03  0.32557967832E+03  0.00000000000E+00 0. -1.
         23    2    1    2    0    0 -0.71401600319E+01 -0.26555324318E+02 -0.91364810071E+01  0.95330873796E+02  0.90820334060E+02 0.  0.
          5    1    1    2  502    0 -0.51370004431E+02 -0.15341296881E+02 -0.13746586500E+03  0.14760951590E+03  0.41800000000E+01 0.  1.
         -5    1    1    2    0  502  0.58510164463E+02  0.41896621199E+02 -0.12087729272E+03  0.14073932822E+03  0.41800000000E+01 0.  1.
        -11    1    3    3    0    0  0.30136632601E+02  0.10804950590E+02 -0.24556060974E+02  0.40348032323E+02  0.00000000000E+00 0. -1.
         11    1    3    3    0    0 -0.37276792633E+02 -0.37360274908E+02  0.15419579967E+02  0.54982841474E+02  0.00000000000E+00 0.  1.
</event>
<event>
 7    1  0.6610867E-006  0.8862719E+02  0.7561462E-02  0.1306211E+00
          1   -1    0    0  501    0  0.00000000000E+00  0.00000000000E+00  0.27168375298E+03  0.27168375298E+03  0.00000000000E+00 0. -1.
         -1   -1    0    0    0  501 -0.00000000000E+00 -0.00000000000E+00 -0.44573282095E+02  0.44573282095E+02  0.00000000000E+00 0.  1.
         23    2    1    2    0    0  0.35519328468E+02 -0.15810019139E+02  0.77159335728E+02  0.11714311446E+03  0.79103519355E+02 0.  0.
          5    1    1    2  502    0  0.24084130301E+02 -0.41521683966E+02  0.56380401482E+02  0.74164126389E+02  0.41800000000E+01 0. -1.
         -5    1    1    2    0  502 -0.59603458769E+02  0.57331703104E+02  0.93570733679E+02  0.12494979424E+03  0.41800000000E+01 0. -1.
        -11    1    3    3    0    0  0.29700885209E+02 -0.30320352824E+00 -0.76986347695E+01  0.30683928887E+02  0.00000000000E+00 0.  1.
         11    1    3    3    0    0  0.58184432587E+01 -0.15506815611E+02  0.84857970497E+02  0.86459185569E+02  0.00000000000E+00 0. -1.
</event>
<event>
 7    1  0.6610867E-006  0.8556036E+02  0.7561462E-02  0.1313974E+00
         -1   -1    0    0    0  501 -0.00000000000E+00  0.00000000000E+00  0.59700088996E+03  0.59700088996E+03  0.00000000000E+00 0.  1.
          1   -1    0    0  501    0  0.00000000000E+00 -0.00000000000E+00 -0.30575781328E+02  0.30575781328E+02  0.00000000000E+00 0. -1.
         23    2    1    2    0    0 -0.23844357998E+02 -0.71136329679E+02  0.30839964343E+03  0.33117591414E+03  0.94542134675E+02 0.  0.
          5    1    1    2  502    0  0.31489622438E+02  0.50797233604E+02  0.29453501714E+02  0.66760290790E+02  0.41800000000E+01 0. -1.
         -5    1    1    2    0  502 -0.76452644407E+01  0.20339096075E+02  0.22857196349E+03  0.22964046637E+03  0.41800000000E+01 0. -1.
        -11    1    3    3    0    0 -0.82717497917E+01  0.61086603842E+01 -0.23860977651E+01  0.10556090131E+02  0.00000000000E+00 0. -1.
         11    1    3    3    0    0 -0.15572608206E+02 -0.77244990063E+02  0.31078574119E+03  0.32061982401E+03  0.00000000000E+00 0.  1.
</event>
<event>
 7    1  0.6610867E-006  0.2130307E+03  0.7561462E-02  0.1139188E+00
          2   -1    0    0  501    0  0.00000000000E+00  0.00000000000E+00  0.97508874759E+02  0.97508874759E+02  0.00000000000E+00 0. -1.
         -2   -1    0    0    0  501 -0.00000000000E+00 -0.00000000000E+00 -0.49727555157E+03  0.49727555157E+03  0.00000000000E+00 0.  1.
         23    2    1    2    0    0  0.12315340226E+03  0.14225571531E+03 -0.23575959487E+03  0.31558364445E+03  0.92773924357E+02 0.  0.
          5    1    1    2  502    0 -0.62877904126E+02 -0.14613954919E+03 -0.87433994411E+02  0.18158351919E+03  0.41800000000E+01 0.  1.
         -5    1    1    2    0  502 -0.60275498135E+02  0.38838338751E+01 -0.76573087524E+02  0.97617262684E+02  0.41800000000E+01 0.  1.
        -11    1    3    3    0    0  0.11517770275E+03  0.15391752674E+03 -0.23131882748E+03  0.30077384892E+03  0.00000000000E+00 0.  1.
         11    1    3    3    0    0  0.79756995157E+01 -0.11661811427E+02 -0.44407673930E+01  0.14809795528E+02  0.00000000000E+00 0. -1.
</event>
<event>
 7    1  0.1233353E-005  0.1445428E+03  0.7561462E-02  0.1207344E+00
          1   -1    0    0  501    0  0.00000000000E+00  0.00000000000E+00  0.21965049488E+03  0.21965049488E+03  0.00000000000E+00 0. -1.
         -1   -1    0    0    0  501 -0.00000000000E+00 -0.00000000000E+00 -0.11671973200E+03  0.11671973200E+03  0.00000000000E+00 0.  1.
         23    2    1    2    0    0 -0.77177847523E+02 -0.89251623184E+02  0.41803420832E+02  0.15386983954E+03  0.89476975455E+02 0.  0.
          5    1    1    2  502    0  0.95673154155E+02  0.18215113538E+02  0.44302094398E+02  0.10707609796E+03  0.41800000000E+01 0. -1.
         -5    1    1    2    0  502 -0.18495306632E+02  0.71036509645E+02  0.16825247646E+02  0.75424289379E+02  0.41800000000E+01 0. -1.
        -11    1    3    3    0    0 -0.56988025767E+02 -0.62769901662E+02 -0.16835012921E+02  0.86435602014E+02  0.00000000000E+00 0.  1.
         11    1    3    3    0    0 -0.20189821757E+02 -0.26481721522E+02  0.58638433753E+02  0.67434237524E+02  0.00000000000E+00 0. -1.
</event>
<event>
 7    1  0.6610867E-006  0.1056454E+03  0.7561462E-02  0.1268853E+00
          2   -1    0    0  501    0  0.00000000000E+00  0.00000000000E+00  0.84892758547E+03  0.84892758547E+03  0.00000000000E+00 0. -1.
         -2   -1    0    0    0  501 -0.00000000000E+00 -0.00000000000E+00 -0.14723672369E+02  0.14723672369E+02  0.00000000000E+00 0.  1.
         23    2    1    2    0    0 -0.19326433421E+02 -0.18386189744E+02  0.32131031829E+03  0.33505099423E+03  0.91144309177E+02 0.  0.
          5    1    1    2  502    0  0.17507982252E+02 -0.48776681774E+02  0.32232563603E+03  0.32649193278E+03  0.41800000000E+01 0. -1.
         -5    1    1    2    0  502  0.18184511690E+01  0.67162871518E+02  0.19056795878E+03  0.20210833083E+03  0.41800000000E+01 0. -1.
        -11    1    3    3    0    0 -0.54721008614E+02 -0.11819945436E+02  0.23414549612E+03  0.24074512092E+03  0.00000000000E+00 0.  1.
         11    1    3    3    0    0  0.35394575193E+02 -0.65662443085E+01  0.87164822172E+02  0.94305873315E+02  0.00000000000E+00 0. -1.
</event>
<event>
 7    1  0.6610867E-006  0.1188142E+03  0.7561462E-02  0.1245066E+00
          1   -1    0    0  501    0  0.00000000000E+00  0.00000000000E+00  0.11683509514E+04  0.11683509514E+04  0.00000000000E+00 0. -1.
         -1   -1    0    0    0  501 -0.00000000000E+00 -0.00000000000E+00 -0.21015405638E+02  0.21015405638E+02  0.00000000000E+00 0.  1.
         23    2    1    2    0    0  0.10288071963E+03 -0.28589388095E+02  0.38033875603E+03  0.40493577234E+03  0.88958500439E+02 0.  0.
          5    1    1    2  502    0 -0.42660515011E+02  0.32386431021E+02  0.90571938826E+02  0.10530692740E+03  0.41800000000E+01 0.  1.
         -5    1    1    2    0  502 -0.60220204619E+02 -0.37970429263E+01  0.67642485086E+03  0.67912365725E+03  0.41800000000E+01 0.  1.
        -11    1    3    3    0    0  0.32200209412E+02 -0.40502252491E+02  0.25807066256E+03  0.26320667320E+03  0.00000000000E+00 0. -1.
         11    1    3    3    0    0  0.70680510217E+02  0.11912864396E+02  0.12226809347E+03  0.14172909914E+03  0.00000000000E+00 0.  1.
</event>
<event>
 7    1  0.6610867E-006  0.1101554E+03  0.7561462E-02  0.1260282E+00
          2   -1    0    0  501    0  0.00000000000E+00  0.00000000000E+00  0.49764323157E+03  0.49764323157E+03  0.00000000000E+00 0. -1.
         -2   -1    0    0    0  501 -0.00000000000E+00 -0.00000000000E+00 -0.29622393170E+02  0.29622393170E+02  0.00000000000E+00 0.  1.
         23    2    1    2    0    0  0.53764096497E+01 -0.34414763612E+02  0.11399147728E+03  0.15017315134E+03  0.91348983332E+02 0.  0.
          5    1    1    2  502    0  0.27841714282E+02 -0.35957561779E+02  0.19115265329E+03  0.19653222779E+03  0.41800000000E+01 0.  1.
         -5    1    1    2    0  502 -0.33218123932E+02  0.70372325390E+02  0.16287670784E+03  0.18056024561E+03  0.41800000000E+01 0.  1.
        -11    1    3    3    0    0 -0.22598671891E+02 -0.56640685694E+02  0.60943715568E+02  0.86214869450E+02  0.00000000000E+00 0. -1.
         11    1    3    3    0    0  0.27975081540E+02  0.22225922083E+02  0.53047761712E+02  0.63958281890E+02  0.00000000000E+00 0.  1.
</event>
<event>
 7    1  0.6610867E-006  0.1445301E+03  0.7561462E-02  0.1207360E+00
         -2   -1    0    0    0  501 -0.00000000000E+00  0.00000000000E+00  0.31602921696E+02  0.31602921696E+02  0.00000000000E+00 0.  1.
          2   -1    0    0  501    0  0.00000000000E+00 -0.00000000000E+00 -0.92153830039E+03  0.92153830039E+03  0.00000000000E+00 0. -1.
         23    2    1    2    0    0 -0.72342357004E+02  0.87923769557E+02 -0.20373163211E+03  0.24639738199E+03  0.79000544676E+02 0.  0.
          5    1    1    2  502    0  0.17453330323E+02  0.29416178563E+02 -0.22694885005E+03  0.22954995805E+03  0.41800000000E+01 0. -1.
         -5    1    1    2    0  502  0.54889026681E+02 -0.11733994812E+03 -0.45925489653E+03  0.47719388205E+03  0.41800000000E+01 0. -1.
        -11    1    3    3    0    0 -0.59060487724E+02  0.31323220752E+02 -0.16074705821E+03  0.17409452057E+03  0.00000000000E+00 0.  1.
         11    1    3    3    0    0 -0.13281869280E+02  0.56600548806E+02 -0.42984573905E+02  0.72302861426E+02  0.00000000000E+00 0. -1.
</event>
<event>
 7    1  0.6610867E-006  0.2308053E+03  0.7561462E-02  0.1126074E+00
          3   -1    0    0  501    0  0.00000000000E+00  0.00000000000E+00  0.24353597227E+03  0.24353597227E+03  0.00000000000E+00 0. -1.
         -3   -1    0    0    0  501 -0.00000000000E+00 -0.00000000000E+00 -0.28589371714E+03  0.28589371714E+03  0.00000000000E+00 0.  1.
         23    2    1    2    0    0 -0.20193817762E+03 -0.78788108826E+02 -0.12453652500E+03  0.26601624607E+03  0.90932411397E+02 0.  0.
          5    1    1    2  502    0  0.11752879729E+03  0.10351228877E+03  0.25597704354E+02  0.15874673851E+03  0.41800000000E+01 0. -1.
         -5    1    1    2    0  502  0.84409380329E+02 -0.24724179946E+02  0.56581075783E+02  0.10466670482E+03  0.41800000000E+01 0. -1.
        -11    1    3    3    0    0 -0.14234310333E+03 -0.51951595670E+02 -0.35611404894E+02  0.15565570827E+03  0.00000000000E+00 0. -1.
         11    1    3    3    0    0 -0.59595074288E+02 -0.26836513157E+02 -0.88925120107E+02  0.11036053780E+03  0.00000000000E+00 0.  1.
</event>
<event>
 7    1  0.6610867E-006  0.1094517E+03  0.7561462E-02  0.1261589E+00
         -1   -1    0    0    0  501 -0.00000000000E+00  0.00000000000E+00  0.18437820703E+03  0.18437820703E+03  0.00000000000E+00 0.  1.
          1   -1    0    0  501    0  0.00000000000E+00 -0.00000000000E+00 -0.68449756523E+02  0.68449756523E+02  0.00000000000E+00 0. -1.
         23    2    1    2    0    0 -0.27674062708E+02  0.14020216760E+02  0.53472691480E+02  0.10961268706E+03  0.90516253823E+02 0.  0.
          5    1    1    2  502    0 -0.27888092326E+02 -0.53102559341E+02  0.36725617612E+02  0.70454743568E+02  0.41800000000E+01 0.  1.
         -5    1    1    2    0  502  0.55562155034E+02  0.39082342581E+02  0.25730141413E+02  0.72760532920E+02  0.41800000000E+01 0.  1.
        -11    1    3    3    0    0  0.10016717782E+02  0.42381503712E+02  0.43192244893E+02  0.61335931647E+02  0.00000000000E+00 0.  1.
         11    1    3    3    0    0 -0.37690780489E+02 -0.28361286952E+02  0.10280446587E+02  0.48276755416E+02  0.00000000000E+00 0. -1.
</event>
<event>
 7    1  0.6610867E-006  0.1462124E+03  0.7561462E-02  0.1205206E+00
         -2   -1    0    0    0  501 -0.00000000000E+00  0.00000000000E+00  0.18723499236E+02  0.18723499236E+02  0.00000000000E+00 0.  1.
          2   -1    0    0  501    0  0.00000000000E+00 -0.00000000000E+00 -0.11682991867E+04  0.11682991867E+04  0.00000000000E+00 0. -1.
         23    2    1    2    0    0 -0.31504270580E+02  0.94127512338E+02 -0.47638185454E+03  0.49514771081E+03  0.91537295937E+02 0.  0.
          5    1    1    2  502    0 -0.42057818027E+02 -0.57106785207E+01 -0.23377428036E+03  0.23763282278E+03  0.41800000000E+01 0.  1.
         -5    1    1    2    0  502  0.73562088607E+02 -0.88416833818E+02 -0.43941955253E+03  0.45424215230E+03  0.41800000000E+01 0.  1.
        -11    1    3    3    0    0  0.18150776263E+02  0.81432245094E+02 -0.31190293226E+03  0.32286854968E+03  0.00000000000E+00 0.  1.
         11    1    3    3    0    0 -0.49655046842E+02  0.12695267244E+02 -0.16447892227E+03  0.17227916113E+03  0.00000000000E+00 0. -1.
</event>
<event>
 7    1  0.6610867E-006  0.8195046E+02  0.7561462E-02  0.1323606E+00
         -1   -1    0    0    0  501 -0.00000000000E+00  0.00000000000E+00  0.41434484880E+02  0.41434484880E+02  0.00000000000E+00 0.  1.
          1   -1    0    0  501    0  0.00000000000E+00 -0.00000000000E+00 -0.30934226390E+03  0.30934226390E+03  0.00000000000E+00 0. -1.
         23    2    1    2    0    0  0.14602113464E+01 -0.17008324002E+02 -0.74935718422E+02  0.12017511435E+03  0.92386584044E+02 0.  0.
          5    1    1    2  502    0 -0.45727631208E+02 -0.32890444593E+02 -0.11337702421E+03  0.12666735815E+03  0.41800000000E+01 0.  1.
         -5    1    1    2    0  502  0.44267419861E+02  0.49898768595E+02 -0.79595036384E+02  0.10393427628E+03  0.41800000000E+01 0.  1.
        -11    1    3    3    0    0  0.22003570299E+01  0.11679881957E+02  0.18746089454E+02  0.22196330404E+02  0.00000000000E+00 0.  1.
         11    1    3    3    0    0 -0.74014568343E+00 -0.28688205958E+02 -0.93681807876E+02  0.97978783947E+02  0.00000000000E+00 0. -1.
</event>
<event>
 7    1  0.6610867E-006  0.1421326E+03  0.7561462E-02  0.1210488E+00
         -1   -1    0    0    0  501 -0.00000000000E+00  0.00000000000E+00  0.59263517866E+03  0.59263517866E+03  0.00000000000E+00 0. -1.
          1   -1    0    0  501    0  0.00000000000E+00 -0.00000000000E+00 -0.55365558132E+02  0.55365558132E+02  0.00000000000E+00 0.  1.
         23    2    1    2    0    0 -0.11759230922E+03 -0.74258466750E+02  0.32260258355E+03  0.36326884377E+03  0.92463802990E+02 0.  0.
          5    1    1    2  502    0  0.96798818084E+02  0.56831742546E+02  0.59416890727E+02  0.12707359067E+03  0.41800000000E+01 0. -1.
         -5    1    1    2    0  502  0.20793491139E+02  0.17426724203E+02  0.15525014625E+03  0.15765830235E+03  0.41800000000E+01 0. -1.
        -11    1    3    3    0    0 -0.35435585965E+02 -0.27027336893E+01  0.18140922286E+02  0.39900859433E+02  0.00000000000E+00 0.  1.
         11    1    3    3    0    0 -0.82156723258E+02 -0.71555733061E+02  0.30446166127E+03  0.32336798433E+03  0.00000000000E+00 0. -1.
</event>
<event>
 7    1  0.6610867E-006  0.1137851E+03  0.7561462E-02  0.1253717E+00
          2   -1    0    0  501    0  0.00000000000E+00  0.00000000000E+00  0.21260253591E+03  0.21260253591E+03  0.00000000000E+00 0. -1.
         -2   -1    0    0    0  501 -0.00000000000E+00 -0.00000000000E+00 -0.85916925513E+02  0.85916925513E+02  0.00000000000E+00 0.  1.
         23    2    1    2    0    0 -0.21644701469E+02  0.58910443624E+02  0.38467958796E+01  0.11245828681E+03  0.93236982818E+02 0.  0.
          5    1    1    2  502    0 -0.16828713034E+01 -0.95185371749E+02  0.95010096648E+02  0.13456402906E+03  0.41800000000E+01 0. -1.
         -5    1    1    2    0  502  0.23327572772E+02  0.36274928125E+02  0.27828717872E+02  0.51497145555E+02  0.41800000000E+01 0. -1.
        -11    1    3    3    0    0 -0.93023786272E+01 -0.13000316674E+02 -0.28476614595E+02  0.32656700086E+02  0.00000000000E+00 0.  1.
         11    1    3    3    0    0 -0.12342322842E+02  0.71910760297E+02  0.32323410474E+02  0.79801586728E+02  0.00000000000E+00 0. -1.
</event>
<event>
 7    1  0.6610867E-006  0.8783435E+02  0.7561462E-02  0.1308183E+00
          2   -1    0    0  501    0  0.00000000000E+00  0.00000000000E+00  0.24224276454E+03  0.24224276454E+03  0.00000000000E+00 0. -1.
         -2   -1    0    0    0  501 -0.00000000000E+00 -0.00000000000E+00 -0.83839460657E+02  0.83839460657E+02  0.00000000000E+00 0.  1.
         23    2    1    2    0    0  0.32961503854E+02  0.14130365436E+02 -0.26415208018E+02  0.10004573069E+03  0.89583799041E+02 0.  0.
          5    1    1    2  502    0 -0.33514145035E+02 -0.56036326999E+02  0.43482947302E+02  0.78558939447E+02  0.41800000000E+01 0.  1.
         -5    1    1    2    0  502  0.55264118084E+00  0.41905961563E+02  0.14133556459E+03  0.14747755506E+03  0.41800000000E+01 0.  1.
        -11    1    3    3    0    0 -0.16807488509E+02  0.22596513437E+01  0.23224925109E+02  0.28757517982E+02  0.00000000000E+00 0. -1.
         11    1    3    3    0    0  0.49768992363E+02  0.11870714093E+02 -0.49640133127E+02  0.71288212706E+02  0.00000000000E+00 0.  1.
</event>
<event>
 7    1  0.6610867E-006  0.1146584E+03  0.7561462E-02  0.1252178E+00
         -2   -1    0    0    0  501 -0.00000000000E+00  0.00000000000E+00  0.31672222687E+02  0.31672222687E+02  0.00000000000E+00 0.  1.
          2   -1    0    0  501    0  0.00000000000E+00 -0.00000000000E+00 -0.63916609569E+03  0.63916609569E+03  0.00000000000E+00 0. -1.
         23    2    1    2    0    0 -0.19737858440E+01  0.79595810810E+02 -0.17198929106E+03  0.21078674548E+03  0.92256961264E+02 0.  0.
          5    1    1    2  502    0 -0.48359641162E+02 -0.84549256791E+02 -0.29049786857E+03  0.30642081483E+03  0.41800000000E+01 0. -1.
         -5    1    1    2    0  502  0.50333427006E+02  0.49534459803E+01 -0.14500671337E+03  0.15363075806E+03  0.41800000000E+01 0. -1.
        -11    1    3    3    0    0  0.67011791494E+01  0.37766077296E+02 -0.16257968733E+03  0.16704292002E+03  0.00000000000E+00 0. -1.
         11    1    3    3    0    0 -0.86749649934E+01  0.41829733514E+02 -0.94096037294E+01  0.43743825460E+02  0.00000000000E+00 0.  1.
</event>
<event>
 7    1  0.6610867E-006  0.2443407E+03  0.7561462E-02  0.1116935E+00
         -1   -1    0    0    0  501 -0.00000000000E+00  0.00000000000E+00  0.81922167862E+03  0.81922167862E+03  0.00000000000E+00 0.  1.
          1   -1    0    0  501    0  0.00000000000E+00 -0.00000000000E+00 -0.12812357262E+03  0.12812357262E+03  0.00000000000E+00 0. -1.
         23    2    1    2    0    0 -0.22627950453E+03 -0.79476000992E+02  0.61447013567E+03  0.66620797159E+03  0.93491522995E+02 0.  0.
          5    1    1    2  502    0  0.33689728264E+02 -0.11134824066E+02 -0.26605245127E+02  0.44545410154E+02  0.41800000000E+01 0.  1.
         -5    1    1    2    0  502  0.19258977627E+03  0.90610825058E+02  0.10323321546E+03  0.23659186950E+03  0.41800000000E+01 0.  1.
        -11    1    3    3    0    0 -0.74171134039E+02 -0.20727870684E+02  0.32471685866E+03  0.33372449722E+03  0.00000000000E+00 0. -1.
         11    1    3    3    0    0 -0.15210837049E+03 -0.58748130308E+02  0.28975327701E+03  0.33248347436E+03  0.00000000000E+00 0.  1.
</event>
<event>
 7    1  0.6610867E-006  0.1046340E+03  0.7561462E-02  0.1270842E+00
          3   -1    0    0  501    0  0.00000000000E+00  0.00000000000E+00  0.22334585077E+03  0.22334585077E+03  0.00000000000E+00 0. -1.
         -3   -1    0    0    0  501 -0.00000000000E+00 -0.00000000000E+00 -0.67833977892E+02  0.67833977892E+02  0.00000000000E+00 0.  1.
         23    2    1    2    0    0 -0.26278697308E+02 -0.40683274830E+02 -0.39212428033E+01  0.74020774982E+02  0.55839056231E+02 0.  0.
          5    1    1    2  502    0  0.69483337227E+02  0.57436864038E+02  0.14037054048E+03  0.16687806488E+03  0.41800000000E+01 0. -1.
         -5    1    1    2    0  502 -0.43204639919E+02 -0.16753589208E+02  0.19062575207E+02  0.50280988806E+02  0.41800000000E+01 0.  1.
        -11    1    3    3    0    0 -0.42710509162E+02 -0.23624970432E+02  0.41815741898E+01  0.48987879965E+02  0.00000000000E+00 0. -1.
         11    1    3    3    0    0  0.16431811853E+02 -0.17058304398E+02 -0.81028169931E+01  0.25032895017E+02  0.00000000000E+00 0.  1.
</event>
<event>
 7    1  0.6610867E-006  0.1037098E+03  0.7561462E-02  0.1272683E+00
         -2   -1    0    0    0  501 -0.00000000000E+00  0.00000000000E+00  0.67676469479E+02  0.67676469479E+02  0.00000000000E+00 0.  1.
          2   -1    0    0  501    0  0.00000000000E+00 -0.00000000000E+00 -0.23054730375E+03  0.23054730375E+03  0.00000000000E+00 0. -1.
         23    2    1    2    0    0 -0.34754550830E+02 -0.42257927865E+01 -0.10978687529E+02  0.98363184938E+02  0.91263620590E+02 0.  0.
          5    1    1    2  502    0 -0.38775650284E+02  0.22388676863E+02 -0.23513355572E+02  0.50745977150E+02  0.41800000000E+01 0.  1.
         -5    1    1    2    0  502  0.73530201114E+02 -0.18162884077E+02 -0.12837879117E+03  0.14911461114E+03  0.41800000000E+01 0.  1.
        -11    1    3    3    0    0 -0.60206323177E+02 -0.84438826294E+01  0.14072305909E+02  0.62402967060E+02  0.00000000000E+00 0.  1.
         11    1    3    3    0    0  0.25451772347E+02  0.42180898429E+01 -0.25050993438E+02  0.35960217877E+02  0.00000000000E+00 0. -1.
</event>
<event>
 7    1  0.6610867E-006  0.9677482E+02  0.7561462E-02  0.1287228E+00
          1   -1    0    0  501    0  0.00000000000E+00  0.00000000000E+00  0.66660773347E+03  0.66660773347E+03  0.00000000000E+00 0. -1.
         -1   -1    0    0    0  501 -0.00000000000E+00 -0.00000000000E+00 -0.22408714298E+02  0.22408714298E+02  0.00000000000E+00 0.  1.
         23    2    1    2    0    0  0.53264575494E+02  0.12955295700E+00  0.22625653683E+03  0.24951821948E+03  0.90720392482E+02 0.  0.
          5    1    1    2  502    0 -0.49297371683E+02  0.36782102814E+02  0.38433310877E+03  0.38924614942E+03  0.41800000000E+01 0. -1.
         -5    1    1    2    0  502 -0.39672038108E+01 -0.36911655771E+02  0.33609373578E+02  0.50252078864E+02  0.41800000000E+01 0. -1.
        -11    1    3    3    0    0 -0.18437984757E+02  0.11806978724E+02  0.16148832189E+02  0.27205676054E+02  0.00000000000E+00 0.  1.
         11    1    3    3    0    0  0.71702560250E+02 -0.11677425767E+02  0.21010770464E+03  0.22231254343E+03  0.00000000000E+00 0. -1.
</event>
<event>
 7    1  0.6610867E-006  0.4982395E+02  0.7561462E-02  0.1446293E+00
         -2   -1    0    0    0  501 -0.00000000000E+00  0.00000000000E+00  0.45598432549E+02  0.45598432549E+02  0.00000000000E+00 0.  1.
          2   -1    0    0  501    0  0.00000000000E+00 -0.00000000000E+00 -0.26402048484E+03  0.26402048484E+03  0.00000000000E+00 0. -1.
         23    2    1    2    0    0 -0.19059354425E+01 -0.33929450904E+01 -0.10451108079E+03  0.14039139322E+03  0.93659129919E+02 0.  0.
          5    1    1    2  502    0  0.10846344612E+02 -0.24163449286E+02 -0.13208146606E+03  0.13477574540E+03  0.41800000000E+01 0. -1.
         -5    1    1    2    0  502 -0.89404091699E+01  0.27556394377E+02  0.18170494560E+02  0.34451778760E+02  0.41800000000E+01 0. -1.
        -11    1    3    3    0    0 -0.26675024610E+01 -0.23395195607E+02  0.89409169750E+01  0.25187114627E+02  0.00000000000E+00 0.  1.
         11    1    3    3    0    0  0.76156701857E+00  0.20002250517E+02 -0.11345199777E+03  0.11520427860E+03  0.00000000000E+00 0. -1.
</event>
<event>
 7    1  0.6610867E-006  0.1881688E+03  0.7561462E-02  0.1160123E+00
          2   -1    0    0  501    0  0.00000000000E+00  0.00000000000E+00  0.75130457769E+03  0.75130457769E+03  0.00000000000E+00 0. -1.
         -2   -1    0    0    0  501 -0.00000000000E+00 -0.00000000000E+00 -0.58364756994E+02  0.58364756994E+02  0.00000000000E+00 0.  1.
         23    2    1    2    0    0 -0.15251259596E+03 -0.49083718586E+02  0.18228400745E+03  0.26004443268E+03  0.93414903713E+02 0.  0.
          5    1    1    2  502    0  0.61778705420E+02  0.84438634045E+02  0.23595226598E+03  0.25814227779E+03  0.41800000000E+01 0. -1.
         -5    1    1    2    0  502  0.90733890542E+02 -0.35354915459E+02  0.27470354726E+03  0.29148262421E+03  0.41800000000E+01 0. -1.
        -11    1    3    3    0    0 -0.80477113452E+02 -0.61211651561E+02  0.14827018535E+03  0.17946442527E+03  0.00000000000E+00 0.  1.
         11    1    3    3    0    0 -0.72035482510E+02  0.12127932975E+02  0.34013822107E+02  0.80580007403E+02  0.00000000000E+00 0. -1.
</event>
<event>
 7    1  0.6610867E-006  0.1285903E+03  0.7561462E-02  0.1229563E+00
         -1   -1    0    0    0  501 -0.00000000000E+00  0.00000000000E+00  0.32773850369E+03  0.32773850369E+03  0.00000000000E+00 0.  1.
          1   -1    0    0  501    0  0.00000000000E+00 -0.00000000000E+00 -0.62363767049E+02  0.62363767049E+02  0.00000000000E+00 0. -1.
         23    2    1    2    0    0  0.69385070748E+02  0.52018253271E+02  0.17039103441E+03  0.21068732739E+03  0.88520385233E+02 0.  0.
          5    1    1    2  502    0 -0.92823274015E+02 -0.60015198807E+02  0.37691043486E+02  0.11685919496E+03  0.41800000000E+01 0. -1.
         -5    1    1    2    0  502  0.23438203267E+02  0.79969455358E+01  0.57292658751E+02  0.62555748393E+02  0.41800000000E+01 0. -1.
        -11    1    3    3    0    0  0.34600604016E+02 -0.21067799280E+02  0.77727158047E+02  0.87650242799E+02  0.00000000000E+00 0.  1.
         11    1    3    3    0    0  0.34784466732E+02  0.73086052551E+02  0.92663876361E+02  0.12303708459E+03  0.00000000000E+00 0. -1.
</event>
<event>
 7    1  0.6610867E-006  0.1183860E+03  0.7561462E-02  0.1245784E+00
          2   -1    0    0  501    0  0.00000000000E+00  0.00000000000E+00  0.69328796199E+03  0.69328796199E+03  0.00000000000E+00 0.  1.
         -2   -1    0    0    0  501 -0.00000000000E+00 -0.00000000000E+00 -0.31870073960E+02  0.31870073960E+02  0.00000000000E+00 0. -1.
         23    2    1    2    0    0 -0.85622669376E+02 -0.26685191095E+02  0.19004814289E+03  0.22929519860E+03  0.91731404378E+02 0.  0.
          5    1    1    2  502    0  0.44816343872E+02 -0.45501688969E+02  0.28062709185E+03  0.28783319033E+03  0.41800000000E+01 0. -1.
         -5    1    1    2    0  502  0.40806325504E+02  0.72186880065E+02  0.19074265329E+03  0.20802964702E+03  0.41800000000E+01 0. -1.
        -11    1    3    3    0    0 -0.24957465792E+02 -0.62674138055E+01  0.15338759738E+03  0.15553105994E+03  0.00000000000E+00 0.  1.
         11    1    3    3    0    0 -0.60665203584E+02 -0.20417777290E+02  0.36660545508E+02  0.73764138661E+02  0.00000000000E+00 0. -1.
</event>
<event>
 7    1  0.6610867E-006  0.8872478E+02  0.7561462E-02  0.1305970E+00
          1   -1    0    0  501    0  0.00000000000E+00  0.00000000000E+00  0.23054050938E+03  0.23054050938E+03  0.00000000000E+00 0. -1.
         -1   -1    0    0    0  501 -0.00000000000E+00 -0.00000000000E+00 -0.66357021931E+02  0.66357021931E+02  0.00000000000E+00 0.  1.
         23    2    1    2    0    0 -0.28914207664E+02 -0.50325852147E+02  0.61024452787E+02  0.12466990070E+03  0.91923215254E+02 0.  0.
          5    1    1    2  502    0 -0.18884091057E+02  0.35993333239E+02  0.11390478483E+03  0.12101198842E+03  0.41800000000E+01 0.  1.
         -5    1    1    2    0  502  0.47798298721E+02  0.14332518907E+02 -0.10745750172E+02  0.51215642197E+02  0.41800000000E+01 0.  1.
        -11    1    3    3    0    0 -0.41366458245E+02 -0.76630800541E+01  0.67721551382E+02  0.79725248104E+02  0.00000000000E+00 0. -1.
         11    1    3    3    0    0  0.12452250581E+02 -0.42662772092E+02 -0.66970985945E+01  0.44944652593E+02  0.00000000000E+00 0.  1.
</event>
<event>
 7    1  0.6610867E-006  0.9597466E+02  0.7561462E-02  0.1288996E+00
          2   -1    0    0  501    0  0.00000000000E+00  0.00000000000E+00  0.33726976993E+03  0.33726976993E+03  0.00000000000E+00 0. -1.
         -2   -1    0    0    0  501 -0.00000000000E+00 -0.00000000000E+00 -0.54405687628E+02  0.54405687628E+02  0.00000000000E+00 0.  1.
         23    2    1    2    0    0  0.34685195425E+02  0.50809637976E+01  0.21963794342E+02  0.10022401071E+03  0.91288362273E+02 0.  0.
          5    1    1    2  502    0 -0.20656826279E+02 -0.52687619685E+02  0.21940495220E+03  0.22662456881E+03  0.41800000000E+01 0.  1.
         -5    1    1    2    0  502 -0.14028369146E+02  0.47606655887E+02  0.41495335762E+02  0.64826878034E+02  0.41800000000E+01 0.  1.
        -11    1    3    3    0    0 -0.24032310782E+02  0.10905454494E+02  0.30800320258E+02  0.40560333175E+02  0.00000000000E+00 0. -1.
         11    1    3    3    0    0  0.58717506207E+02 -0.58244906965E+01 -0.88365259157E+01  0.59663677537E+02  0.00000000000E+00 0.  1.
</event>
<event>
 7    1  0.6610867E-006  0.1576708E+03  0.7561462E-02  0.1191352E+00
         -1   -1    0    0    0  501 -0.00000000000E+00  0.00000000000E+00  0.17274292482E+03  0.17274292482E+03  0.00000000000E+00 0.  1.
          1   -1    0    0  501    0  0.00000000000E+00 -0.00000000000E+00 -0.16019469919E+03  0.16019469919E+03  0.00000000000E+00 0. -1.
         23    2    1    2    0    0 -0.71355584443E+02  0.95844640910E+02  0.47436286152E+02  0.15646667575E+03  0.89184105952E+02 0.  0.
          5    1    1    2  502    0 -0.32837745816E+02 -0.32525209062E+02  0.81259005771E+01  0.47113792407E+02  0.41800000000E+01 0. -1.
         -5    1    1    2    0  502  0.10419333026E+03 -0.63319431849E+02 -0.43013961101E+02  0.12935715585E+03  0.41800000000E+01 0. -1.
        -11    1    3    3    0    0 -0.61810324579E+02  0.12516749843E+02  0.33609606270E+02  0.71461814172E+02  0.00000000000E+00 0.  1.
         11    1    3    3    0    0 -0.95452598641E+01  0.83327891067E+02  0.13826679882E+02  0.85004861579E+02  0.00000000000E+00 0. -1.
</event>
<event>
 7    1  0.6610867E-006  0.1860713E+03  0.7561462E-02  0.1162053E+00
          1   -1    0    0  501    0  0.00000000000E+00  0.00000000000E+00  0.90727394287E+02  0.90727394287E+02  0.00000000000E+00 0. -1.
         -1   -1    0    0    0  501 -0.00000000000E+00 -0.00000000000E+00 -0.62141412629E+03  0.62141412629E+03  0.00000000000E+00 0.  1.
         23    2    1    2    0    0 -0.17634836101E+03  0.54421310527E+02 -0.40970207819E+03  0.45847959610E+03  0.91034738942E+02 0.  0.
          5    1    1    2  502    0  0.88670053388E+02 -0.29285206992E+02  0.99853502737E+01  0.94006283494E+02  0.41800000000E+01 0.  1.
         -5    1    1    2    0  502  0.87678307620E+02 -0.25136103536E+02 -0.13097000409E+03  0.15965564099E+03  0.41800000000E+01 0.  1.
        -11    1    3    3    0    0 -0.47106992970E+02  0.29957477065E+02 -0.22438893758E+03  0.23122913858E+03  0.00000000000E+00 0.  1.
         11    1    3    3    0    0 -0.12924136804E+03  0.24463833462E+02 -0.18531314061E+03  0.22725045752E+03  0.00000000000E+00 0. -1.
</event>
<event>
 7    1  0.6610867E-006  0.3812751E+03  0.7561462E-02  0.1050463E+00
          2   -1    0    0  501    0  0.00000000000E+00  0.00000000000E+00  0.24401712073E+04  0.24401712073E+04  0.00000000000E+00 0. -1.
         -2   -1    0    0    0  501 -0.00000000000E+00 -0.00000000000E+00 -0.76658681652E+02  0.76658681652E+02  0.00000000000E+00 0.  1.
         23    2    1    2    0    0  0.36755108181E+03  0.47249809541E+02  0.59039375222E+03  0.70108642282E+03  0.75040304881E+02 0.  0.
          5    1    1    2  502    0 -0.13222406122E+03 -0.68933457837E+02  0.54271360127E+03  0.56284149578E+03  0.41800000000E+01 0. -1.
         -5    1    1    2    0  502 -0.23532702059E+03  0.21683648296E+02  0.12304051721E+04  0.12529019703E+04  0.41800000000E+01 0. -1.
        -11    1    3    3    0    0  0.83494596670E+02 -0.18342057300E+02  0.15699156256E+03  0.17875718015E+03  0.00000000000E+00 0.  1.
         11    1    3    3    0    0  0.28405648514E+03  0.65591866841E+02  0.43340218965E+03  0.52232924267E+03  0.00000000000E+00 0. -1.
</event>
<event>
 7    1  0.6610867E-006  0.1693173E+03  0.7561462E-02  0.1178562E+00
         -2   -1    0    0    0  501 -0.00000000000E+00  0.00000000000E+00  0.79570994191E+02  0.79570994191E+02  0.00000000000E+00 0.  1.
          2   -1    0    0  501    0  0.00000000000E+00 -0.00000000000E+00 -0.44054628285E+03  0.44054628285E+03  0.00000000000E+00 0. -1.
         23    2    1    2    0    0  0.11954705441E+03  0.47805216338E+02 -0.61280613034E+02  0.17077432255E+03  0.93977224810E+02 0.  0.
          5    1    1    2  502    0 -0.50471021038E+02  0.42082044467E+02 -0.11856094915E+03  0.13561855881E+03  0.41800000000E+01 0.  1.
         -5    1    1    2    0  502 -0.69076033367E+02 -0.89887260805E+02 -0.18113372648E+03  0.21372439568E+03  0.41800000000E+01 0.  1.
        -11    1    3    3    0    0  0.25580874584E+02  0.59395675287E+02 -0.27019223235E+02  0.70087558179E+02  0.00000000000E+00 0. -1.
         11    1    3    3    0    0  0.93966179822E+02 -0.11590458949E+02 -0.34261389799E+02  0.10068676437E+03  0.00000000000E+00 0.  1.
</event>
<event>
 7    1  0.6610867E-006  0.1592411E+03  0.7561462E-02  0.1189556E+00
          2   -1    0    0  501    0  0.00000000000E+00  0.00000000000E+00  0.50895679406E+03  0.50895679406E+03  0.00000000000E+00 0. -1.
         -2   -1    0    0    0  501 -0.00000000000E+00 -0.00000000000E+00 -0.14951899587E+03  0.14951899587E+03  0.00000000000E+00 0.  1.
         23    2    1    2    0    0  0.32450345937E+02  0.14058755158E+03 -0.70941923387E+02  0.18450145242E+03  0.90499419002E+02 0.  0.
          5    1    1    2  502    0 -0.19438736374E+02 -0.12835924093E+03  0.17499866778E+03  0.21793569081E+03  0.41800000000E+01 0. -1.
         -5    1    1    2    0  502 -0.13011609563E+02 -0.12228310653E+02  0.25538105379E+03  0.25603864669E+03  0.41800000000E+01 0.  1.
        -11    1    3    3    0    0 -0.23721658677E+02  0.94980820307E+02 -0.43288905748E+02  0.10704206032E+03  0.00000000000E+00 0.  1.
         11    1    3    3    0    0  0.56172004614E+02  0.45606731276E+02 -0.27653017639E+02  0.77459392100E+02  0.00000000000E+00 0. -1.
</event>
<event>
 7    1  0.6610867E-006  0.1600384E+03  0.7561462E-02  0.1188653E+00
         -2   -1    0    0    0  501 -0.00000000000E+00  0.00000000000E+00  0.36592450181E+02  0.36592450181E+02  0.00000000000E+00 0.  1.
          2   -1    0    0  501    0  0.00000000000E+00 -0.00000000000E+00 -0.83622859571E+03  0.83622859571E+03  0.00000000000E+00 0. -1.
         23    2    1    2    0    0 -0.48208579195E+02 -0.12013392854E+03 -0.26503362623E+03  0.30872495007E+03  0.91170411166E+02 0.  0.
          5    1    1    2  502    0  0.75639906962E+02  0.24307206488E+02 -0.21290165353E+03  0.22728137250E+03  0.41800000000E+01 0.  1.
         -5    1    1    2    0  502 -0.27431327767E+02  0.95826722049E+02 -0.32170086577E+03  0.33681472331E+03  0.41800000000E+01 0.  1.
        -11    1    3    3    0    0 -0.56939695454E+02 -0.71796662849E+02 -0.23224009630E+03  0.24966447894E+03  0.00000000000E+00 0.  1.
         11    1    3    3    0    0  0.87311162582E+01 -0.48337265687E+02 -0.32793529924E+02  0.59060471130E+02  0.00000000000E+00 0. -1.
</event>
<event>
 7    1  0.6610867E-006  0.1064218E+03  0.7561462E-02  0.1267343E+00
          2   -1    0    0  501    0  0.00000000000E+00  0.00000000000E+00  0.62883812267E+02  0.62883812267E+02  0.00000000000E+00 0. -1.
         -2   -1    0    0    0  501 -0.00000000000E+00 -0.00000000000E+00 -0.21680980282E+03  0.21680980282E+03  0.00000000000E+00 0.  1.
         23    2    1    2    0    0  0.31013072518E+02 -0.33853901900E+02 -0.63201472753E+02  0.11849010850E+03  0.89093110360E+02 0.  0.
          5    1    1    2  502    0 -0.37945256133E+01  0.79579773586E+02 -0.57292230606E+02  0.98220216231E+02  0.41800000000E+01 0.  1.
         -5    1    1    2    0  502 -0.27218546905E+02 -0.45725871687E+02 -0.33432287197E+02  0.62983290358E+02  0.41800000000E+01 0.  1.
        -11    1    3    3    0    0  0.24239051223E+01  0.19235915498E+02 -0.54150143277E+02  0.57516378346E+02  0.00000000000E+00 0.  1.
         11    1    3    3    0    0  0.28589167396E+02 -0.53089817398E+02 -0.90513294759E+01  0.60973730155E+02  0.00000000000E+00 0. -1.
</event>
<event>
 7    1  0.6610867E-006  0.1061026E+03  0.7561462E-02  0.1267962E+00
         -2   -1    0    0    0  501 -0.00000000000E+00  0.00000000000E+00  0.75211900397E+02  0.75211900397E+02  0.00000000000E+00 0.  1.
          2   -1    0    0  501    0  0.00000000000E+00 -0.00000000000E+00 -0.20482771441E+03  0.20482771441E+03  0.00000000000E+00 0. -1.
         23    2    1    2    0    0  0.11662253384E+02  0.50233824253E+02 -0.23518839252E+02  0.10810067124E+03  0.92049845574E+02 0.  0.
          5    1    1    2  502    0  0.10793638650E+02 -0.76990064164E+02 -0.11186319309E+03  0.13628946762E+03  0.41800000000E+01 0.  1.
         -5    1    1    2    0  502 -0.22455892034E+02  0.26756239911E+02  0.57662183328E+01  0.35649475944E+02  0.41800000000E+01 0.  1.
        -11    1    3    3    0    0 -0.28254209332E+02 -0.72654643590E+01  0.95353687068E+01  0.30692190761E+02  0.00000000000E+00 0.  1.
         11    1    3    3    0    0  0.39916462716E+02  0.57499288612E+02 -0.33054207959E+02  0.77408480481E+02  0.00000000000E+00 0. -1.
</event>
<event>
 7    1  0.6610867E-006  0.1049417E+03  0.7561462E-02  0.1270235E+00
         -1   -1    0    0    0  501 -0.00000000000E+00  0.00000000000E+00  0.22764823961E+02  0.22764823961E+02  0.00000000000E+00 0.  1.
          1   -1    0    0  501    0  0.00000000000E+00 -0.00000000000E+00 -0.79612932973E+03  0.79612932973E+03  0.00000000000E+00 0. -1.
         23    2    1    2    0    0  0.54675336580E+02  0.59089640127E+02 -0.39135832144E+03  0.40894445092E+03  0.87139257381E+02 0.  0.
          5    1    1    2  502    0 -0.85462342542E+01  0.62280834112E+01  0.66215679515E+01  0.13158446148E+02  0.41800000000E+01 0. -1.
         -5    1    1    2    0  502 -0.46129102325E+02 -0.65317723538E+02 -0.38862775227E+03  0.39679125661E+03  0.41800000000E+01 0. -1.
        -11    1    3    3    0    0  0.77582893700E+02  0.55168677094E+02 -0.32351223616E+03  0.33722819465E+03  0.00000000000E+00 0.  1.
         11    1    3    3    0    0 -0.22907557120E+02  0.39209630327E+01 -0.67846085289E+02  0.71716256270E+02  0.00000000000E+00 0. -1.
</event>
<event>
 7    1  0.6610867E-006  0.8834542E+02  0.7561462E-02  0.1306909E+00
         -1   -1    0    0    0  501 -0.00000000000E+00  0.00000000000E+00  0.27629477049E+02  0.27629477049E+02  0.00000000000E+00 0.  1.
          1   -1    0    0  501    0  0.00000000000E+00 -0.00000000000E+00 -0.78579744117E+03  0.78579744117E+03  0.00000000000E+00 0. -1.
         23    2    1    2    0    0  0.44431997166E+01  0.30744517184E+02 -0.87651783887E+02  0.13063505571E+03  0.91748107338E+02 0.  0.
          5    1    1    2  502    0 -0.44850447623E+02 -0.47783146968E+02 -0.20651291195E+03  0.21670220808E+03  0.41800000000E+01 0. -1.
         -5    1    1    2    0  502  0.40407247907E+02  0.17038629785E+02 -0.46400326828E+03  0.46608965443E+03  0.41800000000E+01 0. -1.
        -11    1    3    3    0    0  0.17904020530E+02  0.44353000071E+02 -0.77273834350E+01  0.48450542012E+02  0.00000000000E+00 0.  1.
         11    1    3    3    0    0 -0.13460820814E+02 -0.13608482887E+02 -0.79924400452E+02  0.82184513694E+02  0.00000000000E+00 0. -1.
</event>
<event>
 7    1  0.6610867E-006  0.2103857E+03  0.7561462E-02  0.1141261E+00
          2   -1    0    0  501    0  0.00000000000E+00  0.00000000000E+00  0.15765923177E+04  0.15765923177E+04  0.00000000000E+00 0. -1.
         -2   -1    0    0    0  501 -0.00000000000E+00 -0.00000000000E+00 -0.28813994881E+02  0.28813994881E+02  0.00000000000E+00 0.  1.
         23    2    1    2    0    0 -0.18037216446E+03 -0.21995608414E+02  0.83219862166E+03  0.85659384496E+03  0.90446364357E+02 0.  0.
          5    1    1    2  502    0  0.12508758808E+03  0.70956412460E+02  0.52579257097E+03  0.54512110329E+03  0.41800000000E+01 0.  1.
         -5    1    1    2    0  502  0.55284576380E+02 -0.48960804045E+02  0.18978713016E+03  0.20369136430E+03  0.41800000000E+01 0.  1.
        -11    1    3    3    0    0 -0.78688795477E+01  0.23290996111E+02  0.10656454502E+03  0.10936357721E+03  0.00000000000E+00 0. -1.
         11    1    3    3    0    0 -0.17250328492E+03 -0.45286604526E+02  0.72563407665E+03  0.74723026775E+03  0.00000000000E+00 0.  1.
</event>
<event>
 7    1  0.6610867E-006  0.1473023E+03  0.7561462E-02  0.1203828E+00
          2   -1    0    0  501    0  0.00000000000E+00  0.00000000000E+00  0.50277066164E+03  0.50277066164E+03  0.00000000000E+00 0. -1.
         -2   -1    0    0    0  501 -0.00000000000E+00 -0.00000000000E+00 -0.52068261968E+02  0.52068261968E+02  0.00000000000E+00 0.  1.
         23    2    1    2    0    0 -0.48789496132E+02 -0.10360699691E+03  0.15654655215E+03  0.21529488703E+03  0.93435756812E+02 0.  0.
          5    1    1    2  502    0 -0.26421555457E+02  0.64413002889E+02  0.65700444523E+02  0.95818340335E+02  0.41800000000E+01 0.  1.
         -5    1    1    2    0  502  0.75211051589E+02  0.39193994018E+02  0.22845540300E+03  0.24372569624E+03  0.41800000000E+01 0.  1.
        -11    1    3    3    0    0  0.17301449909E+02 -0.55675863219E+02  0.32374606472E+02  0.66687757934E+02  0.00000000000E+00 0.  1.
         11    1    3    3    0    0 -0.66090946041E+02 -0.47931133689E+02  0.12417194568E+03  0.14860712910E+03  0.00000000000E+00 0. -1.
</event>
<event>
 7    1  0.8504749E-006  0.1913489E+03  0.7561462E-02  0.1157250E+00
         -2   -1    0    0    0  501 -0.00000000000E+00  0.00000000000E+00  0.12412664747E+03  0.12412664747E+03  0.00000000000E+00 0.  1.
          2   -1    0    0  501    0  0.00000000000E+00 -0.00000000000E+00 -0.34565418436E+03  0.34565418436E+03  0.00000000000E+00 0. -1.
         23    2    1    2    0    0  0.13233978704E+03  0.11350292559E+03 -0.65070134615E+02  0.20421849334E+03  0.84109079483E+02 0.  0.
          5    1    1    2  502    0 -0.14047796983E+02 -0.74565659521E+02 -0.15740754184E+02  0.77605553423E+02  0.41800000000E+01 0.  1.
         -5    1    1    2    0  502 -0.11829199005E+03 -0.38937266071E+02 -0.14071664809E+03  0.18795678506E+03  0.41800000000E+01 0.  1.
        -11    1    3    3    0    0  0.34100126652E+02  0.29847573924E+01  0.13469926750E+02  0.36785409349E+02  0.00000000000E+00 0. -1.
         11    1    3    3    0    0  0.98239660386E+02  0.11051816820E+03 -0.78540061365E+02  0.16743308399E+03  0.00000000000E+00 0.  1.
</event>
<event>
 7    1  0.6610867E-006  0.9504012E+02  0.7561462E-02  0.1291086E+00
          1   -1    0    0  501    0  0.00000000000E+00  0.00000000000E+00  0.12641486606E+03  0.12641486606E+03  0.00000000000E+00 0. -1.
         -1   -1    0    0    0  501 -0.00000000000E+00 -0.00000000000E+00 -0.10155308796E+03  0.10155308796E+03  0.00000000000E+00 0.  1.
         23    2    1    2    0    0  0.25226385682E+01 -0.43472008836E+02 -0.81472795373E+01  0.91466964453E+02  0.80022797782E+02 0.  0.
          5    1    1    2  502    0 -0.38444735079E+02  0.72600082624E+02  0.53039101855E+01  0.82427989879E+02  0.41800000000E+01 0. -1.
         -5    1    1    2    0  502  0.35922096510E+02 -0.29128073788E+02  0.27705147455E+02  0.54072999693E+02  0.41800000000E+01 0. -1.
        -11    1    3    3    0    0  0.20670143037E+02 -0.36499603969E+02 -0.37496828179E+02  0.56262669920E+02  0.00000000000E+00 0.  1.
         11    1    3    3    0    0 -0.18147504469E+02 -0.69724048666E+01  0.29349548642E+02  0.35204294533E+02  0.00000000000E+00 0. -1.
</event>
<event>
 7    1  0.6610867E-006  0.8251711E+02  0.7561462E-02  0.1322056E+00
          1   -1    0    0  501    0  0.00000000000E+00  0.00000000000E+00  0.42083594260E+03  0.42083594260E+03  0.00000000000E+00 0. -1.
         -1   -1    0    0    0  501 -0.00000000000E+00 -0.00000000000E+00 -0.27904028154E+02  0.27904028154E+02  0.00000000000E+00 0.  1.
         23    2    1    2    0    0 -0.11808193917E+02 -0.28976606873E+02  0.12210916237E+03  0.15416695089E+03  0.88756543536E+02 0.  0.
          5    1    1    2  502    0 -0.16064732983E+02 -0.30130815859E+02  0.32168874778E+02  0.47098307980E+02  0.41800000000E+01 0. -1.
         -5    1    1    2    0  502  0.27872926899E+02  0.59107422732E+02  0.23865387730E+03  0.24747471189E+03  0.41800000000E+01 0.  1.
        -11    1    3    3    0    0 -0.99017610108E+00  0.17450892479E+02 -0.51910876745E+01  0.18233526491E+02  0.00000000000E+00 0.  1.
         11    1    3    3    0    0 -0.10818017816E+02 -0.46427499352E+02  0.12730025005E+03  0.13593342440E+03  0.00000000000E+00 0. -1.
</event>
<event>
 7    1  0.6610867E-006  0.1801260E+03  0.7561462E-02  0.1167681E+00
          2   -1    0    0  501    0  0.00000000000E+00  0.00000000000E+00  0.17059888857E+03  0.17059888857E+03  0.00000000000E+00 0. -1.
         -2   -1    0    0    0  501 -0.00000000000E+00 -0.00000000000E+00 -0.21892854916E+03  0.21892854916E+03  0.00000000000E+00 0.  1.
         23    2    1    2    0    0  0.54094329674E+02 -0.14684843305E+03 -0.49079332430E+02  0.18918081772E+03  0.94286489640E+02 0.  0.
          5    1    1    2  502    0 -0.43523949385E+02  0.16611240334E+03 -0.15838553387E+02  0.17249926633E+03  0.41800000000E+01 0. -1.
         -5    1    1    2    0  502 -0.10570380290E+02 -0.19263970285E+02  0.16588225224E+02  0.27847353675E+02  0.41800000000E+01 0. -1.
        -11    1    3    3    0    0  0.64658056124E+02 -0.10819431343E+03 -0.28699981780E+00  0.12604267551E+03  0.00000000000E+00 0. -1.
         11    1    3    3    0    0 -0.10563726450E+02 -0.38654119623E+02 -0.48792332612E+02  0.63138142212E+02  0.00000000000E+00 0.  1.
</event>
<event>
 7    1  0.6610867E-006  0.1031368E+03  0.7561462E-02  0.1273835E+00
          1   -1    0    0  501    0  0.00000000000E+00  0.00000000000E+00  0.77085261357E+02  0.77085261357E+02  0.00000000000E+00 0. -1.
         -1   -1    0    0    0  501 -0.00000000000E+00 -0.00000000000E+00 -0.21110520012E+03  0.21110520012E+03  0.00000000000E+00 0.  1.
         23    2    1    2    0    0  0.17348784462E+02 -0.22851471618E+02 -0.13010784197E+03  0.15994230363E+03  0.88489094642E+02 0.  0.
          5    1    1    2  502    0 -0.27972182850E+02  0.65811914111E+02  0.24251475365E+02  0.75625772788E+02  0.41800000000E+01 0.  1.
         -5    1    1    2    0  502  0.10623398387E+02 -0.42960442494E+02 -0.28163572156E+02  0.52622385057E+02  0.41800000000E+01 0.  1.
        -11    1    3    3    0    0 -0.16190097703E+02 -0.46443792765E+02 -0.51086975109E+02  0.70915613061E+02  0.00000000000E+00 0. -1.
         11    1    3    3    0    0  0.33538882165E+02  0.23592321147E+02 -0.79020866861E+02  0.89026690568E+02  0.00000000000E+00 0.  1.
</event>
<event>
 7    1  0.6610867E-006  0.1438422E+03  0.7561462E-02  0.1208251E+00
          1   -1    0    0  501    0  0.00000000000E+00  0.00000000000E+00  0.21371453466E+03  0.21371453466E+03  0.00000000000E+00 0. -1.
         -1   -1    0    0    0  501 -0.00000000000E+00 -0.00000000000E+00 -0.14687089190E+03  0.14687089190E+03  0.00000000000E+00 0.  1.
         23    2    1    2    0    0  0.59263221312E+02  0.90589323833E+02 -0.60515799266E+02  0.15181130206E+03  0.87555436606E+02 0.  0.
          5    1    1    2  502    0 -0.85162125305E+02 -0.92258649218E+02  0.13183932991E+03  0.18210800985E+03  0.41800000000E+01 0.  1.
         -5    1    1    2    0  502  0.25898903994E+02  0.16693253849E+01 -0.44798878767E+01  0.26666114653E+02  0.41800000000E+01 0.  1.
        -11    1    3    3    0    0 -0.17323375869E+02  0.41061239055E+02 -0.36210368361E+02  0.57422255973E+02  0.00000000000E+00 0.  1.
         11    1    3    3    0    0  0.76586597181E+02  0.49528084778E+02 -0.24305430906E+02  0.94389046086E+02  0.00000000000E+00 0. -1.
</event>
<event>
 7    1  0.6610867E-006  0.9190829E+02  0.7561462E-02  0.1298295E+00
         -1   -1    0    0    0  501 -0.00000000000E+00  0.00000000000E+00  0.29132213205E+03  0.29132213205E+03  0.00000000000E+00 0.  1.
          1   -1    0    0  501    0  0.00000000000E+00 -0.00000000000E+00 -0.67645717896E+02  0.67645717896E+02  0.00000000000E+00 0. -1.
         23    2    1    2    0    0 -0.16517748413E+02  0.58594651411E+02  0.18408661731E+03  0.21432715528E+03  0.91334974855E+02 0.  0.
          5    1    1    2  502    0  0.24562587582E+01  0.91968673441E+01 -0.38684376937E+02  0.40057071724E+02  0.41800000000E+01 0. -1.
         -5    1    1    2    0  502  0.14061489655E+02 -0.67791518755E+02  0.78274173785E+02  0.10458362294E+03  0.41800000000E+01 0. -1.
        -11    1    3    3    0    0 -0.31558145829E+02 -0.10567785886E+02  0.30185727426E+02  0.44930755691E+02  0.00000000000E+00 0.  1.
         11    1    3    3    0    0  0.15040397416E+02  0.69162437297E+02  0.15390088988E+03  0.16939639959E+03  0.00000000000E+00 0. -1.
</event>
<event>
 7    1  0.6610867E-006  0.1009915E+03  0.7561462E-02  0.1278225E+00
          2   -1    0    0  501    0  0.00000000000E+00  0.00000000000E+00  0.95391606623E+02  0.95391606623E+02  0.00000000000E+00 0.  1.
         -2   -1    0    0    0  501 -0.00000000000E+00 -0.00000000000E+00 -0.13524812972E+03  0.13524812972E+03  0.00000000000E+00 0. -1.
         23    2    1    2    0    0  0.27292740543E+02 -0.97444779803E+01 -0.26858475011E+02  0.10158010012E+03  0.93580396045E+02 0.  0.
          5    1    1    2  502    0  0.38132329120E+02  0.29478052520E+02  0.20856012387E+02  0.52682784258E+02  0.41800000000E+01 0.  1.
         -5    1    1    2    0  502 -0.65425069663E+02 -0.19733574540E+02 -0.33854060470E+02  0.76376851957E+02  0.41800000000E+01 0.  1.
        -11    1    3    3    0    0  0.53476394850E+02 -0.19895741547E+02 -0.40880881795E+02  0.70191251836E+02  0.00000000000E+00 0. -1.
         11    1    3    3    0    0 -0.26183654307E+02  0.10151263567E+02  0.14022406784E+02  0.31388848289E+02  0.00000000000E+00 0.  1.
</event>
<event>
 7    1  0.6610867E-006  0.6985195E+02  0.7561462E-02  0.1360597E+00
         -3   -1    0    0    0  501 -0.00000000000E+00  0.00000000000E+00  0.87474925562E+02  0.87474925562E+02  0.00000000000E+00 0.  1.
          3   -1    0    0  501    0  0.00000000000E+00 -0.00000000000E+00 -0.15093590564E+03  0.15093590564E+03  0.00000000000E+00 0. -1.
         23    2    1    2    0    0 -0.37284391171E+01 -0.24009176869E+02 -0.21676340863E+01  0.97003415038E+02  0.93886218687E+02 0.  0.
          5    1    1    2  502    0 -0.36551339695E+02  0.74282027125E+01 -0.84075854939E+02  0.92072799528E+02  0.41800000000E+01 0. -1.
         -5    1    1    2    0  502  0.40279778812E+02  0.16580974156E+02  0.22782508945E+02  0.49334616640E+02  0.41800000000E+01 0. -1.
        -11    1    3    3    0    0  0.24742201775E+02 -0.12259494747E+02 -0.39758071682E+02  0.48406363466E+02  0.00000000000E+00 0. -1.
         11    1    3    3    0    0 -0.28470640892E+02 -0.11749682121E+02  0.37590437596E+02  0.48597051571E+02  0.00000000000E+00 0.  1.
</event>
<event>
 7    1  0.6610867E-006  0.1451547E+03  0.7561462E-02  0.1206557E+00
         -2   -1    0    0    0  501 -0.00000000000E+00  0.00000000000E+00  0.15915378283E+03  0.15915378283E+03  0.00000000000E+00 0.  1.
          2   -1    0    0  501    0  0.00000000000E+00 -0.00000000000E+00 -0.16905288056E+03  0.16905288056E+03  0.00000000000E+00 0. -1.
         23    2    1    2    0    0 -0.11245762321E+03  0.48139353035E+02 -0.17878980224E+02  0.15306173959E+03  0.90244799642E+02 0.  0.
          5    1    1    2  502    0  0.15624195286E+02 -0.58709640842E+02 -0.33140032260E+02  0.69330163307E+02  0.41800000000E+01 0. -1.
         -5    1    1    2    0  502  0.96833427927E+02  0.10570287807E+02  0.41119914750E+02  0.10581476049E+03  0.41800000000E+01 0. -1.
        -11    1    3    3    0    0 -0.46043158422E+02  0.46559722067E+02 -0.46922296768E+02  0.80557321768E+02  0.00000000000E+00 0. -1.
         11    1    3    3    0    0 -0.66414464791E+02  0.15796309677E+01  0.29043316544E+02  0.72504417820E+02  0.00000000000E+00 0.  1.
</event>
<event>
 7    1  0.6610867E-006  0.1441410E+03  0.7561462E-02  0.1207863E+00
         -2   -1    0    0    0  501 -0.00000000000E+00  0.00000000000E+00  0.43484849959E+02  0.43484849959E+02  0.00000000000E+00 0. -1.
          2   -1    0    0  501    0  0.00000000000E+00 -0.00000000000E+00 -0.56077979611E+03  0.56077979611E+03  0.00000000000E+00 0.  1.
         23    2    1    2    0    0  0.10728083059E+03 -0.35045279781E+02 -0.20432465728E+03  0.24882836935E+03  0.86195380242E+02 0.  0.
          5    1    1    2  502    0  0.15868257428E+02 -0.94834505287E+01 -0.12429312892E+03  0.12572983626E+03  0.41800000000E+01 0.  1.
         -5    1    1    2    0  502 -0.12314908802E+03  0.44528730310E+02 -0.18867715995E+03  0.22970644047E+03  0.41800000000E+01 0.  1.
        -11    1    3    3    0    0  0.50361977116E+02  0.24440968844E+02 -0.11142505035E+03  0.12469655786E+03  0.00000000000E+00 0.  1.
         11    1    3    3    0    0  0.56918853474E+02 -0.59486248625E+02 -0.92899606931E+02  0.12413181149E+03  0.00000000000E+00 0. -1.
</event>
<event>
 7    1  0.6610867E-006  0.1569442E+03  0.7561462E-02  0.1192191E+00
         -2   -1    0    0    0  501 -0.00000000000E+00  0.00000000000E+00  0.24866129523E+02  0.24866129523E+02  0.00000000000E+00 0.  1.
          2   -1    0    0  501    0  0.00000000000E+00 -0.00000000000E+00 -0.11546926954E+04  0.11546926954E+04  0.00000000000E+00 0. -1.
         23    2    1    2    0    0 -0.79354779358E+02  0.86151266942E+02 -0.34441931924E+03  0.37567400357E+03  0.93739360426E+02 0.  0.
          5    1    1    2  502    0  0.65733438795E+02  0.13197118900E+02 -0.23548673263E+03  0.24488062922E+03  0.41800000000E+01 0. -1.
         -5    1    1    2    0  502  0.13621340562E+02 -0.99348385843E+02 -0.54992051396E+03  0.55900419208E+03  0.41800000000E+01 0. -1.
        -11    1    3    3    0    0 -0.15143536206E+02  0.80474013694E+02 -0.23275108010E+03  0.24673560516E+03  0.00000000000E+00 0.  1.
         11    1    3    3    0    0 -0.64211243151E+02  0.56772532487E+01 -0.11166823914E+03  0.12893839841E+03  0.00000000000E+00 0. -1.
</event>
<event>
 7    1  0.6610867E-006  0.1098653E+03  0.7561462E-02  0.1260819E+00
         -1   -1    0    0    0  501 -0.00000000000E+00  0.00000000000E+00  0.14627454628E+02  0.14627454628E+02  0.00000000000E+00 0.  1.
          1   -1    0    0  501    0  0.00000000000E+00 -0.00000000000E+00 -0.11700962563E+04  0.11700962563E+04  0.00000000000E+00 0. -1.
         23    2    1    2    0    0 -0.28438585395E+02 -0.47764664682E+02 -0.31057177221E+03  0.32880946592E+03  0.92577658484E+02 0.  0.
          5    1    1    2  502    0  0.16663774419E+02  0.77801542677E+02 -0.77183822531E+03  0.77593973984E+03  0.41800000000E+01 0.  1.
         -5    1    1    2    0  502  0.11774810977E+02 -0.30036877995E+02 -0.73058804197E+02  0.79974505212E+02  0.41800000000E+01 0.  1.
        -11    1    3    3    0    0 -0.20634737778E+02  0.26086196618E+02 -0.11063925951E+03  0.11553063578E+03  0.00000000000E+00 0. -1.
         11    1    3    3    0    0 -0.78038476174E+01 -0.73850861300E+02 -0.19993251270E+03  0.21327883014E+03  0.00000000000E+00 0.  1.
</event>
<event>
 7    1  0.6610867E-006  0.1382631E+03  0.7561462E-02  0.1215685E+00
          1   -1    0    0  501    0  0.00000000000E+00  0.00000000000E+00  0.15172600938E+03  0.15172600938E+03  0.00000000000E+00 0. -1.
         -1   -1    0    0    0  501 -0.00000000000E+00 -0.00000000000E+00 -0.18067784529E+03  0.18067784529E+03  0.00000000000E+00 0.  1.
         23    2    1    2    0    0  0.49584957296E+02  0.91299687598E+02 -0.83403380233E+02  0.16091786437E+03  0.90244857438E+02 0.  0.
          5    1    1    2  502    0 -0.75001002554E+02 -0.18800438514E+02  0.35935957024E+00  0.77435188460E+02  0.41800000000E+01 0. -1.
         -5    1    1    2    0  502  0.25416045258E+02 -0.72499249084E+02  0.54092184753E+02  0.94050801834E+02  0.41800000000E+01 0. -1.
        -11    1    3    3    0    0  0.10768987500E+02  0.81380078001E+02 -0.88291476716E+02  0.12055734340E+03  0.00000000000E+00 0.  1.
         11    1    3    3    0    0  0.38815969796E+02  0.99196095979E+01  0.48880964829E+01  0.40360520971E+02  0.00000000000E+00 0. -1.
</event>
<event>
 7    1  0.6610867E-006  0.1091842E+03  0.7561462E-02  0.1262088E+00
          3   -1    0    0  501    0  0.00000000000E+00  0.00000000000E+00  0.51479180634E+03  0.51479180634E+03  0.00000000000E+00 0. -1.
         -3   -1    0    0    0  501 -0.00000000000E+00 -0.00000000000E+00 -0.28110286172E+02  0.28110286172E+02  0.00000000000E+00 0.  1.
         23    2    1    2    0    0  0.53721137628E+02 -0.69836525853E+01  0.22510984537E+03  0.24793981146E+03  0.88684697626E+02 0.  0.
          5    1    1    2  502    0 -0.86167659367E+02  0.16402249079E+02  0.23764793087E+03  0.25335333181E+03  0.41800000000E+01 0.  1.
         -5    1    1    2    0  502  0.32446521738E+02 -0.94185964933E+01  0.23923743923E+02  0.41608949231E+02  0.41800000000E+01 0.  1.
        -11    1    3    3    0    0  0.14356315116E+02 -0.41651508725E+02  0.58281686894E+02  0.73059612578E+02  0.00000000000E+00 0.  1.
         11    1    3    3    0    0  0.39364822513E+02  0.34667856140E+02  0.16682815848E+03  0.17488019888E+03  0.00000000000E+00 0. -1.
</event>
<event>
 7    1  0.6610867E-006  0.1032393E+03  0.7561462E-02  0.1273628E+00
         -1   -1    0    0    0  501 -0.00000000000E+00  0.00000000000E+00  0.17593174348E+02  0.17593174348E+02  0.00000000000E+00 0.  1.
          1   -1    0    0  501    0  0.00000000000E+00 -0.00000000000E+00 -0.76953032929E+03  0.76953032929E+03  0.00000000000E+00 0. -1.
         23    2    1    2    0    0  0.12946871498E+02 -0.23771510429E+02 -0.23360775353E+03  0.25322691051E+03  0.93907292072E+02 0.  0.
          5    1    1    2  502    0 -0.38478171335E+02  0.59746293596E+02 -0.42071919684E+03  0.42669931364E+03  0.41800000000E+01 0. -1.
         -5    1    1    2    0  502  0.25531299836E+02 -0.35974783167E+02 -0.97610204573E+02  0.10719727950E+03  0.41800000000E+01 0. -1.
        -11    1    3    3    0    0  0.25946672441E+02  0.27663271150E+02 -0.54291320024E+02  0.66227138028E+02  0.00000000000E+00 0.  1.
         11    1    3    3    0    0 -0.12999800943E+02 -0.51434781579E+02 -0.17931643351E+03  0.18699977248E+03  0.00000000000E+00 0. -1.
</event>
<event>
 7    1  0.6610867E-006  0.8042949E+02  0.7561462E-02  0.1327837E+00
          1   -1    0    0  501    0  0.00000000000E+00  0.00000000000E+00  0.15624055005E+03  0.15624055005E+03  0.00000000000E+00 0. -1.
         -1   -1    0    0    0  501 -0.00000000000E+00 -0.00000000000E+00 -0.12000217605E+03  0.12000217605E+03  0.00000000000E+00 0.  1.
         23    2    1    2    0    0  0.91873106728E+01  0.47114952639E+02 -0.52166089066E+02  0.11573101231E+03  0.91477543272E+02 0.  0.
          5    1    1    2  502    0  0.19247094564E+02 -0.71121026121E+02  0.11117371574E+02  0.74630552432E+02  0.41800000000E+01 0.  1.
         -5    1    1    2    0  502 -0.28434405236E+02  0.24006073481E+02  0.77287091484E+02  0.85881161353E+02  0.41800000000E+01 0.  1.
        -11    1    3    3    0    0 -0.27554295401E+01  0.16924035822E+02 -0.74419547791E+02  0.76369394877E+02  0.00000000000E+00 0.  1.
         11    1    3    3    0    0  0.11942740213E+02  0.30190916817E+02  0.22253458725E+02  0.39361617437E+02  0.00000000000E+00 0. -1.
</event>
<event>
 7    1  0.6610867E-006  0.2369114E+03  0.7561462E-02  0.1121868E+00
          2   -1    0    0  501    0  0.00000000000E+00  0.00000000000E+00  0.82043109749E+03  0.82043109749E+03  0.00000000000E+00 0. -1.
         -2   -1    0    0    0  501 -0.00000000000E+00 -0.00000000000E+00 -0.81686980935E+02  0.81686980935E+02  0.00000000000E+00 0.  1.
         23    2    1    2    0    0  0.21568184767E+03  0.88659242154E+02  0.38687129656E+03  0.46184432441E+03  0.96185545973E+02 0.  0.
          5    1    1    2  502    0 -0.50416403410E+02 -0.94635496472E+01  0.10104497159E+02  0.52449459173E+02  0.41800000000E+01 0. -1.
         -5    1    1    2    0  502 -0.16526544426E+03 -0.79195692507E+02  0.34176832284E+03  0.38782429484E+03  0.41800000000E+01 0. -1.
        -11    1    3    3    0    0  0.79609280508E+01  0.17924605224E+02  0.93227411187E+02  0.95268137614E+02  0.00000000000E+00 0. -1.
         11    1    3    3    0    0  0.20772091962E+03  0.70734636930E+02  0.29364388537E+03  0.36657618679E+03  0.00000000000E+00 0.  1.
</event>
<event>
 7    1  0.6610867E-006  0.2591344E+03  0.7561462E-02  0.1107664E+00
         -1   -1    0    0    0  501 -0.00000000000E+00  0.00000000000E+00  0.32870928187E+03  0.32870928187E+03  0.00000000000E+00 0.  1.
          1   -1    0    0  501    0  0.00000000000E+00 -0.00000000000E+00 -0.23087538080E+03  0.23087538080E+03  0.00000000000E+00 0. -1.
         23    2    1    2    0    0  0.20270318462E+03  0.14628754664E+03  0.79943479444E+02  0.27948249983E+03  0.96077471074E+02 0.  0.
          5    1    1    2  502    0 -0.18290753606E+02 -0.25169044254E+02  0.48034534595E+02  0.57383110494E+02  0.41800000000E+01 0.  1.
         -5    1    1    2    0  502 -0.18441243102E+03 -0.12111850239E+03 -0.30144112968E+02  0.22271905235E+03  0.41800000000E+01 0.  1.
        -11    1    3    3    0    0 -0.37791298205E+01  0.27976698061E+02 -0.62652727265E+00  0.28237740579E+02  0.00000000000E+00 0.  1.
         11    1    3    3    0    0  0.20648231444E+03  0.11831084858E+03  0.80570006716E+02  0.25124475925E+03  0.00000000000E+00 0. -1.
</event>
<event>
 7    1  0.6610867E-006  0.9623505E+02  0.7561462E-02  0.1288418E+00
         -1   -1    0    0    0  501 -0.00000000000E+00  0.00000000000E+00  0.38694078448E+03  0.38694078448E+03  0.00000000000E+00 0.  1.
          1   -1    0    0  501    0  0.00000000000E+00 -0.00000000000E+00 -0.33373389449E+02  0.33373389449E+02  0.00000000000E+00 0. -1.
         23    2    1    2    0    0 -0.32422653105E+02 -0.17309662428E+01  0.17897287650E+03  0.20309228877E+03  0.90338046025E+02 0.  0.
          5    1    1    2  502    0  0.60912680514E+02 -0.26431877254E+02  0.42082198962E+02  0.78723456809E+02  0.41800000000E+01 0. -1.
         -5    1    1    2    0  502 -0.28490027409E+02  0.28162843497E+02  0.13251231957E+03  0.13849842834E+03  0.41800000000E+01 0. -1.
        -11    1    3    3    0    0 -0.36226872473E+02  0.34026693000E+02  0.14627996439E+03  0.15449281572E+03  0.00000000000E+00 0.  1.
         11    1    3    3    0    0  0.38042193684E+01 -0.35757659243E+02  0.32692912103E+02  0.48599473055E+02  0.00000000000E+00 0. -1.
</event>
<event>
 7    1  0.6610867E-006  0.1171655E+03  0.7561462E-02  0.1247848E+00
          2   -1    0    0  501    0  0.00000000000E+00  0.00000000000E+00  0.59110720769E+03  0.59110720769E+03  0.00000000000E+00 0.  1.
         -2   -1    0    0    0  501 -0.00000000000E+00 -0.00000000000E+00 -0.37139982534E+02  0.37139982534E+02  0.00000000000E+00 0. -1.
         23    2    1    2    0    0 -0.14395972347E+02 -0.42193312084E+02  0.62790853936E+02  0.11944690126E+03  0.91309097451E+02 0.  0.
          5    1    1    2  502    0 -0.23076273732E+02 -0.37694000200E+02  0.16862299192E+03  0.17436897048E+03  0.41800000000E+01 0.  1.
         -5    1    1    2    0  502  0.37472246079E+02  0.79887312285E+02  0.32255337930E+03  0.33443131849E+03  0.41800000000E+01 0.  1.
        -11    1    3    3    0    0 -0.76309312031E+01 -0.71304652043E+02  0.43462808299E+02  0.83854637434E+02  0.00000000000E+00 0. -1.
         11    1    3    3    0    0 -0.67650411436E+01  0.29111339959E+02  0.19328045637E+02  0.35592263822E+02  0.00000000000E+00 0.  1.
</event>
<event>
 7    1  0.6610867E-006  0.1273704E+03  0.7561462E-02  0.1231411E+00
         -2   -1    0    0    0  501 -0.00000000000E+00  0.00000000000E+00  0.47513992481E+02  0.47513992481E+02  0.00000000000E+00 0.  1.
          2   -1    0    0  501    0  0.00000000000E+00 -0.00000000000E+00 -0.38712278039E+03  0.38712278039E+03  0.00000000000E+00 0. -1.
         23    2    1    2    0    0  0.72778894832E+02  0.24730902558E+02 -0.10768423071E+03  0.16014641418E+03  0.90236330579E+02 0.  0.
          5    1    1    2  502    0 -0.10261394029E+03 -0.42937159070E+02 -0.16838566004E+03  0.20185247900E+03  0.41800000000E+01 0.  1.
         -5    1    1    2    0  502  0.29835045462E+02  0.18206256512E+02 -0.63538897155E+02  0.72637879688E+02  0.41800000000E+01 0.  1.
        -11    1    3    3    0    0  0.65307195086E+02 -0.15653607608E+02 -0.96522512941E+02  0.11758682182E+03  0.00000000000E+00 0. -1.
         11    1    3    3    0    0  0.74716997461E+01  0.40384510166E+02 -0.11161717774E+02  0.42559592363E+02  0.00000000000E+00 0.  1.
</event>
<event>
 7    1  0.6610867E-006  0.2147967E+03  0.7561462E-02  0.1137823E+00
         -2   -1    0    0    0  501 -0.00000000000E+00  0.00000000000E+00  0.62990793963E+03  0.62990793963E+03  0.00000000000E+00 0.  1.
          2   -1    0    0  501    0  0.00000000000E+00 -0.00000000000E+00 -0.11387977081E+03  0.11387977081E+03  0.00000000000E+00 0. -1.
         23    2    1    2    0    0 -0.13673008308E+03 -0.12944588237E+03  0.46915762576E+03  0.51293041701E+03  0.86818101782E+02 0.  0.
          5    1    1    2  502    0  0.59340532738E+02  0.13273785600E+03  0.12446080890E+02  0.14598977557E+03  0.41800000000E+01 0.  1.
         -5    1    1    2    0  502  0.77389550339E+02 -0.32919736288E+01  0.34424462174E+02  0.84867517862E+02  0.41800000000E+01 0.  1.
        -11    1    3    3    0    0 -0.12008668775E+02 -0.65143223177E+02  0.13039357571E+03  0.14625434092E+03  0.00000000000E+00 0.  1.
         11    1    3    3    0    0 -0.12472141430E+03 -0.64302659195E+02  0.33876405005E+03  0.36667607608E+03  0.00000000000E+00 0. -1.
</event>
<event>
 7    1  0.6610867E-006  0.1571252E+03  0.7561462E-02  0.1191981E+00
         -2   -1    0    0    0  501 -0.00000000000E+00  0.00000000000E+00  0.58087665558E+02  0.58087665558E+02  0.00000000000E+00 0.  1.
          2   -1    0    0  501    0  0.00000000000E+00 -0.00000000000E+00 -0.48693897584E+03  0.48693897584E+03  0.00000000000E+00 0. -1.
         23    2    1    2    0    0 -0.91510397488E+02 -0.87792123325E+02 -0.17091199397E+03  0.23155988372E+03  0.91254919314E+02 0.  0.
          5    1    1    2  502    0  0.31054921135E+01 -0.21887032818E+02 -0.96850774855E+02  0.99429529200E+02  0.41800000000E+01 0. -1.
         -5    1    1    2    0  502  0.88404905375E+02  0.10967915614E+03 -0.16108854146E+03  0.21403722848E+03  0.41800000000E+01 0. -1.
        -11    1    3    3    0    0 -0.59965412760E+02 -0.26540079314E+01 -0.39581036029E+02  0.71899602911E+02  0.00000000000E+00 0.  1.
         11    1    3    3    0    0 -0.31544984728E+02 -0.85138115393E+02 -0.13133095794E+03  0.15966028081E+03  0.00000000000E+00 0. -1.
</event>
<event>
 7    1  0.6610867E-006  0.9197763E+02  0.7561462E-02  0.1298132E+00
         -1   -1    0    0    0  501 -0.00000000000E+00  0.00000000000E+00  0.25046993166E+03  0.25046993166E+03  0.00000000000E+00 0.  1.
          1   -1    0    0  501    0  0.00000000000E+00 -0.00000000000E+00 -0.46188550420E+02  0.46188550420E+02  0.00000000000E+00 0. -1.
         23    2    1    2    0    0 -0.36042595654E+02  0.57934203409E+01  0.11508985322E+03  0.14922806914E+03  0.87696692545E+02 0.  0.
          5    1    1    2  502    0 -0.30228076775E+02  0.80185894046E+01  0.70251990567E+02  0.77012005429E+02  0.41800000000E+01 0. -1.
         -5    1    1    2    0  502  0.66270672429E+02 -0.13812009745E+02  0.18939537447E+02  0.70418407509E+02  0.41800000000E+01 0.  1.
        -11    1    3    3    0    0 -0.36198114598E+02 -0.31077543174E+02  0.29649165349E+02  0.56171079713E+02  0.00000000000E+00 0. -1.
         11    1    3    3    0    0  0.15551894470E+00  0.36870963515E+02  0.85440687874E+02  0.93056989427E+02  0.00000000000E+00 0.  1.
</event>
<event>
 7    1  0.6610867E-006  0.1634901E+03  0.7561462E-02  0.1184812E+00
          1   -1    0    0  501    0  0.00000000000E+00  0.00000000000E+00  0.47430175080E+03  0.47430175080E+03  0.00000000000E+00 0. -1.
         -1   -1    0    0    0  501 -0.00000000000E+00 -0.00000000000E+00 -0.77036274387E+02  0.77036274387E+02  0.00000000000E+00 0.  1.
         23    2    1    2    0    0  0.73390834469E+02 -0.13146034109E+03  0.12157665308E+03  0.21322730174E+03  0.89537499240E+02 0.  0.
          5    1    1    2  502    0 -0.38919769502E+02  0.12957738340E+03  0.12769915263E+03  0.18609028112E+03  0.41800000000E+01 0. -1.
         -5    1    1    2    0  502 -0.34471064967E+02  0.18829576902E+01  0.14798967070E+03  0.15202044233E+03  0.41800000000E+01 0. -1.
        -11    1    3    3    0    0  0.49428912113E+02 -0.44047568223E+02  0.61859676878E+01  0.66495652605E+02  0.00000000000E+00 0.  1.
         11    1    3    3    0    0  0.23961922356E+02 -0.87412772862E+02  0.11539068539E+03  0.14673164913E+03  0.00000000000E+00 0. -1.
</event>
<event>
 7    1  0.6610867E-006  0.1757940E+03  0.7561462E-02  0.1171937E+00
          1   -1    0    0  501    0  0.00000000000E+00  0.00000000000E+00  0.11033964843E+04  0.11033964843E+04  0.00000000000E+00 0. -1.
         -1   -1    0    0    0  501 -0.00000000000E+00 -0.00000000000E+00 -0.48841491606E+02  0.48841491606E+02  0.00000000000E+00 0.  1.
         23    2    1    2    0    0  0.14250155148E+03  0.92238667308E+02  0.21687248358E+03  0.28842455764E+03  0.85676060787E+02 0.  0.
          5    1    1    2  502    0 -0.78949958560E+02 -0.25086720117E+02  0.16378627653E+03  0.18359154736E+03  0.41800000000E+01 0.  1.
         -5    1    1    2    0  502 -0.63551592919E+02 -0.67151947191E+02  0.67389623256E+03  0.68022187089E+03  0.41800000000E+01 0.  1.
        -11    1    3    3    0    0  0.62907408009E+02  0.13924263032E+02  0.30786378846E+02  0.71407480041E+02  0.00000000000E+00 0. -1.
         11    1    3    3    0    0  0.79594143470E+02  0.78314404276E+02  0.18608610474E+03  0.21701707760E+03  0.00000000000E+00 0.  1.
</event>
<event>
 7    1  0.6610867E-006  0.8762204E+02  0.7561462E-02  0.1308715E+00
         -1   -1    0    0    0  501 -0.00000000000E+00  0.00000000000E+00  0.58558151524E+02  0.58558151524E+02  0.00000000000E+00 0.  1.
          1   -1    0    0  501    0  0.00000000000E+00 -0.00000000000E+00 -0.23255789428E+03  0.23255789428E+03  0.00000000000E+00 0. -1.
         23    2    1    2    0    0  0.23848780386E+02 -0.26764372131E+02 -0.48455185399E+02  0.11029987994E+03  0.92374577568E+02 0.  0.
          5    1    1    2  502    0  0.29856672324E+02 -0.27741924672E+02 -0.84441410876E+02  0.93855524811E+02  0.41800000000E+01 0.  1.
         -5    1    1    2    0  502 -0.53705452709E+02  0.54506296803E+02 -0.41103146479E+02  0.86960641053E+02  0.41800000000E+01 0.  1.
        -11    1    3    3    0    0  0.36970051418E+02 -0.14599760210E+02 -0.71089672083E+02  0.81447401290E+02  0.00000000000E+00 0. -1.
         11    1    3    3    0    0 -0.13121271032E+02 -0.12164611921E+02  0.22634486684E+02  0.28852478648E+02  0.00000000000E+00 0.  1.
</event>
<event>
 7    1  0.6610867E-006  0.1422499E+03  0.7561462E-02  0.1210333E+00
          1   -1    0    0  501    0  0.00000000000E+00  0.00000000000E+00  0.16884929188E+03  0.16884929188E+03  0.00000000000E+00 0. -1.
         -1   -1    0    0    0  501 -0.00000000000E+00 -0.00000000000E+00 -0.41724462162E+03  0.41724462162E+03  0.00000000000E+00 0.  1.
         23    2    1    2    0    0 -0.36046384909E+02 -0.33051142905E+02 -0.35536269143E+03  0.37092267771E+03  0.94388931915E+02 0.  0.
          5    1    1    2  502    0  0.89088898854E+02  0.70389680475E+02  0.36579685981E+02  0.11936115299E+03  0.41800000000E+01 0. -1.
         -5    1    1    2    0  502 -0.53042513945E+02 -0.37338537570E+02  0.70387675706E+02  0.95810082793E+02  0.41800000000E+01 0.  1.
        -11    1    3    3    0    0 -0.18997577339E+02 -0.66055572117E+02 -0.24608569477E+03  0.25550423817E+03  0.00000000000E+00 0.  1.
         11    1    3    3    0    0 -0.17048807569E+02  0.33004429212E+02 -0.10927699666E+03  0.11541843954E+03  0.00000000000E+00 0. -1.
</event>
<event>
 6    1  0.6610867E-006  0.9995329E+02  0.7561462E-02  0.1280394E+00
          2   -1    0    0  501    0  0.00000000000E+00  0.00000000000E+00  0.69240928670E+03  0.69240928670E+03  0.00000000000E+00 0. -1.
         -2   -1    0    0    0  501 -0.00000000000E+00 -0.00000000000E+00 -0.22060744823E+02  0.22060744823E+02  0.00000000000E+00 0.  1.
          5    1    1    2  502    0  0.54386178246E+01  0.53241686573E+02  0.25656447384E+03  0.26212031091E+03  0.41800000000E+01 0.  1.
         -5    1    1    2    0  502 -0.57817509343E+02 -0.57401966056E+02  0.33082228807E+03  0.34073260598E+03  0.41800000000E+01 0.  1.
        -11    1    1    2    0    0  0.50226279063E+02  0.15920483296E+02  0.37660071108E+02  0.64764356345E+02  0.00000000000E+00 0.  1.
         11    1    1    2    0    0  0.21526124553E+01 -0.11760203813E+02  0.45301708859E+02  0.46852758293E+02  0.00000000000E+00 0. -1.
</event>
<event>
 7    1  0.6610867E-006  0.1051882E+03  0.7561462E-02  0.1269749E+00
         -2   -1    0    0    0  501 -0.00000000000E+00  0.00000000000E+00  0.15534143765E+03  0.15534143765E+03  0.00000000000E+00 0.  1.
          2   -1    0    0  501    0  0.00000000000E+00 -0.00000000000E+00 -0.10917343531E+03  0.10917343531E+03  0.00000000000E+00 0. -1.
         23    2    1    2    0    0  0.22343617009E+02  0.38661055266E+02  0.79555168965E+02  0.12756138328E+03  0.89156980548E+02 0.  0.
          5    1    1    2  502    0  0.35415305559E+02 -0.55372467014E+02 -0.38794383835E+02  0.76438410424E+02  0.41800000000E+01 0. -1.
         -5    1    1    2    0  502 -0.57758922569E+02  0.16711411748E+02  0.54072172131E+01  0.60515079252E+02  0.41800000000E+01 0. -1.
        -11    1    3    3    0    0  0.48570929073E+02  0.26532507172E+02  0.81594084975E+02  0.98593629565E+02  0.00000000000E+00 0.  1.
         11    1    3    3    0    0 -0.26227312064E+02  0.12128548094E+02 -0.20389160097E+01  0.28967753718E+02  0.00000000000E+00 0. -1.
</event>
<event>
 7    1  0.6610867E-006  0.8396844E+02  0.7561462E-02  0.1318152E+00
          2   -1    0    0  501    0  0.00000000000E+00  0.00000000000E+00  0.80299932848E+02  0.80299932848E+02  0.00000000000E+00 0. -1.
         -2   -1    0    0    0  501 -0.00000000000E+00 -0.00000000000E+00 -0.13493662882E+03  0.13493662882E+03  0.00000000000E+00 0.  1.
         23    2    1    2    0    0 -0.16046422607E+01  0.14935569054E+01 -0.34962316747E+02  0.88580962909E+02  0.81359804625E+02 0.  0.
          5    1    1    2  502    0 -0.55632663137E+02  0.22601797877E+02  0.33592339370E+01  0.60287571916E+02  0.41800000000E+01 0.  1.
         -5    1    1    2    0  502  0.57237305397E+02 -0.24095354782E+02 -0.23033613158E+02  0.66368026837E+02  0.41800000000E+01 0.  1.
        -11    1    3    3    0    0  0.11309142483E+02 -0.18509369436E+02 -0.53937287912E+02  0.58135397890E+02  0.00000000000E+00 0.  1.
         11    1    3    3    0    0 -0.12913784743E+02  0.20002926341E+02  0.18974971165E+02  0.30445565019E+02  0.00000000000E+00 0. -1.
</event>
<event>
 7    1  0.6610867E-006  0.1526197E+03  0.7561462E-02  0.1197290E+00
          1   -1    0    0  501    0  0.00000000000E+00  0.00000000000E+00  0.32976193825E+03  0.32976193825E+03  0.00000000000E+00 0. -1.
         -1   -1    0    0    0  501 -0.00000000000E+00 -0.00000000000E+00 -0.12100802068E+03  0.12100802068E+03  0.00000000000E+00 0.  1.
         23    2    1    2    0    0 -0.48190196160E+02 -0.11759587042E+03 -0.25742917955E+02  0.15616848481E+03  0.87033407816E+02 0.  0.
          5    1    1    2  502    0 -0.20317021037E+02  0.10475282744E+03  0.16126105713E+03  0.19341286707E+03  0.41800000000E+01 0. -1.
         -5    1    1    2    0  502  0.68507217196E+02  0.12843042985E+02  0.73235778390E+02  0.10118860705E+03  0.41800000000E+01 0. -1.
        -11    1    3    3    0    0 -0.21639889741E+02 -0.78054138431E+02  0.26737935060E+02  0.85297423909E+02  0.00000000000E+00 0. -1.
         11    1    3    3    0    0 -0.26550306419E+02 -0.39541731991E+02 -0.52480853015E+02  0.70871060899E+02  0.00000000000E+00 0.  1.
</event>
<event>
 7    1  0.6610867E-006  0.1584161E+03  0.7561462E-02  0.1190497E+00
         -2   -1    0    0    0  501 -0.00000000000E+00  0.00000000000E+00  0.59754628811E+02  0.59754628811E+02  0.00000000000E+00 0. -1.
          2   -1    0    0  501    0  0.00000000000E+00 -0.00000000000E+00 -0.12648593070E+04  0.12648593070E+04  0.00000000000E+00 0.  1.
         23    2    1    2    0    0  0.43773928966E+01 -0.87348302157E+02 -0.99809963409E+02  0.16041697953E+03  0.90125973321E+02 0.  0.
          5    1    1    2  502    0 -0.54066751860E+02  0.12609705566E+03 -0.13730310758E+03  0.19414761615E+03  0.41800000000E+01 0. -1.
         -5    1    1    2    0  502  0.49689358964E+02 -0.38748753506E+02 -0.96799160720E+03  0.97004934014E+03  0.41800000000E+01 0.  1.
        -11    1    3    3    0    0  0.36581970677E+02 -0.71963841948E+02 -0.38415879043E+02  0.89402544087E+02  0.00000000000E+00 0.  1.
         11    1    3    3    0    0 -0.32204577781E+02 -0.15384460209E+02 -0.61394084366E+02  0.71014435441E+02  0.00000000000E+00 0. -1.
</event>
<event>
 7    1  0.6610867E-006  0.1033989E+03  0.7561462E-02  0.1273307E+00
          2   -1    0    0  501    0  0.00000000000E+00  0.00000000000E+00  0.10991135138E+04  0.10991135138E+04  0.00000000000E+00 0. -1.
         -2   -1    0    0    0  501 -0.00000000000E+00 -0.00000000000E+00 -0.16263444033E+02  0.16263444033E+02  0.00000000000E+00 0.  1.
         23    2    1    2    0    0 -0.27434709999E+01  0.19568988726E+02  0.16197046292E+03  0.18583059810E+03  0.88927545664E+02 0.  0.
          5    1    1    2  502    0 -0.46280902000E+02  0.22862651772E+02  0.23727254781E+03  0.24285871835E+03  0.41800000000E+01 0.  1.
         -5    1    1    2    0  502  0.49024373000E+02 -0.42431640498E+02  0.68360705905E+03  0.68668764139E+03  0.41800000000E+01 0.  1.
        -11    1    3    3    0    0  0.31647672163E+02 -0.20134680217E+02  0.53854120749E+02  0.65629618484E+02  0.00000000000E+00 0.  1.
         11    1    3    3    0    0 -0.34391143162E+02  0.39703668943E+02  0.10811634217E+03  0.12020097961E+03  0.00000000000E+00 0. -1.
</event>
<event>
 7    1  0.6610867E-006  0.7537847E+02  0.7561462E-02  0.1342703E+00
         -2   -1    0    0    0  501 -0.00000000000E+00  0.00000000000E+00  0.31687390595E+03  0.31687390595E+03  0.00000000000E+00 0.  1.
          2   -1    0    0  501    0  0.00000000000E+00 -0.00000000000E+00 -0.35360915917E+03  0.35360915917E+03  0.00000000000E+00 0. -1.
         23    2    1    2    0    0 -0.32302925123E+02  0.25733202485E+02  0.29806950644E+03  0.31425035267E+03  0.90565869955E+02 0.  0.
          5    1    1    2  502    0  0.28635239641E+02 -0.32295337122E+02 -0.34217113104E+03  0.34490798928E+03  0.41800000000E+01 0. -1.
         -5    1    1    2    0  502  0.36676854819E+01  0.65621346370E+01  0.73663713714E+01  0.11324723174E+02  0.41800000000E+01 0.  1.
        -11    1    3    3    0    0 -0.30290714888E+02  0.58545542788E+02  0.18001679228E+03  0.19170590364E+03  0.00000000000E+00 0.  1.
         11    1    3    3    0    0 -0.20122102347E+01 -0.32812340303E+02  0.11805271417E+03  0.12254444903E+03  0.00000000000E+00 0. -1.
</event>
<event>
 7    1  0.6610867E-006  0.1091955E+03  0.7561462E-02  0.1262067E+00
         -2   -1    0    0    0  501 -0.00000000000E+00  0.00000000000E+00  0.17922916206E+02  0.17922916206E+02  0.00000000000E+00 0.  1.
          2   -1    0    0  501    0  0.00000000000E+00 -0.00000000000E+00 -0.82342225009E+03  0.82342225009E+03  0.00000000000E+00 0. -1.
         23    2    1    2    0    0  0.10641754306E+02  0.50026908813E+02 -0.28476993248E+03  0.30336550585E+03  0.91218293958E+02 0.  0.
          5    1    1    2  502    0  0.35844322360E+02 -0.60003475715E+02 -0.42798560688E+03  0.43367543698E+03  0.41800000000E+01 0.  1.
         -5    1    1    2    0  502 -0.46486076665E+02  0.99765669019E+01 -0.92743794528E+02  0.10430422347E+03  0.41800000000E+01 0.  1.
        -11    1    3    3    0    0  0.40435091811E+02  0.57152553416E+02 -0.15579498185E+03  0.17080248061E+03  0.00000000000E+00 0.  1.
         11    1    3    3    0    0 -0.29793337505E+02 -0.71256446024E+01 -0.12897495063E+03  0.13256302524E+03  0.00000000000E+00 0. -1.
</event>
<event>
 7    1  0.6610867E-006  0.9257031E+02  0.7561462E-02  0.1296744E+00
         -3   -1    0    0    0  501 -0.00000000000E+00  0.00000000000E+00  0.44582597567E+02  0.44582597567E+02  0.00000000000E+00 0.  1.
          3   -1    0    0  501    0  0.00000000000E+00 -0.00000000000E+00 -0.30370087487E+03  0.30370087487E+03  0.00000000000E+00 0. -1.
         23    2    1    2    0    0  0.26032850462E+02 -0.35030011505E+02 -0.12168219007E+03  0.15738805464E+03  0.89775460750E+02 0.  0.
          5    1    1    2  502    0 -0.21380059025E+01  0.54463823079E+02 -0.14823267622E+03  0.15799138518E+03  0.41800000000E+01 0. -1.
         -5    1    1    2    0  502 -0.23894844559E+02 -0.19433811575E+02  0.10796588984E+02  0.32904032618E+02  0.41800000000E+01 0. -1.
        -11    1    3    3    0    0 -0.32485026782E+02 -0.22588584137E+02 -0.41405460260E+02  0.57270701390E+02  0.00000000000E+00 0.  1.
         11    1    3    3    0    0  0.58517877244E+02 -0.12441427368E+02 -0.80276729811E+02  0.10011735325E+03  0.00000000000E+00 0. -1.
</event>
<event>
 7    1  0.6610867E-006  0.6946952E+02  0.7561462E-02  0.1361906E+00
         -1   -1    0    0    0  501 -0.00000000000E+00  0.00000000000E+00  0.12323307139E+03  0.12323307139E+03  0.00000000000E+00 0.  1.
          1   -1    0    0  501    0  0.00000000000E+00 -0.00000000000E+00 -0.11835153355E+03  0.11835153355E+03  0.00000000000E+00 0. -1.
         23    2    1    2    0    0  0.64557001327E+00  0.39049134214E+02  0.38823074895E+02  0.10621105647E+03  0.90820183486E+02 0.  0.
          5    1    1    2  502    0  0.19829063363E+02  0.58739503815E+01  0.40665751321E+02  0.45813434464E+02  0.41800000000E+01 0.  1.
         -5    1    1    2    0  502 -0.20474633377E+02 -0.44923084596E+02 -0.74607288379E+02  0.89560114006E+02  0.41800000000E+01 0.  1.
        -11    1    3    3    0    0  0.17253916651E+01  0.53637961317E+02  0.59983559974E+02  0.80486243159E+02  0.00000000000E+00 0.  1.
         11    1    3    3    0    0 -0.10798216518E+01 -0.14588827103E+02 -0.21160485079E+02  0.25724813310E+02  0.00000000000E+00 0. -1.
</event>
<event>
 7    1  0.6610867E-006  0.1367687E+03  0.7561462E-02  0.1217744E+00
         -2   -1    0    0    0  501 -0.00000000000E+00  0.00000000000E+00  0.35413174716E+02  0.35413174716E+02  0.00000000000E+00 0.  1.
          2   -1    0    0  501    0  0.00000000000E+00 -0.00000000000E+00 -0.12243374137E+04  0.12243374137E+04  0.00000000000E+00 0. -1.
         23    2    1    2    0    0 -0.68610106471E+02  0.10640445037E+03 -0.19446190102E+03  0.24948698603E+03  0.91646448279E+02 0.  0.
          5    1    1    2  502    0  0.80133523328E+02 -0.77587332056E+02 -0.40878742873E+03  0.42375206187E+03  0.41800000000E+01 0. -1.
         -5    1    1    2    0  502 -0.11523416858E+02 -0.28817118313E+02 -0.58567490922E+03  0.58651154049E+03  0.41800000000E+01 0. -1.
        -11    1    3    3    0    0 -0.53749503280E+02  0.54230763540E+02 -0.40887620964E+02  0.86612830256E+02  0.00000000000E+00 0.  1.
         11    1    3    3    0    0 -0.14860603191E+02  0.52173686829E+02 -0.15357428006E+03  0.16287415578E+03  0.00000000000E+00 0. -1.
</event>
<event>
 7    1  0.6610867E-006  0.1441976E+03  0.7561462E-02  0.1207790E+00
          1   -1    0    0  501    0  0.00000000000E+00  0.00000000000E+00  0.80299797169E+02  0.80299797169E+02  0.00000000000E+00 0. -1.
         -1   -1    0    0    0  501 -0.00000000000E+00 -0.00000000000E+00 -0.37160044156E+03  0.37160044156E+03  0.00000000000E+00 0.  1.
         23    2    1    2    0    0  0.95153979561E+02  0.29567865838E+01 -0.25951740156E+03  0.29152317301E+03  0.92592960189E+02 0.  0.
          5    1    1    2  502    0 -0.10286634652E+03  0.41893053661E+02 -0.17645018067E+02  0.11254035834E+03  0.41800000000E+01 0. -1.
         -5    1    1    2    0  502  0.77123669603E+01 -0.44849840245E+02 -0.14138224770E+02  0.47836707389E+02  0.41800000000E+01 0. -1.
        -11    1    3    3    0    0  0.74790381038E+02 -0.39411508028E+02 -0.14690418322E+03  0.16949249868E+03  0.00000000000E+00 0. -1.
         11    1    3    3    0    0  0.20363598523E+02  0.42368294612E+02 -0.11261321833E+03  0.12203067433E+03  0.00000000000E+00 0.  1.
</event>
<event>
 7    1  0.6610867E-006  0.1118738E+03  0.7561462E-02  0.1257139E+00
         -2   -1    0    0    0  501 -0.00000000000E+00  0.00000000000E+00  0.37726578712E+02  0.37726578712E+02  0.00000000000E+00 0.  1.
          2   -1    0    0  501    0  0.00000000000E+00 -0.00000000000E+00 -0.47543985218E+03  0.47543985218E+03  0.00000000000E+00 0. -1.
         23    2    1    2    0    0  0.52019743962E+02  0.59628332491E+02 -0.18502821140E+03  0.22032093841E+03  0.89689938611E+02 0.  0.
          5    1    1    2  502    0 -0.25924904236E+02 -0.95737348909E+02 -0.14021252272E+03  0.17179861630E+03  0.41800000000E+01 0. -1.
         -5    1    1    2    0  502 -0.26094839726E+02  0.36109016418E+02 -0.11247253934E+03  0.12104687618E+03  0.41800000000E+01 0. -1.
        -11    1    3    3    0    0  0.68344852031E+01  0.13634659387E+02  0.77061112843E+01  0.17087957037E+02  0.00000000000E+00 0.  1.
         11    1    3    3    0    0  0.45185258759E+02  0.45993673104E+02 -0.19273432269E+03  0.20323298137E+03  0.00000000000E+00 0. -1.
</event>
<event>
 7    1  0.6610867E-006  0.1166981E+03  0.7561462E-02  0.1248646E+00
          2   -1    0    0  501    0  0.00000000000E+00  0.00000000000E+00  0.97433837809E+03  0.97433837809E+03  0.00000000000E+00 0. -1.
         -2   -1    0    0    0  501 -0.00000000000E+00 -0.00000000000E+00 -0.18016090102E+02  0.18016090102E+02  0.00000000000E+00 0.  1.
         23    2    1    2    0    0 -0.68699467822E+02  0.30613019379E+02  0.40597526822E+03  0.42297985820E+03  0.91865489737E+02 0.  0.
          5    1    1    2  502    0  0.28732084294E+02 -0.60483339760E+02  0.13229560684E+03  0.14833531961E+03  0.41800000000E+01 0.  1.
         -5    1    1    2    0  502  0.39967383528E+02  0.29870320381E+02  0.41805141293E+03  0.42103929038E+03  0.41800000000E+01 0.  1.
        -11    1    3    3    0    0 -0.34886218398E+02  0.61325980674E+02  0.20246976660E+03  0.21441065862E+03  0.00000000000E+00 0. -1.
         11    1    3    3    0    0 -0.33813249424E+02 -0.30712961295E+02  0.20350550161E+03  0.20856919958E+03  0.00000000000E+00 0.  1.
</event>
<event>
 7    1  0.6610867E-006  0.1061511E+03  0.7561462E-02  0.1267868E+00
         -1   -1    0    0    0  501 -0.00000000000E+00  0.00000000000E+00  0.16468732270E+03  0.16468732270E+03  0.00000000000E+00 0.  1.
          1   -1    0    0  501    0  0.00000000000E+00 -0.00000000000E+00 -0.77438698881E+02  0.77438698881E+02  0.00000000000E+00 0. -1.
         23    2    1    2    0    0 -0.11672949710E+02  0.10141734032E+02  0.63416902437E+02  0.11385386231E+03  0.93283899593E+02 0.  0.
          5    1    1    2  502    0  0.16698360120E+02 -0.66115890026E+02  0.22403678451E+02  0.71899536527E+02  0.41800000000E+01 0.  1.
         -5    1    1    2    0  502 -0.50254104099E+01  0.55974155994E+02  0.14280429319E+01  0.56372622749E+02  0.41800000000E+01 0.  1.
        -11    1    3    3    0    0  0.32635233150E+02  0.24766039930E+02  0.85882716546E+01  0.41858972593E+02  0.00000000000E+00 0. -1.
         11    1    3    3    0    0 -0.44308182860E+02 -0.14624305898E+02  0.54828630782E+02  0.71994889713E+02  0.00000000000E+00 0.  1.
</event>
<event>
 7    1  0.6610867E-006  0.3720140E+03  0.7561462E-02  0.1053926E+00
         -2   -1    0    0    0  501 -0.00000000000E+00  0.00000000000E+00  0.20213664528E+03  0.20213664528E+03  0.00000000000E+00 0.  1.
          2   -1    0    0  501    0  0.00000000000E+00 -0.00000000000E+00 -0.76308323789E+03  0.76308323789E+03  0.00000000000E+00 0. -1.
         23    2    1    2    0    0 -0.27086540355E+03  0.24699806146E+03 -0.38911415779E+03  0.54148485967E+03  0.86138935763E+02 0.  0.
          5    1    1    2  502    0  0.19179270338E+03 -0.13972006263E+03 -0.48763418647E+02  0.24228388384E+03  0.41800000000E+01 0. -1.
         -5    1    1    2    0  502  0.79072700169E+02 -0.10727799883E+03 -0.12306901617E+03  0.18145113967E+03  0.41800000000E+01 0. -1.
        -11    1    3    3    0    0 -0.10115540586E+03  0.48416188302E+02 -0.85882187549E+02  0.14125258781E+03  0.00000000000E+00 0. -1.
         11    1    3    3    0    0 -0.16970999769E+03  0.19858187315E+03 -0.30323197024E+03  0.40023227186E+03  0.00000000000E+00 0.  1.
</event>
<event>
 7    1  0.6610867E-006  0.1236646E+03  0.7561462E-02  0.1237171E+00
         -2   -1    0    0    0  501 -0.00000000000E+00  0.00000000000E+00  0.30080127059E+03  0.30080127059E+03  0.00000000000E+00 0.  1.
          2   -1    0    0  501    0  0.00000000000E+00 -0.00000000000E+00 -0.70451318463E+02  0.70451318463E+02  0.00000000000E+00 0. -1.
         23    2    1    2    0    0  0.88274088556E+02  0.27030925264E+02  0.71743727051E+02  0.14915575244E+03  0.92613662505E+02 0.  0.
          5    1    1    2  502    0 -0.11441460672E+02  0.36367198614E+02  0.45890455945E+01  0.38626569830E+02  0.41800000000E+01 0.  1.
         -5    1    1    2    0  502 -0.76832627885E+02 -0.63398123879E+02  0.15401717948E+03  0.18347026678E+03  0.41800000000E+01 0.  1.
        -11    1    3    3    0    0  0.12779238538E+02 -0.17467654465E+02 -0.14619658049E+02  0.26118236762E+02  0.00000000000E+00 0. -1.
         11    1    3    3    0    0  0.75494850019E+02  0.44498579729E+02  0.86363385100E+02  0.12303751567E+03  0.00000000000E+00 0.  1.
</event>
<event>
 7    1  0.6610867E-006  0.1248459E+03  0.7561462E-02  0.1235310E+00
         -1   -1    0    0    0  501 -0.00000000000E+00  0.00000000000E+00  0.53679856698E+02  0.53679856698E+02  0.00000000000E+00 0.  1.
          1   -1    0    0  501    0  0.00000000000E+00 -0.00000000000E+00 -0.30132816193E+03  0.30132816193E+03  0.00000000000E+00 0. -1.
         23    2    1    2    0    0  0.59537959365E+02  0.18693971861E+02 -0.87679557662E+02  0.14257499176E+03  0.93518395266E+02 0.  0.
          5    1    1    2  502    0 -0.98027536315E+02 -0.22823623083E+02 -0.11161357791E+03  0.15035085241E+03  0.41800000000E+01 0.  1.
         -5    1    1    2    0  502  0.38489576950E+02  0.41296512228E+01 -0.48355169657E+02  0.62082174459E+02  0.41800000000E+01 0.  1.
        -11    1    3    3    0    0  0.10002652812E+02 -0.35333025842E+02 -0.16007480328E+02  0.40058896701E+02  0.00000000000E+00 0.  1.
         11    1    3    3    0    0  0.49535306553E+02  0.54026997703E+02 -0.71672077334E+02  0.10251609506E+03  0.00000000000E+00 0. -1.
</event>
<event>
 7    1  0.6610867E-006  0.1997267E+03  0.7561462E-02  0.1149970E+00
          1   -1    0    0  501    0  0.00000000000E+00  0.00000000000E+00  0.11491134977E+03  0.11491134977E+03  0.00000000000E+00 0. -1.
         -1   -1    0    0    0  501 -0.00000000000E+00 -0.00000000000E+00 -0.37606408635E+03  0.37606408635E+03  0.00000000000E+00 0.  1.
         23    2    1    2    0    0  0.17638352673E+03  0.64594263749E+01 -0.11389702456E+03  0.22927883612E+03  0.91887865357E+02 0.  0.
          5    1    1    2  502    0 -0.68508059613E+02 -0.49771337317E+02 -0.15934881188E+02  0.86266639489E+02  0.41800000000E+01 0. -1.
         -5    1    1    2    0  502 -0.10787546711E+03  0.43311910942E+02 -0.13132083083E+03  0.17542996051E+03  0.41800000000E+01 0. -1.
        -11    1    3    3    0    0  0.68961191960E+02 -0.41741153353E+02 -0.37348298725E+02  0.88841799269E+02  0.00000000000E+00 0. -1.
         11    1    3    3    0    0  0.10742233477E+03  0.48200579727E+02 -0.76548725837E+02  0.14043703685E+03  0.00000000000E+00 0.  1.
</event>
<event>
 7    1  0.6610867E-006  0.1471205E+03  0.7561462E-02  0.1204057E+00
         -1   -1    0    0    0  501 -0.00000000000E+00  0.00000000000E+00  0.16844878878E+03  0.16844878878E+03  0.00000000000E+00 0.  1.
          1   -1    0    0  501    0  0.00000000000E+00 -0.00000000000E+00 -0.19335632500E+03  0.19335632500E+03  0.00000000000E+00 0. -1.
         23    2    1    2    0    0  0.12687432794E+03  0.19754282076E+02  0.46755178153E+02  0.16875188471E+03  0.99014267447E+02 0.  0.
          5    1    1    2  502    0 -0.12187351701E+03 -0.11688518947E+02 -0.10299619575E+03  0.16004831883E+03  0.41800000000E+01 0. -1.
         -5    1    1    2    0  502 -0.50008109284E+01 -0.80657631289E+01  0.31333481372E+02  0.33004910236E+02  0.41800000000E+01 0. -1.
        -11    1    3    3    0    0  0.88407237502E+02 -0.34465330314E+02  0.19323530307E+02  0.96835414286E+02  0.00000000000E+00 0.  1.
         11    1    3    3    0    0  0.38467090437E+02  0.54219612390E+02  0.27431647846E+02  0.71916470422E+02  0.00000000000E+00 0. -1.
</event>
<event>
 7    1  0.6610867E-006  0.9841791E+02  0.7561462E-02  0.1283658E+00
          3   -1    0    0  501    0  0.00000000000E+00  0.00000000000E+00  0.35106822919E+03  0.35106822919E+03  0.00000000000E+00 0. -1.
         -3   -1    0    0    0  501 -0.00000000000E+00 -0.00000000000E+00 -0.55391068309E+02  0.55391068309E+02  0.00000000000E+00 0.  1.
         23    2    1    2    0    0  0.82210518932E+02 -0.13440509362E+01  0.87873153387E+02  0.15035323641E+03  0.90133394017E+02 0.  0.
          5    1    1    2  502    0 -0.32481642045E+02 -0.25390506910E+00 -0.87267361905E+01  0.33893212628E+02  0.41800000000E+01 0.  1.
         -5    1    1    2    0  502 -0.49728876887E+02  0.15979560053E+01  0.21653074368E+03  0.22221284846E+03  0.41800000000E+01 0.  1.
        -11    1    3    3    0    0  0.96002188205E+02  0.96943333381E+01  0.90743179226E+02  0.13245650160E+03  0.00000000000E+00 0.  1.
         11    1    3    3    0    0 -0.13791669273E+02 -0.11038384274E+02 -0.28700258385E+01  0.17896734815E+02  0.00000000000E+00 0. -1.
</event>
<event>
 7    1  0.6610867E-006  0.1268787E+03  0.7561462E-02  0.1232162E+00
         -1   -1    0    0    0  501 -0.00000000000E+00  0.00000000000E+00  0.56417099922E+02  0.56417099922E+02  0.00000000000E+00 0.  1.
          1   -1    0    0  501    0  0.00000000000E+00 -0.00000000000E+00 -0.48427203049E+03  0.48427203049E+03  0.00000000000E+00 0. -1.
         23    2    1    2    0    0  0.66194456950E+02  0.10667465463E+03 -0.20400443081E+03  0.25517470089E+03  0.87949599828E+02 0.  0.
          5    1    1    2  502    0 -0.95009070481E+01 -0.35585487483E+02 -0.18127421047E+03  0.18502541970E+03  0.41800000000E+01 0.  1.
         -5    1    1    2    0  502 -0.56693549902E+02 -0.71089167146E+02 -0.42576289283E+02  0.10048900982E+03  0.41800000000E+01 0.  1.
        -11    1    3    3    0    0  0.38003125825E+02  0.56012959470E+02 -0.34386503018E+02  0.75921807083E+02  0.00000000000E+00 0.  1.
         11    1    3    3    0    0  0.28191331125E+02  0.50661695159E+02 -0.16961792780E+03  0.17925289380E+03  0.00000000000E+00 0. -1.
</event>
<event>
 7    1  0.6610867E-006  0.1713733E+03  0.7561462E-02  0.1176423E+00
          2   -1    0    0  501    0  0.00000000000E+00  0.00000000000E+00  0.72120503367E+03  0.72120503367E+03  0.00000000000E+00 0. -1.
         -2   -1    0    0    0  501 -0.00000000000E+00 -0.00000000000E+00 -0.51919565751E+02  0.51919565751E+02  0.00000000000E+00 0.  1.
         23    2    1    2    0    0 -0.12030719940E+03  0.10268819456E+03  0.19318025423E+03  0.25607140511E+03  0.56879401916E+02 0.  0.
          5    1    1    2  502    0  0.45855586956E+02 -0.97987142318E+02  0.38113833268E+03  0.39621725853E+03  0.41800000000E+01 0. -1.
         -5    1    1    2    0  502  0.74451612448E+02 -0.47010522379E+01  0.94966881004E+02  0.12083593578E+03  0.41800000000E+01 0. -1.
        -11    1    3    3    0    0 -0.46368831077E+02  0.25677292247E+02  0.29523245840E+02  0.60671359615E+02  0.00000000000E+00 0. -1.
         11    1    3    3    0    0 -0.73938368327E+02  0.77010902310E+02  0.16365700839E+03  0.19540004550E+03  0.00000000000E+00 0.  1.
</event>
<event>
 7    1  0.6610867E-006  0.1308115E+03  0.7561462E-02  0.1226257E+00
          2   -1    0    0  501    0  0.00000000000E+00  0.00000000000E+00  0.83401142363E+02  0.83401142363E+02  0.00000000000E+00 0. -1.
         -2   -1    0    0    0  501 -0.00000000000E+00 -0.00000000000E+00 -0.22796688566E+03  0.22796688566E+03  0.00000000000E+00 0.  1.
         23    2    1    2    0    0 -0.77651307471E+02  0.36059646226E+02 -0.77242856776E+02  0.14550766809E+03  0.88746824802E+02 0.  0.
          5    1    1    2  502    0 -0.12492637889E+02  0.25800141193E+02  0.11339973772E+02  0.31109173762E+02  0.41800000000E+01 0.  1.
         -5    1    1    2    0  502  0.90143945360E+02 -0.61859787418E+02 -0.78662860294E+02  0.13475118617E+03  0.41800000000E+01 0.  1.
        -11    1    3    3    0    0 -0.12042791681E+02 -0.28660781448E+02 -0.17436863297E+02  0.35644262179E+02  0.00000000000E+00 0. -1.
         11    1    3    3    0    0 -0.65608515790E+02  0.64720427674E+02 -0.59805993480E+02  0.10986340591E+03  0.00000000000E+00 0.  1.
</event>
<event>
 7    1  0.6610867E-006  0.1077978E+03  0.7561462E-02  0.1264703E+00
          3   -1    0    0  501    0  0.00000000000E+00  0.00000000000E+00  0.53706342221E+02  0.53706342221E+02  0.00000000000E+00 0. -1.
         -3   -1    0    0    0  501 -0.00000000000E+00 -0.00000000000E+00 -0.53467448321E+03  0.53467448321E+03  0.00000000000E+00 0.  1.
         23    2    1    2    0    0  0.29854590394E+01  0.58502465091E+02 -0.43358518562E+03  0.44801439514E+03  0.96381189436E+02 0.  0.
          5    1    1    2  502    0 -0.36772122292E+02 -0.69519782385E+00  0.22641960717E+02  0.43391278651E+02  0.41800000000E+01 0. -1.
         -5    1    1    2    0  502  0.33786663253E+02 -0.57807267267E+02 -0.70024916089E+02  0.96975151642E+02  0.41800000000E+01 0.  1.
        -11    1    3    3    0    0 -0.29786007492E+02 -0.13258104446E+02 -0.15969355575E+03  0.16298777661E+03  0.00000000000E+00 0. -1.
         11    1    3    3    0    0  0.32771466532E+02  0.71760569538E+02 -0.27389162986E+03  0.28502661853E+03  0.00000000000E+00 0.  1.
</event>
<event>
 7    1  0.6610867E-006  0.1183169E+03  0.7561462E-02  0.1245900E+00
         -1   -1    0    0    0  501 -0.00000000000E+00  0.00000000000E+00  0.16347130381E+03  0.16347130381E+03  0.00000000000E+00 0.  1.
          1   -1    0    0  501    0  0.00000000000E+00 -0.00000000000E+00 -0.96964481927E+02  0.96964481927E+02  0.00000000000E+00 0. -1.
         23    2    1    2    0    0 -0.45122609152E+02 -0.34015869759E+02  0.60928360469E+02  0.12306318539E+03  0.90769781513E+02 0.  0.
          5    1    1    2  502    0  0.63271929994E+02  0.69143314831E+02 -0.10669056043E+02  0.94421587933E+02  0.41800000000E+01 0. -1.
         -5    1    1    2    0  502 -0.18149320841E+02 -0.35127445072E+02  0.16247517460E+02  0.42951012420E+02  0.41800000000E+01 0. -1.
        -11    1    3    3    0    0  0.23648675059E+02  0.47378572488E+01  0.29483779191E+02  0.38091998619E+02  0.00000000000E+00 0.  1.
         11    1    3    3    0    0 -0.68771284211E+02 -0.38753727008E+02  0.31444581278E+02  0.84971186768E+02  0.00000000000E+00 0. -1.
</event>
<event>
 7    1  0.6610867E-006  0.1062211E+03  0.7561462E-02  0.1267732E+00
         -2   -1    0    0    0  501 -0.00000000000E+00  0.00000000000E+00  0.49891815283E+02  0.49891815283E+02  0.00000000000E+00 0.  1.
          2   -1    0    0  501    0  0.00000000000E+00 -0.00000000000E+00 -0.29239111983E+03  0.29239111983E+03  0.00000000000E+00 0. -1.
         23    2    1    2    0    0  0.13009271614E+02 -0.48333085659E+02 -0.85456558054E+02  0.13536371195E+03  0.92277748564E+02 0.  0.
          5    1    1    2  502    0  0.47766068848E+02  0.54572437223E+02 -0.96698762358E+02  0.12094573692E+03  0.41800000000E+01 0.  1.
         -5    1    1    2    0  502 -0.60775340462E+02 -0.62393515639E+01 -0.60343984134E+02  0.85973486246E+02  0.41800000000E+01 0.  1.
        -11    1    3    3    0    0 -0.11332611300E+02 -0.52634916145E+02 -0.94730629035E+02  0.10896217029E+03  0.00000000000E+00 0. -1.
         11    1    3    3    0    0  0.24341882915E+02  0.43018304855E+01  0.92740709813E+01  0.26401541658E+02  0.00000000000E+00 0.  1.
</event>
<event>
 7    1  0.6610867E-006  0.9785180E+02  0.7561462E-02  0.1284879E+00
         -3   -1    0    0    0  501 -0.00000000000E+00  0.00000000000E+00  0.35419268360E+03  0.35419268360E+03  0.00000000000E+00 0.  1.
          3   -1    0    0  501    0  0.00000000000E+00 -0.00000000000E+00 -0.47957448979E+02  0.47957448979E+02  0.00000000000E+00 0. -1.
         23    2    1    2    0    0 -0.56047057225E+02 -0.52724429939E+02  0.12735902932E+03  0.17362776383E+03  0.89471447332E+02 0.  0.
          5    1    1    2  502    0  0.27209811947E+02  0.18068093889E+02 -0.99057859457E+01  0.34386434509E+02  0.41800000000E+01 0. -1.
         -5    1    1    2    0  502  0.28837245278E+02  0.34656336050E+02  0.18878199126E+03  0.19413593425E+03  0.41800000000E+01 0.  1.
        -11    1    3    3    0    0  0.17026042398E+02 -0.39800613123E+02  0.39264491104E+02  0.58443777995E+02  0.00000000000E+00 0.  1.
         11    1    3    3    0    0 -0.73073099623E+02 -0.12923816816E+02  0.88094538213E+02  0.11518398583E+03  0.00000000000E+00 0. -1.
</event>
<event>
 7    1  0.6610867E-006  0.1305632E+03  0.7561462E-02  0.1226622E+00
          1   -1    0    0  501    0  0.00000000000E+00  0.00000000000E+00  0.57441568664E+02  0.57441568664E+02  0.00000000000E+00 0. -1.
         -1   -1    0    0    0  501 -0.00000000000E+00 -0.00000000000E+00 -0.40311657025E+03  0.40311657025E+03  0.00000000000E+00 0.  1.
         23    2    1    2    0    0  0.10431454500E+03  0.17731348114E+02 -0.13622258288E+03  0.19463762024E+03  0.90173644267E+02 0.  0.
          5    1    1    2  502    0 -0.52944508776E+02  0.36624428737E+02 -0.29376704045E+02  0.70886761320E+02  0.41800000000E+01 0.  1.
         -5    1    1    2    0  502 -0.51370036223E+02 -0.54355776852E+02 -0.18007571465E+03  0.19503375735E+03  0.41800000000E+01 0.  1.
        -11    1    3    3    0    0  0.91003145976E+02 -0.93990591628E+01 -0.52168445356E+02  0.10531600819E+03  0.00000000000E+00 0. -1.
         11    1    3    3    0    0  0.13311399022E+02  0.27130407277E+02 -0.84054137529E+02  0.89321612047E+02  0.00000000000E+00 0.  1.
</event>
<event>
 7    1  0.6610867E-006  0.5260819E+02  0.7561462E-02  0.1431761E+00
          2   -1    0    0  501    0  0.00000000000E+00  0.00000000000E+00  0.41077397588E+03  0.41077397588E+03  0.00000000000E+00 0. -1.
         -2   -1    0    0    0  501 -0.00000000000E+00 -0.00000000000E+00 -0.33376345612E+02  0.33376345612E+02  0.00000000000E+00 0.  1.
         23    2    1    2    0    0  0.19249844881E+02 -0.24549744872E+02  0.15625151915E+03  0.18304718683E+03  0.90102657402E+02 0.  0.
          5    1    1    2  502    0 -0.21685038325E+02  0.23183291952E+01  0.23394637741E+03  0.23499786263E+03  0.41800000000E+01 0. -1.
         -5    1    1    2    0  502  0.24351934436E+01  0.22231415677E+02 -0.12800266296E+02  0.26105272022E+02  0.41800000000E+01 0.  1.
        -11    1    3    3    0    0 -0.17109176905E+02 -0.14783277684E+02  0.29737282221E+00  0.22613218790E+02  0.00000000000E+00 0. -1.
         11    1    3    3    0    0  0.36359021786E+02 -0.97664671873E+01  0.15595414632E+03  0.16043396804E+03  0.00000000000E+00 0.  1.
</event>
<event>
 7    1  0.6610867E-006  0.1123327E+03  0.7561462E-02  0.1256310E+00
          1   -1    0    0  501    0  0.00000000000E+00  0.00000000000E+00  0.13577720697E+04  0.13577720697E+04  0.00000000000E+00 0. -1.
         -1   -1    0    0    0  501 -0.00000000000E+00 -0.00000000000E+00 -0.19468325837E+02  0.19468325837E+02  0.00000000000E+00 0.  1.
         23    2    1    2    0    0 -0.48090651047E+02  0.18388290612E+02  0.15654180910E+03  0.18776141237E+03  0.89989832912E+02 0.  0.
          5    1    1    2  502    0 -0.28593042512E+02  0.30577309444E+02  0.47798777521E+03  0.47983572146E+03  0.41800000000E+01 0.  1.
         -5    1    1    2    0  502  0.76683693559E+02 -0.48965600056E+02  0.70377415959E+03  0.70964326176E+03  0.41800000000E+01 0.  1.
        -11    1    3    3    0    0 -0.28643520876E+02 -0.28712402393E+02  0.27441630015E+02  0.48968320343E+02  0.00000000000E+00 0.  1.
         11    1    3    3    0    0 -0.19447130171E+02  0.47100693005E+02  0.12910017908E+03  0.13879309202E+03  0.00000000000E+00 0. -1.
</event>
<event>
 7    1  0.6610867E-006  0.7723250E+02  0.7561462E-02  0.1337094E+00
          1   -1    0    0  501    0  0.00000000000E+00  0.00000000000E+00  0.25107887495E+03  0.25107887495E+03  0.00000000000E+00 0. -1.
         -1   -1    0    0    0  501 -0.00000000000E+00 -0.00000000000E+00 -0.46733183245E+02  0.46733183245E+02  0.00000000000E+00 0.  1.
         23    2    1    2    0    0 -0.12176339552E+02 -0.36909957831E+01  0.75101915818E+02  0.11748324175E+03  0.89443432619E+02 0.  0.
          5    1    1    2  502    0 -0.18510631126E+02 -0.32587164816E+02  0.12710514433E+03  0.13258113324E+03  0.41800000000E+01 0. -1.
         -5    1    1    2    0  502  0.30686970678E+02  0.36278160599E+02  0.21386315493E+01  0.47747683197E+02  0.41800000000E+01 0. -1.
        -11    1    3    3    0    0 -0.34595958420E+02 -0.21229782690E+02  0.38700400585E+01  0.40774516822E+02  0.00000000000E+00 0.  1.
         11    1    3    3    0    0  0.22419618868E+02  0.17538786907E+02  0.71231875760E+02  0.76708724931E+02  0.00000000000E+00 0. -1.
</event>
<event>
 7    1  0.6610867E-006  0.1119534E+03  0.7561462E-02  0.1256995E+00
          2   -1    0    0  501    0  0.00000000000E+00  0.00000000000E+00  0.23656749784E+03  0.23656749784E+03  0.00000000000E+00 0. -1.
         -2   -1    0    0    0  501 -0.00000000000E+00 -0.00000000000E+00 -0.59552981791E+02  0.59552981791E+02  0.00000000000E+00 0.  1.
         23    2    1    2    0    0  0.10998907890E+02 -0.46965363090E+02  0.68460814290E+02  0.12361397277E+03  0.90921998794E+02 0.  0.
          5    1    1    2  502    0  0.54608481647E+02  0.95067252973E+01  0.63715410460E+02  0.84555248352E+02  0.41800000000E+01 0. -1.
         -5    1    1    2    0  502 -0.65607389537E+02  0.37458637793E+02  0.44838291294E+02  0.87951258510E+02  0.41800000000E+01 0. -1.
        -11    1    3    3    0    0 -0.28575089927E+02  0.32074292785E+01 -0.15863729482E+01  0.28798262900E+02  0.00000000000E+00 0.  1.
         11    1    3    3    0    0  0.39573997817E+02 -0.50172792369E+02  0.70047187238E+02  0.94815709866E+02  0.00000000000E+00 0. -1.
</event>
<event>
 7    1  0.6610867E-006  0.1067602E+03  0.7561462E-02  0.1266690E+00
          2   -1    0    0  501    0  0.00000000000E+00  0.00000000000E+00  0.25836400334E+03  0.25836400334E+03  0.00000000000E+00 0. -1.
         -2   -1    0    0    0  501 -0.00000000000E+00 -0.00000000000E+00 -0.69756268104E+02  0.69756268104E+02  0.00000000000E+00 0.  1.
         23    2    1    2    0    0 -0.43115052355E+02 -0.35326058094E+02  0.16832892666E+02  0.10845979473E+03  0.91505970725E+02 0.  0.
          5    1    1    2  502    0  0.58591652691E+02 -0.27811787015E+02  0.11992285111E+03  0.13640175908E+03  0.41800000000E+01 0.  1.
         -5    1    1    2    0  502 -0.15476600336E+02  0.63137845109E+02  0.51851991463E+02  0.83258717631E+02  0.41800000000E+01 0.  1.
        -11    1    3    3    0    0  0.16179321526E+02 -0.89640910546E+01  0.36275648455E+02  0.40719136095E+02  0.00000000000E+00 0. -1.
         11    1    3    3    0    0 -0.59294373881E+02 -0.26361967039E+02 -0.19442755789E+02  0.67740658639E+02  0.00000000000E+00 0.  1.
</event>
<event>
 7    1  0.6610867E-006  0.1352550E+03  0.7561462E-02  0.1219860E+00
         -2   -1    0    0    0  501 -0.00000000000E+00  0.00000000000E+00  0.24552526248E+02  0.24552526248E+02  0.00000000000E+00 0.  1.
          2   -1    0    0  501    0  0.00000000000E+00 -0.00000000000E+00 -0.81450815288E+03  0.81450815288E+03  0.00000000000E+00 0. -1.
         23    2    1    2    0    0 -0.61516291197E+02 -0.60441826955E+02 -0.26902784515E+03  0.29642768592E+03  0.89754793672E+02 0.  0.
          5    1    1    2  502    0 -0.33834310054E+02  0.42634311567E+02 -0.17252591676E+03  0.18095609803E+03  0.41800000000E+01 0.  1.
         -5    1    1    2    0  502  0.95350601251E+02  0.17807515389E+02 -0.34840186472E+03  0.36167689518E+03  0.41800000000E+01 0.  1.
        -11    1    3    3    0    0 -0.31223329406E+02 -0.77860864070E+02 -0.14445225155E+03  0.16704389672E+03  0.00000000000E+00 0.  1.
         11    1    3    3    0    0 -0.30292961791E+02  0.17419037115E+02 -0.12457559360E+03  0.12938378920E+03  0.00000000000E+00 0. -1.
</event>
<event>
 7    1  0.6610867E-006  0.1009938E+03  0.7561462E-02  0.1278220E+00
         -3   -1    0    0    0  501 -0.00000000000E+00  0.00000000000E+00  0.14181395807E+03  0.14181395807E+03  0.00000000000E+00 0. -1.
          3   -1    0    0  501    0  0.00000000000E+00 -0.00000000000E+00 -0.10097892254E+03  0.10097892254E+03  0.00000000000E+00 0.  1.
         23    2    1    2    0    0  0.85642864746E+01 -0.36269383512E+02  0.51836049656E+02  0.11180435819E+03  0.91784657118E+02 0.  0.
          5    1    1    2  502    0 -0.59744054085E+02  0.31868914479E+02 -0.32403696600E+02  0.75182788336E+02  0.41800000000E+01 0. -1.
         -5    1    1    2    0  502  0.51179767610E+02  0.44004690326E+01  0.21402682468E+02  0.55805734089E+02  0.41800000000E+01 0. -1.
        -11    1    3    3    0    0  0.18658960654E+00 -0.58681093938E+02  0.62392785673E+02  0.85652584931E+02  0.00000000000E+00 0. -1.
         11    1    3    3    0    0  0.83776968681E+01  0.22411710426E+02 -0.10556736017E+02  0.26151773255E+02  0.00000000000E+00 0.  1.
</event>
<event>
 7    1  0.6610867E-006  0.1095251E+03  0.7561462E-02  0.1261452E+00
         -1   -1    0    0    0  501 -0.00000000000E+00  0.00000000000E+00  0.46675434067E+02  0.46675434067E+02  0.00000000000E+00 0.  1.
          1   -1    0    0  501    0  0.00000000000E+00 -0.00000000000E+00 -0.36003216282E+03  0.36003216282E+03  0.00000000000E+00 0. -1.
         23    2    1    2    0    0  0.47039485034E+02 -0.51156759492E+02 -0.11786082162E+03  0.16443445408E+03  0.91201914570E+02 0.  0.
          5    1    1    2  502    0 -0.24864595406E+02  0.92141186919E+02 -0.14277722355E+03  0.17178781795E+03  0.41800000000E+01 0. -1.
         -5    1    1    2    0  502 -0.22174889628E+02 -0.40984427427E+02 -0.52718683583E+02  0.70485324858E+02  0.41800000000E+01 0. -1.
        -11    1    3    3    0    0  0.11240544956E+01 -0.22677092385E+02 -0.10692382709E+03  0.10930790830E+03  0.00000000000E+00 0. -1.
         11    1    3    3    0    0  0.45915430538E+02 -0.28479667106E+02 -0.10936994530E+02  0.55126545778E+02  0.00000000000E+00 0.  1.
</event>
<event>
 7    1  0.6610867E-006  0.1032634E+03  0.7561462E-02  0.1273579E+00
         -2   -1    0    0    0  501 -0.00000000000E+00  0.00000000000E+00  0.13750855270E+02  0.13750855270E+02  0.00000000000E+00 0.  1.
          2   -1    0    0  501    0  0.00000000000E+00 -0.00000000000E+00 -0.88934001631E+03  0.88934001631E+03  0.00000000000E+00 0. -1.
         23    2    1    2    0    0  0.16733165221E+02 -0.17168514834E+02 -0.35483914032E+03  0.36698820678E+03  0.90524978264E+02 0.  0.
          5    1    1    2  502    0 -0.60811812713E+02  0.29215934027E+02 -0.17993801256E+03  0.19221552521E+03  0.41800000000E+01 0.  1.
         -5    1    1    2    0  502  0.44078647491E+02 -0.12047419194E+02 -0.34081200815E+03  0.34388713959E+03  0.41800000000E+01 0.  1.
        -11    1    3    3    0    0  0.19221188636E+02  0.35472551996E+02 -0.17472829692E+03  0.17932577557E+03  0.00000000000E+00 0.  1.
         11    1    3    3    0    0 -0.24880234145E+01 -0.52641066830E+02 -0.18011084340E+03  0.18766243121E+03  0.00000000000E+00 0. -1.
</event>
<event>
 7    1  0.6610867E-006  0.9615092E+02  0.7561462E-02  0.1288605E+00
          1   -1    0    0  501    0  0.00000000000E+00  0.00000000000E+00  0.65042584482E+03  0.65042584482E+03  0.00000000000E+00 0. -1.
         -1   -1    0    0    0  501 -0.00000000000E+00 -0.00000000000E+00 -0.23811685054E+02  0.23811685054E+02  0.00000000000E+00 0.  1.
         23    2    1    2    0    0  0.39133353647E+02  0.41701315858E+02  0.17429826407E+03  0.20147487423E+03  0.83317591035E+02 0.  0.
          5    1    1    2  502    0  0.21284704753E+02 -0.14349072441E+02  0.34869855966E+03  0.34966711662E+03  0.41800000000E+01 0. -1.
         -5    1    1    2    0  502 -0.60418058400E+02 -0.27352243416E+02  0.10361733604E+03  0.12309553903E+03  0.41800000000E+01 0. -1.
        -11    1    3    3    0    0 -0.22394648366E+02 -0.45698590694E+01  0.27882034826E+02  0.36052902149E+02  0.00000000000E+00 0.  1.
         11    1    3    3    0    0  0.61528002012E+02  0.46271174927E+02  0.14641622924E+03  0.16542197208E+03  0.00000000000E+00 0. -1.
</event>
<event>
 7    1  0.6610867E-006  0.1007612E+03  0.7561462E-02  0.1278703E+00
          1   -1    0    0  501    0  0.00000000000E+00  0.00000000000E+00  0.29123215391E+03  0.29123215391E+03  0.00000000000E+00 0. -1.
         -1   -1    0    0    0  501 -0.00000000000E+00 -0.00000000000E+00 -0.62088906842E+02  0.62088906842E+02  0.00000000000E+00 0.  1.
         23    2    1    2    0    0  0.31588049848E+02  0.42238427110E+01  0.75435616806E+01  0.96849843319E+02  0.91144616339E+02 0.  0.
          5    1    1    2  502    0 -0.75278646399E+02 -0.26470098012E+02  0.13614669445E+03  0.15786366112E+03  0.41800000000E+01 0. -1.
         -5    1    1    2    0  502  0.43690596550E+02  0.22246255301E+02  0.85452990941E+02  0.98607556316E+02  0.41800000000E+01 0. -1.
        -11    1    3    3    0    0  0.43606076399E+02  0.23620082430E+02  0.35333784391E+02  0.60892318993E+02  0.00000000000E+00 0. -1.
         11    1    3    3    0    0 -0.12018026551E+02 -0.19396239719E+02 -0.27790222711E+02  0.35957524327E+02  0.00000000000E+00 0.  1.
</event>
<event>
 7    1  0.6610867E-006  0.8530222E+02  0.7561462E-02  0.1314644E+00
         -1   -1    0    0    0  501 -0.00000000000E+00  0.00000000000E+00  0.15846932329E+03  0.15846932329E+03  0.00000000000E+00 0.  1.
          1   -1    0    0  501    0  0.00000000000E+00 -0.00000000000E+00 -0.16354578874E+03  0.16354578874E+03  0.00000000000E+00 0. -1.
         23    2    1    2    0    0  0.13958203345E+02  0.11706966292E+01  0.11480386538E+03  0.14819093432E+03  0.92652164237E+02 0.  0.
          5    1    1    2  502    0  0.14651730504E+02 -0.38755725406E+02  0.33572052555E+01  0.41778256135E+02  0.41800000000E+01 0. -1.
         -5    1    1    2    0  502 -0.28609933848E+02  0.37585028777E+02 -0.12323753609E+03  0.13204592157E+03  0.41800000000E+01 0. -1.
        -11    1    3    3    0    0 -0.33137254481E+02  0.76323269898E+01  0.86313455992E+02  0.92770376387E+02  0.00000000000E+00 0.  1.
         11    1    3    3    0    0  0.47095457826E+02 -0.64616303606E+01  0.28490409389E+02  0.55420557935E+02  0.00000000000E+00 0. -1.
</event>
<event>
 7    1  0.6610867E-006  0.2423018E+03  0.7561462E-02  0.1118269E+00
          2   -1    0    0  501    0  0.00000000000E+00  0.00000000000E+00  0.12733905484E+04  0.12733905484E+04  0.00000000000E+00 0. -1.
         -2   -1    0    0    0  501 -0.00000000000E+00 -0.00000000000E+00 -0.59835626755E+02  0.59835626755E+02  0.00000000000E+00 0.  1.
         23    2    1    2    0    0  0.19360349783E+03 -0.13335453670E+03  0.36256888392E+03  0.44154747973E+03  0.90786752561E+02 0.  0.
          5    1    1    2  502    0 -0.10181918062E+03  0.98841231164E+02  0.67877887372E+03  0.69346590855E+03  0.41800000000E+01 0.  1.
         -5    1    1    2    0  502 -0.91784317208E+02  0.34513305535E+02  0.17220716402E+03  0.19821278688E+03  0.41800000000E+01 0.  1.
        -11    1    3    3    0    0  0.79262097654E+02 -0.95363362982E+02  0.13022087901E+03  0.17981693039E+03  0.00000000000E+00 0. -1.
         11    1    3    3    0    0  0.11434140017E+03 -0.37991173717E+02  0.23234800491E+03  0.26173054935E+03  0.00000000000E+00 0.  1.
</event>
<event>
 7    1  0.6610867E-006  0.1644942E+03  0.7561462E-02  0.1183714E+00
          2   -1    0    0  501    0  0.00000000000E+00  0.00000000000E+00  0.35855843555E+03  0.35855843555E+03  0.00000000000E+00 0. -1.
         -2   -1    0    0    0  501 -0.00000000000E+00 -0.00000000000E+00 -0.88708808399E+02  0.88708808399E+02  0.00000000000E+00 0.  1.
         23    2    1    2    0    0 -0.76317894313E+02 -0.98453948470E+02  0.44855751717E+02  0.16128212648E+03  0.92099320838E+02 0.  0.
          5    1    1    2  502    0  0.10373062744E+03  0.10308683423E+03  0.17049378954E+03  0.22466095151E+03  0.41800000000E+01 0.  1.
         -5    1    1    2    0  502 -0.27412733126E+02 -0.46328857625E+01  0.54500085894E+02  0.61324165958E+02  0.41800000000E+01 0.  1.
        -11    1    3    3    0    0  0.18880164764E+02 -0.36194257039E+02  0.71351465184E+01  0.41441466914E+02  0.00000000000E+00 0.  1.
         11    1    3    3    0    0 -0.95198059078E+02 -0.62259691431E+02  0.37720605199E+02  0.11984065957E+03  0.00000000000E+00 0. -1.
</event>
<event>
 7    1  0.6610867E-006  0.1000821E+03  0.7561462E-02  0.1280123E+00
          2   -1    0    0  501    0  0.00000000000E+00  0.00000000000E+00  0.37838517598E+03  0.37838517598E+03  0.00000000000E+00 0. -1.
         -2   -1    0    0    0  501 -0.00000000000E+00 -0.00000000000E+00 -0.50408860663E+02  0.50408860663E+02  0.00000000000E+00 0.  1.
         23    2    1    2    0    0 -0.98480368795E+02  0.15199606927E+02  0.14012047548E+03  0.18208563020E+03  0.59933446320E+02 0.  0.
          5    1    1    2  502    0  0.30780874342E+02 -0.21770374435E+01 -0.13422897872E+02  0.33909413215E+02  0.41800000000E+01 0.  1.
         -5    1    1    2    0  502  0.67699494453E+02 -0.13022569484E+02  0.20127873770E+03  0.21279899322E+03  0.41800000000E+01 0.  1.
        -11    1    3    3    0    0 -0.88661082646E+02  0.11243498933E+02  0.14507796520E+03  0.17039606754E+03  0.00000000000E+00 0. -1.
         11    1    3    3    0    0 -0.98192861493E+01  0.39561079943E+01 -0.49574897223E+01  0.11689562665E+02  0.00000000000E+00 0.  1.
</event>
<event>
 7    1  0.6610867E-006  0.4101973E+03  0.7561462E-02  0.1040305E+00
          1   -1    0    0  501    0  0.00000000000E+00  0.00000000000E+00  0.48692747603E+03  0.48692747603E+03  0.00000000000E+00 0. -1.
         -1   -1    0    0    0  501 -0.00000000000E+00 -0.00000000000E+00 -0.36281592030E+03  0.36281592030E+03  0.00000000000E+00 0.  1.
         23    2    1    2    0    0 -0.33573378708E+03 -0.22239924136E+03  0.80635862819E+01  0.41237186623E+03  0.88356868969E+02 0.  0.
          5    1    1    2  502    0  0.18394957393E+03  0.18282450247E+03  0.38111420310E+02  0.26216826126E+03  0.41800000000E+01 0.  1.
         -5    1    1    2    0  502  0.15178421315E+03  0.39574738886E+02  0.77936549141E+02  0.17520326884E+03  0.41800000000E+01 0.  1.
        -11    1    3    3    0    0 -0.87458520641E+02 -0.40872101426E+02  0.37152621648E+02  0.10344002515E+03  0.00000000000E+00 0. -1.
         11    1    3    3    0    0 -0.24827526644E+03 -0.18152713993E+03 -0.29089035366E+02  0.30893184108E+03  0.00000000000E+00 0.  1.
</event>
<event>
 7    1  0.6610867E-006  0.1446148E+03  0.7561462E-02  0.1207251E+00
          2   -1    0    0  501    0  0.00000000000E+00  0.00000000000E+00  0.87842932014E+03  0.87842932014E+03  0.00000000000E+00 0. -1.
         -2   -1    0    0    0  501 -0.00000000000E+00 -0.00000000000E+00 -0.30868339542E+02  0.30868339542E+02  0.00000000000E+00 0.  1.
         23    2    1    2    0    0 -0.10299055359E+02  0.12070428006E+03  0.46640821125E+03  0.49025074913E+03  0.90186383283E+02 0.  0.
          5    1    1    2  502    0 -0.28250109600E+02 -0.43376558802E+02  0.35929484236E+02  0.63150572312E+02  0.41800000000E+01 0.  1.
         -5    1    1    2    0  502  0.38549164959E+02 -0.77327721256E+02  0.34522328511E+03  0.35589633824E+03  0.41800000000E+01 0.  1.
        -11    1    3    3    0    0  0.38937807263E+02  0.37196148136E+02  0.17988093535E+03  0.18776809413E+03  0.00000000000E+00 0.  1.
         11    1    3    3    0    0 -0.49236862622E+02  0.83508131922E+02  0.28652727590E+03  0.30248265499E+03  0.00000000000E+00 0. -1.
</event>
<event>
 7    1  0.6610867E-006  0.1023049E+03  0.7561462E-02  0.1275522E+00
         -2   -1    0    0    0  501 -0.00000000000E+00  0.00000000000E+00  0.85023788406E+02  0.85023788406E+02  0.00000000000E+00 0. -1.
          2   -1    0    0  501    0  0.00000000000E+00 -0.00000000000E+00 -0.26715665324E+03  0.26715665324E+03  0.00000000000E+00 0.  1.
         23    2    1    2    0    0  0.18381244927E+02 -0.10008908306E+03 -0.48938778326E+02  0.14303104272E+03  0.87790548727E+02 0.  0.
          5    1    1    2  502    0 -0.71460530532E+01  0.54455030502E+02  0.12093343224E+02  0.56392710269E+02  0.41800000000E+01 0.  1.
         -5    1    1    2    0  502 -0.11235191874E+02  0.45634052559E+02 -0.14528742974E+03  0.15275668866E+03  0.41800000000E+01 0.  1.
        -11    1    3    3    0    0  0.15583745126E+02 -0.54835564330E+02  0.20090235147E+02  0.60443442785E+02  0.00000000000E+00 0. -1.
         11    1    3    3    0    0  0.27974998019E+01 -0.45253518732E+02 -0.69029013473E+02  0.82587599939E+02  0.00000000000E+00 0.  1.
</event>
<event>
 7    1  0.6610867E-006  0.7111995E+02  0.7561462E-02  0.1356325E+00
          2   -1    0    0  501    0  0.00000000000E+00  0.00000000000E+00  0.93482403625E+03  0.93482403625E+03  0.00000000000E+00 0. -1.
         -2   -1    0    0    0  501 -0.00000000000E+00 -0.00000000000E+00 -0.20307869428E+02  0.20307869428E+02  0.00000000000E+00 0.  1.
         23    2    1    2    0    0 -0.16795472416E+02  0.34133950085E+02  0.14939947730E+03  0.17892474040E+03  0.90811037138E+02 0.  0.
          5    1    1    2  502    0 -0.22294031682E+01 -0.18136090397E+02  0.74127413956E+03  0.74151109931E+03  0.41800000000E+01 0. -1.
         -5    1    1    2    0  502  0.19024875585E+02 -0.15997859687E+02  0.23842549960E+02  0.34696065976E+02  0.41800000000E+01 0. -1.
        -11    1    3    3    0    0 -0.14446725745E+02  0.65378913062E+02  0.10655431684E+03  0.12584487512E+03  0.00000000000E+00 0.  1.
         11    1    3    3    0    0 -0.23487466719E+01 -0.31244962977E+02  0.42845160467E+02  0.53079865277E+02  0.00000000000E+00 0. -1.
</event>
<event>
 7    1  0.6610867E-006  0.2758335E+03  0.7561462E-02  0.1097987E+00
         -1   -1    0    0    0  501 -0.00000000000E+00  0.00000000000E+00  0.61839157445E+02  0.61839157445E+02  0.00000000000E+00 0.  1.
          1   -1    0    0  501    0  0.00000000000E+00 -0.00000000000E+00 -0.13834501894E+04  0.13834501894E+04  0.00000000000E+00 0. -1.
         23    2    1    2    0    0 -0.18409406040E+03 -0.18201797111E+03 -0.44101664409E+03  0.51894562134E+03  0.88248017929E+02 0.  0.
          5    1    1    2  502    0  0.35810071720E+02 -0.15926810386E+02 -0.14562762487E+03  0.15086716691E+03  0.41800000000E+01 0.  1.
         -5    1    1    2    0  502  0.14828398868E+03  0.19794478149E+03 -0.73496676298E+03  0.77547655858E+03  0.41800000000E+01 0.  1.
        -11    1    3    3    0    0 -0.85385009194E+02 -0.46472838619E+02 -0.22794004689E+03  0.24780433713E+03  0.00000000000E+00 0. -1.
         11    1    3    3    0    0 -0.98709051206E+02 -0.13554513249E+03 -0.21307659720E+03  0.27114128421E+03  0.00000000000E+00 0.  1.
</event>
<event>
 7    1  0.6610867E-006  0.9531560E+02  0.7561462E-02  0.1290467E+00
         -3   -1    0    0    0  501 -0.00000000000E+00  0.00000000000E+00  0.15893162149E+03  0.15893162149E+03  0.00000000000E+00 0.  1.
          3   -1    0    0  501    0  0.00000000000E+00 -0.00000000000E+00 -0.10744285912E+03  0.10744285912E+03  0.00000000000E+00 0. -1.
         23    2    1    2    0    0  0.53417297481E+02  0.53860864659E+01  0.73896070769E+02  0.12842034683E+03  0.90270363953E+02 0.  0.
          5    1    1    2  502    0 -0.40477643538E+02  0.39261806836E+02  0.33030169735E+02  0.65485827590E+02  0.41800000000E+01 0. -1.
         -5    1    1    2    0  502 -0.12939653943E+02 -0.44647893302E+02 -0.55437478133E+02  0.72468306191E+02  0.41800000000E+01 0. -1.
        -11    1    3    3    0    0  0.60886577360E+01 -0.28539076692E+02 -0.57647563881E+01  0.29745303288E+02  0.00000000000E+00 0. -1.
         11    1    3    3    0    0  0.47328639745E+02  0.33925163158E+02  0.79660827157E+02  0.98675043546E+02  0.00000000000E+00 0.  1.
</event>
<event>
 7    1  0.6610867E-006  0.1015123E+03  0.7561462E-02  0.1277148E+00
         -1   -1    0    0    0  501 -0.00000000000E+00  0.00000000000E+00  0.58686441006E+02  0.58686441006E+02  0.00000000000E+00 0.  1.
          1   -1    0    0  501    0  0.00000000000E+00 -0.00000000000E+00 -0.22271430179E+03  0.22271430179E+03  0.00000000000E+00 0. -1.
         23    2    1    2    0    0  0.62430360843E+01 -0.76388736324E+01 -0.28310510710E+02  0.96561489457E+02  0.91789478371E+02 0.  0.
          5    1    1    2  502    0 -0.63755646031E+02 -0.82515833602E+01 -0.83317675190E+02  0.10531941145E+03  0.41800000000E+01 0.  1.
         -5    1    1    2    0  502  0.57512609946E+02  0.15890456993E+02 -0.52399674883E+02  0.79519841890E+02  0.41800000000E+01 0.  1.
        -11    1    3    3    0    0 -0.24604333212E+02  0.24161430615E+02  0.12150676276E+02  0.36562096168E+02  0.00000000000E+00 0.  1.
         11    1    3    3    0    0  0.30847369297E+02 -0.31800304247E+02 -0.40461186987E+02  0.59999393290E+02  0.00000000000E+00 0. -1.
</event>
<event>
 7    1  0.6610867E-006  0.8386108E+02  0.7561462E-02  0.1318438E+00
         -1   -1    0    0    0  501 -0.00000000000E+00  0.00000000000E+00  0.13345917553E+03  0.13345917553E+03  0.00000000000E+00 0.  1.
          1   -1    0    0  501    0  0.00000000000E+00 -0.00000000000E+00 -0.11903839057E+03  0.11903839057E+03  0.00000000000E+00 0. -1.
         23    2    1    2    0    0 -0.35781465416E+02  0.10590762248E+02  0.59832682494E+02  0.11428454248E+03  0.89936251000E+02 0.  0.
          5    1    1    2  502    0 -0.45057939174E+02 -0.17948739063E+02 -0.10773482448E+02  0.49858955471E+02  0.41800000000E+01 0.  1.
         -5    1    1    2    0  502  0.80839404590E+02  0.73579768154E+01 -0.34638415086E+02  0.88354068140E+02  0.41800000000E+01 0.  1.
        -11    1    3    3    0    0 -0.94906023637E+01  0.55371315182E+01 -0.23938269306E+02  0.26339553831E+02  0.00000000000E+00 0. -1.
         11    1    3    3    0    0 -0.26290863053E+02  0.50536307298E+01  0.83770951800E+02  0.87944988652E+02  0.00000000000E+00 0.  1.
</event>
<event>
 7    1  0.6610867E-006  0.1111793E+03  0.7561462E-02  0.1258401E+00
          1   -1    0    0  501    0  0.00000000000E+00  0.00000000000E+00  0.41818924961E+03  0.41818924961E+03  0.00000000000E+00 0. -1.
         -1   -1    0    0    0  501 -0.00000000000E+00 -0.00000000000E+00 -0.40039904761E+02  0.40039904761E+02  0.00000000000E+00 0.  1.
         23    2    1    2    0    0  0.90087431863E+01  0.56670368425E+02  0.90632234138E+02  0.13947193279E+03  0.89137702805E+02 0.  0.
          5    1    1    2  502    0  0.50103880143E+02 -0.18632028446E+02  0.19647460465E+03  0.20365975047E+03  0.41800000000E+01 0. -1.
         -5    1    1    2    0  502 -0.59112623329E+02 -0.38038339979E+02  0.91042506060E+02  0.11509747111E+03  0.41800000000E+01 0. -1.
        -11    1    3    3    0    0 -0.74536509530E+01  0.74025872978E+02  0.88257746326E+02  0.11543316928E+03  0.00000000000E+00 0. -1.
         11    1    3    3    0    0  0.16462394139E+02 -0.17355504553E+02  0.23744878120E+01  0.24038763518E+02  0.00000000000E+00 0.  1.
</event>
<event>
 7    1  0.6610867E-006  0.1181685E+03  0.7561462E-02  0.1246149E+00
          4   -1    0    0  501    0  0.00000000000E+00  0.00000000000E+00  0.14852197075E+03  0.14852197075E+03  0.00000000000E+00 0. -1.
         -4   -1    0    0    0  501 -0.00000000000E+00 -0.00000000000E+00 -0.12830187981E+03  0.12830187981E+03  0.00000000000E+00 0.  1.
         23    2    1    2    0    0 -0.80973633626E+02 -0.11973451637E+02  0.31790565040E+02  0.12688772874E+03  0.91595648334E+02 0.  0.
          5    1    1    2  502    0  0.86184988655E+02  0.33093505063E+02  0.34637638943E+02  0.98692810166E+02  0.41800000000E+01 0. -1.
         -5    1    1    2    0  502 -0.52113550291E+01 -0.21120053426E+02 -0.46208113038E+02  0.51243311646E+02  0.41800000000E+01 0. -1.
        -11    1    3    3    0    0 -0.12607830108E+02  0.36071364754E+02  0.23129663087E+01  0.38281203591E+02  0.00000000000E+00 0. -1.
         11    1    3    3    0    0 -0.68365803518E+02 -0.48044816391E+02  0.29477598731E+02  0.88606525153E+02  0.00000000000E+00 0.  1.
</event>
<event>
 7    1  0.6610867E-006  0.1135557E+03  0.7561462E-02  0.1254123E+00
         -2   -1    0    0    0  501 -0.00000000000E+00  0.00000000000E+00  0.16317122651E+02  0.16317122651E+02  0.00000000000E+00 0.  1.
          2   -1    0    0  501    0  0.00000000000E+00 -0.00000000000E+00 -0.97727477578E+03  0.97727477578E+03  0.00000000000E+00 0. -1.
         23    2    1    2    0    0 -0.33801371838E+01 -0.24350739729E+02 -0.21877822448E+03  0.24054306453E+03  0.96915790950E+02 0.  0.
          5    1    1    2  502    0 -0.29234976959E+02  0.67047656153E+02 -0.40058661765E+03  0.40723111708E+03  0.41800000000E+01 0.  1.
         -5    1    1    2    0  502  0.32615114143E+02 -0.42696916425E+02 -0.34159281101E+03  0.34581771683E+03  0.41800000000E+01 0.  1.
        -11    1    3    3    0    0  0.31232077741E+02 -0.48547040104E+02 -0.12917059362E+03  0.14148250789E+03  0.00000000000E+00 0. -1.
         11    1    3    3    0    0 -0.34612214924E+02  0.24196300376E+02 -0.89607630857E+02  0.99060556639E+02  0.00000000000E+00 0.  1.
</event>
<event>
 7    1  0.6610867E-006  0.1547456E+03  0.7561462E-02  0.1194760E+00
         -2   -1    0    0    0  501 -0.00000000000E+00  0.00000000000E+00  0.47827347642E+02  0.47827347642E+02  0.00000000000E+00 0.  1.
          2   -1    0    0  501    0  0.00000000000E+00 -0.00000000000E+00 -0.60227738665E+03  0.60227738665E+03  0.00000000000E+00 0. -1.
         23    2    1    2    0    0 -0.61627550895E+02  0.10490603961E+03 -0.15578614860E+03  0.21492097358E+03  0.84371017607E+02 0.  0.
          5    1    1    2  502    0  0.78902849039E+02 -0.24630862562E+02 -0.12902527165E+03  0.15328839519E+03  0.41800000000E+01 0.  1.
         -5    1    1    2    0  502 -0.17275298145E+02 -0.80275177047E+02 -0.26963861875E+03  0.28189536551E+03  0.41800000000E+01 0.  1.
        -11    1    3    3    0    0 -0.46672592278E+02  0.91117964654E+01 -0.74581876886E+02  0.88452315202E+02  0.00000000000E+00 0.  1.
         11    1    3    3    0    0 -0.14954958617E+02  0.95794243144E+02 -0.81204271717E+02  0.12646865838E+03  0.00000000000E+00 0. -1.
</event>
<event>
 7    1  0.6610867E-006  0.9627575E+02  0.7561462E-02  0.1288328E+00
         -1   -1    0    0    0  501 -0.00000000000E+00  0.00000000000E+00  0.84423970773E+02  0.84423970773E+02  0.00000000000E+00 0.  1.
          1   -1    0    0  501    0  0.00000000000E+00 -0.00000000000E+00 -0.15606666000E+03  0.15606666000E+03  0.00000000000E+00 0. -1.
         23    2    1    2    0    0 -0.86208038394E+01  0.25812126717E+02 -0.34991859375E+01  0.95467634279E+02  0.91439820364E+02 0.  0.
          5    1    1    2  502    0 -0.13686939350E+02  0.35655272568E+02  0.13152031452E+02  0.40608854970E+02  0.41800000000E+01 0. -1.
         -5    1    1    2    0  502  0.22307743190E+02 -0.61467399285E+02 -0.81295534743E+02  0.10441414152E+03  0.41800000000E+01 0. -1.
        -11    1    3    3    0    0 -0.46232781228E+02  0.77283274606E+01 -0.19504464179E+02  0.50770278986E+02  0.00000000000E+00 0.  1.
         11    1    3    3    0    0  0.37611977389E+02  0.18083799257E+02  0.16005278241E+02  0.44697355293E+02  0.00000000000E+00 0. -1.
</event>
<event>
 7    1  0.6610867E-006  0.1009280E+03  0.7561462E-02  0.1278356E+00
         -4   -1    0    0    0  501 -0.00000000000E+00  0.00000000000E+00  0.37097346930E+03  0.37097346930E+03  0.00000000000E+00 0.  1.
          4   -1    0    0  501    0  0.00000000000E+00 -0.00000000000E+00 -0.34961159980E+02  0.34961159980E+02  0.00000000000E+00 0. -1.
         23    2    1    2    0    0 -0.33155425096E+01 -0.17765322443E+02  0.18959853238E+03  0.21251500403E+03  0.94278438428E+02 0.  0.
          5    1    1    2  502    0  0.41481805893E+02  0.55483160710E+02  0.10335006648E+03  0.12449028068E+03  0.41800000000E+01 0. -1.
         -5    1    1    2    0  502 -0.38166263384E+02 -0.37717838267E+02  0.43063710454E+02  0.68929344566E+02  0.41800000000E+01 0. -1.
        -11    1    3    3    0    0 -0.34438102130E+02 -0.29525614736E+02  0.16504483559E+03  0.17116524928E+03  0.00000000000E+00 0.  1.
         11    1    3    3    0    0  0.31122559620E+02  0.11760292293E+02  0.24553696790E+02  0.41349754754E+02  0.00000000000E+00 0. -1.
</event>
<event>
 7    1  0.6610867E-006  0.1007644E+03  0.7561462E-02  0.1278697E+00
          2   -1    0    0  501    0  0.00000000000E+00  0.00000000000E+00  0.60314547679E+02  0.60314547679E+02  0.00000000000E+00 0.  1.
         -2   -1    0    0    0  501 -0.00000000000E+00 -0.00000000000E+00 -0.25656271923E+03  0.25656271923E+03  0.00000000000E+00 0. -1.
         23    2    1    2    0    0  0.37273234245E+02  0.29566633540E+02 -0.13542385169E+03  0.16987457915E+03  0.90853030916E+02 0.  0.
          5    1    1    2  502    0  0.39707067463E+02  0.14898571344E+02 -0.75527781309E+01  0.43279735351E+02  0.41800000000E+01 0. -1.
         -5    1    1    2    0  502 -0.76980301708E+02 -0.44465204884E+02 -0.53271541730E+02  0.10372295240E+03  0.41800000000E+01 0. -1.
        -11    1    3    3    0    0 -0.12709083172E+02  0.20936330261E+01  0.82486213709E+01  0.15295223073E+02  0.00000000000E+00 0.  1.
         11    1    3    3    0    0  0.49982317417E+02  0.27473000514E+02 -0.14367247306E+03  0.15457935608E+03  0.00000000000E+00 0. -1.
</event>
<event>
 7    1  0.6610867E-006  0.1046504E+03  0.7561462E-02  0.1270810E+00
          1   -1    0    0  501    0  0.00000000000E+00  0.00000000000E+00  0.99067572701E+02  0.99067572701E+02  0.00000000000E+00 0. -1.
         -1   -1    0    0    0  501 -0.00000000000E+00 -0.00000000000E+00 -0.34938123451E+03  0.34938123451E+03  0.00000000000E+00 0.  1.
         23    2    1    2    0    0 -0.93151527384E+00  0.59345288674E+02 -0.27000739554E+03  0.29014363300E+03  0.88071579497E+02 0.  0.
          5    1    1    2  502    0 -0.29564255226E+02 -0.65248878937E+02  0.69215845104E+02  0.99698380142E+02  0.41800000000E+01 0. -1.
         -5    1    1    2    0  502  0.30495770500E+02  0.59035902629E+01 -0.49522111374E+02  0.58606794071E+02  0.41800000000E+01 0.  1.
        -11    1    3    3    0    0  0.28779343436E+02  0.69163121872E+02 -0.19112403286E+03  0.20528074428E+03  0.00000000000E+00 0.  1.
         11    1    3    3    0    0 -0.29710858709E+02 -0.98178331980E+01 -0.78883362678E+02  0.84862888717E+02  0.00000000000E+00 0. -1.
</event>
<event>
 7    1  0.6610867E-006  0.1042161E+03  0.7561462E-02  0.1271672E+00
          2   -1    0    0  501    0  0.00000000000E+00  0.00000000000E+00  0.28499128073E+03  0.28499128073E+03  0.00000000000E+00 0. -1.
         -2   -1    0    0    0  501 -0.00000000000E+00 -0.00000000000E+00 -0.45418847251E+02  0.45418847251E+02  0.00000000000E+00 0.  1.
         23    2    1    2    0    0 -0.14564264954E+02 -0.33675082327E+02  0.94319256199E+02  0.13523708492E+03  0.89704058244E+02 0.  0.
          5    1    1    2  502    0  0.30353332349E+02  0.72266424574E+02  0.12736424104E+03  0.14960910133E+03  0.41800000000E+01 0. -1.
         -5    1    1    2    0  502 -0.15789067394E+02 -0.38591342247E+02  0.17888936235E+02  0.45563941722E+02  0.41800000000E+01 0. -1.
        -11    1    3    3    0    0 -0.45321929988E+02 -0.43396697634E+01  0.20229539896E+02  0.49821123591E+02  0.00000000000E+00 0.  1.
         11    1    3    3    0    0  0.30757665034E+02 -0.29335412564E+02  0.74089716303E+02  0.85415961333E+02  0.00000000000E+00 0. -1.
</event>
<event>
 7    1  0.6610867E-006  0.1005015E+03  0.7561462E-02  0.1279245E+00
          1   -1    0    0  501    0  0.00000000000E+00  0.00000000000E+00  0.16892590248E+03  0.16892590248E+03  0.00000000000E+00 0.  1.
         -1   -1    0    0    0  501 -0.00000000000E+00 -0.00000000000E+00 -0.10157366012E+03  0.10157366012E+03  0.00000000000E+00 0. -1.
         23    2    1    2    0    0 -0.89984095824E+01 -0.63808579086E+02 -0.13562838249E+02  0.10818522703E+03  0.85834647010E+02 0.  0.
          5    1    1    2  502    0 -0.36128984173E+02  0.24425299117E+02  0.91406206455E+02  0.10136303918E+03  0.41800000000E+01 0.  1.
         -5    1    1    2    0  502  0.45127393756E+02  0.39383279969E+02 -0.10491125851E+02  0.60951296376E+02  0.41800000000E+01 0.  1.
        -11    1    3    3    0    0  0.28277972246E+02 -0.49916348226E+02 -0.30471462174E+02  0.64959953368E+02  0.00000000000E+00 0. -1.
         11    1    3    3    0    0 -0.37276381829E+02 -0.13892230860E+02  0.16908623925E+02  0.43225273667E+02  0.00000000000E+00 0.  1.
</event>
<event>
 7    1  0.6610867E-006  0.1114734E+03  0.7561462E-02  0.1257865E+00
         -2   -1    0    0    0  501 -0.00000000000E+00  0.00000000000E+00  0.12733161864E+03  0.12733161864E+03  0.00000000000E+00 0.  1.
          2   -1    0    0  501    0  0.00000000000E+00 -0.00000000000E+00 -0.13466305865E+03  0.13466305865E+03  0.00000000000E+00 0. -1.
         23    2    1    2    0    0 -0.49828336655E+02 -0.41044807036E+02  0.33490986985E+02  0.11543100400E+03  0.89638893102E+02 0.  0.
          5    1    1    2  502    0  0.90083379162E+02  0.19178095905E+02 -0.13831200908E+02  0.93228692377E+02  0.41800000000E+01 0. -1.
         -5    1    1    2    0  502 -0.40255042507E+02  0.21866711131E+02 -0.26991226093E+02  0.53334980913E+02  0.41800000000E+01 0. -1.
        -11    1    3    3    0    0  0.55544367344E+01  0.86892012293E+01 -0.20855966093E+02  0.23266398671E+02  0.00000000000E+00 0. -1.
         11    1    3    3    0    0 -0.55382773389E+02 -0.49734008266E+02  0.54346953078E+02  0.92164605328E+02  0.00000000000E+00 0.  1.
</event>
<event>
 7    1  0.6610867E-006  0.1126793E+03  0.7561462E-02  0.1255687E+00
          1   -1    0    0  501    0  0.00000000000E+00  0.00000000000E+00  0.13804570863E+04  0.13804570863E+04  0.00000000000E+00 0. -1.
         -1   -1    0    0    0  501 -0.00000000000E+00 -0.00000000000E+00 -0.16275078055E+02  0.16275078055E+02  0.00000000000E+00 0.  1.
         23    2    1    2    0    0  0.47880573413E+02  0.13440561150E+02  0.20526835623E+03  0.23002696882E+03  0.91126891314E+02 0.  0.
          5    1    1    2  502    0  0.34298863335E+02  0.14349025316E+02  0.59160153083E+03  0.59278339234E+03  0.41800000000E+01 0.  1.
         -5    1    1    2    0  502 -0.82179436749E+02 -0.27789586465E+02  0.56731212122E+03  0.57392180323E+03  0.41800000000E+01 0.  1.
        -11    1    3    3    0    0 -0.17590189615E+02 -0.20774632083E+02  0.34355045136E+02  0.43832285307E+02  0.00000000000E+00 0. -1.
         11    1    3    3    0    0  0.65470763028E+02  0.34215193233E+02  0.17091331109E+03  0.18619468351E+03  0.00000000000E+00 0.  1.
</event>
<event>
 7    1  0.6610867E-006  0.2217136E+03  0.7561462E-02  0.1132612E+00
          1   -1    0    0  501    0  0.00000000000E+00  0.00000000000E+00  0.31411780839E+03  0.31411780839E+03  0.00000000000E+00 0. -1.
         -1   -1    0    0    0  501 -0.00000000000E+00 -0.00000000000E+00 -0.19205742589E+03  0.19205742589E+03  0.00000000000E+00 0.  1.
         23    2    1    2    0    0  0.62252261149E+02 -0.14546254320E+02 -0.48016755012E+02  0.12253671931E+03  0.92858501417E+02 0.  0.
          5    1    1    2  502    0 -0.76083400286E+02  0.16454852142E+03  0.14207074808E+03  0.23036160609E+03  0.41800000000E+01 0. -1.
         -5    1    1    2    0  502  0.13831139138E+02 -0.15000226710E+03  0.28006389429E+02  0.15327690888E+03  0.41800000000E+01 0.  1.
        -11    1    3    3    0    0  0.76953136486E+02 -0.36344071820E+02 -0.44422987475E+02  0.96000409310E+02  0.00000000000E+00 0.  1.
         11    1    3    3    0    0 -0.14700875338E+02  0.21797817500E+02 -0.35937675374E+01  0.26536310003E+02  0.00000000000E+00 0. -1.
</event>
<event>
 7    1  0.6610867E-006  0.1079366E+03  0.7561462E-02  0.1264439E+00
         -2   -1    0    0    0  501 -0.00000000000E+00  0.00000000000E+00  0.48608818753E+02  0.48608818753E+02  0.00000000000E+00 0.  1.
          2   -1    0    0  501    0  0.00000000000E+00 -0.00000000000E+00 -0.33609104707E+03  0.33609104707E+03  0.00000000000E+00 0. -1.
         23    2    1    2    0    0  0.12922761486E+02 -0.64791895116E+02 -0.11121977580E+03  0.15869048975E+03  0.91912162246E+02 0.  0.
          5    1    1    2  502    0 -0.28133843249E+02  0.94223829950E+02 -0.16230729635E+03  0.18981773920E+03  0.41800000000E+01 0. -1.
         -5    1    1    2    0  502  0.15211081763E+02 -0.29431934834E+02 -0.13955156164E+02  0.36191636880E+02  0.41800000000E+01 0. -1.
        -11    1    3    3    0    0 -0.12483746067E+02 -0.55685787092E+02 -0.15353029897E+02  0.59097092373E+02  0.00000000000E+00 0.  1.
         11    1    3    3    0    0  0.25406507553E+02 -0.91061080235E+01 -0.95866745906E+02  0.99593397372E+02  0.00000000000E+00 0. -1.
</event>
<event>
 7    1  0.6610867E-006  0.1362576E+03  0.7561462E-02  0.1218455E+00
          1   -1    0    0  501    0  0.00000000000E+00  0.00000000000E+00  0.76389542933E+03  0.76389542933E+03  0.00000000000E+00 0. -1.
         -1   -1    0    0    0  501 -0.00000000000E+00 -0.00000000000E+00 -0.34744835080E+02  0.34744835080E+02  0.00000000000E+00 0.  1.
         23    2    1    2    0    0  0.78819647323E+02 -0.91013019914E+02  0.31490924651E+03  0.34948457962E+03  0.92063734764E+02 0.  0.
          5    1    1    2  502    0 -0.29483499166E+02  0.25682130418E+02  0.15815625275E+02  0.42384607450E+02  0.41800000000E+01 0. -1.
         -5    1    1    2    0  502 -0.49336148157E+02  0.65330889496E+02  0.39842572246E+03  0.40677107733E+03  0.41800000000E+01 0. -1.
        -11    1    3    3    0    0 -0.14910256591E+02 -0.43801455563E+02  0.85759846768E+02  0.97445546736E+02  0.00000000000E+00 0. -1.
         11    1    3    3    0    0  0.93729903914E+02 -0.47211564350E+02  0.22914939974E+03  0.25203903289E+03  0.00000000000E+00 0.  1.
</event>
<event>
 7    1  0.6610867E-006  0.1106037E+03  0.7561462E-02  0.1259456E+00
          2   -1    0    0  501    0  0.00000000000E+00  0.00000000000E+00  0.82946522369E+03  0.82946522369E+03  0.00000000000E+00 0. -1.
         -2   -1    0    0    0  501 -0.00000000000E+00 -0.00000000000E+00 -0.28222432378E+02  0.28222432378E+02  0.00000000000E+00 0.  1.
         23    2    1    2    0    0  0.31559185796E+02 -0.86477611708E+02  0.23219610536E+03  0.26782633918E+03  0.96651730872E+02 0.  0.
          5    1    1    2  502    0  0.12623064451E+02  0.70610101973E+02  0.13206646295E+03  0.15034677015E+03  0.41800000000E+01 0. -1.
         -5    1    1    2    0  502 -0.44182250248E+02  0.15867509736E+02  0.43698022300E+03  0.43951454674E+03  0.41800000000E+01 0. -1.
        -11    1    3    3    0    0  0.37919342518E+02 -0.39263780387E+02  0.34735128673E+02  0.64699692048E+02  0.00000000000E+00 0.  1.
         11    1    3    3    0    0 -0.63601567216E+01 -0.47213831322E+02  0.19746097669E+03  0.20312664713E+03  0.00000000000E+00 0. -1.
</event>
<event>
 7    1  0.6610867E-006  0.1082509E+03  0.7561462E-02  0.1263844E+00
          2   -1    0    0  501    0  0.00000000000E+00  0.00000000000E+00  0.12408786271E+04  0.12408786271E+04  0.00000000000E+00 0. -1.
         -2   -1    0    0    0  501 -0.00000000000E+00 -0.00000000000E+00 -0.15228469106E+02  0.15228469106E+02  0.00000000000E+00 0.  1.
         23    2    1    2    0    0  0.47810208975E+02  0.33584071196E+02  0.27710688066E+03  0.29756886730E+03  0.91352622061E+02 0.  0.
          5    1    1    2  502    0 -0.48922289148E+02 -0.74160292777E+02  0.47613858762E+03  0.48437440727E+03  0.41800000000E+01 0.  1.
         -5    1    1    2    0  502  0.11120801729E+01  0.40576221581E+02  0.47240468970E+03  0.47416382162E+03  0.41800000000E+01 0.  1.
        -11    1    3    3    0    0  0.45703192115E+02 -0.68949283648E+01  0.55223900804E+02  0.72013894678E+02  0.00000000000E+00 0.  1.
         11    1    3    3    0    0  0.21070168609E+01  0.40478999561E+02  0.22188297986E+03  0.22555497263E+03  0.00000000000E+00 0. -1.
</event>
<event>
 7    1  0.6610867E-006  0.1636374E+03  0.7561462E-02  0.1184650E+00
          2   -1    0    0  501    0  0.00000000000E+00  0.00000000000E+00  0.13608873292E+03  0.13608873292E+03  0.00000000000E+00 0. -1.
         -2   -1    0    0    0  501 -0.00000000000E+00 -0.00000000000E+00 -0.22767704691E+03  0.22767704691E+03  0.00000000000E+00 0.  1.
         23    2    1    2    0    0 -0.13988832124E+03  0.23677122081E+02 -0.23657465599E+02  0.17041761158E+03  0.91395503873E+02 0.  0.
          5    1    1    2  502    0  0.75360701230E+02 -0.66401894710E+02 -0.20855900605E+02  0.10266882634E+03  0.41800000000E+01 0. -1.
         -5    1    1    2    0  502  0.64527620012E+02  0.42724772629E+02 -0.47074947793E+02  0.90679341916E+02  0.41800000000E+01 0.  1.
        -11    1    3    3    0    0 -0.12987995264E+03  0.73432058423E+01  0.11277426756E+02  0.13057528527E+03  0.00000000000E+00 0. -1.
         11    1    3    3    0    0 -0.10008368602E+02  0.16333916238E+02 -0.34934892355E+02  0.39842326308E+02  0.00000000000E+00 0.  1.
</event>
<event>
 7    1  0.6610867E-006  0.1589835E+03  0.7561462E-02  0.1189849E+00
          2   -1    0    0  501    0  0.00000000000E+00  0.00000000000E+00  0.95033195757E+03  0.95033195757E+03  0.00000000000E+00 0. -1.
         -2   -1    0    0    0  501 -0.00000000000E+00 -0.00000000000E+00 -0.27268092776E+02  0.27268092776E+02  0.00000000000E+00 0.  1.
         23    2    1    2    0    0 -0.10847331250E+03 -0.42733131745E+02  0.40585012512E+03  0.43285245352E+03  0.95154308272E+02 0.  0.
          5    1    1    2  502    0 -0.92379755884E+01  0.49169562359E+02  0.20315138801E+03  0.20926286079E+03  0.41800000000E+01 0. -1.
         -5    1    1    2    0  502  0.11771128809E+03 -0.64364306132E+01  0.31406235166E+03  0.33548473604E+03  0.41800000000E+01 0. -1.
        -11    1    3    3    0    0 -0.12271956720E+03 -0.22046655268E+02  0.32107906063E+03  0.34443854366E+03  0.00000000000E+00 0.  1.
         11    1    3    3    0    0  0.14246254698E+02 -0.20686476477E+02  0.84771064491E+02  0.88413909861E+02  0.00000000000E+00 0. -1.
</event>
<event>
 7    1  0.6610867E-006  0.1061756E+03  0.7561462E-02  0.1267821E+00
         -1   -1    0    0    0  501 -0.00000000000E+00  0.00000000000E+00  0.97614829920E+02  0.97614829920E+02  0.00000000000E+00 0.  1.
          1   -1    0    0  501    0  0.00000000000E+00 -0.00000000000E+00 -0.18819833866E+03  0.18819833866E+03  0.00000000000E+00 0. -1.
         23    2    1    2    0    0 -0.50303132417E+02  0.57827240387E+01  0.23857989627E+02  0.10887240807E+03  0.93381757002E+02 0.  0.
          5    1    1    2  502    0 -0.98216833594E+01  0.39187971274E+02 -0.74078801520E+00  0.40622453440E+02  0.41800000000E+01 0. -1.
         -5    1    1    2    0  502  0.60124815777E+02 -0.44970695313E+02 -0.11370071036E+03  0.13631830708E+03  0.41800000000E+01 0. -1.
        -11    1    3    3    0    0  0.14406400928E+02 -0.21851999708E+02 -0.13236252670E+02  0.29330064161E+02  0.00000000000E+00 0. -1.
         11    1    3    3    0    0 -0.64709533345E+02  0.27634723747E+02  0.37094242298E+02  0.79542343905E+02  0.00000000000E+00 0.  1.
</event>
<event>
 7    1  0.6610867E-006  0.9196421E+02  0.7561462E-02  0.1298164E+00
          1   -1    0    0  501    0  0.00000000000E+00  0.00000000000E+00  0.20375050400E+03  0.20375050400E+03  0.00000000000E+00 0. -1.
         -1   -1    0    0    0  501 -0.00000000000E+00 -0.00000000000E+00 -0.12907580921E+03  0.12907580921E+03  0.00000000000E+00 0.  1.
         23    2    1    2    0    0 -0.60105645862E+02 -0.68095095960E+02 -0.41906637138E+02  0.13524257884E+03  0.91020646756E+02 0.  0.
          5    1    1    2  502    0  0.48060297896E+02  0.45324499742E+02 -0.11226480344E+02  0.67138727807E+02  0.41800000000E+01 0. -1.
         -5    1    1    2    0  502  0.12045347966E+02  0.22770596219E+02  0.12780781227E+03  0.13044500657E+03  0.41800000000E+01 0.  1.
        -11    1    3    3    0    0 -0.31775372226E+02 -0.26851590639E+02 -0.67308829054E+02  0.79127496287E+02  0.00000000000E+00 0.  1.
         11    1    3    3    0    0 -0.28330273636E+02 -0.41243505321E+02  0.25402191916E+02  0.56115082550E+02  0.00000000000E+00 0. -1.
</event>
<event>
 7    1  0.6610867E-006  0.1080500E+03  0.7561462E-02  0.1264224E+00
          1   -1    0    0  501    0  0.00000000000E+00  0.00000000000E+00  0.17791928742E+03  0.17791928742E+03  0.00000000000E+00 0. -1.
         -1   -1    0    0    0  501 -0.00000000000E+00 -0.00000000000E+00 -0.99884773241E+02  0.99884773241E+02  0.00000000000E+00 0.  1.
         23    2    1    2    0    0  0.68671530720E+02  0.30708510860E+02  0.15073024496E+02  0.11883823925E+03  0.90755381495E+02 0.  0.
          5    1    1    2  502    0 -0.79904120323E+02  0.24630056428E+02  0.15625699246E+02  0.85164211974E+02  0.41800000000E+01 0.  1.
         -5    1    1    2    0  502  0.11232589602E+02 -0.55338567288E+02  0.47335790433E+02  0.73801609431E+02  0.41800000000E+01 0.  1.
        -11    1    3    3    0    0  0.27963796758E+02  0.77207120037E+01 -0.38196232604E+02  0.47963897966E+02  0.00000000000E+00 0.  1.
         11    1    3    3    0    0  0.40707733963E+02  0.22987798856E+02  0.53269257100E+02  0.70874341285E+02  0.00000000000E+00 0. -1.
</event>
<event>
 7    1  0.6610867E-006  0.1949574E+03  0.7561462E-02  0.1154065E+00
          3   -1    0    0  501    0  0.00000000000E+00  0.00000000000E+00  0.67771806010E+02  0.67771806010E+02  0.00000000000E+00 0. -1.
         -3   -1    0    0    0  501 -0.00000000000E+00 -0.00000000000E+00 -0.73275752986E+03  0.73275752986E+03  0.00000000000E+00 0.  1.
         23    2    1    2    0    0 -0.10946840203E+03 -0.15242387923E+03 -0.40928714675E+03  0.45958137256E+03  0.92101571677E+02 0.  0.
          5    1    1    2  502    0  0.10426116198E+03  0.96489632761E+02 -0.95739280721E+02  0.17135962594E+03  0.41800000000E+01 0. -1.
         -5    1    1    2    0  502  0.52072400438E+01  0.55934246466E+02 -0.15995929637E+03  0.16958833737E+03  0.41800000000E+01 0. -1.
        -11    1    3    3    0    0 -0.84113369105E+02 -0.85686337658E+02 -0.33799322220E+03  0.35868736467E+03  0.00000000000E+00 0.  1.
         11    1    3    3    0    0 -0.25355032921E+02 -0.66737541568E+02 -0.71293924554E+02  0.10089400789E+03  0.00000000000E+00 0. -1.
</event>
<event>
 7    1  0.6610867E-006  0.1527319E+03  0.7561462E-02  0.1197156E+00
         -2   -1    0    0    0  501 -0.00000000000E+00  0.00000000000E+00  0.49323140247E+02  0.49323140247E+02  0.00000000000E+00 0.  1.
          2   -1    0    0  501    0  0.00000000000E+00 -0.00000000000E+00 -0.59643658238E+03  0.59643658238E+03  0.00000000000E+00 0. -1.
         23    2    1    2    0    0  0.89315069334E+02 -0.98360302502E+02 -0.26431943609E+03  0.30920147927E+03  0.89938088555E+02 0.  0.
          5    1    1    2  502    0 -0.41919558219E+02 -0.17345419292E+01 -0.18177047745E+03  0.18659645460E+03  0.41800000000E+01 0.  1.
         -5    1    1    2    0  502 -0.47395511115E+02  0.10009484443E+03 -0.10102352859E+03  0.14996178874E+03  0.41800000000E+01 0.  1.
        -11    1    3    3    0    0  0.39202949098E+01 -0.57804032378E+02 -0.56666121337E+02  0.81041496647E+02  0.00000000000E+00 0. -1.
         11    1    3    3    0    0  0.85394774424E+02 -0.40556270123E+02 -0.20765331475E+03  0.22815998263E+03  0.00000000000E+00 0.  1.
</event>
<event>
 7    1  0.6610867E-006  0.2195662E+03  0.7561462E-02  0.1134207E+00
         -2   -1    0    0    0  501 -0.00000000000E+00  0.00000000000E+00  0.83538391662E+02  0.83538391662E+02  0.00000000000E+00 0.  1.
          2   -1    0    0  501    0  0.00000000000E+00 -0.00000000000E+00 -0.80579808893E+03  0.80579808893E+03  0.00000000000E+00 0. -1.
         23    2    1    2    0    0  0.22774179055E+02 -0.19182392347E+03 -0.12194926770E+03  0.24642514120E+03  0.92404791423E+02 0.  0.
          5    1    1    2  502    0  0.41925858634E+02  0.14111138538E+03 -0.36324808808E+03  0.39196536403E+03  0.41800000000E+01 0. -1.
         -5    1    1    2    0  502 -0.64700037689E+02  0.50712538086E+02 -0.23706234149E+03  0.25094597536E+03  0.41800000000E+01 0. -1.
        -11    1    3    3    0    0  0.15612301950E+02  0.18722084279E+01 -0.25419923069E+02  0.29890159340E+02  0.00000000000E+00 0. -1.
         11    1    3    3    0    0  0.71618771051E+01 -0.19369613190E+03 -0.96529344629E+02  0.21653498186E+03  0.00000000000E+00 0.  1.
</event>
<event>
 7    1  0.6610867E-006  0.8620304E+02  0.7561462E-02  0.1312316E+00
          2   -1    0    0  501    0  0.00000000000E+00  0.00000000000E+00  0.21474372377E+02  0.21474372377E+02  0.00000000000E+00 0. -1.
         -2   -1    0    0    0  501 -0.00000000000E+00 -0.00000000000E+00 -0.75434668201E+03  0.75434668201E+03  0.00000000000E+00 0.  1.
         23    2    1    2    0    0  0.21913185740E+02  0.61537446313E+02 -0.35994809852E+03  0.37708956430E+03  0.91470546433E+02 0.  0.
          5    1    1    2  502    0  0.68430157148E+00 -0.39786120948E+02 -0.36352836924E+03  0.36572359963E+03  0.41800000000E+01 0.  1.
         -5    1    1    2    0  502 -0.22597487312E+02 -0.21751325366E+02 -0.93958418773E+01  0.33007890459E+02  0.41800000000E+01 0.  1.
        -11    1    3    3    0    0 -0.22376970147E+02  0.50309554736E+02 -0.27671451475E+03  0.28213950939E+03  0.00000000000E+00 0.  1.
         11    1    3    3    0    0  0.44290155888E+02  0.11227891577E+02 -0.83233583777E+02  0.94950054904E+02  0.00000000000E+00 0. -1.
</event>
<event>
 7    1  0.6610867E-006  0.4562163E+02  0.7561462E-02  0.1470498E+00
          3   -1    0    0  501    0  0.00000000000E+00  0.00000000000E+00  0.53164777023E+02  0.53164777023E+02  0.00000000000E+00 0. -1.
         -3   -1    0    0    0  501 -0.00000000000E+00 -0.00000000000E+00 -0.27408882148E+03  0.27408882148E+03  0.00000000000E+00 0.  1.
         23    2    1    2    0    0  0.25682474646E+02  0.11312409836E+02 -0.16025132732E+03  0.18541687551E+03  0.88945880710E+02 0.  0.
          5    1    1    2  502    0 -0.13375438276E+02 -0.15444559944E+02  0.37399385919E+02  0.42820827269E+02  0.41800000000E+01 0.  1.
         -5    1    1    2    0  502 -0.12307036370E+02  0.41321501080E+01 -0.98072103055E+02  0.99015895726E+02  0.41800000000E+01 0.  1.
        -11    1    3    3    0    0  0.19168833905E+02  0.30758268970E+02 -0.16086777250E+03  0.16489983484E+03  0.00000000000E+00 0.  1.
         11    1    3    3    0    0  0.65136407410E+01 -0.19445859133E+02  0.61644517332E+00  0.20517040668E+02  0.00000000000E+00 0. -1.
</event>
<event>
 7    1  0.6610867E-006  0.9015158E+02  0.7561462E-02  0.1302485E+00
         -1   -1    0    0    0  501 -0.00000000000E+00  0.00000000000E+00  0.14304597129E+02  0.14304597129E+02  0.00000000000E+00 0.  1.
          1   -1    0    0  501    0  0.00000000000E+00 -0.00000000000E+00 -0.10299401864E+04  0.10299401864E+04  0.00000000000E+00 0. -1.
         23    2    1    2    0    0  0.51695010680E+02 -0.11105797439E+02 -0.51297033235E+03  0.52355767598E+03  0.90434315057E+02 0.  0.
          5    1    1    2  502    0 -0.54450055840E+02  0.25573930788E+02 -0.93647656102E+02  0.11138307955E+03  0.41800000000E+01 0.  1.
         -5    1    1    2    0  502  0.27550451598E+01 -0.14468133349E+02 -0.40901760078E+03  0.40930402796E+03  0.41800000000E+01 0.  1.
        -11    1    3    3    0    0 -0.21596554947E+02  0.15648000658E+02 -0.13891107122E+03  0.14144807110E+03  0.00000000000E+00 0.  1.
         11    1    3    3    0    0  0.73291565627E+02 -0.26753798097E+02 -0.37405926114E+03  0.38210960489E+03  0.00000000000E+00 0. -1.
</event>
<event>
 7    1  0.6610867E-006  0.1858125E+03  0.7561462E-02  0.1162293E+00
         -4   -1    0    0    0  501 -0.00000000000E+00  0.00000000000E+00  0.30968796311E+03  0.30968796311E+03  0.00000000000E+00 0.  1.
          4   -1    0    0  501    0  0.00000000000E+00 -0.00000000000E+00 -0.14259267153E+03  0.14259267153E+03  0.00000000000E+00 0. -1.
         23    2    1    2    0    0 -0.84791386230E+02 -0.14055303130E+03  0.15795137946E+03  0.24569994064E+03  0.92060245327E+02 0.  0.
          5    1    1    2  502    0  0.52088677214E+02  0.48936035467E+01  0.37006476599E+02  0.64219384611E+02  0.41800000000E+01 0. -1.
         -5    1    1    2    0  502  0.32702709016E+02  0.13565942775E+03 -0.27862564475E+02  0.14236130940E+03  0.41800000000E+01 0. -1.
        -11    1    3    3    0    0 -0.75410084424E+02 -0.54679967406E+02  0.11851603443E+03  0.15074027360E+03  0.00000000000E+00 0.  1.
         11    1    3    3    0    0 -0.93813018059E+01 -0.85873063891E+02  0.39435345028E+02  0.94959667033E+02  0.00000000000E+00 0. -1.
</event>
<event>
 7    1  0.6610867E-006  0.1147610E+03  0.7561462E-02  0.1251999E+00
         -1   -1    0    0    0  501 -0.00000000000E+00  0.00000000000E+00  0.11206821996E+03  0.11206821996E+03  0.00000000000E+00 0.  1.
          1   -1    0    0  501    0  0.00000000000E+00 -0.00000000000E+00 -0.13745987786E+03  0.13745987786E+03  0.00000000000E+00 0. -1.
         23    2    1    2    0    0  0.50716067037E+02  0.12324094865E+02  0.45823498565E+01  0.11071017685E+03  0.97528162892E+02 0.  0.
          5    1    1    2  502    0  0.38221831933E+02 -0.15847477212E+02 -0.27154044410E+02  0.49667549749E+02  0.41800000000E+01 0.  1.
         -5    1    1    2    0  502 -0.88937898970E+02  0.35233823468E+01 -0.28199633397E+01  0.89150371225E+02  0.41800000000E+01 0.  1.
        -11    1    3    3    0    0 -0.18164681853E+02 -0.16139108401E+02  0.23514146298E+02  0.33813334099E+02  0.00000000000E+00 0.  1.
         11    1    3    3    0    0  0.68880748890E+02  0.28463203266E+02 -0.18931796442E+02  0.76896842746E+02  0.00000000000E+00 0. -1.
</event>
<event>
 7    1  0.6610867E-006  0.2765171E+03  0.7561462E-02  0.1097607E+00
          1   -1    0    0  501    0  0.00000000000E+00  0.00000000000E+00  0.93768809774E+03  0.93768809774E+03  0.00000000000E+00 0. -1.
         -1   -1    0    0    0  501 -0.00000000000E+00 -0.00000000000E+00 -0.10075576393E+03  0.10075576393E+03  0.00000000000E+00 0.  1.
         23    2    1    2    0    0  0.22652465843E+03  0.14563715163E+03  0.23351789644E+03  0.36592662817E+03  0.82753177818E+02 0.  0.
          5    1    1    2  502    0 -0.17577259482E+03 -0.81253679229E+02  0.52253839969E+03  0.55728091393E+03  0.41800000000E+01 0. -1.
         -5    1    1    2    0  502 -0.50752063608E+02 -0.64383472401E+02  0.80876037680E+02  0.11523631958E+03  0.41800000000E+01 0. -1.
        -11    1    3    3    0    0  0.92144725949E+02  0.22184490767E+02  0.50128241298E+02  0.10721773513E+03  0.00000000000E+00 0.  1.
         11    1    3    3    0    0  0.13437993248E+03  0.12345266086E+03  0.18338965514E+03  0.25870889304E+03  0.00000000000E+00 0. -1.
</event>
<event>
 7    1  0.6610867E-006  0.8191607E+02  0.7561462E-02  0.1323700E+00
         -2   -1    0    0    0  501 -0.00000000000E+00  0.00000000000E+00  0.13759160828E+03  0.13759160828E+03  0.00000000000E+00 0.  1.
          2   -1    0    0  501    0  0.00000000000E+00 -0.00000000000E+00 -0.13443908285E+03  0.13443908285E+03  0.00000000000E+00 0. -1.
         23    2    1    2    0    0 -0.29804819096E+02 -0.61192176069E+02  0.53349139344E+02  0.12102220647E+03  0.84660700078E+02 0.  0.
          5    1    1    2  502    0  0.55272916160E+01 -0.77131620594E+01 -0.73486959983E+02  0.74214887382E+02  0.41800000000E+01 0.  1.
         -5    1    1    2    0  502  0.24277527480E+02  0.68905338128E+02  0.23290346069E+02  0.76793597279E+02  0.41800000000E+01 0.  1.
        -11    1    3    3    0    0 -0.40875391760E+02 -0.49238268518E+02  0.71952347399E+02  0.96293016540E+02  0.00000000000E+00 0.  1.
         11    1    3    3    0    0  0.11070572664E+02 -0.11953907551E+02 -0.18603208055E+02  0.24729189934E+02  0.00000000000E+00 0. -1.
</event>
<event>
 7    1  0.6610867E-006  0.2285859E+03  0.7561462E-02  0.1127639E+00
          2   -1    0    0  501    0  0.00000000000E+00  0.00000000000E+00  0.36001679156E+03  0.36001679156E+03  0.00000000000E+00 0. -1.
         -2   -1    0    0    0  501 -0.00000000000E+00 -0.00000000000E+00 -0.15097961502E+03  0.15097961502E+03  0.00000000000E+00 0.  1.
         23    2    1    2    0    0 -0.95126318396E+02  0.18309347705E+03  0.80394160366E+02  0.24127564403E+03  0.95804371471E+02 0.  0.
          5    1    1    2  502    0 -0.15551094690E+02  0.53835255178E+01  0.17858171277E+02  0.24641541641E+02  0.41800000000E+01 0. -1.
         -5    1    1    2    0  502  0.11067741309E+03 -0.18847700257E+03  0.11078484489E+03  0.24507922091E+03  0.41800000000E+01 0.  1.
        -11    1    3    3    0    0  0.10741611059E+02  0.51903605874E+02 -0.32173781791E+01  0.53101017253E+02  0.00000000000E+00 0.  1.
         11    1    3    3    0    0 -0.10586792946E+03  0.13118987118E+03  0.83611538545E+02  0.18817462678E+03  0.00000000000E+00 0. -1.
</event>
<event>
 7    1  0.6610867E-006  0.9611949E+02  0.7561462E-02  0.1288674E+00
         -2   -1    0    0    0  501 -0.00000000000E+00  0.00000000000E+00  0.18686893234E+03  0.18686893234E+03  0.00000000000E+00 0.  1.
          2   -1    0    0  501    0  0.00000000000E+00 -0.00000000000E+00 -0.64369199297E+02  0.64369199297E+02  0.00000000000E+00 0. -1.
         23    2    1    2    0    0  0.12102796491E+02  0.36348684149E+01  0.68479632757E+02  0.11439316317E+03  0.90755967990E+02 0.  0.
          5    1    1    2  502    0  0.97900934102E+00  0.57012751283E+02  0.47480751476E+02  0.74318950672E+02  0.41800000000E+01 0.  1.
         -5    1    1    2    0  502 -0.13081805832E+02 -0.60647619698E+02  0.65393488113E+01  0.62526017799E+02  0.41800000000E+01 0.  1.
        -11    1    3    3    0    0 -0.30340726657E+02  0.10259830743E+01  0.64984851370E+02  0.71726168467E+02  0.00000000000E+00 0.  1.
         11    1    3    3    0    0  0.42443523148E+02  0.26088853406E+01  0.34947813872E+01  0.42666994702E+02  0.00000000000E+00 0. -1.
</event>
<event>
 7    1  0.6610867E-006  0.1670366E+03  0.7561462E-02  0.1180974E+00
          2   -1    0    0  501    0  0.00000000000E+00  0.00000000000E+00  0.18446621523E+04  0.18446621523E+04  0.00000000000E+00 0.  1.
         -2   -1    0    0    0  501 -0.00000000000E+00 -0.00000000000E+00 -0.18497862122E+02  0.18497862122E+02  0.00000000000E+00 0. -1.
         23    2    1    2    0    0 -0.89495404231E+02 -0.11235591641E+03  0.67578016016E+03  0.69711334590E+03  0.93031784035E+02 0.  0.
          5    1    1    2  502    0 -0.10743156092E+02 -0.20725845229E+02  0.15617085719E+03  0.15796134052E+03  0.41800000000E+01 0. -1.
         -5    1    1    2    0  502  0.10023856032E+03  0.13308176164E+03  0.99421327285E+03  0.10080853280E+04  0.41800000000E+01 0. -1.
        -11    1    3    3    0    0 -0.78501040739E+02 -0.96415789443E+02  0.66142356521E+03  0.67300783834E+03  0.00000000000E+00 0.  1.
         11    1    3    3    0    0 -0.10994363492E+02 -0.15940126969E+02  0.14356594949E+02  0.24105507564E+02  0.00000000000E+00 0. -1.
</event>
<event>
 7    1  0.6610867E-006  0.1290475E+03  0.7561462E-02  0.1228876E+00
          1   -1    0    0  501    0  0.00000000000E+00  0.00000000000E+00  0.32503000423E+02  0.32503000423E+02  0.00000000000E+00 0. -1.
         -1   -1    0    0    0  501 -0.00000000000E+00 -0.00000000000E+00 -0.64739461309E+03  0.64739461309E+03  0.00000000000E+00 0.  1.
         23    2    1    2    0    0  0.47914454691E+02 -0.72147657315E+02 -0.37798665537E+03  0.39834214349E+03  0.91112415286E+02 0.  0.
          5    1    1    2  502    0  0.97081197754E+01  0.84980585456E+02 -0.95536936506E+02  0.12829936138E+03  0.41800000000E+01 0.  1.
         -5    1    1    2    0  502 -0.57622574466E+02 -0.12832928141E+02 -0.14136802079E+03  0.15325610864E+03  0.41800000000E+01 0.  1.
        -11    1    3    3    0    0  0.58091161587E+02 -0.22015667058E+02 -0.28988041488E+03  0.29646235441E+03  0.00000000000E+00 0. -1.
         11    1    3    3    0    0 -0.10176706896E+02 -0.50131990257E+02 -0.88106240494E+02  0.10187978909E+03  0.00000000000E+00 0.  1.
</event>
<event>
 7    1  0.6610867E-006  0.4974285E+02  0.7561462E-02  0.1446733E+00
          1   -1    0    0  501    0  0.00000000000E+00  0.00000000000E+00  0.90757801042E+03  0.90757801042E+03  0.00000000000E+00 0. -1.
         -1   -1    0    0    0  501 -0.00000000000E+00 -0.00000000000E+00 -0.26353612094E+02  0.26353612094E+02  0.00000000000E+00 0.  1.
         23    2    1    2    0    0 -0.71090868585E+01 -0.87545493515E+01  0.78364613390E+02  0.12190982157E+03  0.92702808549E+02 0.  0.
          5    1    1    2  502    0  0.28984685449E+01  0.24889838939E+01  0.80335847973E+03  0.80337843854E+03  0.41800000000E+01 0. -1.
         -5    1    1    2    0  502  0.42106183136E+01  0.62655654576E+01 -0.49869479574E+00  0.86433624004E+01  0.41800000000E+01 0.  1.
        -11    1    3    3    0    0 -0.29697971674E+02 -0.38007674919E+02  0.68281271070E+02  0.83599550557E+02  0.00000000000E+00 0. -1.
         11    1    3    3    0    0  0.22588884816E+02  0.29253125567E+02  0.10083342320E+02  0.38310271012E+02  0.00000000000E+00 0.  1.
</event>
<event>
 7    1  0.6610867E-006  0.1267636E+03  0.7561462E-02  0.1232338E+00
          2   -1    0    0  501    0  0.00000000000E+00  0.00000000000E+00  0.18700587863E+03  0.18700587863E+03  0.00000000000E+00 0. -1.
         -2   -1    0    0    0  501 -0.00000000000E+00 -0.00000000000E+00 -0.18803508950E+03  0.18803508950E+03  0.00000000000E+00 0.  1.
         23    2    1    2    0    0  0.70769235674E+02  0.38311441162E+02 -0.13131056398E+03  0.17731115004E+03  0.87867675932E+02 0.  0.
          5    1    1    2  502    0  0.21771769501E+02  0.21664859704E+02  0.60876369833E+01  0.31589678967E+02  0.41800000000E+01 0.  1.
         -5    1    1    2    0  502 -0.92541005175E+02 -0.59976300865E+02  0.12419371612E+03  0.16614013913E+03  0.41800000000E+01 0.  1.
        -11    1    3    3    0    0  0.14531062321E+02 -0.24112749475E+02 -0.10271207064E+02  0.29967885377E+02  0.00000000000E+00 0.  1.
         11    1    3    3    0    0  0.56238173353E+02  0.62424190637E+02 -0.12103935691E+03  0.14734326466E+03  0.00000000000E+00 0. -1.
</event>
<event>
 7    1  0.6610867E-006  0.1276101E+03  0.7561462E-02  0.1231046E+00
         -1   -1    0    0    0  501 -0.00000000000E+00  0.00000000000E+00  0.23697670809E+02  0.23697670809E+02  0.00000000000E+00 0.  1.
          1   -1    0    0  501    0  0.00000000000E+00 -0.00000000000E+00 -0.89713768589E+03  0.89713768589E+03  0.00000000000E+00 0. -1.
         23    2    1    2    0    0  0.84656091754E+02  0.46707514388E+02 -0.42415291808E+03  0.44454298621E+03  0.91457765678E+02 0.  0.
          5    1    1    2  502    0  0.32375604974E+02 -0.93088943746E+01 -0.12359420716E+03  0.12817111903E+03  0.41800000000E+01 0. -1.
         -5    1    1    2    0  502 -0.11703169673E+03 -0.37398620013E+02 -0.32569288984E+03  0.34812125145E+03  0.41800000000E+01 0. -1.
        -11    1    3    3    0    0  0.77990616481E+02  0.36400496980E+02 -0.42360098638E+03  0.43225609087E+03  0.00000000000E+00 0. -1.
         11    1    3    3    0    0  0.66654752733E+01  0.10307017408E+02 -0.55193170617E+00  0.12286895339E+02  0.00000000000E+00 0.  1.
</event>
<event>
 7    1  0.6610867E-006  0.8363891E+02  0.7561462E-02  0.1319031E+00
         -1   -1    0    0    0  501 -0.00000000000E+00  0.00000000000E+00  0.12952677073E+03  0.12952677073E+03  0.00000000000E+00 0.  1.
          1   -1    0    0  501    0  0.00000000000E+00 -0.00000000000E+00 -0.10510241235E+03  0.10510241235E+03  0.00000000000E+00 0. -1.
         23    2    1    2    0    0  0.73666455254E+01  0.45449853124E+02  0.41350304790E+00  0.99182453285E+02  0.87846635903E+02 0.  0.
          5    1    1    2  502    0 -0.29441004800E+02 -0.25443048925E+02  0.70172338023E+02  0.80347687744E+02  0.41800000000E+01 0.  1.
         -5    1    1    2    0  502  0.22074359274E+02 -0.20006804199E+02 -0.46161482684E+02  0.55099042054E+02  0.41800000000E+01 0.  1.
        -11    1    3    3    0    0 -0.64816578003E+01  0.69770919707E+02 -0.64447240630E+01  0.70367091690E+02  0.00000000000E+00 0.  1.
         11    1    3    3    0    0  0.13848303326E+02 -0.24321066583E+02  0.68582271109E+01  0.28815361595E+02  0.00000000000E+00 0. -1.
</event>
<event>
 7    1  0.1984653E-005  0.1273767E+03  0.7561462E-02  0.1231401E+00
          2   -1    0    0  501    0  0.00000000000E+00  0.00000000000E+00  0.28771855925E+03  0.28771855925E+03  0.00000000000E+00 0. -1.
         -2   -1    0    0    0  501 -0.00000000000E+00 -0.00000000000E+00 -0.56918644124E+02  0.56918644124E+02  0.00000000000E+00 0.  1.
         23    2    1    2    0    0  0.35215180059E+02  0.68792144713E+02  0.10210409837E+03  0.14923358329E+03  0.76635157705E+02 0.  0.
          5    1    1    2  502    0  0.18930505134E+02 -0.86715897774E+02  0.67046252224E+02  0.11131344613E+03  0.41800000000E+01 0.  1.
         -5    1    1    2    0  502 -0.54145685194E+02  0.17923753062E+02  0.61649564531E+02  0.84090173955E+02  0.41800000000E+01 0.  1.
        -11    1    3    3    0    0  0.37062547218E+02 -0.27297799086E+01  0.31511510777E+02  0.48724320581E+02  0.00000000000E+00 0.  1.
         11    1    3    3    0    0 -0.18473671591E+01  0.71521924621E+02  0.70592587591E+02  0.10050926271E+03  0.00000000000E+00 0. -1.
</event>
<event>
 7    1  0.6610867E-006  0.1322313E+03  0.7561462E-02  0.1224182E+00
         -2   -1    0    0    0  501 -0.00000000000E+00  0.00000000000E+00  0.21995850159E+02  0.21995850159E+02  0.00000000000E+00 0.  1.
          2   -1    0    0  501    0  0.00000000000E+00 -0.00000000000E+00 -0.21828503615E+04  0.21828503615E+04  0.00000000000E+00 0. -1.
         23    2    1    2    0    0 -0.72070580228E+01 -0.12977150899E+03 -0.34190802675E+03  0.37697662357E+03  0.91201369119E+02 0.  0.
          5    1    1    2  502    0 -0.98788178343E+01  0.16300655023E+02 -0.33757987432E+02  0.38992005738E+02  0.41800000000E+01 0. -1.
         -5    1    1    2    0  502  0.17085875857E+02  0.11347085397E+03 -0.17851884971E+04  0.17888775823E+04  0.41800000000E+01 0. -1.
        -11    1    3    3    0    0 -0.15472850758E+00 -0.59148991660E+02 -0.52809686328E+02  0.79293695370E+02  0.00000000000E+00 0.  1.
         11    1    3    3    0    0 -0.70523295152E+01 -0.70622517332E+02 -0.28909834042E+03  0.29768292820E+03  0.00000000000E+00 0. -1.
</event>
<event>
 7    1  0.6610867E-006  0.1192565E+03  0.7561462E-02  0.1244329E+00
          2   -1    0    0  501    0  0.00000000000E+00  0.00000000000E+00  0.18942667059E+03  0.18942667059E+03  0.00000000000E+00 0. -1.
         -2   -1    0    0    0  501 -0.00000000000E+00 -0.00000000000E+00 -0.98385251398E+02  0.98385251398E+02  0.00000000000E+00 0.  1.
         23    2    1    2    0    0 -0.88372956218E+02  0.20994997528E+02  0.18741957883E+02  0.12775700823E+03  0.87863660610E+02 0.  0.
          5    1    1    2  502    0  0.81494730087E+02  0.24756218319E+02  0.74942719623E+02  0.11352596620E+03  0.41800000000E+01 0. -1.
         -5    1    1    2    0  502  0.68782261312E+01 -0.45751215847E+02 -0.26432583103E+01  0.46528947556E+02  0.41800000000E+01 0.  1.
        -11    1    3    3    0    0  0.47266572503E+01  0.12422342397E+02  0.30746199314E+02  0.33496039343E+02  0.00000000000E+00 0. -1.
         11    1    3    3    0    0 -0.93099613468E+02  0.85726551309E+01 -0.12004241431E+02  0.94260968891E+02  0.00000000000E+00 0.  1.
</event>
<event>
 7    1  0.6610867E-006  0.1237415E+03  0.7561462E-02  0.1237049E+00
         -2   -1    0    0    0  501 -0.00000000000E+00  0.00000000000E+00  0.27059250839E+02  0.27059250839E+02  0.00000000000E+00 0.  1.
          2   -1    0    0  501    0  0.00000000000E+00 -0.00000000000E+00 -0.93515733885E+03  0.93515733885E+03  0.00000000000E+00 0. -1.
         23    2    1    2    0    0 -0.55766103690E+02  0.78526944827E+02 -0.22374972415E+03  0.25989427927E+03  0.90580118989E+02 0.  0.
          5    1    1    2  502    0  0.69802337218E+02 -0.57962592600E+02 -0.66319412491E+03  0.66938475344E+03  0.41800000000E+01 0.  1.
         -5    1    1    2    0  502 -0.14036233527E+02 -0.20564352227E+02 -0.21154238952E+02  0.32937556980E+02  0.41800000000E+01 0.  1.
        -11    1    3    3    0    0  0.19792284197E+01  0.73411692222E+02 -0.13911315245E+03  0.15730754300E+03  0.00000000000E+00 0.  1.
         11    1    3    3    0    0 -0.57745332110E+02  0.51152526053E+01 -0.84636571701E+02  0.10258673627E+03  0.00000000000E+00 0. -1.
</event>
<event>
 7    1  0.6610867E-006  0.8645399E+02  0.7561462E-02  0.1311673E+00
         -2   -1    0    0    0  501 -0.00000000000E+00  0.00000000000E+00  0.15025765260E+02  0.15025765260E+02  0.00000000000E+00 0.  1.
          2   -1    0    0  501    0  0.00000000000E+00 -0.00000000000E+00 -0.80792001470E+03  0.80792001470E+03  0.00000000000E+00 0. -1.
         23    2    1    2    0    0  0.27402125943E+02  0.37104236936E+01 -0.34136476344E+03  0.35359443905E+03  0.87945903046E+02 0.  0.
          5    1    1    2  502    0 -0.58952774678E+01  0.35297188569E+02 -0.39782403561E+03  0.39945222684E+03  0.41800000000E+01 0.  1.
         -5    1    1    2    0  502 -0.21506848475E+02 -0.39007612263E+02 -0.53705450395E+02  0.69899114071E+02  0.41800000000E+01 0.  1.
        -11    1    3    3    0    0 -0.13542893889E+02  0.36979871414E+02 -0.14008624469E+03  0.14551658605E+03  0.00000000000E+00 0.  1.
         11    1    3    3    0    0  0.40945019832E+02 -0.33269447721E+02 -0.20127851874E+03  0.20807785300E+03  0.00000000000E+00 0. -1.
</event>
<event>
 7    1  0.6610867E-006  0.7254330E+02  0.7561462E-02  0.1351652E+00
          1   -1    0    0  501    0  0.00000000000E+00  0.00000000000E+00  0.92876988605E+02  0.92876988605E+02  0.00000000000E+00 0. -1.
         -1   -1    0    0    0  501 -0.00000000000E+00 -0.00000000000E+00 -0.13895786972E+03  0.13895786972E+03  0.00000000000E+00 0.  1.
         23    2    1    2    0    0 -0.15012572658E+00 -0.20738416162E+02 -0.53362647535E+02  0.10482892957E+03  0.87814736120E+02 0.  0.
          5    1    1    2  502    0 -0.31994951860E+02  0.38887697569E+02  0.49522637075E+02  0.70752342361E+02  0.41800000000E+01 0.  1.
         -5    1    1    2    0  502  0.32145077586E+02 -0.18149281407E+02 -0.42240870653E+02  0.56253586393E+02  0.41800000000E+01 0.  1.
        -11    1    3    3    0    0  0.12146124306E+02  0.15179198219E+02 -0.62774248399E+02  0.65715619576E+02  0.00000000000E+00 0.  1.
         11    1    3    3    0    0 -0.12296250032E+02 -0.35917614380E+02  0.94116008648E+01  0.39113309991E+02  0.00000000000E+00 0. -1.
</event>
<event>
 7    1  0.6610867E-006  0.9775701E+02  0.7561462E-02  0.1285085E+00
         -1   -1    0    0    0  501 -0.00000000000E+00  0.00000000000E+00  0.64636678090E+02  0.64636678090E+02  0.00000000000E+00 0.  1.
          1   -1    0    0  501    0  0.00000000000E+00 -0.00000000000E+00 -0.65044142152E+03  0.65044142152E+03  0.00000000000E+00 0. -1.
         23    2    1    2    0    0  0.13565726525E+01 -0.22764175590E+02  0.23211501604E+02  0.95077540108E+02  0.89335977336E+02 0.  0.
          5    1    1    2  502    0 -0.47656819763E+02 -0.66515933138E+01 -0.43046762406E+03  0.43316886306E+03  0.41800000000E+01 0. -1.
         -5    1    1    2    0  502  0.46300247110E+02  0.29415768904E+02 -0.17854862098E+03  0.18683169644E+03  0.41800000000E+01 0.  1.
        -11    1    3    3    0    0 -0.30107773571E+02  0.22138731701E+02  0.94434343130E+01  0.38545815886E+02  0.00000000000E+00 0. -1.
         11    1    3    3    0    0  0.31464346223E+02 -0.44902907291E+02  0.13768067291E+02  0.56531724221E+02  0.00000000000E+00 0.  1.
</event>
<event>
 7    1  0.6610867E-006  0.3584683E+03  0.7561462E-02  0.1059192E+00
         -1   -1    0    0    0  501 -0.00000000000E+00  0.00000000000E+00  0.47044375348E+03  0.47044375348E+03  0.00000000000E+00 0.  1.
          1   -1    0    0  501    0  0.00000000000E+00 -0.00000000000E+00 -0.31441162408E+03  0.31441162408E+03  0.00000000000E+00 0. -1.
         23    2    1    2    0    0 -0.30951279332E+03 -0.16336863755E+03  0.19368069343E+03  0.41128659015E+03  0.95692043894E+02 0.  0.
          5    1    1    2  502    0  0.13780069505E+03  0.24105380695E+02  0.28361313722E+02  0.14280034121E+03  0.41800000000E+01 0. -1.
         -5    1    1    2    0  502  0.17171209827E+03  0.13926325685E+03 -0.66009877757E+02  0.23076844621E+03  0.41800000000E+01 0. -1.
        -11    1    3    3    0    0 -0.12188239114E+03 -0.29608738093E+02  0.30946446991E+02  0.12918853363E+03  0.00000000000E+00 0. -1.
         11    1    3    3    0    0 -0.18763040218E+03 -0.13375989945E+03  0.16273424644E+03  0.28209805651E+03  0.00000000000E+00 0.  1.
</event>
<event>
 7    1  0.6610867E-006  0.7427242E+02  0.7561462E-02  0.1346139E+00
          2   -1    0    0  501    0  0.00000000000E+00  0.00000000000E+00  0.61077489262E+03  0.61077489262E+03  0.00000000000E+00 0. -1.
         -2   -1    0    0    0  501 -0.00000000000E+00 -0.00000000000E+00 -0.28154273094E+02  0.28154273094E+02  0.00000000000E+00 0.  1.
         23    2    1    2    0    0  0.25869419353E+02  0.32591526642E+02  0.10793087419E+03  0.14628377663E+03  0.89545715892E+02 0.  0.
          5    1    1    2  502    0 -0.21309267818E+02  0.10186298911E+02  0.10060792219E+02  0.26010334879E+02  0.41800000000E+01 0. -1.
         -5    1    1    2    0  502 -0.45601515352E+01 -0.42777825553E+02  0.46462895312E+03  0.46663505421E+03  0.41800000000E+01 0. -1.
        -11    1    3    3    0    0 -0.21375658040E+02  0.25960093200E+02  0.65802164787E+01  0.34265791170E+02  0.00000000000E+00 0.  1.
         11    1    3    3    0    0  0.47245077394E+02  0.66314334425E+01  0.10135065772E+03  0.11201798546E+03  0.00000000000E+00 0. -1.
</event>
<event>
 7    1  0.9147498E-006  0.1433664E+03  0.7561462E-02  0.1208870E+00
         -3   -1    0    0    0  501 -0.00000000000E+00  0.00000000000E+00  0.31818660966E+03  0.31818660966E+03  0.00000000000E+00 0.  1.
          3   -1    0    0  501    0  0.00000000000E+00 -0.00000000000E+00 -0.75864551128E+02  0.75864551128E+02  0.00000000000E+00 0. -1.
         23    2    1    2    0    0  0.83220704537E+02 -0.64205044777E+02  0.15685411063E+03  0.20965953507E+03  0.91136903532E+02 0.  0.
          5    1    1    2  502    0 -0.99289506191E+02  0.38718924652E+01  0.63857578202E+02  0.11818908700E+03  0.41800000000E+01 0. -1.
         -5    1    1    2    0  502  0.16068801654E+02  0.60333152312E+02  0.21610369694E+02  0.66202538718E+02  0.41800000000E+01 0. -1.
        -11    1    3    3    0    0  0.66222705187E+02 -0.78352093909E+02  0.15699776861E+03  0.18754411921E+03  0.00000000000E+00 0.  1.
         11    1    3    3    0    0  0.16997999350E+02  0.14147049132E+02 -0.14365797655E+00  0.22115415860E+02  0.00000000000E+00 0. -1.
</event>
<event>
 7    1  0.6610867E-006  0.3248413E+03  0.7561462E-02  0.1073443E+00
         -1   -1    0    0    0  501 -0.00000000000E+00  0.00000000000E+00  0.55338447113E+03  0.55338447113E+03  0.00000000000E+00 0.  1.
          1   -1    0    0  501    0  0.00000000000E+00 -0.00000000000E+00 -0.20630659942E+03  0.20630659942E+03  0.00000000000E+00 0. -1.
         23    2    1    2    0    0  0.24442116833E+03  0.15801120759E+03  0.16243738318E+03  0.34714473781E+03  0.97027399647E+02 0.  0.
          5    1    1    2  502    0 -0.46397355715E+02 -0.15333267027E+03  0.34409615407E+02  0.16390581571E+03  0.41800000000E+01 0. -1.
         -5    1    1    2    0  502 -0.19802381261E+03 -0.46785373178E+01  0.15023087313E+03  0.24864051704E+03  0.41800000000E+01 0.  1.
        -11    1    3    3    0    0  0.21946167161E+03  0.13729349442E+03  0.10139267829E+03  0.27801691338E+03  0.00000000000E+00 0. -1.
         11    1    3    3    0    0  0.24959496723E+02  0.20717713173E+02  0.61044704883E+02  0.69127824427E+02  0.00000000000E+00 0.  1.
</event>
<event>
 7    1  0.6610867E-006  0.8185348E+02  0.7561462E-02  0.1323872E+00
         -3   -1    0    0    0  501 -0.00000000000E+00  0.00000000000E+00  0.15195767549E+02  0.15195767549E+02  0.00000000000E+00 0.  1.
          3   -1    0    0  501    0  0.00000000000E+00 -0.00000000000E+00 -0.10235743708E+04  0.10235743708E+04  0.00000000000E+00 0. -1.
         23    2    1    2    0    0  0.22876681815E+02 -0.49715547009E+02 -0.29964657069E+03  0.31876455998E+03  0.93956368515E+02 0.  0.
          5    1    1    2  502    0 -0.96611957688E+01  0.24987076448E+02 -0.67665184805E+03  0.67719486750E+03  0.41800000000E+01 0. -1.
         -5    1    1    2    0  502 -0.13215486046E+02  0.24728470561E+02 -0.32080184518E+02  0.42810710885E+02  0.41800000000E+01 0.  1.
        -11    1    3    3    0    0  0.49560785017E+02 -0.61576112211E+02 -0.23159488298E+03  0.24471223678E+03  0.00000000000E+00 0.  1.
         11    1    3    3    0    0 -0.26684103202E+02  0.11860565202E+02 -0.68051687709E+02  0.74052323195E+02  0.00000000000E+00 0. -1.
</event>
<event>
 7    1  0.6610867E-006  0.8790251E+02  0.7561462E-02  0.1308012E+00
          1   -1    0    0  501    0  0.00000000000E+00  0.00000000000E+00  0.22725499043E+03  0.22725499043E+03  0.00000000000E+00 0. -1.
         -1   -1    0    0    0  501 -0.00000000000E+00 -0.00000000000E+00 -0.62011582915E+02  0.62011582915E+02  0.00000000000E+00 0.  1.
         23    2    1    2    0    0  0.11875179020E+02 -0.35480977847E+02  0.38033715967E+02  0.10542674345E+03  0.90930275589E+02 0.  0.
          5    1    1    2  502    0 -0.41619184620E+02  0.61981000072E+02  0.33515030211E+02  0.81942239098E+02  0.41800000000E+01 0. -1.
         -5    1    1    2    0  502  0.29744005600E+02 -0.26500022225E+02  0.93694661342E+02  0.10189759080E+03  0.41800000000E+01 0.  1.
        -11    1    3    3    0    0  0.54482537504E+00 -0.45708183265E+02  0.61989869232E+02  0.77021287573E+02  0.00000000000E+00 0. -1.
         11    1    3    3    0    0  0.11330353645E+02  0.10227205417E+02 -0.23956153265E+02  0.28405455878E+02  0.00000000000E+00 0.  1.
</event>
<event>
 7    1  0.6610867E-006  0.1410424E+03  0.7561462E-02  0.1211933E+00
          1   -1    0    0  501    0  0.00000000000E+00  0.00000000000E+00  0.12528147548E+04  0.12528147548E+04  0.00000000000E+00 0. -1.
         -1   -1    0    0    0  501 -0.00000000000E+00 -0.00000000000E+00 -0.47467349265E+02  0.47467349265E+02  0.00000000000E+00 0.  1.
         23    2    1    2    0    0 -0.13031640185E+03 -0.14353116554E+02  0.12352934124E+03  0.20339223183E+03  0.94448532413E+02 0.  0.
          5    1    1    2  502    0 -0.55899491992E+01 -0.94605520911E+01  0.79649065512E+01  0.14200764567E+02  0.41800000000E+01 0.  1.
         -5    1    1    2    0  502  0.13590635105E+03  0.23813668645E+02  0.10738531577E+04  0.10826891077E+04  0.41800000000E+01 0.  1.
        -11    1    3    3    0    0 -0.15922072055E+02 -0.77369951192E+01  0.78179995111E+02  0.80159123670E+02  0.00000000000E+00 0. -1.
         11    1    3    3    0    0 -0.11439432979E+03 -0.66161214349E+01  0.45349346128E+02  0.12323310816E+03  0.00000000000E+00 0.  1.
</event>
<event>
 7    1  0.6610867E-006  0.1382664E+03  0.7561462E-02  0.1215681E+00
          2   -1    0    0  501    0  0.00000000000E+00  0.00000000000E+00  0.92368167660E+03  0.92368167660E+03  0.00000000000E+00 0. -1.
         -2   -1    0    0    0  501 -0.00000000000E+00 -0.00000000000E+00 -0.32044879738E+02  0.32044879738E+02  0.00000000000E+00 0.  1.
         23    2    1    2    0    0  0.10494652184E+03 -0.30452135917E+02  0.20902984407E+03  0.25320159779E+03  0.92067738009E+02 0.  0.
          5    1    1    2  502    0 -0.27450422440E+02 -0.47991669303E+02  0.24883600846E+03  0.25493834063E+03  0.41800000000E+01 0. -1.
         -5    1    1    2    0  502 -0.77496099398E+02  0.78443805220E+02  0.43377094432E+03  0.44758661792E+03  0.41800000000E+01 0. -1.
        -11    1    3    3    0    0  0.69600080998E+02 -0.11215571039E+02  0.43473367207E+02  0.82824476847E+02  0.00000000000E+00 0.  1.
         11    1    3    3    0    0  0.35346440840E+02 -0.19236564879E+02  0.16555647686E+03  0.17037712094E+03  0.00000000000E+00 0. -1.
</event>
<event>
 7    1  0.6610867E-006  0.1858389E+03  0.7561462E-02  0.1162269E+00
         -1   -1    0    0    0  501 -0.00000000000E+00  0.00000000000E+00  0.66658141186E+02  0.66658141186E+02  0.00000000000E+00 0.  1.
          1   -1    0    0  501    0  0.00000000000E+00 -0.00000000000E+00 -0.10602616606E+04  0.10602616606E+04  0.00000000000E+00 0. -1.
         23    2    1    2    0    0 -0.12499330790E+03  0.94787888631E+02 -0.87172288191E+02  0.19854823621E+03  0.84937173383E+02 0.  0.
          5    1    1    2  502    0  0.80868214286E+02  0.96711728978E+01 -0.27547383607E+03  0.28729167483E+03  0.41800000000E+01 0. -1.
         -5    1    1    2    0  502  0.44125093615E+02 -0.10445906153E+03 -0.63095739517E+03  0.64107989076E+03  0.41800000000E+01 0. -1.
        -11    1    3    3    0    0 -0.10900228915E+03  0.34577628701E+02 -0.42968834358E+02  0.12216150037E+03  0.00000000000E+00 0. -1.
         11    1    3    3    0    0 -0.15991018752E+02  0.60210259930E+02 -0.44203453833E+02  0.76386735840E+02  0.00000000000E+00 0.  1.
</event>
<event>
 7    1  0.6610867E-006  0.9425752E+02  0.7561462E-02  0.1292857E+00
         -2   -1    0    0    0  501 -0.00000000000E+00  0.00000000000E+00  0.20071875875E+03  0.20071875875E+03  0.00000000000E+00 0.  1.
          2   -1    0    0  501    0  0.00000000000E+00 -0.00000000000E+00 -0.70530470750E+02  0.70530470750E+02  0.00000000000E+00 0. -1.
         23    2    1    2    0    0  0.18946800857E+02 -0.45474133163E+01  0.93899121625E+02  0.13955196175E+03  0.10138069223E+03 0.  0.
          5    1    1    2  502    0  0.31581160472E+02 -0.39256341309E+02 -0.82742344315E+01  0.51228560249E+02  0.41800000000E+01 0. -1.
         -5    1    1    2    0  502 -0.50527961329E+02  0.43803754625E+02  0.44563400812E+02  0.80468707503E+02  0.41800000000E+01 0. -1.
        -11    1    3    3    0    0  0.22601507937E+02 -0.34247225043E+02  0.10080956291E+03  0.10884056486E+03  0.00000000000E+00 0.  1.
         11    1    3    3    0    0 -0.36547070804E+01  0.29699811726E+02 -0.69104412866E+01  0.30711396894E+02  0.00000000000E+00 0. -1.
</event>
<event>
 7    1  0.6610867E-006  0.1588236E+03  0.7561462E-02  0.1190031E+00
         -1   -1    0    0    0  501 -0.00000000000E+00  0.00000000000E+00  0.23876166031E+02  0.23876166031E+02  0.00000000000E+00 0.  1.
          1   -1    0    0  501    0  0.00000000000E+00 -0.00000000000E+00 -0.18290294020E+04  0.18290294020E+04  0.00000000000E+00 0. -1.
         23    2    1    2    0    0  0.12482181797E+03 -0.36373819946E+02 -0.33099530567E+03  0.36774806794E+03  0.93686755104E+02 0.  0.
          5    1    1    2  502    0 -0.13465042519E+03 -0.35553196529E+01 -0.97137215327E+03  0.98067563947E+03  0.41800000000E+01 0. -1.
         -5    1    1    2    0  502  0.98286072218E+01  0.39929139599E+02 -0.50278577704E+03  0.50448186063E+03  0.41800000000E+01 0. -1.
        -11    1    3    3    0    0  0.39103731478E+02  0.14695505202E+02 -0.19293921236E+03  0.19740972457E+03  0.00000000000E+00 0. -1.
         11    1    3    3    0    0  0.85718086493E+02 -0.51069325149E+02 -0.13805609330E+03  0.17033834337E+03  0.00000000000E+00 0.  1.
</event>
<event>
 7    1  0.6610867E-006  0.1945011E+03  0.7561462E-02  0.1154463E+00
          1   -1    0    0  501    0  0.00000000000E+00  0.00000000000E+00  0.62646722295E+03  0.62646722295E+03  0.00000000000E+00 0. -1.
         -1   -1    0    0    0  501 -0.00000000000E+00 -0.00000000000E+00 -0.96635106555E+02  0.96635106555E+02  0.00000000000E+00 0.  1.
         23    2    1    2    0    0  0.99160865115E+02 -0.85829698794E+02  0.33761505463E+02  0.16299763520E+03  0.90712598163E+02 0.  0.
          5    1    1    2  502    0 -0.69171968450E+02  0.15337587163E+03  0.23709776158E+03  0.29076062347E+03  0.41800000000E+01 0. -1.
         -5    1    1    2    0  502 -0.29988896665E+02 -0.67546172834E+02  0.25897284935E+03  0.26934407083E+03  0.41800000000E+01 0.  1.
        -11    1    3    3    0    0  0.59847794172E+02 -0.92011622323E+01 -0.17172578927E+02  0.62938996820E+02  0.00000000000E+00 0. -1.
         11    1    3    3    0    0  0.39313070943E+02 -0.76628536562E+02  0.50934084390E+02  0.10005863838E+03  0.00000000000E+00 0.  1.
</event>
<event>
 7    1  0.6610867E-006  0.9652361E+02  0.7561462E-02  0.1287781E+00
          2   -1    0    0  501    0  0.00000000000E+00  0.00000000000E+00  0.29868633097E+03  0.29868633097E+03  0.00000000000E+00 0. -1.
         -2   -1    0    0    0  501 -0.00000000000E+00 -0.00000000000E+00 -0.52429184561E+02  0.52429184561E+02  0.00000000000E+00 0.  1.
         23    2    1    2    0    0 -0.16157024445E+01  0.64391417670E+02  0.11841637239E+03  0.16101400311E+03  0.88057973992E+02 0.  0.
          5    1    1    2  502    0 -0.43630765351E+02  0.66226516135E+01  0.84230566048E+02  0.95182791808E+02  0.41800000000E+01 0.  1.
         -5    1    1    2    0  502  0.45246467796E+02 -0.71014069283E+02  0.43610207977E+02  0.94918720619E+02  0.41800000000E+01 0.  1.
        -11    1    3    3    0    0 -0.48339762604E+00  0.16200821022E+02 -0.13164946108E+02  0.20880998086E+02  0.00000000000E+00 0.  1.
         11    1    3    3    0    0 -0.11323048184E+01  0.48190596648E+02  0.13158131850E+03  0.14013300502E+03  0.00000000000E+00 0. -1.
</event>
<event>
 7    1  0.6610867E-006  0.1089371E+03  0.7561462E-02  0.1262551E+00
          1   -1    0    0  501    0  0.00000000000E+00  0.00000000000E+00  0.29526813652E+03  0.29526813652E+03  0.00000000000E+00 0. -1.
         -1   -1    0    0    0  501 -0.00000000000E+00 -0.00000000000E+00 -0.10795355093E+03  0.10795355093E+03  0.00000000000E+00 0.  1.
         23    2    1    2    0    0  0.54847679547E+02  0.63824047655E+02 -0.41642368123E+02  0.13336684450E+03  0.94714578485E+02 0.  0.
          5    1    1    2  502    0 -0.23203567304E+02 -0.63554647741E+02  0.22806112098E+03  0.23792214291E+03  0.41800000000E+01 0. -1.
         -5    1    1    2    0  502 -0.31644112244E+02 -0.26939991378E+00  0.89583273146E+00  0.31932700047E+02  0.41800000000E+01 0.  1.
        -11    1    3    3    0    0  0.44882970820E+02  0.84239007626E+02 -0.12271112645E+02  0.96235501147E+02  0.00000000000E+00 0.  1.
         11    1    3    3    0    0  0.99647087273E+01 -0.20414959971E+02 -0.29371255478E+02  0.37131343351E+02  0.00000000000E+00 0. -1.
</event>
<event>
 7    1  0.6610867E-006  0.8147383E+02  0.7561462E-02  0.1324920E+00
          1   -1    0    0  501    0  0.00000000000E+00  0.00000000000E+00  0.55309817303E+03  0.55309817303E+03  0.00000000000E+00 0. -1.
         -1   -1    0    0    0  501 -0.00000000000E+00 -0.00000000000E+00 -0.24375110525E+02  0.24375110525E+02  0.00000000000E+00 0.  1.
         23    2    1    2    0    0  0.35051024964E+02 -0.21384875576E+02  0.23590093840E+03  0.25641545471E+03  0.91726470663E+02 0.  0.
          5    1    1    2  502    0 -0.27987233144E+02 -0.10006899623E+02  0.38397039786E+01  0.30259527190E+02  0.41800000000E+01 0. -1.
         -5    1    1    2    0  502 -0.70637918197E+01  0.31391775199E+02  0.28898242013E+03  0.29079830166E+03  0.41800000000E+01 0. -1.
        -11    1    3    3    0    0  0.66338714460E+02 -0.19481586310E+02  0.16408340017E+03  0.17805538310E+03  0.00000000000E+00 0.  1.
         11    1    3    3    0    0 -0.31287689496E+02 -0.19032892655E+01  0.71817538235E+02  0.78360071606E+02  0.00000000000E+00 0. -1.
</event>
<event>
 7    1  0.6610867E-006  0.9391133E+02  0.7561462E-02  0.1293647E+00
         -2   -1    0    0    0  501 -0.00000000000E+00  0.00000000000E+00  0.55180122133E+03  0.55180122133E+03  0.00000000000E+00 0. -1.
          2   -1    0    0  501    0  0.00000000000E+00 -0.00000000000E+00 -0.48688620179E+02  0.48688620179E+02  0.00000000000E+00 0.  1.
         23    2    1    2    0    0  0.54938557490E+02  0.61170043013E+02  0.40101106041E+03  0.41929253111E+03  0.90754266073E+02 0.  0.
          5    1    1    2  502    0 -0.13038687540E+02 -0.18134532464E+02 -0.29052462366E+02  0.36883419174E+02  0.41800000000E+01 0.  1.
         -5    1    1    2    0  502 -0.41899869950E+02 -0.43035510549E+02  0.13115400311E+03  0.14431389123E+03  0.41800000000E+01 0.  1.
        -11    1    3    3    0    0 -0.11740955601E+02  0.28113654202E+02  0.37872990815E+02  0.48606491586E+02  0.00000000000E+00 0.  1.
         11    1    3    3    0    0  0.66679513091E+02  0.33056388811E+02  0.36313806959E+03  0.37068603952E+03  0.00000000000E+00 0. -1.
</event>
<event>
 7    1  0.6610867E-006  0.1237796E+03  0.7561462E-02  0.1236989E+00
          2   -1    0    0  501    0  0.00000000000E+00  0.00000000000E+00  0.86197709976E+03  0.86197709976E+03  0.00000000000E+00 0. -1.
         -2   -1    0    0    0  501 -0.00000000000E+00 -0.00000000000E+00 -0.20920683391E+02  0.20920683391E+02  0.00000000000E+00 0.  1.
         23    2    1    2    0    0 -0.39320977107E+02  0.66904193583E+02  0.36942684943E+03  0.38882828088E+03  0.93214401089E+02 0.  0.
          5    1    1    2  502    0 -0.22425502953E+02 -0.64904817821E+02  0.13211107432E+03  0.14895082046E+03  0.41800000000E+01 0.  1.
         -5    1    1    2    0  502  0.61746480059E+02 -0.19993757611E+01  0.33951849262E+03  0.34511868181E+03  0.41800000000E+01 0.  1.
        -11    1    3    3    0    0 -0.64072874517E+02  0.66129072203E+02  0.24007354973E+03  0.25712583830E+03  0.00000000000E+00 0.  1.
         11    1    3    3    0    0  0.24751897410E+02  0.77512137964E+00  0.12935329970E+03  0.13170244258E+03  0.00000000000E+00 0. -1.
</event>
<event>
 7    1  0.6610867E-006  0.1048469E+03  0.7561462E-02  0.1270421E+00
          1   -1    0    0  501    0  0.00000000000E+00  0.00000000000E+00  0.29523613293E+03  0.29523613293E+03  0.00000000000E+00 0. -1.
         -1   -1    0    0    0  501 -0.00000000000E+00 -0.00000000000E+00 -0.49407485298E+02  0.49407485298E+02  0.00000000000E+00 0.  1.
         23    2    1    2    0    0  0.12475031414E+02 -0.38232734402E+02  0.92795338045E+02  0.13545137191E+03  0.90104001026E+02 0.  0.
          5    1    1    2  502    0  0.44340108452E+02  0.29832694097E+02  0.14033437901E+03  0.15022398339E+03  0.41800000000E+01 0. -1.
         -5    1    1    2    0  502 -0.56815139866E+02  0.84000403052E+01  0.12698930585E+02  0.58968262931E+02  0.41800000000E+01 0.  1.
        -11    1    3    3    0    0 -0.35927189984E+02 -0.34739604423E+02  0.43132732216E+02  0.66015420048E+02  0.00000000000E+00 0.  1.
         11    1    3    3    0    0  0.48402221398E+02 -0.34931299787E+01  0.49662605828E+02  0.69435951862E+02  0.00000000000E+00 0. -1.
</event>
<event>
 7    1  0.6610867E-006  0.6153948E+02  0.7561462E-02  0.1391483E+00
         -2   -1    0    0    0  501 -0.00000000000E+00  0.00000000000E+00  0.42853004600E+02  0.42853004600E+02  0.00000000000E+00 0.  1.
          2   -1    0    0  501    0  0.00000000000E+00 -0.00000000000E+00 -0.87705141112E+03  0.87705141112E+03  0.00000000000E+00 0. -1.
         23    2    1    2    0    0  0.17836351904E+02  0.36531007553E+02 -0.31761470693E+02  0.10450847047E+03  0.90887729741E+02 0.  0.
          5    1    1    2  502    0 -0.13645418758E+02 -0.49388316864E+02 -0.79923144875E+03  0.80088312778E+03  0.41800000000E+01 0. -1.
         -5    1    1    2    0  502 -0.41909331457E+01  0.12857309311E+02 -0.32054870739E+01  0.14512817464E+02  0.41800000000E+01 0.  1.
        -11    1    3    3    0    0 -0.12553333050E+02  0.44314429665E+01  0.27514319208E+02  0.30565693497E+02  0.00000000000E+00 0.  1.
         11    1    3    3    0    0  0.30389684954E+02  0.32099564586E+02 -0.59275789901E+02  0.73942776974E+02  0.00000000000E+00 0. -1.
</event>
<event>
 7    1  0.6610867E-006  0.1198497E+03  0.7561462E-02  0.1243345E+00
         -1   -1    0    0    0  501 -0.00000000000E+00  0.00000000000E+00  0.24742185801E+02  0.24742185801E+02  0.00000000000E+00 0.  1.
          1   -1    0    0  501    0  0.00000000000E+00 -0.00000000000E+00 -0.76392146423E+03  0.76392146423E+03  0.00000000000E+00 0. -1.
         23    2    1    2    0    0 -0.26664506297E+02  0.64592466683E+02 -0.19574973228E+03  0.22666227019E+03  0.90413740050E+02 0.  0.
          5    1    1    2  502    0  0.69103376649E+02 -0.58849045772E+02 -0.26216182046E+03  0.27746131146E+03  0.41800000000E+01 0.  1.
         -5    1    1    2    0  502 -0.42438870352E+02 -0.57434209113E+01 -0.28126772569E+03  0.28454006838E+03  0.41800000000E+01 0.  1.
        -11    1    3    3    0    0 -0.37492139146E+02  0.79199467439E+02 -0.11895712841E+03  0.14774645356E+03  0.00000000000E+00 0.  1.
         11    1    3    3    0    0  0.10827632850E+02 -0.14607000756E+02 -0.76792603876E+02  0.78915816629E+02  0.00000000000E+00 0. -1.
</event>
<event>
 7    1  0.6610867E-006  0.1187521E+03  0.7561462E-02  0.1245170E+00
         -1   -1    0    0    0  501 -0.00000000000E+00  0.00000000000E+00  0.84753055063E+02  0.84753055063E+02  0.00000000000E+00 0.  1.
          1   -1    0    0  501    0  0.00000000000E+00 -0.00000000000E+00 -0.26587941546E+03  0.26587941546E+03  0.00000000000E+00 0. -1.
         23    2    1    2    0    0 -0.80682373980E+02 -0.58160717332E+02 -0.50117515894E+02  0.14398576223E+03  0.91256889139E+02 0.  0.
          5    1    1    2  502    0  0.23739282627E+02 -0.13010108609E+01 -0.12125640510E+03  0.12363589425E+03  0.41800000000E+01 0.  1.
         -5    1    1    2    0  502  0.56943091352E+02  0.59461728193E+02 -0.97524393971E+01  0.83010814035E+02  0.41800000000E+01 0.  1.
        -11    1    3    3    0    0  0.51578100561E+01 -0.43549531324E+02 -0.33863962246E+02  0.55406972685E+02  0.00000000000E+00 0. -1.
         11    1    3    3    0    0 -0.85840184036E+02 -0.14611186008E+02 -0.16253553648E+02  0.88578789550E+02  0.00000000000E+00 0.  1.
</event>
<event>
 7    1  0.6610867E-006  0.9019646E+02  0.7561462E-02  0.1302377E+00
          1   -1    0    0  501    0  0.00000000000E+00  0.00000000000E+00  0.10873665162E+04  0.10873665162E+04  0.00000000000E+00 0. -1.
         -1   -1    0    0    0  501 -0.00000000000E+00 -0.00000000000E+00 -0.21417742940E+02  0.21417742940E+02  0.00000000000E+00 0.  1.
         23    2    1    2    0    0  0.57315774170E+01  0.53910530941E+02  0.16256982184E+03  0.19517547730E+03  0.93409440846E+02 0.  0.
          5    1    1    2  502    0 -0.17535411081E+02  0.16914912576E+02  0.38555062121E+02  0.45799237159E+02  0.41800000000E+01 0.  1.
         -5    1    1    2    0  502  0.11803833664E+02 -0.70825443517E+02  0.86482388925E+03  0.86780954464E+03  0.41800000000E+01 0.  1.
        -11    1    3    3    0    0  0.34831522934E+02  0.26426100472E+02  0.21857500936E+02  0.48880713203E+02  0.00000000000E+00 0.  1.
         11    1    3    3    0    0 -0.29099945517E+02  0.27484430469E+02  0.14071232090E+03  0.14629476410E+03  0.00000000000E+00 0. -1.
</event>
<event>
 7    1  0.6610867E-006  0.7082604E+02  0.7561462E-02  0.1357306E+00
          1   -1    0    0  501    0  0.00000000000E+00  0.00000000000E+00  0.28700921081E+03  0.28700921081E+03  0.00000000000E+00 0. -1.
         -1   -1    0    0    0  501 -0.00000000000E+00 -0.00000000000E+00 -0.42881280016E+02  0.42881280016E+02  0.00000000000E+00 0.  1.
         23    2    1    2    0    0 -0.10307448035E+02  0.14540378618E+02  0.95165064750E+02  0.13455322227E+03  0.93437219454E+02 0.  0.
          5    1    1    2  502    0 -0.19420885293E+02 -0.40837072226E+02  0.46993129030E+01  0.45655155189E+02  0.41800000000E+01 0. -1.
         -5    1    1    2    0  502  0.29728333328E+02  0.26296693608E+02  0.14426355314E+03  0.14968211337E+03  0.41800000000E+01 0. -1.
        -11    1    3    3    0    0 -0.17634388327E+02  0.32476359559E+02  0.10606791560E+03  0.11232136173E+03  0.00000000000E+00 0. -1.
         11    1    3    3    0    0  0.73269402916E+01 -0.17935980941E+02 -0.10902850849E+02  0.22231860538E+02  0.00000000000E+00 0.  1.
</event>
<event>
 7    1  0.6610867E-006  0.1691839E+03  0.7561462E-02  0.1178702E+00
          2   -1    0    0  501    0  0.00000000000E+00  0.00000000000E+00  0.17076348872E+04  0.17076348872E+04  0.00000000000E+00 0.  1.
         -2   -1    0    0    0  501 -0.00000000000E+00 -0.00000000000E+00 -0.19264881136E+02  0.19264881136E+02  0.00000000000E+00 0. -1.
         23    2    1    2    0    0  0.14044843389E+03 -0.32984120554E+02  0.71021356550E+03  0.73027990039E+03  0.89953929935E+02 0.  0.
          5    1    1    2  502    0  0.10308412404E+02  0.31998055354E+02  0.99374069509E+02  0.10498960426E+03  0.41800000000E+01 0. -1.
         -5    1    1    2    0  502 -0.15075684629E+03  0.98606520010E+00  0.87878237108E+03  0.89163026371E+03  0.41800000000E+01 0. -1.
        -11    1    3    3    0    0  0.91230027541E+02 -0.46826086314E+02  0.60106814711E+03  0.60975283334E+03  0.00000000000E+00 0.  1.
         11    1    3    3    0    0  0.49218406349E+02  0.13841965760E+02  0.10914541838E+03  0.12052706706E+03  0.00000000000E+00 0. -1.
</event>
<event>
 7    1  0.6610867E-006  0.1397298E+03  0.7561462E-02  0.1213693E+00
          3   -1    0    0  501    0  0.00000000000E+00  0.00000000000E+00  0.20276478208E+03  0.20276478208E+03  0.00000000000E+00 0. -1.
         -3   -1    0    0    0  501 -0.00000000000E+00 -0.00000000000E+00 -0.11735021200E+03  0.11735021200E+03  0.00000000000E+00 0.  1.
         23    2    1    2    0    0 -0.88928204963E+02  0.51542456964E+02  0.27673906446E+01  0.13833982718E+03  0.92549439898E+02 0.  0.
          5    1    1    2  502    0 -0.41810418770E+01  0.34496915719E+02  0.15928135138E+02  0.38453818981E+02  0.41800000000E+01 0.  1.
         -5    1    1    2    0  502  0.93109246840E+02 -0.86039372683E+02  0.66719044292E+02  0.14332134792E+03  0.41800000000E+01 0.  1.
        -11    1    3    3    0    0 -0.21292935333E+02 -0.12314628310E+02 -0.30830441123E+02  0.39440528208E+02  0.00000000000E+00 0.  1.
         11    1    3    3    0    0 -0.67635269630E+02  0.63857085274E+02  0.33597831768E+02  0.98899298972E+02  0.00000000000E+00 0. -1.
</event>
<event>
 7    1  0.6610867E-006  0.1227931E+03  0.7561462E-02  0.1238559E+00
         -2   -1    0    0    0  501 -0.00000000000E+00  0.00000000000E+00  0.56195083117E+02  0.56195083117E+02  0.00000000000E+00 0.  1.
          2   -1    0    0  501    0  0.00000000000E+00 -0.00000000000E+00 -0.35461480193E+03  0.35461480193E+03  0.00000000000E+00 0. -1.
         23    2    1    2    0    0  0.12325338223E+02 -0.85663256451E+02 -0.94002134077E+02  0.15600785361E+03  0.89509450396E+02 0.  0.
          5    1    1    2  502    0  0.33967700065E+02 -0.51718927795E+01 -0.11344044447E+02  0.36424069886E+02  0.41800000000E+01 0.  1.
         -5    1    1    2    0  502 -0.46293038288E+02  0.90835149231E+02 -0.19307354029E+03  0.21837796154E+03  0.41800000000E+01 0.  1.
        -11    1    3    3    0    0  0.35791751922E+02 -0.75119330389E+02 -0.99492191082E+02  0.12970219501E+03  0.00000000000E+00 0. -1.
         11    1    3    3    0    0 -0.23466413699E+02 -0.10543926063E+02  0.54900570058E+01  0.26305658605E+02  0.00000000000E+00 0.  1.
</event>
<event>
 7    1  0.6610867E-006  0.1384939E+03  0.7561462E-02  0.1215370E+00
         -2   -1    0    0    0  501 -0.00000000000E+00  0.00000000000E+00  0.12346145252E+02  0.12346145252E+02  0.00000000000E+00 0.  1.
          2   -1    0    0  501    0  0.00000000000E+00 -0.00000000000E+00 -0.19687418399E+04  0.19687418399E+04  0.00000000000E+00 0. -1.
         23    2    1    2    0    0  0.10061248957E+03 -0.18486373559E+02 -0.64392477863E+03  0.65809242506E+03  0.89341481579E+02 0.  0.
          5    1    1    2  502    0 -0.40957856308E+02 -0.40135430477E+02 -0.91469797955E+03  0.91650328148E+03  0.41800000000E+01 0. -1.
         -5    1    1    2    0  502 -0.59654633266E+02  0.58621804035E+02 -0.39777293645E+03  0.40649227859E+03  0.41800000000E+01 0.  1.
        -11    1    3    3    0    0  0.11559293399E+03 -0.26740334524E+02 -0.56949171388E+03  0.58171950634E+03  0.00000000000E+00 0. -1.
         11    1    3    3    0    0 -0.14980444419E+02  0.82539609655E+01 -0.74433064746E+02  0.76372918722E+02  0.00000000000E+00 0.  1.
</event>
<event>
 7    1  0.6610867E-006  0.1064860E+03  0.7561462E-02  0.1267219E+00
         -1   -1    0    0    0  501 -0.00000000000E+00  0.00000000000E+00  0.10690484427E+03  0.10690484427E+03  0.00000000000E+00 0.  1.
          1   -1    0    0  501    0  0.00000000000E+00 -0.00000000000E+00 -0.11755635077E+03  0.11755635077E+03  0.00000000000E+00 0. -1.
         23    2    1    2    0    0 -0.29627294844E+02  0.63273440687E+01 -0.83469655929E+01  0.95741443070E+02  0.90437493352E+02 0.  0.
          5    1    1    2  502    0  0.34851273057E+01 -0.60117816090E+02 -0.24003795356E+02  0.64961161591E+02  0.41800000000E+01 0. -1.
         -5    1    1    2    0  502  0.26142167538E+02  0.53790472022E+02  0.21699254452E+02  0.63758590383E+02  0.41800000000E+01 0. -1.
        -11    1    3    3    0    0 -0.39287187700E+02 -0.33526538957E+02 -0.15907974295E+02  0.54042349856E+02  0.00000000000E+00 0. -1.
         11    1    3    3    0    0  0.96598928565E+01  0.39853883026E+02  0.75610087017E+01  0.41699093213E+02  0.00000000000E+00 0.  1.
</event>
<event>
 7    1  0.6610867E-006  0.8543054E+02  0.7561462E-02  0.1314310E+00
         -2   -1    0    0    0  501 -0.00000000000E+00  0.00000000000E+00  0.64056594602E+02  0.64056594602E+02  0.00000000000E+00 0.  1.
          2   -1    0    0  501    0  0.00000000000E+00 -0.00000000000E+00 -0.27423073827E+03  0.27423073827E+03  0.00000000000E+00 0. -1.
         23    2    1    2    0    0 -0.36538792778E+01 -0.11465117991E+02 -0.10198172971E+03  0.13112490846E+03  0.81539368767E+02 0.  0.
          5    1    1    2  502    0 -0.28734719016E+02  0.37946567162E+02 -0.14413493822E+03  0.15184853918E+03  0.41800000000E+01 0. -1.
         -5    1    1    2    0  502  0.32388598294E+02 -0.26481449172E+02  0.35942524259E+02  0.55313885235E+02  0.41800000000E+01 0.  1.
        -11    1    3    3    0    0 -0.33944886105E+02 -0.30186105272E+02 -0.45065460074E+02  0.63987123203E+02  0.00000000000E+00 0. -1.
         11    1    3    3    0    0  0.30291006827E+02  0.18720987281E+02 -0.56916269641E+02  0.67137785257E+02  0.00000000000E+00 0.  1.
</event>
<event>
 7    1  0.6610867E-006  0.1058903E+03  0.7561462E-02  0.1268375E+00
          2   -1    0    0  501    0  0.00000000000E+00  0.00000000000E+00  0.92642040348E+02  0.92642040348E+02  0.00000000000E+00 0. -1.
         -2   -1    0    0    0  501 -0.00000000000E+00 -0.00000000000E+00 -0.15644270397E+03  0.15644270397E+03  0.00000000000E+00 0.  1.
         23    2    1    2    0    0  0.51792249322E+02 -0.21277922655E+02 -0.26712302085E+02  0.10710446940E+03  0.87307692671E+02 0.  0.
          5    1    1    2  502    0  0.36839761963E+02  0.28182454332E+02 -0.29704081832E+01  0.46665988883E+02  0.41800000000E+01 0. -1.
         -5    1    1    2    0  502 -0.88632011285E+02 -0.69045316765E+01 -0.34117953355E+02  0.95314286040E+02  0.41800000000E+01 0. -1.
        -11    1    3    3    0    0  0.60768724040E+02 -0.25965637181E+02 -0.49235996076E+02  0.82408952459E+02  0.00000000000E+00 0.  1.
         11    1    3    3    0    0 -0.89764747181E+01  0.46877145258E+01  0.22523693991E+02  0.24695516938E+02  0.00000000000E+00 0. -1.
</event>
<event>
 7    1  0.6610867E-006  0.1748760E+03  0.7561462E-02  0.1172856E+00
         -2   -1    0    0    0  501 -0.00000000000E+00  0.00000000000E+00  0.34921217590E+02  0.34921217590E+02  0.00000000000E+00 0.  1.
          2   -1    0    0  501    0  0.00000000000E+00 -0.00000000000E+00 -0.94813620940E+03  0.94813620940E+03  0.00000000000E+00 0. -1.
         23    2    1    2    0    0  0.14516288984E+03 -0.81988615303E+01 -0.46780262722E+03  0.49810448128E+03  0.90162577156E+02 0.  0.
          5    1    1    2  502    0 -0.41025826734E+00  0.34534425411E+02 -0.16094984167E+03  0.16466668996E+03  0.41800000000E+01 0.  1.
         -5    1    1    2    0  502 -0.14475263158E+03 -0.26335563881E+02 -0.28446252292E+03  0.32028625575E+03  0.41800000000E+01 0.  1.
        -11    1    3    3    0    0  0.47431142463E+02  0.36943658434E+02 -0.21697893763E+03  0.22515418394E+03  0.00000000000E+00 0. -1.
         11    1    3    3    0    0  0.97731747380E+02 -0.45142519965E+02 -0.25082368960E+03  0.27295029734E+03  0.00000000000E+00 0.  1.
</event>
<event>
 7    1  0.6610867E-006  0.1245472E+03  0.7561462E-02  0.1235779E+00
         -2   -1    0    0    0  501 -0.00000000000E+00  0.00000000000E+00  0.21589524083E+02  0.21589524083E+02  0.00000000000E+00 0.  1.
          2   -1    0    0  501    0  0.00000000000E+00 -0.00000000000E+00 -0.80259075251E+03  0.80259075251E+03  0.00000000000E+00 0. -1.
         23    2    1    2    0    0  0.55977618911E+02 -0.32861157560E+02 -0.23522488011E+03  0.26050351037E+03  0.91202988965E+02 0.  0.
          5    1    1    2  502    0 -0.73570915695E+02  0.68668152820E+02 -0.39905091672E+03  0.41156664270E+03  0.41800000000E+01 0. -1.
         -5    1    1    2    0  502  0.17593296784E+02 -0.35806995260E+02 -0.14672543159E+03  0.15211012352E+03  0.41800000000E+01 0. -1.
        -11    1    3    3    0    0 -0.62120498557E+01  0.23511665671E+02 -0.85101534665E+02  0.88507961158E+02  0.00000000000E+00 0. -1.
         11    1    3    3    0    0  0.62189668767E+02 -0.56372823231E+02 -0.15012334544E+03  0.17199554921E+03  0.00000000000E+00 0.  1.
</event>
<event>
 7    1  0.6610867E-006  0.1200847E+03  0.7561462E-02  0.1242957E+00
         -1   -1    0    0    0  501 -0.00000000000E+00  0.00000000000E+00  0.53552449333E+02  0.53552449333E+02  0.00000000000E+00 0.  1.
          1   -1    0    0  501    0  0.00000000000E+00 -0.00000000000E+00 -0.31386096841E+03  0.31386096841E+03  0.00000000000E+00 0. -1.
         23    2    1    2    0    0  0.55824575084E+02  0.29478660791E+02 -0.69670821873E+02  0.13082117072E+03  0.90965821394E+02 0.  0.
          5    1    1    2  502    0 -0.27892968547E+02  0.46755736599E+02 -0.49431202637E+02  0.73654821930E+02  0.41800000000E+01 0. -1.
         -5    1    1    2    0  502 -0.27931606536E+02 -0.76234397390E+02 -0.14120649456E+03  0.16293742509E+03  0.41800000000E+01 0. -1.
        -11    1    3    3    0    0 -0.22076592517E+02  0.76758452333E+01  0.10146539925E+01  0.23394958002E+02  0.00000000000E+00 0.  1.
         11    1    3    3    0    0  0.77901167601E+02  0.21802815558E+02 -0.70685475865E+02  0.10742621271E+03  0.00000000000E+00 0. -1.
</event>
<event>
 7    1  0.6610867E-006  0.1192965E+03  0.7561462E-02  0.1244262E+00
         -2   -1    0    0    0  501 -0.00000000000E+00  0.00000000000E+00  0.21609205440E+02  0.21609205440E+02  0.00000000000E+00 0.  1.
          2   -1    0    0  501    0  0.00000000000E+00 -0.00000000000E+00 -0.91349746441E+03  0.91349746441E+03  0.00000000000E+00 0. -1.
         23    2    1    2    0    0  0.26987755077E+02  0.72240605276E+02 -0.25112148599E+03  0.27769552408E+03  0.90031990954E+02 0.  0.
          5    1    1    2  502    0  0.49471882690E+02 -0.20770012768E+02 -0.20181643279E+03  0.20886887166E+03  0.41800000000E+01 0. -1.
         -5    1    1    2    0  502 -0.76459637768E+02 -0.51470592508E+02 -0.43895034020E+03  0.44854227410E+03  0.41800000000E+01 0. -1.
        -11    1    3    3    0    0  0.23756139106E+02  0.38765339257E+01 -0.83755140506E+01  0.25485896023E+02  0.00000000000E+00 0.  1.
         11    1    3    3    0    0  0.32316159715E+01  0.68364071350E+02 -0.24274597194E+03  0.25220962806E+03  0.00000000000E+00 0. -1.
</event>
<event>
 7    1  0.6610867E-006  0.1100977E+03  0.7561462E-02  0.1260389E+00
         -3   -1    0    0    0  501 -0.00000000000E+00  0.00000000000E+00  0.93420462621E+02  0.93420462621E+02  0.00000000000E+00 0.  1.
          3   -1    0    0  501    0  0.00000000000E+00 -0.00000000000E+00 -0.15236973401E+03  0.15236973401E+03  0.00000000000E+00 0. -1.
         23    2    1    2    0    0  0.39255210824E+02  0.40333000769E+01 -0.17186682159E+02  0.10813981695E+03  0.99204832950E+02 0.  0.
          5    1    1    2  502    0 -0.81214711088E+02 -0.18535038568E+02 -0.12560735921E+02  0.84348215385E+02  0.41800000000E+01 0.  1.
         -5    1    1    2    0  502  0.41959500264E+02  0.14501738491E+02 -0.29201853311E+02  0.53302164294E+02  0.41800000000E+01 0.  1.
        -11    1    3    3    0    0  0.54599350951E+02 -0.24464963203E+02  0.15846383435E+02  0.61892902798E+02  0.00000000000E+00 0.  1.
         11    1    3    3    0    0 -0.15344140127E+02  0.28498263280E+02 -0.33033065595E+02  0.46246914155E+02  0.00000000000E+00 0. -1.
</event>
<event>
 7    1  0.6610867E-006  0.1148908E+03  0.7561462E-02  0.1251772E+00
         -2   -1    0    0    0  501 -0.00000000000E+00  0.00000000000E+00  0.44781579803E+02  0.44781579803E+02  0.00000000000E+00 0.  1.
          2   -1    0    0  501    0  0.00000000000E+00 -0.00000000000E+00 -0.46749265943E+03  0.46749265943E+03  0.00000000000E+00 0. -1.
         23    2    1    2    0    0 -0.47199052005E+02 -0.58351672269E+02 -0.87177342888E+02  0.14640144839E+03  0.90558416567E+02 0.  0.
          5    1    1    2  502    0  0.57656398096E+02  0.54179985904E+01 -0.54355043951E+02  0.79533377603E+02  0.41800000000E+01 0. -1.
         -5    1    1    2    0  502 -0.10457346091E+02  0.52933673678E+02 -0.28117869279E+03  0.28633941324E+03  0.41800000000E+01 0. -1.
        -11    1    3    3    0    0  0.10853883677E+02 -0.58551260070E+02 -0.45264995250E+02  0.74799576480E+02  0.00000000000E+00 0.  1.
         11    1    3    3    0    0 -0.58052935682E+02  0.19958780102E+00 -0.41912347638E+02  0.71601871911E+02  0.00000000000E+00 0. -1.
</event>
<event>
 7    1  0.6610867E-006  0.9957592E+02  0.7561462E-02  0.1281190E+00
          3   -1    0    0  501    0  0.00000000000E+00  0.00000000000E+00  0.50746555042E+02  0.50746555042E+02  0.00000000000E+00 0. -1.
         -3   -1    0    0    0  501 -0.00000000000E+00 -0.00000000000E+00 -0.27183287932E+03  0.27183287932E+03  0.00000000000E+00 0.  1.
         23    2    1    2    0    0 -0.44249817040E+02 -0.71077906642E+01 -0.10098958670E+03  0.14347308668E+03  0.91526296678E+02 0.  0.
          5    1    1    2  502    0 -0.25822990208E+02 -0.14591372229E+02 -0.97858453057E+02  0.10234004202E+03  0.41800000000E+01 0.  1.
         -5    1    1    2    0  502  0.70072807248E+02  0.21699162894E+02 -0.22238284522E+02  0.76766305658E+02  0.41800000000E+01 0.  1.
        -11    1    3    3    0    0 -0.14358333103E+02 -0.45129743837E+02 -0.25414701874E+02  0.53747209971E+02  0.00000000000E+00 0. -1.
         11    1    3    3    0    0 -0.29891483937E+02  0.38021953172E+02 -0.75574884824E+02  0.89725876709E+02  0.00000000000E+00 0.  1.
</event>
<event>
 7    1  0.6610867E-006  0.1087327E+03  0.7561462E-02  0.1262935E+00
         -2   -1    0    0    0  501 -0.00000000000E+00  0.00000000000E+00  0.26231293296E+02  0.26231293296E+02  0.00000000000E+00 0.  1.
          2   -1    0    0  501    0  0.00000000000E+00 -0.00000000000E+00 -0.76398275741E+03  0.76398275741E+03  0.00000000000E+00 0. -1.
         23    2    1    2    0    0  0.65865499599E+02 -0.46981537764E+02 -0.22250545787E+03  0.25386402942E+03  0.91611886363E+02 0.  0.
          5    1    1    2  502    0  0.21717416143E+02 -0.66690420741E+01 -0.20019523477E+02  0.30567564613E+02  0.41800000000E+01 0. -1.
         -5    1    1    2    0  502 -0.87582915742E+02  0.53650579838E+02 -0.49522648276E+03  0.50578245667E+03  0.41800000000E+01 0. -1.
        -11    1    3    3    0    0  0.52778077362E+02 -0.11864461320E+02 -0.20587486453E+03  0.21286322073E+03  0.00000000000E+00 0. -1.
         11    1    3    3    0    0  0.13087422237E+02 -0.35117076444E+02 -0.16630593343E+02  0.41000808696E+02  0.00000000000E+00 0.  1.
</event>
<event>
 6    1  0.6610867E-006  0.1020025E+03  0.7561462E-02  0.1276140E+00
          2   -1    0    0  501    0  0.00000000000E+00  0.00000000000E+00  0.77540793585E+03  0.77540793585E+03  0.00000000000E+00 0. -1.
         -2   -1    0    0    0  501 -0.00000000000E+00 -0.00000000000E+00 -0.19451052862E+02  0.19451052862E+02  0.00000000000E+00 0.  1.
          5    1    1    2  502    0  0.47632583191E+02 -0.83814621823E+02  0.51992497285E+03  0.52880355862E+03  0.41800000000E+01 0. -1.
         -5    1    1    2    0  502 -0.28119740027E+02  0.35945114049E+02  0.50102102285E+02  0.67900398059E+02  0.41800000000E+01 0.  1.
        -11    1    1    2    0    0 -0.19982873283E+02  0.75530836934E+01  0.28343200894E+02  0.35492271481E+02  0.00000000000E+00 0. -1.
         11    1    1    2    0    0  0.47003011903E+00  0.40316424081E+02  0.15758660695E+03  0.16266276055E+03  0.00000000000E+00 0.  1.
</event>
<event>
 7    1  0.6610867E-006  0.1229551E+03  0.7561462E-02  0.1238300E+00
          2   -1    0    0  501    0  0.00000000000E+00  0.00000000000E+00  0.24226180138E+03  0.24226180138E+03  0.00000000000E+00 0. -1.
         -2   -1    0    0    0  501 -0.00000000000E+00 -0.00000000000E+00 -0.71124049369E+02  0.71124049369E+02  0.00000000000E+00 0.  1.
         23    2    1    2    0    0  0.54463257275E+02 -0.34315380968E+02  0.35920676586E+02  0.11825856907E+03  0.92471630175E+02 0.  0.
          5    1    1    2  502    0 -0.72356367544E+02 -0.21137365690E+02  0.45749166116E+02  0.88276218500E+02  0.41800000000E+01 0. -1.
         -5    1    1    2    0  502  0.17893110269E+02  0.55452746657E+02  0.89467909306E+02  0.10685106318E+03  0.41800000000E+01 0. -1.
        -11    1    3    3    0    0  0.76781678914E+02 -0.75584041352E+01  0.18673774178E+02  0.79380511034E+02  0.00000000000E+00 0. -1.
         11    1    3    3    0    0 -0.22318421640E+02 -0.26756976832E+02  0.17246902408E+02  0.38878058032E+02  0.00000000000E+00 0.  1.
</event>
<event>
 7    1  0.6610867E-006  0.5458908E+02  0.7561462E-02  0.1422052E+00
          2   -1    0    0  501    0  0.00000000000E+00  0.00000000000E+00  0.60197294435E+03  0.60197294435E+03  0.00000000000E+00 0. -1.
         -2   -1    0    0    0  501 -0.00000000000E+00 -0.00000000000E+00 -0.26018458960E+02  0.26018458960E+02  0.00000000000E+00 0.  1.
         23    2    1    2    0    0  0.40884967033E+02  0.35624847883E+02  0.17734290783E+03  0.20670899268E+03  0.91309311577E+02 0.  0.
          5    1    1    2  502    0 -0.17516180065E+02 -0.16789840722E+02  0.38858291591E+03  0.38936213254E+03  0.41800000000E+01 0. -1.
         -5    1    1    2    0  502 -0.23368786968E+02 -0.18835007161E+02  0.10028661648E+02  0.31920278093E+02  0.41800000000E+01 0. -1.
        -11    1    3    3    0    0  0.82060279249E+01  0.80425699929E+01 -0.95781447787E+01  0.14958699268E+02  0.00000000000E+00 0.  1.
         11    1    3    3    0    0  0.32678939108E+02  0.27582277890E+02  0.18692105261E+03  0.19175029341E+03  0.00000000000E+00 0. -1.
</event>
<event>
 7    1  0.6610867E-006  0.1600882E+03  0.7561462E-02  0.1188597E+00
         -2   -1    0    0    0  501 -0.00000000000E+00  0.00000000000E+00  0.43094166815E+02  0.43094166815E+02  0.00000000000E+00 0.  1.
          2   -1    0    0  501    0  0.00000000000E+00 -0.00000000000E+00 -0.10406131002E+04  0.10406131002E+04  0.00000000000E+00 0. -1.
         23    2    1    2    0    0 -0.13357370710E+03 -0.51789566679E+02 -0.26379871971E+03  0.32573571364E+03  0.12645116120E+03 0.  0.
          5    1    1    2  502    0 -0.24339016814E+00  0.47799855809E+01 -0.32964520951E+03  0.32970645134E+03  0.41800000000E+01 0. -1.
         -5    1    1    2    0  502  0.13381709727E+03  0.47009581098E+02 -0.40407500412E+03  0.42826510200E+03  0.41800000000E+01 0. -1.
        -11    1    3    3    0    0 -0.64277951975E+02  0.24567605918E+02 -0.40668625254E+02  0.79932217852E+02  0.00000000000E+00 0. -1.
         11    1    3    3    0    0 -0.69295755129E+02 -0.76357172597E+02 -0.22313009446E+03  0.24580349578E+03  0.00000000000E+00 0.  1.
</event>
<event>
 7    1  0.6610867E-006  0.1448618E+03  0.7561462E-02  0.1206933E+00
          2   -1    0    0  501    0  0.00000000000E+00  0.00000000000E+00  0.77344160405E+03  0.77344160405E+03  0.00000000000E+00 0. -1.
         -2   -1    0    0    0  501 -0.00000000000E+00 -0.00000000000E+00 -0.50374955020E+02  0.50374955020E+02  0.00000000000E+00 0.  1.
         23    2    1    2    0    0  0.11441399769E+03  0.84925178138E+01  0.99451600209E+02  0.17751514355E+03  0.91969123507E+02 0.  0.
          5    1    1    2  502    0 -0.12736560237E+03 -0.14689350527E+02  0.61656695716E+03  0.62976984586E+03  0.41800000000E+01 0. -1.
         -5    1    1    2    0  502  0.12951604682E+02  0.61968327132E+01  0.70480916564E+01  0.16531569663E+02  0.41800000000E+01 0. -1.
        -11    1    3    3    0    0  0.12274070103E+02  0.38196659971E+02  0.20563885670E+02  0.45083378575E+02  0.00000000000E+00 0.  1.
         11    1    3    3    0    0  0.10213992759E+03 -0.29704142158E+02  0.78887714539E+02  0.13243176497E+03  0.00000000000E+00 0. -1.
</event>
<event>
 7    1  0.6610867E-006  0.8955051E+02  0.7561462E-02  0.1303944E+00
         -2   -1    0    0    0  501 -0.00000000000E+00  0.00000000000E+00  0.19743181902E+03  0.19743181902E+03  0.00000000000E+00 0.  1.
          2   -1    0    0  501    0  0.00000000000E+00 -0.00000000000E+00 -0.79042899192E+02  0.79042899192E+02  0.00000000000E+00 0. -1.
         23    2    1    2    0    0 -0.51969312204E+02  0.29859586701E+02  0.72413685866E+02  0.13034148905E+03  0.90292621726E+02 0.  0.
          5    1    1    2  502    0  0.60062353814E+02 -0.33883841308E+02  0.82885579120E+02  0.10790316341E+03  0.41800000000E+01 0.  1.
         -5    1    1    2    0  502 -0.80930416103E+01  0.40242546067E+01 -0.36910345159E+02  0.38230065752E+02  0.41800000000E+01 0.  1.
        -11    1    3    3    0    0 -0.70933844056E+02  0.84199337964E+01  0.26405721931E+02  0.76156205712E+02  0.00000000000E+00 0. -1.
         11    1    3    3    0    0  0.18964531852E+02  0.21439652905E+02  0.46007963934E+02  0.54185283338E+02  0.00000000000E+00 0.  1.
</event>
<event>
 7    1  0.6610867E-006  0.1060283E+03  0.7561462E-02  0.1268107E+00
          1   -1    0    0  501    0  0.00000000000E+00  0.00000000000E+00  0.19188408965E+03  0.19188408965E+03  0.00000000000E+00 0. -1.
         -1   -1    0    0    0  501 -0.00000000000E+00 -0.00000000000E+00 -0.13252581804E+03  0.13252581804E+03  0.00000000000E+00 0.  1.
         23    2    1    2    0    0 -0.87443213168E+02 -0.14553334571E+02 -0.53192424465E+02  0.13421466400E+03  0.85592213056E+02 0.  0.
          5    1    1    2  502    0  0.14600301111E+02 -0.32974592212E+02  0.94545415454E+02  0.10127586340E+03  0.41800000000E+01 0.  1.
         -5    1    1    2    0  502  0.72842912056E+02  0.47527926784E+02  0.18005280616E+02  0.88919380290E+02  0.41800000000E+01 0.  1.
        -11    1    3    3    0    0 -0.65012491954E+02 -0.11828276933E+02 -0.76949141830E+02  0.10142831298E+03  0.00000000000E+00 0.  1.
         11    1    3    3    0    0 -0.22430721214E+02 -0.27250576382E+01  0.23756717365E+02  0.32786351021E+02  0.00000000000E+00 0. -1.
</event>
<event>
 7    1  0.6610867E-006  0.1056403E+03  0.7561462E-02  0.1268863E+00
         -2   -1    0    0    0  501 -0.00000000000E+00  0.00000000000E+00  0.11719948940E+03  0.11719948940E+03  0.00000000000E+00 0.  1.
          2   -1    0    0  501    0  0.00000000000E+00 -0.00000000000E+00 -0.10397655136E+03  0.10397655136E+03  0.00000000000E+00 0. -1.
         23    2    1    2    0    0  0.11089939871E+02 -0.84781683095E+01  0.21859625865E+02  0.95017307691E+02  0.91408858507E+02 0.  0.
          5    1    1    2  502    0 -0.66469243325E+00 -0.54767156553E+02  0.16230842662E+02  0.57278232396E+02  0.41800000000E+01 0.  1.
         -5    1    1    2    0  502 -0.10425247438E+02  0.63245324862E+02 -0.24867530482E+02  0.68880500676E+02  0.41800000000E+01 0.  1.
        -11    1    3    3    0    0 -0.23016731841E+01  0.40894199992E+02  0.13853438153E+02  0.43238305252E+02  0.00000000000E+00 0.  1.
         11    1    3    3    0    0  0.13391613055E+02 -0.49372368301E+02  0.80061877121E+01  0.51779002439E+02  0.00000000000E+00 0. -1.
</event>
<event>
 7    1  0.6610867E-006  0.1209844E+03  0.7561462E-02  0.1241482E+00
         -2   -1    0    0    0  501 -0.00000000000E+00  0.00000000000E+00  0.10149932399E+03  0.10149932399E+03  0.00000000000E+00 0.  1.
          2   -1    0    0  501    0  0.00000000000E+00 -0.00000000000E+00 -0.15220808410E+03  0.15220808410E+03  0.00000000000E+00 0. -1.
         23    2    1    2    0    0  0.54998286799E+02  0.28678648366E+02 -0.23360998326E+02  0.11143008971E+03  0.89574841485E+02 0.  0.
          5    1    1    2  502    0  0.38670667673E+02 -0.34548913022E+01  0.62230478043E+01  0.39541820091E+02  0.41800000000E+01 0.  1.
         -5    1    1    2    0  502 -0.93668954471E+02 -0.25223757064E+02 -0.33570809594E+02  0.10273549829E+03  0.41800000000E+01 0.  1.
        -11    1    3    3    0    0  0.46444041996E+02  0.58560374593E+02 -0.28373709828E+02  0.79946444066E+02  0.00000000000E+00 0. -1.
         11    1    3    3    0    0  0.85542448028E+01 -0.29881726227E+02  0.50127115018E+01  0.31483645644E+02  0.00000000000E+00 0.  1.
</event>
<event>
 7    1  0.6610867E-006  0.1113865E+03  0.7561462E-02  0.1258024E+00
          3   -1    0    0  501    0  0.00000000000E+00  0.00000000000E+00  0.11450026254E+03  0.11450026254E+03  0.00000000000E+00 0. -1.
         -3   -1    0    0    0  501 -0.00000000000E+00 -0.00000000000E+00 -0.13473434465E+03  0.13473434465E+03  0.00000000000E+00 0.  1.
         23    2    1    2    0    0 -0.30094822584E+02  0.11732671214E+02 -0.57479273230E+02  0.11478050462E+03  0.93953943346E+02 0.  0.
          5    1    1    2  502    0  0.58417430323E+01  0.53814458952E+02 -0.17349260169E+01  0.54319465408E+02  0.41800000000E+01 0. -1.
         -5    1    1    2    0  502  0.24253079552E+02 -0.65547130167E+02  0.38980117134E+02  0.80134637159E+02  0.41800000000E+01 0. -1.
        -11    1    3    3    0    0 -0.21964196585E+02 -0.40249279956E+02 -0.19175121775E+02  0.49700259192E+02  0.00000000000E+00 0.  1.
         11    1    3    3    0    0 -0.81306259989E+01  0.51981951171E+02 -0.38304151455E+02  0.65080245431E+02  0.00000000000E+00 0. -1.
</event>
<event>
 7    1  0.6610867E-006  0.1416981E+03  0.7561462E-02  0.1211062E+00
         -2   -1    0    0    0  501 -0.00000000000E+00  0.00000000000E+00  0.62714014621E+02  0.62714014621E+02  0.00000000000E+00 0.  1.
          2   -1    0    0  501    0  0.00000000000E+00 -0.00000000000E+00 -0.35740591898E+03  0.35740591898E+03  0.00000000000E+00 0. -1.
         23    2    1    2    0    0  0.45148741605E+02 -0.87631899367E+02 -0.12756188889E+03  0.18497156554E+03  0.90690054067E+02 0.  0.
          5    1    1    2  502    0  0.80248344230E+00  0.10670602485E+03 -0.14610914697E+03  0.18097561976E+03  0.41800000000E+01 0. -1.
         -5    1    1    2    0  502 -0.45951225047E+02 -0.19074125482E+02 -0.21020868503E+02  0.54172748305E+02  0.41800000000E+01 0.  1.
        -11    1    3    3    0    0 -0.22758386938E+02 -0.29696660870E+02 -0.68148997292E+02  0.77743949442E+02  0.00000000000E+00 0. -1.
         11    1    3    3    0    0  0.67907128543E+02 -0.57935238497E+02 -0.59412891600E+02  0.10722761610E+03  0.00000000000E+00 0.  1.
</event>
<event>
 7    1  0.6610867E-006  0.1120677E+03  0.7561462E-02  0.1256788E+00
         -1   -1    0    0    0  501 -0.00000000000E+00  0.00000000000E+00  0.32447558425E+03  0.32447558425E+03  0.00000000000E+00 0.  1.
          1   -1    0    0  501    0  0.00000000000E+00 -0.00000000000E+00 -0.54581568266E+02  0.54581568266E+02  0.00000000000E+00 0. -1.
         23    2    1    2    0    0 -0.69257269478E+02 -0.30943312999E+02  0.15816916684E+03  0.19498279396E+03  0.85127825106E+02 0.  0.
          5    1    1    2  502    0 -0.35532198826E+02  0.31917064698E+01  0.15710803189E+02  0.39204921636E+02  0.41800000000E+01 0. -1.
         -5    1    1    2    0  502  0.10478946830E+03  0.27751606530E+02  0.96014045953E+02  0.14486943692E+03  0.41800000000E+01 0. -1.
        -11    1    3    3    0    0 -0.29558079116E+02 -0.26658112248E+02  0.93326604821E+01  0.40883169414E+02  0.00000000000E+00 0. -1.
         11    1    3    3    0    0 -0.39699190362E+02 -0.42852007515E+01  0.14883650636E+03  0.15409962455E+03  0.00000000000E+00 0.  1.
</event>
<event>
 7    1  0.6610867E-006  0.8894651E+02  0.7561462E-02  0.1305423E+00
         -2   -1    0    0    0  501 -0.00000000000E+00  0.00000000000E+00  0.17096737707E+02  0.17096737707E+02  0.00000000000E+00 0.  1.
          2   -1    0    0  501    0  0.00000000000E+00 -0.00000000000E+00 -0.93627092837E+03  0.93627092837E+03  0.00000000000E+00 0. -1.
         23    2    1    2    0    0 -0.53850805354E+02 -0.11982824429E+02 -0.28426900651E+03  0.30391014836E+03  0.92244310902E+02 0.  0.
          5    1    1    2  502    0 -0.47943601469E+01  0.34426420417E+02 -0.49218337522E+02  0.60399349834E+02  0.41800000000E+01 0.  1.
         -5    1    1    2    0  502  0.58645165500E+02 -0.22443595987E+02 -0.58568684663E+03  0.58905816789E+03  0.41800000000E+01 0.  1.
        -11    1    3    3    0    0 -0.60279122766E+02  0.62660131744E+01 -0.27649490218E+03  0.28305876863E+03  0.00000000000E+00 0. -1.
         11    1    3    3    0    0  0.64283174125E+01 -0.18248837604E+02 -0.77741043279E+01  0.20851379732E+02  0.00000000000E+00 0.  1.
</event>
<event>
 7    1  0.6610867E-006  0.1093482E+03  0.7561462E-02  0.1261782E+00
          2   -1    0    0  501    0  0.00000000000E+00  0.00000000000E+00  0.26114828923E+04  0.26114828923E+04  0.00000000000E+00 0. -1.
         -2   -1    0    0    0  501 -0.00000000000E+00 -0.00000000000E+00 -0.76643420411E+01  0.76643420411E+01  0.00000000000E+00 0.  1.
         23    2    1    2    0    0 -0.26961345445E+02 -0.36996095300E+02  0.44744593393E+03  0.45866461009E+03  0.89831706769E+02 0.  0.
          5    1    1    2  502    0  0.66148621861E+02  0.35935750620E+01  0.68628775822E+03  0.68949032875E+03  0.41800000000E+01 0. -1.
         -5    1    1    2    0  502 -0.39187276415E+02  0.33402520238E+02  0.14700848581E+04  0.14709922955E+04  0.41800000000E+01 0. -1.
        -11    1    3    3    0    0 -0.29736910028E+02 -0.65544485972E+02  0.33149617936E+03  0.33921981132E+03  0.00000000000E+00 0. -1.
         11    1    3    3    0    0  0.27755645830E+01  0.28548390672E+02  0.11594975457E+03  0.11944479877E+03  0.00000000000E+00 0.  1.
</event>
<event>
 7    1  0.6610867E-006  0.2025914E+03  0.7561462E-02  0.1147571E+00
         -2   -1    0    0    0  501 -0.00000000000E+00  0.00000000000E+00  0.46382832295E+02  0.46382832295E+02  0.00000000000E+00 0.  1.
          2   -1    0    0  501    0  0.00000000000E+00 -0.00000000000E+00 -0.13859896434E+04  0.13859896434E+04  0.00000000000E+00 0. -1.
         23    2    1    2    0    0  0.19649393032E+03 -0.26162125370E+02 -0.32106067575E+03  0.38720568829E+03  0.86913555166E+02 0.  0.
          5    1    1    2  502    0 -0.67798234686E+02 -0.18826374782E+02 -0.14716094551E+03  0.16317122693E+03  0.41800000000E+01 0. -1.
         -5    1    1    2    0  502 -0.12869569564E+03  0.44988500152E+02 -0.87138518980E+03  0.88199556043E+03  0.41800000000E+01 0. -1.
        -11    1    3    3    0    0  0.99632061502E+02 -0.10596330528E+02 -0.84356473000E+02  0.13097650338E+03  0.00000000000E+00 0.  1.
         11    1    3    3    0    0  0.96861868822E+02 -0.15565794843E+02 -0.23670420275E+03  0.25622918491E+03  0.00000000000E+00 0. -1.
</event>
<event>
 7    1  0.6610867E-006  0.1044885E+03  0.7561462E-02  0.1271131E+00
          2   -1    0    0  501    0  0.00000000000E+00  0.00000000000E+00  0.11074800946E+04  0.11074800946E+04  0.00000000000E+00 0. -1.
         -2   -1    0    0    0  501 -0.00000000000E+00 -0.00000000000E+00 -0.11882709448E+02  0.11882709448E+02  0.00000000000E+00 0.  1.
         23    2    1    2    0    0  0.14356461782E+01 -0.21813913130E+02  0.30004367766E+03  0.31373919471E+03  0.89040248824E+02 0.  0.
          5    1    1    2  502    0 -0.42216332159E+02  0.53720741754E+02  0.57369566152E+03  0.57776493597E+03  0.41800000000E+01 0. -1.
         -5    1    1    2    0  502  0.40780685981E+02 -0.31906828624E+02  0.22185804596E+03  0.22785867335E+03  0.41800000000E+01 0. -1.
        -11    1    3    3    0    0 -0.42103145448E+02 -0.13803348338E+02  0.10959129271E+03  0.11820938507E+03  0.00000000000E+00 0.  1.
         11    1    3    3    0    0  0.43538791627E+02 -0.80105647917E+01  0.19045238495E+03  0.19552980964E+03  0.00000000000E+00 0. -1.
</event>
<event>
 7    1  0.6610867E-006  0.7639387E+02  0.7561462E-02  0.1339608E+00
         -2   -1    0    0    0  501 -0.00000000000E+00  0.00000000000E+00  0.20410723728E+03  0.20410723728E+03  0.00000000000E+00 0.  1.
          2   -1    0    0  501    0  0.00000000000E+00 -0.00000000000E+00 -0.63631378844E+02  0.63631378844E+02  0.00000000000E+00 0. -1.
         23    2    1    2    0    0  0.13006347187E+02  0.42872414513E+01  0.99485063114E+02  0.13539450617E+03  0.90812163351E+02 0.  0.
          5    1    1    2  502    0 -0.22137198466E+02  0.25639143566E+02 -0.35712635520E+02  0.49399250749E+02  0.41800000000E+01 0.  1.
         -5    1    1    2    0  502  0.91308512792E+01 -0.29926385018E+02  0.76703430845E+02  0.82944859206E+02  0.41800000000E+01 0.  1.
        -11    1    3    3    0    0  0.42273340930E+02  0.26899549513E+02  0.77747030984E+02  0.92494442774E+02  0.00000000000E+00 0.  1.
         11    1    3    3    0    0 -0.29266993743E+02 -0.22612308061E+02  0.21738032130E+02  0.42900063398E+02  0.00000000000E+00 0. -1.
</event>
<event>
 7    1  0.6610867E-006  0.8952390E+02  0.7561462E-02  0.1304009E+00
         -1   -1    0    0    0  501 -0.00000000000E+00  0.00000000000E+00  0.80868499611E+02  0.80868499611E+02  0.00000000000E+00 0.  1.
          1   -1    0    0  501    0  0.00000000000E+00 -0.00000000000E+00 -0.20788562261E+03  0.20788562261E+03  0.00000000000E+00 0. -1.
         23    2    1    2    0    0 -0.38407638388E+02  0.33966000992E+02 -0.56157286954E+01  0.10484120523E+03  0.91275988058E+02 0.  0.
          5    1    1    2  502    0  0.40472127024E+02 -0.52414247696E+02 -0.14146986520E+03  0.15625761290E+03  0.41800000000E+01 0. -1.
         -5    1    1    2    0  502 -0.20644886355E+01  0.18448246703E+02  0.20068470904E+02  0.27655304088E+02  0.41800000000E+01 0.  1.
        -11    1    3    3    0    0  0.13888178549E+02 -0.16104318358E+02 -0.22012446204E+02  0.30606835202E+02  0.00000000000E+00 0. -1.
         11    1    3    3    0    0 -0.52295816937E+02  0.50070319350E+02  0.16396717509E+02  0.74234370031E+02  0.00000000000E+00 0.  1.
</event>
<event>
 7    1  0.6610867E-006  0.1367399E+03  0.7561462E-02  0.1217784E+00
          2   -1    0    0  501    0  0.00000000000E+00  0.00000000000E+00  0.10471321590E+04  0.10471321590E+04  0.00000000000E+00 0.  1.
         -2   -1    0    0    0  501 -0.00000000000E+00 -0.00000000000E+00 -0.23640980450E+02  0.23640980450E+02  0.00000000000E+00 0. -1.
         23    2    1    2    0    0  0.10661044718E+03  0.20582093782E+02  0.35680562497E+03  0.38381644345E+03  0.90638833960E+02 0.  0.
          5    1    1    2  502    0 -0.11825711847E+03 -0.15445431647E+02  0.34617998731E+03  0.36617122148E+03  0.41800000000E+01 0. -1.
         -5    1    1    2    0  502  0.11646671297E+02 -0.51366621353E+01  0.32050556632E+03  0.32078547457E+03  0.41800000000E+01 0. -1.
        -11    1    3    3    0    0  0.42420330109E+02  0.53767123568E+02  0.19260781017E+03  0.20442151678E+03  0.00000000000E+00 0. -1.
         11    1    3    3    0    0  0.64190117068E+02 -0.33185029785E+02  0.16419781480E+03  0.17939492667E+03  0.00000000000E+00 0.  1.
</event>
<event>
 7    1  0.6610867E-006  0.1031448E+03  0.7561462E-02  0.1273819E+00
         -1   -1    0    0    0  501 -0.00000000000E+00  0.00000000000E+00  0.46976144297E+02  0.46976144297E+02  0.00000000000E+00 0.  1.
          1   -1    0    0  501    0  0.00000000000E+00 -0.00000000000E+00 -0.24468392557E+03  0.24468392557E+03  0.00000000000E+00 0. -1.
         23    2    1    2    0    0 -0.18057846236E+02 -0.19200037864E+02 -0.80539119395E+02  0.12626296702E+03  0.93600533241E+02 0.  0.
          5    1    1    2  502    0 -0.65012053609E+01  0.60468367344E+02 -0.93695381543E+02  0.11178097353E+03  0.41800000000E+01 0. -1.
         -5    1    1    2    0  502  0.24559051597E+02 -0.41268329480E+02 -0.23473280332E+02  0.53616129317E+02  0.41800000000E+01 0.  1.
        -11    1    3    3    0    0  0.27521780572E+02 -0.38750036222E+02 -0.42501916945E+02  0.63760698373E+02  0.00000000000E+00 0. -1.
         11    1    3    3    0    0 -0.45579626808E+02  0.19549998358E+02 -0.38037202450E+02  0.62502268646E+02  0.00000000000E+00 0.  1.
</event>
<event>
 7    1  0.6610867E-006  0.1024380E+03  0.7561462E-02  0.1275251E+00
          2   -1    0    0  501    0  0.00000000000E+00  0.00000000000E+00  0.79729912816E+03  0.79729912816E+03  0.00000000000E+00 0. -1.
         -2   -1    0    0    0  501 -0.00000000000E+00 -0.00000000000E+00 -0.27386080336E+02  0.27386080336E+02  0.00000000000E+00 0.  1.
         23    2    1    2    0    0  0.80420640462E+02 -0.40013442171E+02  0.23178914290E+03  0.26495919614E+03  0.91698494452E+02 0.  0.
          5    1    1    2  502    0 -0.34796295862E+02  0.15493178666E+02  0.29251561564E+02  0.48207333932E+02  0.41800000000E+01 0.  1.
         -5    1    1    2    0  502 -0.45624344600E+02  0.24520263505E+02  0.50887234336E+03  0.51151867843E+03  0.41800000000E+01 0.  1.
        -11    1    3    3    0    0  0.58890675998E+02 -0.60815269434E+02  0.21399799290E+03  0.23013419929E+03  0.00000000000E+00 0.  1.
         11    1    3    3    0    0  0.21529964464E+02  0.20801827262E+02  0.17791149996E+02  0.34824996848E+02  0.00000000000E+00 0. -1.
</event>
<event>
 7    1  0.6610867E-006  0.1028182E+03  0.7561462E-02  0.1274479E+00
          3   -1    0    0  501    0  0.00000000000E+00  0.00000000000E+00  0.14878938230E+03  0.14878938230E+03  0.00000000000E+00 0. -1.
         -3   -1    0    0    0  501 -0.00000000000E+00 -0.00000000000E+00 -0.85157991391E+02  0.85157991391E+02  0.00000000000E+00 0.  1.
         23    2    1    2    0    0 -0.26268106737E+02 -0.25521177902E+02  0.21485737980E+02  0.96917814778E+02  0.87121076278E+02 0.  0.
          5    1    1    2  502    0 -0.40550862141E+02 -0.35817279209E+01  0.48844000818E+02  0.63721346590E+02  0.41800000000E+01 0.  1.
         -5    1    1    2    0  502  0.66818968878E+02  0.29102905823E+02 -0.66983478913E+01  0.73308212321E+02  0.41800000000E+01 0.  1.
        -11    1    3    3    0    0 -0.43441597294E+02  0.16380806150E+02  0.22564311930E+02  0.51620261123E+02  0.00000000000E+00 0. -1.
         11    1    3    3    0    0  0.17173490557E+02 -0.41901984052E+02 -0.10785739498E+01  0.45297553655E+02  0.00000000000E+00 0.  1.
</event>
<event>
 7    1  0.6610867E-006  0.9204830E+02  0.7561462E-02  0.1297966E+00
          1   -1    0    0  501    0  0.00000000000E+00  0.00000000000E+00  0.55418500010E+03  0.55418500010E+03  0.00000000000E+00 0. -1.
         -1   -1    0    0    0  501 -0.00000000000E+00 -0.00000000000E+00 -0.31912974103E+02  0.31912974103E+02  0.00000000000E+00 0.  1.
         23    2    1    2    0    0  0.41738422817E+02  0.54044889765E+02  0.18905614522E+03  0.22368274575E+03  0.98126442162E+02 0.  0.
          5    1    1    2  502    0 -0.30849982704E+02 -0.36929896137E+02  0.33777263714E+03  0.34120868315E+03  0.41800000000E+01 0. -1.
         -5    1    1    2    0  502 -0.10888440113E+02 -0.17114993628E+02 -0.45567563609E+01  0.21206545299E+02  0.41800000000E+01 0. -1.
        -11    1    3    3    0    0 -0.16312161761E+02  0.54647815009E+02  0.63473282093E+02  0.85330696975E+02  0.00000000000E+00 0.  1.
         11    1    3    3    0    0  0.58050584578E+02 -0.60292524388E+00  0.12558286313E+03  0.13835204878E+03  0.00000000000E+00 0. -1.
</event>
<event>
 7    1  0.6610867E-006  0.1112217E+03  0.7561462E-02  0.1258324E+00
         -2   -1    0    0    0  501 -0.00000000000E+00  0.00000000000E+00  0.20597463718E+03  0.20597463718E+03  0.00000000000E+00 0.  1.
          2   -1    0    0  501    0  0.00000000000E+00 -0.00000000000E+00 -0.79651417147E+02  0.79651417147E+02  0.00000000000E+00 0. -1.
         23    2    1    2    0    0 -0.45569852296E+02 -0.26056880482E+02  0.99194557632E+02  0.14727085442E+03  0.95360221464E+02 0.  0.
          5    1    1    2  502    0  0.83664084926E+02  0.19241134473E+02 -0.74738907906E+01  0.86274166503E+02  0.41800000000E+01 0.  1.
         -5    1    1    2    0  502 -0.38094232630E+02  0.68157460089E+01  0.34602553188E+02  0.52081033405E+02  0.41800000000E+01 0.  1.
        -11    1    3    3    0    0 -0.69076620010E+02 -0.11800504067E+02  0.36942758444E+02  0.79218676647E+02  0.00000000000E+00 0. -1.
         11    1    3    3    0    0  0.23506767714E+02 -0.14256376415E+02  0.62251799188E+02  0.68052177768E+02  0.00000000000E+00 0.  1.
</event>
<event>
 7    1  0.6610867E-006  0.9374444E+02  0.7561462E-02  0.1294029E+00
          1   -1    0    0  501    0  0.00000000000E+00  0.00000000000E+00  0.10201939633E+04  0.10201939633E+04  0.00000000000E+00 0. -1.
         -1   -1    0    0    0  501 -0.00000000000E+00 -0.00000000000E+00 -0.15839425323E+02  0.15839425323E+02  0.00000000000E+00 0.  1.
         23    2    1    2    0    0 -0.32968572657E+01 -0.33504406739E+02  0.21793028011E+03  0.23901125090E+03  0.92191954795E+02 0.  0.
          5    1    1    2  502    0  0.16566166377E+02 -0.29783917017E+02  0.57177679298E+03  0.57280685485E+03  0.41800000000E+01 0.  1.
         -5    1    1    2    0  502 -0.13269309111E+02  0.63288323756E+02  0.21464746490E+03  0.22421528287E+03  0.41800000000E+01 0.  1.
        -11    1    3    3    0    0  0.13355341758E+02  0.24555441866E+02  0.27422787930E+02  0.39157938871E+02  0.00000000000E+00 0.  1.
         11    1    3    3    0    0 -0.16652199024E+02 -0.58059848605E+02  0.19050749218E+03  0.19985331203E+03  0.00000000000E+00 0. -1.
</event>
<event>
 7    1  0.6610867E-006  0.1754911E+03  0.7561462E-02  0.1172240E+00
          2   -1    0    0  501    0  0.00000000000E+00  0.00000000000E+00  0.23113975641E+04  0.23113975641E+04  0.00000000000E+00 0. -1.
         -2   -1    0    0    0  501 -0.00000000000E+00 -0.00000000000E+00 -0.17361933352E+02  0.17361933352E+02  0.00000000000E+00 0.  1.
         23    2    1    2    0    0  0.13660443570E+03 -0.79637865037E+02  0.75628467504E+03  0.77784726395E+03  0.89871546847E+02 0.  0.
          5    1    1    2  502    0 -0.14605652660E+03  0.65990276178E+02  0.99034996989E+03  0.10032436199E+04  0.41800000000E+01 0.  1.
         -5    1    1    2    0  502  0.94520909009E+01  0.13647588858E+02  0.54740098579E+03  0.54766861362E+03  0.41800000000E+01 0.  1.
        -11    1    3    3    0    0  0.59014070875E+02  0.43737369947E+01  0.15772077756E+03  0.16845662294E+03  0.00000000000E+00 0.  1.
         11    1    3    3    0    0  0.77590364826E+02 -0.84011602032E+02  0.59856389748E+03  0.60939064102E+03  0.00000000000E+00 0. -1.
</event>
<event>
 7    1  0.6610867E-006  0.9997321E+02  0.7561462E-02  0.1280352E+00
          1   -1    0    0  501    0  0.00000000000E+00  0.00000000000E+00  0.58260051375E+03  0.58260051375E+03  0.00000000000E+00 0. -1.
         -1   -1    0    0    0  501 -0.00000000000E+00 -0.00000000000E+00 -0.21164106332E+02  0.21164106332E+02  0.00000000000E+00 0.  1.
         23    2    1    2    0    0 -0.39385622415E-02 -0.32185362593E+02  0.17389301675E+03  0.19813030919E+03  0.89336110067E+02 0.  0.
          5    1    1    2  502    0  0.43556818005E+02  0.53597859995E+02  0.26169810164E+03  0.27069040580E+03  0.41800000000E+01 0. -1.
         -5    1    1    2    0  502 -0.43552879443E+02 -0.21412497402E+02  0.12584528903E+03  0.13494390510E+03  0.41800000000E+01 0.  1.
        -11    1    3    3    0    0 -0.27198651884E+02 -0.44529211061E+02  0.15307955728E+03  0.16172806856E+03  0.00000000000E+00 0.  1.
         11    1    3    3    0    0  0.27194713322E+02  0.12343848468E+02  0.20813459475E+02  0.36402240631E+02  0.00000000000E+00 0. -1.
</event>
<event>
 7    1  0.6610867E-006  0.1085332E+03  0.7561462E-02  0.1263311E+00
          4   -1    0    0  501    0  0.00000000000E+00  0.00000000000E+00  0.22685903923E+03  0.22685903923E+03  0.00000000000E+00 0. -1.
         -4   -1    0    0    0  501 -0.00000000000E+00 -0.00000000000E+00 -0.65351190856E+02  0.65351190856E+02  0.00000000000E+00 0.  1.
         23    2    1    2    0    0  0.39731170588E+02 -0.39167337690E+02  0.60286669841E+02  0.12189951909E+03  0.90068662346E+02 0.  0.
          5    1    1    2  502    0 -0.69621634274E+02  0.50336663512E+02  0.28210581880E+02  0.90522157412E+02  0.41800000000E+01 0.  1.
         -5    1    1    2    0  502  0.29890463687E+02 -0.11169325822E+02  0.73010596656E+02  0.79788553582E+02  0.41800000000E+01 0.  1.
        -11    1    3    3    0    0  0.68494249371E+01  0.25456695629E+02  0.37607703716E+02  0.45927087358E+02  0.00000000000E+00 0. -1.
         11    1    3    3    0    0  0.32881745651E+02 -0.64624033319E+02  0.22678966125E+02  0.75972431737E+02  0.00000000000E+00 0.  1.
</event>
<event>
 7    1  0.6610867E-006  0.1335141E+03  0.7561462E-02  0.1222333E+00
         -2   -1    0    0    0  501 -0.00000000000E+00  0.00000000000E+00  0.59954668597E+02  0.59954668597E+02  0.00000000000E+00 0.  1.
          2   -1    0    0  501    0  0.00000000000E+00 -0.00000000000E+00 -0.40565120334E+03  0.40565120334E+03  0.00000000000E+00 0. -1.
         23    2    1    2    0    0  0.26261972623E+01  0.11153880947E+03 -0.15964899292E+03  0.21518639091E+03  0.91485403006E+02 0.  0.
          5    1    1    2  502    0  0.32473434756E+02 -0.61937352929E+02 -0.18963220362E+02  0.72579857944E+02  0.41800000000E+01 0.  1.
         -5    1    1    2    0  502 -0.35099632019E+02 -0.49601456542E+02 -0.16708432146E+03  0.17783962308E+03  0.41800000000E+01 0.  1.
        -11    1    3    3    0    0 -0.36747381105E+02  0.39398914990E+02 -0.29951540876E+02  0.61642025610E+02  0.00000000000E+00 0.  1.
         11    1    3    3    0    0  0.39373578368E+02  0.72139894481E+02 -0.12969745205E+03  0.15354436530E+03  0.00000000000E+00 0. -1.
</event>
<event>
 7    1  0.6610867E-006  0.8818617E+02  0.7561462E-02  0.1307305E+00
         -3   -1    0    0    0  501 -0.00000000000E+00  0.00000000000E+00  0.31773932757E+03  0.31773932757E+03  0.00000000000E+00 0.  1.
          3   -1    0    0  501    0  0.00000000000E+00 -0.00000000000E+00 -0.58124632611E+02  0.58124632611E+02  0.00000000000E+00 0. -1.
         23    2    1    2    0    0  0.37760320053E+01  0.61967745156E+02  0.19296731203E+03  0.22112466370E+03  0.88348590973E+02 0.  0.
          5    1    1    2  502    0  0.11494349522E+02 -0.18825433353E+02 -0.35913624790E+02  0.42353014738E+02  0.41800000000E+01 0.  1.
         -5    1    1    2    0  502 -0.15270381527E+02 -0.43142311803E+02  0.10256100773E+03  0.11238628175E+03  0.41800000000E+01 0.  1.
        -11    1    3    3    0    0 -0.20994740906E+02  0.76445219346E+02  0.14320399532E+03  0.16368272658E+03  0.00000000000E+00 0. -1.
         11    1    3    3    0    0  0.24770772912E+02 -0.14477474190E+02  0.49763316710E+02  0.57441937115E+02  0.00000000000E+00 0.  1.
</event>
<event>
 7    1  0.6610867E-006  0.2308231E+03  0.7561462E-02  0.1126062E+00
         -2   -1    0    0    0  501 -0.00000000000E+00  0.00000000000E+00  0.11686148236E+03  0.11686148236E+03  0.00000000000E+00 0. -1.
          2   -1    0    0  501    0  0.00000000000E+00 -0.00000000000E+00 -0.51382406873E+03  0.51382406873E+03  0.00000000000E+00 0.  1.
         23    2    1    2    0    0 -0.11272158521E+03 -0.18775616134E+03 -0.17905317088E+03  0.29738180036E+03  0.91746200427E+02 0.  0.
          5    1    1    2  502    0  0.12140592220E+03  0.14964678799E+03 -0.11814325942E+03  0.22607269019E+03  0.41800000000E+01 0. -1.
         -5    1    1    2    0  502 -0.86843369919E+01  0.38109373347E+02 -0.99766156072E+02  0.10723106053E+03  0.41800000000E+01 0. -1.
        -11    1    3    3    0    0 -0.21327844062E-01 -0.56870157948E+02 -0.80375305984E+02  0.98460170282E+02  0.00000000000E+00 0.  1.
         11    1    3    3    0    0 -0.11270025737E+03 -0.13088600339E+03 -0.98677864892E+02  0.19892163008E+03  0.00000000000E+00 0. -1.
</event>
<event>
 7    1  0.6610867E-006  0.1178925E+03  0.7561462E-02  0.1246615E+00
         -2   -1    0    0    0  501 -0.00000000000E+00  0.00000000000E+00  0.11245268136E+03  0.11245268136E+03  0.00000000000E+00 0.  1.
          2   -1    0    0  501    0  0.00000000000E+00 -0.00000000000E+00 -0.13330985668E+03  0.13330985668E+03  0.00000000000E+00 0. -1.
         23    2    1    2    0    0  0.23292699713E+00 -0.47066898243E+02  0.22089592178E+02  0.10537903850E+03  0.91659393994E+02 0.  0.
          5    1    1    2  502    0 -0.78596680294E+01 -0.42461267857E+02 -0.18552222250E+02  0.47184647926E+02  0.41800000000E+01 0.  1.
         -5    1    1    2    0  502  0.76267410323E+01  0.89528166099E+02 -0.24394545250E+02  0.93198851612E+02  0.41800000000E+01 0.  1.
        -11    1    3    3    0    0  0.40227734727E+02  0.59456192570E+00  0.14186950086E+02  0.42660212117E+02  0.00000000000E+00 0.  1.
         11    1    3    3    0    0 -0.39994807730E+02 -0.47661460169E+02  0.79026420915E+01  0.62718826382E+02  0.00000000000E+00 0. -1.
</event>
<event>
 7    1  0.6610867E-006  0.8914568E+02  0.7561462E-02  0.1304934E+00
         -2   -1    0    0    0  501 -0.00000000000E+00  0.00000000000E+00  0.13863115722E+03  0.13863115722E+03  0.00000000000E+00 0.  1.
          2   -1    0    0  501    0  0.00000000000E+00 -0.00000000000E+00 -0.11251851991E+03  0.11251851991E+03  0.00000000000E+00 0. -1.
         23    2    1    2    0    0  0.40368710460E+02  0.47252201697E+02  0.13122173524E+02  0.11087255090E+03  0.90874241428E+02 0.  0.
          5    1    1    2  502    0 -0.85730887328E-02 -0.42795082872E+02 -0.49542638686E+02  0.65600035362E+02  0.41800000000E+01 0.  1.
         -5    1    1    2    0  502 -0.40360137372E+02 -0.44571188251E+01  0.62533102475E+02  0.74677090878E+02  0.41800000000E+01 0.  1.
        -11    1    3    3    0    0  0.27938814787E+02  0.66175751299E+02 -0.16388244144E+02  0.73677554098E+02  0.00000000000E+00 0. -1.
         11    1    3    3    0    0  0.12429895673E+02 -0.18923549602E+02  0.29510417668E+02  0.37194996800E+02  0.00000000000E+00 0.  1.
</event>
<event>
 7    1  0.6610867E-006  0.1100922E+03  0.7561462E-02  0.1260399E+00
          3   -1    0    0  501    0  0.00000000000E+00  0.00000000000E+00  0.36325106882E+03  0.36325106882E+03  0.00000000000E+00 0. -1.
         -3   -1    0    0    0  501 -0.00000000000E+00 -0.00000000000E+00 -0.69370269444E+02  0.69370269444E+02  0.00000000000E+00 0.  1.
         23    2    1    2    0    0  0.10494096992E+03 -0.21396933705E+02  0.78841572612E+02  0.16177973851E+03  0.92120867777E+02 0.  0.
          5    1    1    2  502    0 -0.53640191211E+02 -0.69451596457E+01  0.70421624114E+01  0.54704385630E+02  0.41800000000E+01 0. -1.
         -5    1    1    2    0  502 -0.51300778707E+02  0.28342093351E+02  0.20799706436E+03  0.21613721413E+03  0.41800000000E+01 0. -1.
        -11    1    3    3    0    0  0.72791948717E+02 -0.16746687276E+02 -0.19326475420E+01  0.74718501452E+02  0.00000000000E+00 0.  1.
         11    1    3    3    0    0  0.32149021201E+02 -0.46502464294E+01  0.80774220154E+02  0.87061237055E+02  0.00000000000E+00 0. -1.
</event>
<event>
 7    1  0.6610867E-006  0.1220519E+03  0.7561462E-02  0.1239750E+00
          1   -1    0    0  501    0  0.00000000000E+00  0.00000000000E+00  0.10414637458E+04  0.10414637458E+04  0.00000000000E+00 0. -1.
         -1   -1    0    0    0  501 -0.00000000000E+00 -0.00000000000E+00 -0.29566480053E+02  0.29566480053E+02  0.00000000000E+00 0.  1.
         23    2    1    2    0    0  0.25846800654E+02  0.16168492188E+02  0.13440532103E+03  0.16466871400E+03  0.90119464070E+02 0.  0.
          5    1    1    2  502    0 -0.90871581227E+02  0.21651296968E+02  0.16306914719E+03  0.18797723825E+03  0.41800000000E+01 0. -1.
         -5    1    1    2    0  502  0.65024780573E+02 -0.37819789156E+02  0.71442279755E+03  0.71838427363E+03  0.41800000000E+01 0.  1.
        -11    1    3    3    0    0  0.41609182566E+02 -0.11713616350E+02  0.23438803472E+02  0.49172252236E+02  0.00000000000E+00 0.  1.
         11    1    3    3    0    0 -0.15762381912E+02  0.27882108538E+02  0.11096651756E+03  0.11549646176E+03  0.00000000000E+00 0. -1.
</event>
<event>
 7    1  0.6610867E-006  0.1218780E+03  0.7561462E-02  0.1240031E+00
         -1   -1    0    0    0  501 -0.00000000000E+00  0.00000000000E+00  0.16073657335E+03  0.16073657335E+03  0.00000000000E+00 0.  1.
          1   -1    0    0  501    0  0.00000000000E+00 -0.00000000000E+00 -0.98114746518E+02  0.98114746518E+02  0.00000000000E+00 0. -1.
         23    2    1    2    0    0  0.21032715504E+02  0.57940488942E+02  0.17917803949E+02  0.11240208503E+03  0.92269743900E+02 0.  0.
          5    1    1    2  502    0 -0.27671004477E+02 -0.94396670366E+02  0.16814615452E+02  0.99883029378E+02  0.41800000000E+01 0.  1.
         -5    1    1    2    0  502  0.66382889721E+01  0.36456181424E+02  0.27889407428E+02  0.46566205463E+02  0.41800000000E+01 0.  1.
        -11    1    3    3    0    0  0.42656873894E+02  0.70939733582E+02  0.24618805200E+01  0.82813740085E+02  0.00000000000E+00 0.  1.
         11    1    3    3    0    0 -0.21624158390E+02 -0.12999244640E+02  0.15455923429E+02  0.29588344941E+02  0.00000000000E+00 0. -1.
</event>
<event>
 7    1  0.6610867E-006  0.9555361E+02  0.7561462E-02  0.1289934E+00
          2   -1    0    0  501    0  0.00000000000E+00  0.00000000000E+00  0.88355470413E+02  0.88355470413E+02  0.00000000000E+00 0.  1.
         -2   -1    0    0    0  501 -0.00000000000E+00 -0.00000000000E+00 -0.14630426239E+03  0.14630426239E+03  0.00000000000E+00 0. -1.
         23    2    1    2    0    0 -0.55731046739E+01  0.91000357038E+01 -0.58518602205E+02  0.10911670406E+03  0.91477637465E+02 0.  0.
          5    1    1    2  502    0 -0.39585848871E+01 -0.55243437333E+02 -0.35621084023E+02  0.65983647896E+02  0.41800000000E+01 0. -1.
         -5    1    1    2    0  502  0.95316895610E+01  0.46143401629E+02  0.36190894251E+02  0.59559380843E+02  0.41800000000E+01 0. -1.
        -11    1    3    3    0    0  0.32528316941E+02  0.30475548519E+02 -0.13948044189E+02  0.46705442909E+02  0.00000000000E+00 0.  1.
         11    1    3    3    0    0 -0.38101421615E+02 -0.21375512815E+02 -0.44570558015E+02  0.62411261155E+02  0.00000000000E+00 0. -1.
</event>
<event>
 7    1  0.6610867E-006  0.4836028E+02  0.7561462E-02  0.1454392E+00
          1   -1    0    0  501    0  0.00000000000E+00  0.00000000000E+00  0.61112363328E+02  0.61112363328E+02  0.00000000000E+00 0. -1.
         -1   -1    0    0    0  501 -0.00000000000E+00 -0.00000000000E+00 -0.19620731173E+03  0.19620731173E+03  0.00000000000E+00 0.  1.
         23    2    1    2    0    0 -0.15341123734E+02  0.70096849214E+01 -0.66499768136E+02  0.11366164112E+03  0.90621541258E+02 0.  0.
          5    1    1    2  502    0  0.33083872163E+01 -0.84414537560E+01 -0.10478790030E+03  0.10526243402E+03  0.41800000000E+01 0.  1.
         -5    1    1    2    0  502  0.12032736518E+02  0.14317688346E+01  0.36192720027E+02  0.38395599918E+02  0.41800000000E+01 0.  1.
        -11    1    3    3    0    0 -0.36150534284E+02 -0.18814451113E+02 -0.16070292123E+01  0.40785135069E+02  0.00000000000E+00 0. -1.
         11    1    3    3    0    0  0.20809410550E+02  0.25824136034E+02 -0.64892738923E+02  0.72876506052E+02  0.00000000000E+00 0.  1.
</event>
<event>
 7    1  0.6610867E-006  0.1758175E+03  0.7561462E-02  0.1171913E+00
         -2   -1    0    0    0  501 -0.00000000000E+00  0.00000000000E+00  0.32125764459E+03  0.32125764459E+03  0.00000000000E+00 0.  1.
          2   -1    0    0  501    0  0.00000000000E+00 -0.00000000000E+00 -0.10015091271E+03  0.10015091271E+03  0.00000000000E+00 0. -1.
         23    2    1    2    0    0  0.11371982443E+03 -0.86821219569E+02  0.95488392038E+02  0.19359814712E+03  0.88837418458E+02 0.  0.
          5    1    1    2  502    0 -0.34521789635E+02 -0.29133364398E+02  0.52683052301E+02  0.69523257119E+02  0.41800000000E+01 0.  1.
         -5    1    1    2    0  502 -0.79198034794E+02  0.11595458397E+03  0.72935287536E+02  0.15828715307E+03  0.41800000000E+01 0.  1.
        -11    1    3    3    0    0  0.11336122072E+02  0.16703053156E+02  0.13852745028E+01  0.20234095824E+02  0.00000000000E+00 0. -1.
         11    1    3    3    0    0  0.10238370236E+03 -0.10352427272E+03  0.94103117535E+02  0.17336405129E+03  0.00000000000E+00 0.  1.
</event>
<event>
 7    1  0.6610867E-006  0.7932992E+02  0.7561462E-02  0.1330964E+00
         -1   -1    0    0    0  501 -0.00000000000E+00  0.00000000000E+00  0.29443298607E+02  0.29443298607E+02  0.00000000000E+00 0.  1.
          1   -1    0    0  501    0  0.00000000000E+00 -0.00000000000E+00 -0.43913547197E+03  0.43913547197E+03  0.00000000000E+00 0. -1.
         23    2    1    2    0    0  0.75935189100E+00 -0.97261219525E+01 -0.12135639774E+03  0.15412654049E+03  0.94511592662E+02 0.  0.
          5    1    1    2  502    0  0.53346631098E+01 -0.49036722945E+02 -0.56258358885E+02  0.74936867910E+02  0.41800000000E+01 0. -1.
         -5    1    1    2    0  502 -0.60940150008E+01  0.58762844897E+02 -0.23207741674E+03  0.23951536218E+03  0.41800000000E+01 0. -1.
        -11    1    3    3    0    0 -0.22834528904E+02  0.31529490364E+01 -0.12490405440E+03  0.12701330483E+03  0.00000000000E+00 0. -1.
         11    1    3    3    0    0  0.23593880795E+02 -0.12879070989E+02  0.35476566560E+01  0.27113235665E+02  0.00000000000E+00 0.  1.
</event>
<event>
 7    1  0.6610867E-006  0.1838885E+03  0.7561462E-02  0.1164092E+00
         -2   -1    0    0    0  501 -0.00000000000E+00  0.00000000000E+00  0.82058858605E+02  0.82058858605E+02  0.00000000000E+00 0.  1.
          2   -1    0    0  501    0  0.00000000000E+00 -0.00000000000E+00 -0.53312264727E+03  0.53312264727E+03  0.00000000000E+00 0. -1.
         23    2    1    2    0    0 -0.67108983379E+02 -0.16467073326E+03 -0.15834959954E+03  0.25057097531E+03  0.78045832371E+02 0.  0.
          5    1    1    2  502    0  0.16969261416E+02  0.32978794069E+02 -0.18080293417E+03  0.18461508631E+03  0.41800000000E+01 0. -1.
         -5    1    1    2    0  502  0.50139721963E+02  0.13169193919E+03 -0.11191125496E+03  0.17999544426E+03  0.41800000000E+01 0. -1.
        -11    1    3    3    0    0  0.32274015496E+01 -0.77053978581E+02 -0.92145931369E+02  0.12016074402E+03  0.00000000000E+00 0.  1.
         11    1    3    3    0    0 -0.70336384928E+02 -0.87616754677E+02 -0.66203668171E+02  0.13041023129E+03  0.00000000000E+00 0. -1.
</event>
<event>
 7    1  0.6610867E-006  0.2049247E+03  0.7561462E-02  0.1145649E+00
         -2   -1    0    0    0  501 -0.00000000000E+00  0.00000000000E+00  0.39974970584E+03  0.39974970584E+03  0.00000000000E+00 0. -1.
          2   -1    0    0  501    0  0.00000000000E+00 -0.00000000000E+00 -0.11710058686E+03  0.11710058686E+03  0.00000000000E+00 0.  1.
         23    2    1    2    0    0 -0.14267331051E+03 -0.11776315034E+03  0.16866629177E+03  0.26612285252E+03  0.90273038864E+02 0.  0.
          5    1    1    2  502    0  0.16254010875E+03  0.12080560980E+03  0.10670566080E+03  0.22894727070E+03  0.41800000000E+01 0.  1.
         -5    1    1    2    0  502 -0.19866798243E+02 -0.30424594650E+01  0.72771664151E+01  0.21780169491E+02  0.41800000000E+01 0.  1.
        -11    1    3    3    0    0 -0.11802532700E+03 -0.83599448095E+02  0.73909688046E+02  0.16242378989E+03  0.00000000000E+00 0.  1.
         11    1    3    3    0    0 -0.24647983516E+02 -0.34163702242E+02  0.94756603723E+02  0.10369906263E+03  0.00000000000E+00 0. -1.
</event>
<event>
 7    1  0.6610867E-006  0.1180295E+03  0.7561462E-02  0.1246384E+00
         -2   -1    0    0    0  501 -0.00000000000E+00  0.00000000000E+00  0.83833342201E+02  0.83833342201E+02  0.00000000000E+00 0.  1.
          2   -1    0    0  501    0  0.00000000000E+00 -0.00000000000E+00 -0.23744971455E+03  0.23744971455E+03  0.00000000000E+00 0. -1.
         23    2    1    2    0    0  0.66813178462E+02  0.47394754582E+01 -0.26873092654E+02  0.13102698578E+03  0.10935924493E+03 0.  0.
          5    1    1    2  502    0 -0.92025371685E+01 -0.41648093042E+02 -0.11230545191E+03  0.12020498023E+03  0.41800000000E+01 0.  1.
         -5    1    1    2    0  502 -0.57610641293E+02  0.36908617583E+02 -0.14437827788E+02  0.70051090737E+02  0.41800000000E+01 0.  1.
        -11    1    3    3    0    0  0.82857196610E+02 -0.28601228164E+02 -0.32730219516E+02  0.93566086549E+02  0.00000000000E+00 0. -1.
         11    1    3    3    0    0 -0.16044018148E+02  0.33340703622E+02  0.58571268617E+01  0.37460899234E+02  0.00000000000E+00 0.  1.
</event>
<event>
 7    1  0.6610867E-006  0.1043926E+03  0.7561462E-02  0.1271321E+00
          1   -1    0    0  501    0  0.00000000000E+00  0.00000000000E+00  0.25383340537E+03  0.25383340537E+03  0.00000000000E+00 0.  1.
         -1   -1    0    0    0  501 -0.00000000000E+00 -0.00000000000E+00 -0.62820653810E+02  0.62820653810E+02  0.00000000000E+00 0. -1.
         23    2    1    2    0    0  0.54394906619E+01 -0.34992079055E+02  0.17996537789E+02  0.10023695114E+03  0.92030089353E+02 0.  0.
          5    1    1    2  502    0  0.23591598184E+02  0.64475169528E+02  0.15778947458E+03  0.17212960721E+03  0.41800000000E+01 0.  1.
         -5    1    1    2    0  502 -0.29031088845E+02 -0.29483090473E+02  0.15226739194E+02  0.44287500831E+02  0.41800000000E+01 0.  1.
        -11    1    3    3    0    0 -0.32922700979E+02  0.14350079312E+02  0.95991924393E+01  0.37174904324E+02  0.00000000000E+00 0.  1.
         11    1    3    3    0    0  0.38362191641E+02 -0.49342158367E+02  0.83973453496E+01  0.63062046817E+02  0.00000000000E+00 0. -1.
</event>
<event>
 6    1  0.1325947E-005  0.6698003E+02  0.7561462E-02  0.1370675E+00
          1   -1    0    0  501    0  0.00000000000E+00  0.00000000000E+00  0.33271119504E+03  0.33271119504E+03  0.00000000000E+00 0. -1.
         -1   -1    0    0    0  501 -0.00000000000E+00 -0.00000000000E+00 -0.75953080419E+02  0.75953080419E+02  0.00000000000E+00 0.  1.
          5    1    1    2  502    0  0.55743971691E+02  0.32933149912E+02  0.26152404358E+03  0.26945181482E+03  0.41800000000E+01 0. -1.
         -5    1    1    2    0  502 -0.31508639641E+02 -0.24759570170E+02  0.57562146752E+02  0.70261681062E+02  0.41800000000E+01 0.  1.
        -11    1    1    2    0    0 -0.17767909797E+02  0.73235216163E+00 -0.45406331072E+02  0.48764432321E+02  0.00000000000E+00 0. -1.
         11    1    1    2    0    0 -0.64674222537E+01 -0.89059319030E+01 -0.16921744639E+02  0.20186347250E+02  0.00000000000E+00 0.  1.
</event>
<event>
 7    1  0.6610867E-006  0.1043386E+03  0.7561462E-02  0.1271428E+00
          1   -1    0    0  501    0  0.00000000000E+00  0.00000000000E+00  0.11960432717E+04  0.11960432717E+04  0.00000000000E+00 0. -1.
         -1   -1    0    0    0  501 -0.00000000000E+00 -0.00000000000E+00 -0.18823214760E+02  0.18823214760E+02  0.00000000000E+00 0.  1.
         23    2    1    2    0    0  0.73704522270E+02 -0.86158914698E+01  0.26871813350E+03  0.29479606920E+03  0.95857691168E+02 0.  0.
          5    1    1    2  502    0 -0.35130372861E+02 -0.46454495018E+02  0.66068457597E+03  0.66325993738E+03  0.41800000000E+01 0. -1.
         -5    1    1    2    0  502 -0.38574149409E+02  0.55070386487E+02  0.24781734750E+03  0.25681047991E+03  0.41800000000E+01 0. -1.
        -11    1    3    3    0    0  0.55719148184E+01  0.10732312897E+02 -0.42279393687E+01  0.12810317957E+02  0.00000000000E+00 0.  1.
         11    1    3    3    0    0  0.68132607452E+02 -0.19348204367E+02  0.27294607287E+03  0.28198575124E+03  0.00000000000E+00 0. -1.
</event>
<event>
 6    1  0.6610867E-006  0.1168249E+03  0.7561462E-02  0.1248429E+00
          2   -1    0    0  501    0  0.00000000000E+00  0.00000000000E+00  0.83613796332E+02  0.83613796332E+02  0.00000000000E+00 0. -1.
         -2   -1    0    0    0  501 -0.00000000000E+00 -0.00000000000E+00 -0.28793723492E+03  0.28793723492E+03  0.00000000000E+00 0.  1.
          5    1    1    2  502    0 -0.63302070221E+01  0.37550888060E+02 -0.74615409390E+02  0.83875338649E+02  0.41800000000E+01 0. -1.
         -5    1    1    2    0  502 -0.35092061624E+02 -0.85143926031E+02 -0.57217245397E+02  0.10849989170E+03  0.41800000000E+01 0. -1.
        -11    1    1    2    0    0  0.21373402316E+02 -0.22034135354E+02 -0.97739247250E+02  0.10244650263E+03  0.00000000000E+00 0.  1.
         11    1    1    2    0    0  0.20048866330E+02  0.69627173325E+02  0.25248463452E+02  0.76729298270E+02  0.00000000000E+00 0. -1.
</event>
<event>
 7    1  0.6610867E-006  0.7614922E+02  0.7561462E-02  0.1340349E+00
         -2   -1    0    0    0  501 -0.00000000000E+00  0.00000000000E+00  0.33300727117E+02  0.33300727117E+02  0.00000000000E+00 0.  1.
          2   -1    0    0  501    0  0.00000000000E+00 -0.00000000000E+00 -0.93893929883E+03  0.93893929883E+03  0.00000000000E+00 0. -1.
         23    2    1    2    0    0 -0.53660078595E+02  0.52040155767E+01 -0.73873301140E+02  0.12939485973E+03  0.91538403365E+02 0.  0.
          5    1    1    2  502    0  0.62644764308E+01  0.21048273553E+02 -0.22361751261E+02  0.31619516188E+02  0.41800000000E+01 0. -1.
         -5    1    1    2    0  502  0.47395602164E+02 -0.26252289130E+02 -0.80940351931E+03  0.81122565003E+03  0.41800000000E+01 0. -1.
        -11    1    3    3    0    0 -0.52799177346E+02 -0.15384945691E+02 -0.88450329037E+02  0.10415330234E+03  0.00000000000E+00 0. -1.
         11    1    3    3    0    0 -0.86090124883E+00  0.20588961268E+02  0.14577027897E+02  0.25241557388E+02  0.00000000000E+00 0.  1.
</event>
<event>
 7    1  0.6610867E-006  0.9163409E+02  0.7561462E-02  0.1298942E+00
         -1   -1    0    0    0  501 -0.00000000000E+00  0.00000000000E+00  0.16679125982E+03  0.16679125982E+03  0.00000000000E+00 0.  1.
          1   -1    0    0  501    0  0.00000000000E+00 -0.00000000000E+00 -0.86074368399E+02  0.86074368399E+02  0.00000000000E+00 0. -1.
         23    2    1    2    0    0 -0.36572791825E+02  0.11756620188E+02  0.54908215520E+02  0.11930581274E+03  0.98707535689E+02 0.  0.
          5    1    1    2  502    0 -0.13299407601E+02 -0.50079206354E+02  0.43835191742E+02  0.67998511651E+02  0.41800000000E+01 0. -1.
         -5    1    1    2    0  502  0.49872199426E+02  0.38322586166E+02 -0.18026515844E+02  0.65561303827E+02  0.41800000000E+01 0. -1.
        -11    1    3    3    0    0  0.10692471113E+02  0.17632638231E+02  0.67053341798E+02  0.70152615887E+02  0.00000000000E+00 0.  1.
         11    1    3    3    0    0 -0.47265262938E+02 -0.58760180434E+01 -0.12145126277E+02  0.49153196854E+02  0.00000000000E+00 0. -1.
</event>
<event>
 7    1  0.6610867E-006  0.1339926E+03  0.7561462E-02  0.1221649E+00
          1   -1    0    0  501    0  0.00000000000E+00  0.00000000000E+00  0.73339675116E+03  0.73339675116E+03  0.00000000000E+00 0. -1.
         -1   -1    0    0    0  501 -0.00000000000E+00 -0.00000000000E+00 -0.68253608367E+02  0.68253608367E+02  0.00000000000E+00 0.  1.
         23    2    1    2    0    0 -0.11786362639E+02 -0.59844765885E+01 -0.56020477204E+01  0.96283361379E+02  0.95206987325E+02 0.  0.
          5    1    1    2  502    0 -0.37897102103E+02 -0.72327770857E+02  0.53314175917E+03  0.53937473482E+03  0.41800000000E+01 0. -1.
         -5    1    1    2    0  502  0.49683464741E+02  0.78312247446E+02  0.13760343134E+03  0.16599226333E+03  0.41800000000E+01 0.  1.
        -11    1    3    3    0    0 -0.34948083872E+02 -0.39439725827E+02  0.81697329551E+01  0.53325463676E+02  0.00000000000E+00 0.  1.
         11    1    3    3    0    0  0.23161721234E+02  0.33455249239E+02 -0.13771780676E+02  0.42957897704E+02  0.00000000000E+00 0. -1.
</event>
<event>
 7    1  0.6610867E-006  0.1173867E+03  0.7561462E-02  0.1247472E+00
         -1   -1    0    0    0  501 -0.00000000000E+00  0.00000000000E+00  0.28867416851E+02  0.28867416851E+02  0.00000000000E+00 0. -1.
          1   -1    0    0  501    0  0.00000000000E+00 -0.00000000000E+00 -0.74993564960E+03  0.74993564960E+03  0.00000000000E+00 0.  1.
         23    2    1    2    0    0  0.79712211048E+02  0.59257355059E+02 -0.31618474826E+03  0.34355231454E+03  0.90498215880E+02 0.  0.
          5    1    1    2  502    0 -0.82830093697E+02 -0.72894860787E+02 -0.40586562162E+03  0.42061723736E+03  0.41800000000E+01 0.  1.
         -5    1    1    2    0  502  0.31178826498E+01  0.13637505728E+02  0.98213712873E+00  0.14633514549E+02  0.41800000000E+01 0.  1.
        -11    1    3    3    0    0  0.26010314870E+02 -0.44988253051E+01 -0.13597659638E+02  0.29692966446E+02  0.00000000000E+00 0. -1.
         11    1    3    3    0    0  0.53701896178E+02  0.63756180364E+02 -0.30258708862E+03  0.31385934810E+03  0.00000000000E+00 0.  1.
</event>
<event>
 7    1  0.6610867E-006  0.1157770E+03  0.7561462E-02  0.1250231E+00
         -3   -1    0    0    0  501 -0.00000000000E+00  0.00000000000E+00  0.32339887539E+02  0.32339887539E+02  0.00000000000E+00 0.  1.
          3   -1    0    0  501    0  0.00000000000E+00 -0.00000000000E+00 -0.57428135510E+03  0.57428135510E+03  0.00000000000E+00 0. -1.
         23    2    1    2    0    0 -0.63740200764E+02  0.51238518550E+02 -0.25496336377E+03  0.28305886848E+03  0.91803089178E+02 0.  0.
          5    1    1    2  502    0 -0.23231227172E+01  0.33111131234E+02 -0.29319912735E+02  0.44484532071E+02  0.41800000000E+01 0. -1.
         -5    1    1    2    0  502  0.66063323481E+02 -0.84349649784E+02 -0.25765819106E+03  0.27907784210E+03  0.41800000000E+01 0. -1.
        -11    1    3    3    0    0 -0.25072980462E+02 -0.19155756495E+01 -0.63948990690E+01  0.25946454737E+02  0.00000000000E+00 0.  1.
         11    1    3    3    0    0 -0.38667220302E+02  0.53154094200E+02 -0.24856846470E+03  0.25711241374E+03  0.00000000000E+00 0. -1.
</event>
<event>
 7    1  0.6610867E-006  0.9379248E+02  0.7561462E-02  0.1293919E+00
         -2   -1    0    0    0  501 -0.00000000000E+00  0.00000000000E+00  0.26941604926E+02  0.26941604926E+02  0.00000000000E+00 0.  1.
          2   -1    0    0  501    0  0.00000000000E+00 -0.00000000000E+00 -0.75558660549E+03  0.75558660549E+03  0.00000000000E+00 0. -1.
         23    2    1    2    0    0  0.38751593283E+02 -0.15558080737E+02 -0.10482279609E+03  0.14491894427E+03  0.90939221298E+02 0.  0.
          5    1    1    2  502    0 -0.53007198943E+02  0.51790764826E+02 -0.54015652848E+03  0.54523260552E+03  0.41800000000E+01 0. -1.
         -5    1    1    2    0  502  0.14255605660E+02 -0.36232684088E+02 -0.83665675997E+02  0.92376660629E+02  0.41800000000E+01 0. -1.
        -11    1    3    3    0    0  0.10792797954E+02  0.23677215745E+02  0.36049235658E+01  0.26269573788E+02  0.00000000000E+00 0.  1.
         11    1    3    3    0    0  0.27958795330E+02 -0.39235296482E+02 -0.10842771965E+03  0.11864937048E+03  0.00000000000E+00 0. -1.
</event>
<event>
 7    1  0.6610867E-006  0.7905246E+02  0.7561462E-02  0.1331762E+00
         -1   -1    0    0    0  501 -0.00000000000E+00  0.00000000000E+00  0.24039705665E+02  0.24039705665E+02  0.00000000000E+00 0.  1.
          1   -1    0    0  501    0  0.00000000000E+00 -0.00000000000E+00 -0.65165226004E+03  0.65165226004E+03  0.00000000000E+00 0. -1.
         23    2    1    2    0    0 -0.53261638788E+02 -0.24955144308E+02 -0.20446097128E+03  0.23054015867E+03  0.88797041564E+02 0.  0.
          5    1    1    2  502    0  0.35322982346E+02  0.17374989444E+02 -0.42338581402E+03  0.42523243438E+03  0.41800000000E+01 0.  1.
         -5    1    1    2    0  502  0.17938656442E+02  0.75801548639E+01  0.23423092022E+00  0.19919372652E+02  0.41800000000E+01 0.  1.
        -11    1    3    3    0    0 -0.58090338233E+02 -0.47813948612E+02 -0.11025038996E+03  0.13347587634E+03  0.00000000000E+00 0.  1.
         11    1    3    3    0    0  0.48286994451E+01  0.22858804304E+02 -0.94210581319E+02  0.97064282334E+02  0.00000000000E+00 0. -1.
</event>
<event>
 7    1  0.6610867E-006  0.1220274E+03  0.7561462E-02  0.1239789E+00
          1   -1    0    0  501    0  0.00000000000E+00  0.00000000000E+00  0.76654743859E+03  0.76654743859E+03  0.00000000000E+00 0. -1.
         -1   -1    0    0    0  501 -0.00000000000E+00 -0.00000000000E+00 -0.36624289346E+02  0.36624289346E+02  0.00000000000E+00 0.  1.
         23    2    1    2    0    0  0.50753269766E+02  0.44031268665E+02  0.67131793677E+02  0.12577057635E+03  0.82443393550E+02 0.  0.
          5    1    1    2  502    0 -0.27716617099E+02 -0.85560191284E+02  0.37285799164E+03  0.38357438852E+03  0.41800000000E+01 0. -1.
         -5    1    1    2    0  502 -0.23036652667E+02  0.41528922619E+02  0.28993336393E+03  0.29382676307E+03  0.41800000000E+01 0.  1.
        -11    1    3    3    0    0  0.38032774113E+02 -0.18669608534E+02  0.25917931729E+02  0.49666743146E+02  0.00000000000E+00 0.  1.
         11    1    3    3    0    0  0.12720495653E+02  0.62700877199E+02  0.41213861948E+02  0.76103833201E+02  0.00000000000E+00 0. -1.
</event>
<event>
 7    1  0.6610867E-006  0.1015427E+03  0.7561462E-02  0.1277085E+00
         -3   -1    0    0    0  501 -0.00000000000E+00  0.00000000000E+00  0.22042035888E+02  0.22042035888E+02  0.00000000000E+00 0.  1.
          3   -1    0    0  501    0  0.00000000000E+00 -0.00000000000E+00 -0.57584201215E+03  0.57584201215E+03  0.00000000000E+00 0. -1.
         23    2    1    2    0    0 -0.67372139590E+01 -0.19600263660E+02 -0.20940757909E+03  0.23089255100E+03  0.95027761930E+02 0.  0.
          5    1    1    2  502    0 -0.46433844677E+02 -0.11331154244E+02 -0.64495356096E+02  0.80384204580E+02  0.41800000000E+01 0.  1.
         -5    1    1    2    0  502  0.53171058636E+02  0.30931417904E+02 -0.27989704107E+03  0.28660729246E+03  0.41800000000E+01 0.  1.
        -11    1    3    3    0    0  0.19207941360E+02  0.31068076087E+02 -0.52318324896E+02  0.63807346623E+02  0.00000000000E+00 0.  1.
         11    1    3    3    0    0 -0.25945155319E+02 -0.50668339748E+02 -0.15708925419E+03  0.16708520437E+03  0.00000000000E+00 0. -1.
</event>
<event>
 7    1  0.6610867E-006  0.1164001E+03  0.7561462E-02  0.1249157E+00
         -2   -1    0    0    0  501 -0.00000000000E+00  0.00000000000E+00  0.12548778733E+03  0.12548778733E+03  0.00000000000E+00 0.  1.
          2   -1    0    0  501    0  0.00000000000E+00 -0.00000000000E+00 -0.13812736626E+03  0.13812736626E+03  0.00000000000E+00 0. -1.
         23    2    1    2    0    0 -0.60328740031E+02  0.14886075278E+02  0.39577955095E+02  0.11770440211E+03  0.91797383599E+02 0.  0.
          5    1    1    2  502    0  0.59144581399E+01 -0.54966963826E+02 -0.55063052466E+02  0.78139363155E+02  0.41800000000E+01 0. -1.
         -5    1    1    2    0  502  0.54414281891E+02  0.40080888548E+02  0.28455184392E+01  0.67771388327E+02  0.41800000000E+01 0.  1.
        -11    1    3    3    0    0 -0.60508024424E+02  0.47566162999E+02  0.19677737782E+02  0.79441640507E+02  0.00000000000E+00 0.  1.
         11    1    3    3    0    0  0.17928439312E+00 -0.32680087721E+02  0.19900217314E+02  0.38262761603E+02  0.00000000000E+00 0. -1.
</event>
<event>
 7    1  0.6610867E-006  0.1272814E+03  0.7561462E-02  0.1231546E+00
         -2   -1    0    0    0  501 -0.00000000000E+00  0.00000000000E+00  0.32329862473E+03  0.32329862473E+03  0.00000000000E+00 0.  1.
          2   -1    0    0  501    0  0.00000000000E+00 -0.00000000000E+00 -0.57141273404E+02  0.57141273404E+02  0.00000000000E+00 0. -1.
         23    2    1    2    0    0 -0.70948464179E+02 -0.37184552809E+02  0.16249872327E+03  0.19924505043E+03  0.82923938166E+02 0.  0.
          5    1    1    2  502    0  0.16065687789E+02  0.78211501948E+02  0.54650077346E+02  0.96846521440E+02  0.41800000000E+01 0.  1.
         -5    1    1    2    0  502  0.54882776390E+02 -0.41026949139E+02  0.49008550706E+02  0.84348326257E+02  0.41800000000E+01 0.  1.
        -11    1    3    3    0    0  0.12523109537E+02  0.36366954302E+01  0.11983542063E+01  0.13095414424E+02  0.00000000000E+00 0.  1.
         11    1    3    3    0    0 -0.83471573716E+02 -0.40821248239E+02  0.16130036906E+03  0.18614963601E+03  0.00000000000E+00 0. -1.
</event>
<event>
 7    1  0.6610867E-006  0.1117211E+03  0.7561462E-02  0.1257415E+00
          3   -1    0    0  501    0  0.00000000000E+00  0.00000000000E+00  0.13143800259E+03  0.13143800259E+03  0.00000000000E+00 0. -1.
         -3   -1    0    0    0  501 -0.00000000000E+00 -0.00000000000E+00 -0.12337006307E+03  0.12337006307E+03  0.00000000000E+00 0.  1.
         23    2    1    2    0    0 -0.40793222010E+02  0.45683173772E+02 -0.23457056429E+02  0.11200522223E+03  0.90795908399E+02 0.  0.
          5    1    1    2  502    0 -0.35305352362E+01 -0.74451443384E+02 -0.10197953221E+02  0.75345555615E+02  0.41800000000E+01 0. -1.
         -5    1    1    2    0  502  0.44323757246E+02  0.28768269612E+02  0.41722949171E+02  0.67457287823E+02  0.41800000000E+01 0. -1.
        -11    1    3    3    0    0 -0.57404483076E+02  0.12610048445E+02  0.12847886898E+02  0.60161085402E+02  0.00000000000E+00 0. -1.
         11    1    3    3    0    0  0.16611261067E+02  0.33073125327E+02 -0.36304943327E+02  0.51844136825E+02  0.00000000000E+00 0.  1.
</event>
<event>
 7    1  0.6610867E-006  0.1106362E+03  0.7561462E-02  0.1259396E+00
          4   -1    0    0  501    0  0.00000000000E+00  0.00000000000E+00  0.19376013796E+03  0.19376013796E+03  0.00000000000E+00 0.  1.
         -4   -1    0    0    0  501 -0.00000000000E+00 -0.00000000000E+00 -0.65531558330E+02  0.65531558330E+02  0.00000000000E+00 0. -1.
         23    2    1    2    0    0 -0.12994721859E+01  0.28948789826E+02  0.61442061082E+02  0.11455733820E+03  0.92241724859E+02 0.  0.
          5    1    1    2  502    0  0.32730397315E+02 -0.69253395323E+02  0.45647980829E+02  0.89266579558E+02  0.41800000000E+01 0. -1.
         -5    1    1    2    0  502 -0.31430925129E+02  0.40304605497E+02  0.21138537721E+02  0.55467778536E+02  0.41800000000E+01 0. -1.
        -11    1    3    3    0    0 -0.16144551271E+02 -0.29144911715E+02  0.37044334915E+02  0.49823239195E+02  0.00000000000E+00 0.  1.
         11    1    3    3    0    0  0.14845079085E+02  0.58093701540E+02  0.24397726167E+02  0.64734099004E+02  0.00000000000E+00 0. -1.
</event>
<event>
 7    1  0.6610867E-006  0.1114061E+03  0.7561462E-02  0.1257988E+00
          4   -1    0    0  501    0  0.00000000000E+00  0.00000000000E+00  0.17545522268E+02  0.17545522268E+02  0.00000000000E+00 0. -1.
         -4   -1    0    0    0  501 -0.00000000000E+00 -0.00000000000E+00 -0.73978704646E+03  0.73978704646E+03  0.00000000000E+00 0.  1.
         23    2    1    2    0    0  0.20876130964E+02 -0.25701947868E+02 -0.35205755592E+03  0.36518074190E+03  0.91192371423E+02 0.  0.
          5    1    1    2  502    0  0.49715438438E+02  0.28907110129E+02 -0.19019071557E+03  0.19873909159E+03  0.41800000000E+01 0. -1.
         -5    1    1    2    0  502 -0.70591569402E+02 -0.32051622604E+01 -0.17999325271E+03  0.19341273525E+03  0.41800000000E+01 0. -1.
        -11    1    3    3    0    0  0.55786540376E+02 -0.17951005908E+02 -0.25756263395E+03  0.26414557939E+03  0.00000000000E+00 0.  1.
         11    1    3    3    0    0 -0.34910409412E+02 -0.77509419601E+01 -0.94494921964E+02  0.10103516251E+03  0.00000000000E+00 0. -1.
</event>
<event>
 7    1  0.6610867E-006  0.1914906E+03  0.7561462E-02  0.1157124E+00
         -1   -1    0    0    0  501 -0.00000000000E+00  0.00000000000E+00  0.43519218938E+03  0.43519218938E+03  0.00000000000E+00 0.  1.
          1   -1    0    0  501    0  0.00000000000E+00 -0.00000000000E+00 -0.11885392479E+03  0.11885392479E+03  0.00000000000E+00 0. -1.
         23    2    1    2    0    0 -0.13173530231E+03 -0.12523550306E+03  0.25267998031E+03  0.32400214487E+03  0.89956080015E+02 0.  0.
          5    1    1    2  502    0  0.12135204692E+03  0.11238162447E+03  0.13584959970E+01  0.16545472711E+03  0.41800000000E+01 0. -1.
         -5    1    1    2    0  502  0.10383255385E+02  0.12853878582E+02  0.62299788284E+02  0.64589242195E+02  0.41800000000E+01 0. -1.
        -11    1    3    3    0    0 -0.14280891074E+03 -0.12438214997E+03  0.24777259451E+03  0.31185984482E+03  0.00000000000E+00 0.  1.
         11    1    3    3    0    0  0.11073608432E+02 -0.85335308200E+00  0.49073857955E+01  0.12142300051E+02  0.00000000000E+00 0. -1.
</event>
<event>
 7    1  0.6610867E-006  0.1104615E+03  0.7561462E-02  0.1259718E+00
         -2   -1    0    0    0  501 -0.00000000000E+00  0.00000000000E+00  0.26101654740E+03  0.26101654740E+03  0.00000000000E+00 0.  1.
          2   -1    0    0  501    0  0.00000000000E+00 -0.00000000000E+00 -0.77238372829E+02  0.77238372829E+02  0.00000000000E+00 0. -1.
         23    2    1    2    0    0 -0.78532172923E+02  0.44470940556E+02  0.56810719137E+02  0.13847138628E+03  0.88328366181E+02 0.  0.
          5    1    1    2  502    0 -0.68077138428E+01  0.49590461512E+01 -0.20370565317E+02  0.22435896190E+02  0.41800000000E+01 0.  1.
         -5    1    1    2    0  502  0.85339886766E+02 -0.49429986707E+02  0.14733802075E+03  0.17734763776E+03  0.41800000000E+01 0.  1.
        -11    1    3    3    0    0 -0.80483722828E+02  0.13296460676E+02  0.67056619324E+02  0.10559836979E+03  0.00000000000E+00 0.  1.
         11    1    3    3    0    0  0.19515499045E+01  0.31174479880E+02 -0.10245900187E+02  0.32873016495E+02  0.00000000000E+00 0. -1.
</event>
<event>
 7    1  0.6610867E-006  0.1268976E+03  0.7561462E-02  0.1232133E+00
         -2   -1    0    0    0  501 -0.00000000000E+00  0.00000000000E+00  0.53926667489E+02  0.53926667489E+02  0.00000000000E+00 0.  1.
          2   -1    0    0  501    0  0.00000000000E+00 -0.00000000000E+00 -0.48410418265E+03  0.48410418265E+03  0.00000000000E+00 0. -1.
         23    2    1    2    0    0  0.71952783027E+02  0.93001541787E+02 -0.15684146489E+03  0.21524681333E+03  0.88912630039E+02 0.  0.
          5    1    1    2  502    0 -0.44960512768E+02 -0.22435755932E+02 -0.13560753448E+02  0.52212807688E+02  0.41800000000E+01 0.  1.
         -5    1    1    2    0  502 -0.26992270259E+02 -0.70565785855E+02 -0.25977529683E+03  0.27057122912E+03  0.41800000000E+01 0.  1.
        -11    1    3    3    0    0  0.11927975258E+02  0.55861285916E+02 -0.12575284498E+03  0.13811784055E+03  0.00000000000E+00 0. -1.
         11    1    3    3    0    0  0.60024807769E+02  0.37140255871E+02 -0.31088619904E+02  0.77128972776E+02  0.00000000000E+00 0.  1.
</event>
<event>
 7    1  0.6610867E-006  0.9698615E+02  0.7561462E-02  0.1286764E+00
          3   -1    0    0  501    0  0.00000000000E+00  0.00000000000E+00  0.24874152880E+03  0.24874152880E+03  0.00000000000E+00 0. -1.
         -3   -1    0    0    0  501 -0.00000000000E+00 -0.00000000000E+00 -0.12009039256E+03  0.12009039256E+03  0.00000000000E+00 0.  1.
         23    2    1    2    0    0 -0.34423438977E+02  0.39153086218E+02 -0.67462639516E+02  0.12424790754E+03  0.90379187246E+02 0.  0.
          5    1    1    2  502    0  0.43558220164E+02 -0.84625167021E+02  0.10195417008E+03  0.13953803293E+03  0.41800000000E+01 0. -1.
         -5    1    1    2    0  502 -0.91347811873E+01  0.45472080804E+02  0.94159605667E+02  0.10504598088E+03  0.41800000000E+01 0.  1.
        -11    1    3    3    0    0 -0.76076110182E+01  0.84722241649E+01  0.22649698686E+02  0.25350802320E+02  0.00000000000E+00 0. -1.
         11    1    3    3    0    0 -0.26815827959E+02  0.30680862053E+02 -0.90112338202E+02  0.98897105224E+02  0.00000000000E+00 0.  1.
</event>
<event>
 7    1  0.6610867E-006  0.1534671E+03  0.7561462E-02  0.1196276E+00
          2   -1    0    0  501    0  0.00000000000E+00  0.00000000000E+00  0.73137831280E+03  0.73137831280E+03  0.00000000000E+00 0.  1.
         -2   -1    0    0    0  501 -0.00000000000E+00 -0.00000000000E+00 -0.43911044898E+02  0.43911044898E+02  0.00000000000E+00 0. -1.
         23    2    1    2    0    0 -0.67493848598E+02 -0.92549531386E+02  0.14013383553E+03  0.20227768934E+03  0.90321295303E+02 0.  0.
          5    1    1    2  502    0  0.19980288176E+01  0.10246584991E+03  0.35666045206E+03  0.37111641432E+03  0.41800000000E+01 0.  1.
         -5    1    1    2    0  502  0.65495819781E+02 -0.99163185218E+01  0.19067298030E+03  0.20189525403E+03  0.41800000000E+01 0.  1.
        -11    1    3    3    0    0 -0.85259541018E+01 -0.76367160974E+02  0.10980464756E+03  0.13402125128E+03  0.00000000000E+00 0.  1.
         11    1    3    3    0    0 -0.58967894497E+02 -0.16182370412E+02  0.30329187969E+02  0.68256438058E+02  0.00000000000E+00 0. -1.
</event>
<event>
 7    1  0.6610867E-006  0.1738721E+03  0.7561462E-02  0.1173869E+00
         -4   -1    0    0    0  501 -0.00000000000E+00  0.00000000000E+00  0.25685273356E+03  0.25685273356E+03  0.00000000000E+00 0.  1.
          4   -1    0    0  501    0  0.00000000000E+00 -0.00000000000E+00 -0.15252561735E+03  0.15252561735E+03  0.00000000000E+00 0. -1.
         23    2    1    2    0    0  0.12456339473E+03  0.72043745376E+02  0.13364548420E+03  0.21647135896E+03  0.91062578761E+02 0.  0.
          5    1    1    2  502    0  0.87313129124E+00  0.20997826140E+02 -0.29763129131E+02  0.36674068721E+02  0.41800000000E+01 0. -1.
         -5    1    1    2    0  502 -0.12543652602E+03 -0.93041571516E+02  0.44476113871E+00  0.15623292323E+03  0.41800000000E+01 0. -1.
        -11    1    3    3    0    0  0.25760543654E+02  0.66283875982E+02  0.61153383552E+02  0.93791759470E+02  0.00000000000E+00 0.  1.
         11    1    3    3    0    0  0.98802851071E+02  0.57598693934E+01  0.72492100647E+02  0.12267959949E+03  0.00000000000E+00 0. -1.
</event>
<event>
 7    1  0.6610867E-006  0.9179421E+02  0.7561462E-02  0.1298564E+00
          1   -1    0    0  501    0  0.00000000000E+00  0.00000000000E+00  0.26379961358E+02  0.26379961358E+02  0.00000000000E+00 0. -1.
         -1   -1    0    0    0  501 -0.00000000000E+00 -0.00000000000E+00 -0.40970199972E+03  0.40970199972E+03  0.00000000000E+00 0.  1.
         23    2    1    2    0    0 -0.37278682376E+02 -0.10534643256E+02 -0.14696892353E+03  0.16587511371E+03  0.66438016203E+02 0.  0.
          5    1    1    2  502    0  0.64693266532E+02  0.43038700058E+02 -0.96455857364E+02  0.12393043717E+03  0.41800000000E+01 0. -1.
         -5    1    1    2    0  502 -0.27414584156E+02 -0.32504056802E+02 -0.13989725747E+03  0.14627641020E+03  0.41800000000E+01 0. -1.
        -11    1    3    3    0    0  0.25557375233E+01  0.15337555386E+02 -0.91659992845E+02  0.92969493318E+02  0.00000000000E+00 0.  1.
         11    1    3    3    0    0 -0.39834419899E+02 -0.25872198642E+02 -0.55308930681E+02  0.72905620390E+02  0.00000000000E+00 0. -1.
</event>
<event>
 7    1  0.7828990E-006  0.1626153E+03  0.7561462E-02  0.1185775E+00
         -2   -1    0    0    0  501 -0.00000000000E+00  0.00000000000E+00  0.29523490706E+02  0.29523490706E+02  0.00000000000E+00 0.  1.
          2   -1    0    0  501    0  0.00000000000E+00 -0.00000000000E+00 -0.10150203347E+04  0.10150203347E+04  0.00000000000E+00 0. -1.
         23    2    1    2    0    0 -0.31114195955E+02 -0.12592263367E+03 -0.32235620517E+03  0.35735536351E+03  0.83454957656E+02 0.  0.
          5    1    1    2  502    0  0.36075763820E+01 -0.21728664123E+02 -0.17547879907E+03  0.17690514626E+03  0.41800000000E+01 0.  1.
         -5    1    1    2    0  502  0.27506619573E+02  0.14765129779E+03 -0.48766183976E+03  0.51028331563E+03  0.41800000000E+01 0.  1.
        -11    1    3    3    0    0 -0.63658457784E+01 -0.12759785050E+03 -0.28715554241E+03  0.31429292226E+03  0.00000000000E+00 0. -1.
         11    1    3    3    0    0 -0.24748350176E+02  0.16752168284E+01 -0.35200662756E+02  0.43062441249E+02  0.00000000000E+00 0.  1.
</event>
<event>
 7    1  0.6610867E-006  0.1334391E+03  0.7561462E-02  0.1222440E+00
         -2   -1    0    0    0  501 -0.00000000000E+00  0.00000000000E+00  0.33178581576E+03  0.33178581576E+03  0.00000000000E+00 0.  1.
          2   -1    0    0  501    0  0.00000000000E+00 -0.00000000000E+00 -0.68603748268E+02  0.68603748268E+02  0.00000000000E+00 0. -1.
         23    2    1    2    0    0  0.52340847643E+02  0.85424868672E+02  0.15743883158E+03  0.20838232398E+03  0.92732058848E+02 0.  0.
          5    1    1    2  502    0 -0.87244867749E+02 -0.76135861042E+02  0.10385054977E+03  0.15559802496E+03  0.41800000000E+01 0.  1.
         -5    1    1    2    0  502  0.34904020105E+02 -0.92890076305E+01  0.18926861420E+01  0.36409215085E+02  0.41800000000E+01 0.  1.
        -11    1    3    3    0    0  0.36975001964E+02  0.10888757008E+02  0.61528032685E+01  0.39032970518E+02  0.00000000000E+00 0. -1.
         11    1    3    3    0    0  0.15365845680E+02  0.74536111664E+02  0.15128602832E+03  0.16934935347E+03  0.00000000000E+00 0.  1.
</event>
<event>
 7    1  0.6610867E-006  0.9141640E+02  0.7561462E-02  0.1299457E+00
         -1   -1    0    0    0  501 -0.00000000000E+00  0.00000000000E+00  0.11773543634E+03  0.11773543634E+03  0.00000000000E+00 0.  1.
          1   -1    0    0  501    0  0.00000000000E+00 -0.00000000000E+00 -0.11120815375E+03  0.11120815375E+03  0.00000000000E+00 0. -1.
         23    2    1    2    0    0 -0.22726962811E+02 -0.76664499500E+01  0.31670383070E+02  0.99113586841E+02  0.90803087168E+02 0.  0.
          5    1    1    2  502    0 -0.47196113740E+02  0.81254624608E+01 -0.34482289720E+02  0.59160772449E+02  0.41800000000E+01 0.  1.
         -5    1    1    2    0  502  0.69923076551E+02 -0.45901251080E+00  0.93391892408E+01  0.70669230805E+02  0.41800000000E+01 0.  1.
        -11    1    3    3    0    0 -0.11430813906E+01  0.25289838171E+02 -0.21310582763E+02  0.33091139109E+02  0.00000000000E+00 0. -1.
         11    1    3    3    0    0 -0.21583881420E+02 -0.32956288122E+02  0.52980965833E+02  0.66022447732E+02  0.00000000000E+00 0.  1.
</event>
<event>
 7    1  0.6610867E-006  0.1014491E+03  0.7561462E-02  0.1277278E+00
         -2   -1    0    0    0  501 -0.00000000000E+00  0.00000000000E+00  0.21780869039E+03  0.21780869039E+03  0.00000000000E+00 0. -1.
          2   -1    0    0  501    0  0.00000000000E+00 -0.00000000000E+00 -0.91217606747E+02  0.91217606747E+02  0.00000000000E+00 0.  1.
         23    2    1    2    0    0 -0.32824398059E+02 -0.42225206193E+02  0.13599134096E+03  0.17265707064E+03  0.91958741173E+02 0.  0.
          5    1    1    2  502    0  0.72039482779E+02  0.58069758250E+02 -0.13777298995E+02  0.93643314069E+02  0.41800000000E+01 0.  1.
         -5    1    1    2    0  502 -0.39215084719E+02 -0.15844552058E+02  0.43770416779E+01  0.42725912434E+02  0.41800000000E+01 0.  1.
        -11    1    3    3    0    0 -0.22979184725E+02  0.14276562531E+01  0.12428826538E+03  0.12640274540E+03  0.00000000000E+00 0. -1.
         11    1    3    3    0    0 -0.98452133342E+01 -0.43652862446E+02  0.11703075584E+02  0.46254325240E+02  0.00000000000E+00 0.  1.
</event>
<event>
 7    1  0.6610867E-006  0.1082333E+03  0.7561462E-02  0.1263877E+00
          2   -1    0    0  501    0  0.00000000000E+00  0.00000000000E+00  0.11687678318E+03  0.11687678318E+03  0.00000000000E+00 0. -1.
         -2   -1    0    0    0  501 -0.00000000000E+00 -0.00000000000E+00 -0.22665713713E+03  0.22665713713E+03  0.00000000000E+00 0.  1.
         23    2    1    2    0    0 -0.12737847120E+02  0.77669763947E+02 -0.14701604709E+03  0.19111695513E+03  0.93365558188E+02 0.  0.
          5    1    1    2  502    0 -0.22500535872E+02  0.19965591228E+02 -0.17441413730E+02  0.35022482215E+02  0.41800000000E+01 0.  1.
         -5    1    1    2    0  502  0.35238382993E+02 -0.97635355174E+02  0.54677106865E+02  0.11739448297E+03  0.41800000000E+01 0.  1.
        -11    1    3    3    0    0  0.24103960461E+00  0.61396367645E+02 -0.15659679755E+03  0.16820264285E+03  0.00000000000E+00 0.  1.
         11    1    3    3    0    0 -0.12978886725E+02  0.16273396302E+02  0.95807504597E+01  0.22914312279E+02  0.00000000000E+00 0. -1.
</event>
<event>
 7    1  0.6610867E-006  0.1022130E+03  0.7561462E-02  0.1275710E+00
         -2   -1    0    0    0  501 -0.00000000000E+00  0.00000000000E+00  0.15717932632E+02  0.15717932632E+02  0.00000000000E+00 0.  1.
          2   -1    0    0  501    0  0.00000000000E+00 -0.00000000000E+00 -0.16071663129E+04  0.16071663129E+04  0.00000000000E+00 0. -1.
         23    2    1    2    0    0  0.50154510485E+01  0.44268407438E+02 -0.18545607077E+03  0.21063806680E+03  0.89384530848E+02 0.  0.
          5    1    1    2  502    0 -0.42725785342E+01  0.37538553361E+02 -0.77878047347E+03  0.77970757093E+03  0.41800000000E+01 0.  1.
         -5    1    1    2    0  502 -0.74287251426E+00 -0.81806960800E+02 -0.62721183599E+03  0.63253860775E+03  0.41800000000E+01 0.  1.
        -11    1    3    3    0    0 -0.18480511990E+02  0.55470389501E+02 -0.65108726882E+02  0.87507941074E+02  0.00000000000E+00 0.  1.
         11    1    3    3    0    0  0.23495963038E+02 -0.11201982063E+02 -0.12034734389E+03  0.12313012573E+03  0.00000000000E+00 0. -1.
</event>
<event>
 7    1  0.6610867E-006  0.9133736E+02  0.7561462E-02  0.1299645E+00
          2   -1    0    0  501    0  0.00000000000E+00  0.00000000000E+00  0.42289066166E+03  0.42289066166E+03  0.00000000000E+00 0.  1.
         -2   -1    0    0    0  501 -0.00000000000E+00 -0.00000000000E+00 -0.37381965453E+02  0.37381965453E+02  0.00000000000E+00 0. -1.
         23    2    1    2    0    0  0.34138199973E+02  0.34855441601E+02  0.96614020866E+02  0.14170184666E+03  0.91459421675E+02 0.  0.
          5    1    1    2  502    0 -0.32359364247E+02  0.44047802712E+02  0.10615913065E+03  0.11947623528E+03  0.41800000000E+01 0.  1.
         -5    1    1    2    0  502 -0.17788357258E+01 -0.78903244313E+02  0.18273554470E+03  0.19909454517E+03  0.41800000000E+01 0.  1.
        -11    1    3    3    0    0  0.14384780671E+02  0.16020214002E+02  0.10944471529E+03  0.11154243532E+03  0.00000000000E+00 0.  1.
         11    1    3    3    0    0  0.19753419302E+02  0.18835227599E+02 -0.12830694429E+02  0.30159411340E+02  0.00000000000E+00 0. -1.
</event>
<event>
 7    1  0.6610867E-006  0.1193740E+03  0.7561462E-02  0.1244133E+00
          1   -1    0    0  501    0  0.00000000000E+00  0.00000000000E+00  0.15588897224E+04  0.15588897224E+04  0.00000000000E+00 0. -1.
         -1   -1    0    0    0  501 -0.00000000000E+00 -0.00000000000E+00 -0.18085591935E+02  0.18085591935E+02  0.00000000000E+00 0.  1.
         23    2    1    2    0    0  0.11133963295E+03 -0.26676205496E+02  0.45325003344E+03  0.47628064911E+03  0.91101756864E+02 0.  0.
          5    1    1    2  502    0 -0.71936019676E+01  0.17654762988E+02  0.19710333387E+02  0.27738208443E+02  0.41800000000E+01 0.  1.
         -5    1    1    2    0  502 -0.10414603098E+03  0.90214425082E+01  0.10678437637E+04  0.10729564568E+04  0.41800000000E+01 0.  1.
        -11    1    3    3    0    0  0.18496337788E+02 -0.64659876304E+01  0.82677718767E+01  0.21266865293E+02  0.00000000000E+00 0.  1.
         11    1    3    3    0    0  0.92843295164E+02 -0.20210217865E+02  0.44498226156E+03  0.45501378382E+03  0.00000000000E+00 0. -1.
</event>
<event>
 7    1  0.6610867E-006  0.1358460E+03  0.7561462E-02  0.1219030E+00
         -2   -1    0    0    0  501 -0.00000000000E+00  0.00000000000E+00  0.28462715638E+03  0.28462715638E+03  0.00000000000E+00 0. -1.
          2   -1    0    0  501    0  0.00000000000E+00 -0.00000000000E+00 -0.10232427730E+03  0.10232427730E+03  0.00000000000E+00 0.  1.
         23    2    1    2    0    0 -0.10365236398E+03 -0.48138834483E+02  0.15859692168E+03  0.21586196859E+03  0.91554606533E+02 0.  0.
          5    1    1    2  502    0  0.24954417520E+02  0.51547540418E+02 -0.39760960224E+02  0.69844672201E+02  0.41800000000E+01 0. -1.
         -5    1    1    2    0  502  0.78697946456E+02 -0.34087059352E+01  0.63466917634E+02  0.10124479289E+03  0.41800000000E+01 0. -1.
        -11    1    3    3    0    0 -0.81095722516E+02 -0.67615076846E+02  0.15243324943E+03  0.18542979900E+03  0.00000000000E+00 0. -1.
         11    1    3    3    0    0 -0.22556641460E+02  0.19476242363E+02  0.61636722499E+01  0.30432169593E+02  0.00000000000E+00 0.  1.
</event>
<event>
 7    1  0.6610867E-006  0.1251555E+03  0.7561462E-02  0.1234827E+00
         -1   -1    0    0    0  501 -0.00000000000E+00  0.00000000000E+00  0.25215951534E+02  0.25215951534E+02  0.00000000000E+00 0.  1.
          1   -1    0    0  501    0  0.00000000000E+00 -0.00000000000E+00 -0.92267383942E+03  0.92267383942E+03  0.00000000000E+00 0. -1.
         23    2    1    2    0    0 -0.90791386546E+02  0.18243797124E+02 -0.25404559142E+03  0.28592107531E+03  0.92928934044E+02 0.  0.
          5    1    1    2  502    0  0.29073147782E+02  0.46976590747E+02 -0.37086056674E+03  0.37497610639E+03  0.41800000000E+01 0.  1.
         -5    1    1    2    0  502  0.61718238764E+02 -0.65220387871E+02 -0.27255172972E+03  0.28699260925E+03  0.41800000000E+01 0.  1.
        -11    1    3    3    0    0 -0.51827247781E+02 -0.14831456464E+02 -0.21485754245E+03  0.22151704056E+03  0.00000000000E+00 0. -1.
         11    1    3    3    0    0 -0.38964138765E+02  0.33075253588E+02 -0.39188048976E+02  0.64404034751E+02  0.00000000000E+00 0.  1.
</event>
<event>
 7    1  0.6610867E-006  0.1448964E+03  0.7561462E-02  0.1206888E+00
         -1   -1    0    0    0  501 -0.00000000000E+00  0.00000000000E+00  0.12167609219E+03  0.12167609219E+03  0.00000000000E+00 0.  1.
          1   -1    0    0  501    0  0.00000000000E+00 -0.00000000000E+00 -0.24759315803E+03  0.24759315803E+03  0.00000000000E+00 0. -1.
         23    2    1    2    0    0 -0.12263474582E+03 -0.22426130097E+02 -0.45035975368E+01  0.15495369103E+03  0.91913828012E+02 0.  0.
          5    1    1    2  502    0  0.11122089599E+03  0.40667117714E+02 -0.14151449992E+03  0.18457445180E+03  0.41800000000E+01 0. -1.
         -5    1    1    2    0  502  0.11413849825E+02 -0.18240987616E+02  0.20101031616E+02  0.29741107395E+02  0.41800000000E+01 0. -1.
        -11    1    3    3    0    0  0.31329075696E+01 -0.23396354406E+02  0.14576754598E+02  0.27743220504E+02  0.00000000000E+00 0.  1.
         11    1    3    3    0    0 -0.12576765339E+03  0.97022430830E+00 -0.19080352134E+02  0.12721047053E+03  0.00000000000E+00 0. -1.
</event>
<event>
 7    1  0.6610867E-006  0.1160449E+03  0.7561462E-02  0.1249768E+00
          1   -1    0    0  501    0  0.00000000000E+00  0.00000000000E+00  0.32368993037E+03  0.32368993037E+03  0.00000000000E+00 0. -1.
         -1   -1    0    0    0  501 -0.00000000000E+00 -0.00000000000E+00 -0.48876837971E+02  0.48876837971E+02  0.00000000000E+00 0.  1.
         23    2    1    2    0    0  0.12635075129E+01 -0.40163278035E+02  0.66296730177E+02  0.12317594141E+03  0.95720273482E+02 0.  0.
          5    1    1    2  502    0  0.19078411739E+02  0.80629235548E+02  0.17236239736E+03  0.19128859831E+03  0.41800000000E+01 0. -1.
         -5    1    1    2    0  502 -0.20341919252E+02 -0.40465957513E+02  0.36153964870E+02  0.58102228633E+02  0.41800000000E+01 0.  1.
        -11    1    3    3    0    0 -0.39971949255E+02 -0.47159442808E+02  0.36092299079E+02  0.71585081030E+02  0.00000000000E+00 0.  1.
         11    1    3    3    0    0  0.41235456768E+02  0.69961647732E+01  0.30204431097E+02  0.51590860376E+02  0.00000000000E+00 0. -1.
</event>
<event>
 7    1  0.6610867E-006  0.1525267E+03  0.7561462E-02  0.1197402E+00
          4   -1    0    0  501    0  0.00000000000E+00  0.00000000000E+00  0.12157712651E+03  0.12157712651E+03  0.00000000000E+00 0. -1.
         -4   -1    0    0    0  501 -0.00000000000E+00 -0.00000000000E+00 -0.23630563592E+03  0.23630563592E+03  0.00000000000E+00 0.  1.
         23    2    1    2    0    0 -0.33838227868E+02 -0.12547146644E+03 -0.62216367234E+02  0.17001807695E+03  0.90261595283E+02 0.  0.
          5    1    1    2  502    0  0.30506453754E+00 -0.21080890689E+02  0.11539840368E+02  0.24395436712E+02  0.41800000000E+01 0. -1.
         -5    1    1    2    0  502  0.33533163331E+02  0.14655235713E+03 -0.64051982544E+02  0.16346924876E+03  0.41800000000E+01 0. -1.
        -11    1    3    3    0    0 -0.88623830031E+01 -0.85980058118E+02 -0.82123007418E+02  0.11922793538E+03  0.00000000000E+00 0.  1.
         11    1    3    3    0    0 -0.24975844865E+02 -0.39491408319E+02  0.19906640185E+02  0.50790141575E+02  0.00000000000E+00 0. -1.
</event>
<event>
 7    1  0.6610867E-006  0.1076199E+03  0.7561462E-02  0.1265042E+00
         -2   -1    0    0    0  501 -0.00000000000E+00  0.00000000000E+00  0.20278586792E+02  0.20278586792E+02  0.00000000000E+00 0.  1.
          2   -1    0    0  501    0  0.00000000000E+00 -0.00000000000E+00 -0.61680442315E+03  0.61680442315E+03  0.00000000000E+00 0. -1.
         23    2    1    2    0    0  0.75388072182E+01 -0.22058736542E+02 -0.21127678502E+03  0.23136332679E+03  0.91365680778E+02 0.  0.
          5    1    1    2  502    0 -0.15550272407E+02 -0.47835225746E+02 -0.10159652841E+03  0.11344314338E+03  0.41800000000E+01 0.  1.
         -5    1    1    2    0  502  0.80114651887E+01  0.69893962289E+02 -0.28365252293E+03  0.29227653978E+03  0.41800000000E+01 0.  1.
        -11    1    3    3    0    0  0.41397196429E+02  0.15058706217E+02 -0.98102180274E+02  0.10753850603E+03  0.00000000000E+00 0.  1.
         11    1    3    3    0    0 -0.33858389211E+02 -0.37117442760E+02 -0.11317460474E+03  0.12382482076E+03  0.00000000000E+00 0. -1.
</event>
<event>
 7    1  0.6610867E-006  0.1585672E+03  0.7561462E-02  0.1190324E+00
          3   -1    0    0  501    0  0.00000000000E+00  0.00000000000E+00  0.10797035772E+03  0.10797035772E+03  0.00000000000E+00 0. -1.
         -3   -1    0    0    0  501 -0.00000000000E+00 -0.00000000000E+00 -0.25450179883E+03  0.25450179883E+03  0.00000000000E+00 0.  1.
         23    2    1    2    0    0 -0.10946696381E+03 -0.53829298390E+02 -0.93873390085E+02  0.17999363374E+03  0.93299974750E+02 0.  0.
          5    1    1    2  502    0  0.15327222360E+02 -0.38806209412E+02 -0.60883273928E+01  0.42371992691E+02  0.41800000000E+01 0. -1.
         -5    1    1    2    0  502  0.94139741450E+02  0.92635507801E+02 -0.46569723630E+02  0.14010653013E+03  0.41800000000E+01 0. -1.
        -11    1    3    3    0    0 -0.80533413094E+02  0.15843883176E+01 -0.84571989976E+02  0.11679281827E+03  0.00000000000E+00 0.  1.
         11    1    3    3    0    0 -0.28933550715E+02 -0.55413686707E+02 -0.93014001095E+01  0.63200815465E+02  0.00000000000E+00 0. -1.
</event>
<event>
 7    1  0.6610867E-006  0.1119861E+03  0.7561462E-02  0.1256936E+00
         -1   -1    0    0    0  501 -0.00000000000E+00  0.00000000000E+00  0.40011905193E+03  0.40011905193E+03  0.00000000000E+00 0.  1.
          1   -1    0    0  501    0  0.00000000000E+00 -0.00000000000E+00 -0.72362418279E+02  0.72362418279E+02  0.00000000000E+00 0. -1.
         23    2    1    2    0    0 -0.12473087700E+02  0.51639365504E+00  0.31994502797E+03  0.33119003143E+03  0.84653242226E+02 0.  0.
          5    1    1    2  502    0 -0.62098985011E+02  0.16076816888E+02  0.80224094156E+01  0.64781011365E+02  0.41800000000E+01 0. -1.
         -5    1    1    2    0  502  0.74572072711E+02 -0.16593210543E+02 -0.21080373170E+00  0.76510427412E+02  0.41800000000E+01 0.  1.
        -11    1    3    3    0    0  0.16558048625E+02  0.34630152308E+02  0.10957674696E+03  0.11610546885E+03  0.00000000000E+00 0.  1.
         11    1    3    3    0    0 -0.29031136325E+02 -0.34113758653E+02  0.21036828101E+03  0.21508456258E+03  0.00000000000E+00 0. -1.
</event>
<event>
 7    1  0.6610867E-006  0.2669987E+03  0.7561462E-02  0.1103010E+00
         -2   -1    0    0    0  501 -0.00000000000E+00  0.00000000000E+00  0.45747452573E+02  0.45747452573E+02  0.00000000000E+00 0.  1.
          2   -1    0    0  501    0  0.00000000000E+00 -0.00000000000E+00 -0.32710774538E+04  0.32710774538E+04  0.00000000000E+00 0. -1.
         23    2    1    2    0    0 -0.56923160266E+01  0.24953344473E+03 -0.41335905411E+03  0.49102830486E+03  0.89127695245E+02 0.  0.
          5    1    1    2  502    0 -0.50990978755E+02 -0.16690009513E+03 -0.15353119772E+04  0.15452042135E+04  0.41800000000E+01 0.  1.
         -5    1    1    2    0  502  0.56683294782E+02 -0.82633349602E+02 -0.12766589699E+04  0.12805923880E+04  0.41800000000E+01 0.  1.
        -11    1    3    3    0    0  0.30254272410E+02  0.73700313947E+02 -0.17828995097E+03  0.19528021890E+03  0.00000000000E+00 0.  1.
         11    1    3    3    0    0 -0.35946588436E+02  0.17583313079E+03 -0.23506910314E+03  0.29574808596E+03  0.00000000000E+00 0. -1.
</event>
<event>
 7    1  0.6610867E-006  0.9432202E+02  0.7561462E-02  0.1292710E+00
          2   -1    0    0  501    0  0.00000000000E+00  0.00000000000E+00  0.14193081254E+04  0.14193081254E+04  0.00000000000E+00 0.  1.
         -2   -1    0    0    0  501 -0.00000000000E+00 -0.00000000000E+00 -0.11025787886E+02  0.11025787886E+02  0.00000000000E+00 0. -1.
         23    2    1    2    0    0  0.17821334748E+02 -0.17726274481E+02  0.31269796911E+03  0.32734526934E+03  0.93504463481E+02 0.  0.
          5    1    1    2  502    0  0.34890112939E+02 -0.10776175170E+02  0.82493046942E+03  0.82574887085E+03  0.41800000000E+01 0. -1.
         -5    1    1    2    0  502 -0.52711447687E+02  0.28502449652E+02  0.27065389894E+03  0.27723977305E+03  0.41800000000E+01 0. -1.
        -11    1    3    3    0    0  0.53568280715E+02 -0.16499042463E+02  0.13662278313E+03  0.14767384322E+03  0.00000000000E+00 0. -1.
         11    1    3    3    0    0 -0.35746945967E+02 -0.12272320179E+01  0.17607518598E+03  0.17967142611E+03  0.00000000000E+00 0.  1.
</event>
<event>
 7    1  0.6610867E-006  0.1435218E+03  0.7561462E-02  0.1208667E+00
          2   -1    0    0  501    0  0.00000000000E+00  0.00000000000E+00  0.15581606228E+04  0.15581606228E+04  0.00000000000E+00 0. -1.
         -2   -1    0    0    0  501 -0.00000000000E+00 -0.00000000000E+00 -0.32434078358E+03  0.32434078358E+03  0.00000000000E+00 0.  1.
         23    2    1    2    0    0  0.83575871564E+02 -0.10915372103E+02 -0.30638392898E+03  0.33116682554E+03  0.93253861843E+02 0.  0.
          5    1    1    2  502    0 -0.11664438068E+03 -0.39876808914E+02  0.93819721298E+03  0.94627033889E+03  0.41800000000E+01 0. -1.
         -5    1    1    2    0  502  0.33068509115E+02  0.50792181017E+02  0.60200655525E+03  0.60506424197E+03  0.41800000000E+01 0.  1.
        -11    1    3    3    0    0  0.83834872621E+02 -0.26067258827E+02 -0.30323563472E+03  0.31568914776E+03  0.00000000000E+00 0.  1.
         11    1    3    3    0    0 -0.25900105785E+00  0.15151886724E+02 -0.31482942607E+01  0.15477677784E+02  0.00000000000E+00 0. -1.
</event>
<event>
 7    1  0.6610867E-006  0.1092174E+03  0.7561462E-02  0.1262026E+00
          2   -1    0    0  501    0  0.00000000000E+00  0.00000000000E+00  0.99152229734E+03  0.99152229734E+03  0.00000000000E+00 0. -1.
         -2   -1    0    0    0  501 -0.00000000000E+00 -0.00000000000E+00 -0.12410043057E+02  0.12410043057E+02  0.00000000000E+00 0.  1.
         23    2    1    2    0    0 -0.18782985076E+02  0.91709618777E+01  0.46071829688E+03  0.47024991899E+03  0.91851674785E+02 0.  0.
          5    1    1    2  502    0  0.60329674305E+02 -0.39847777653E+02  0.35338579500E+03  0.36073051921E+03  0.41800000000E+01 0.  1.
         -5    1    1    2    0  502 -0.41546689229E+02  0.30676815775E+02  0.16500816241E+03  0.17295190220E+03  0.41800000000E+01 0.  1.
        -11    1    3    3    0    0 -0.54403629423E+02 -0.74138859377E+01  0.26970263982E+03  0.27523487156E+03  0.00000000000E+00 0.  1.
         11    1    3    3    0    0  0.35620644347E+02  0.16584847815E+02  0.19101565706E+03  0.19501504743E+03  0.00000000000E+00 0. -1.
</event>
<event>
 7    1  0.6610867E-006  0.7872794E+02  0.7561462E-02  0.1332701E+00
         -2   -1    0    0    0  501 -0.00000000000E+00  0.00000000000E+00  0.52843140053E+02  0.52843140053E+02  0.00000000000E+00 0. -1.
          2   -1    0    0  501    0  0.00000000000E+00 -0.00000000000E+00 -0.24176778202E+03  0.24176778202E+03  0.00000000000E+00 0.  1.
         23    2    1    2    0    0  0.34777708129E+01  0.28667627380E+02 -0.62896344334E+02  0.11470590214E+03  0.91474401368E+02 0.  0.
          5    1    1    2  502    0 -0.33908233119E+02 -0.21877116499E+02  0.87519068249E+01  0.41502346592E+02  0.41800000000E+01 0.  1.
         -5    1    1    2    0  502  0.30430462306E+02 -0.67905108813E+01 -0.13478020446E+03  0.13840267334E+03  0.41800000000E+01 0.  1.
        -11    1    3    3    0    0 -0.79001116457E+01 -0.27246618796E+02  0.18197159730E+01  0.28427123774E+02  0.00000000000E+00 0. -1.
         11    1    3    3    0    0  0.11377882459E+02  0.55914246176E+02 -0.64716060307E+02  0.86278778366E+02  0.00000000000E+00 0.  1.
</event>
<event>
 7    1  0.6610867E-006  0.1680248E+03  0.7561462E-02  0.1179923E+00
          1   -1    0    0  501    0  0.00000000000E+00  0.00000000000E+00  0.63630348159E+03  0.63630348159E+03  0.00000000000E+00 0. -1.
         -1   -1    0    0    0  501 -0.00000000000E+00 -0.00000000000E+00 -0.51795335108E+02  0.51795335108E+02  0.00000000000E+00 0.  1.
         23    2    1    2    0    0  0.11175390604E+03 -0.75952303841E+02  0.18017329259E+03  0.24380877170E+03  0.93394934680E+02 0.  0.
          5    1    1    2  502    0 -0.26188893485E+02  0.90266029051E+02  0.25118249602E+03  0.26822366199E+03  0.41800000000E+01 0. -1.
         -5    1    1    2    0  502 -0.85565012556E+02 -0.14313725210E+02  0.15315235788E+03  0.17606638301E+03  0.41800000000E+01 0. -1.
        -11    1    3    3    0    0  0.68133240149E+02 -0.86622491922E+02  0.87108390676E+02  0.14047585645E+03  0.00000000000E+00 0.  1.
         11    1    3    3    0    0  0.43620665892E+02  0.10670188082E+02  0.93064901909E+02  0.10333291525E+03  0.00000000000E+00 0. -1.
</event>
<event>
 7    1  0.6610867E-006  0.1053492E+03  0.7561462E-02  0.1269433E+00
          2   -1    0    0  501    0  0.00000000000E+00  0.00000000000E+00  0.26147873573E+03  0.26147873573E+03  0.00000000000E+00 0.  1.
         -2   -1    0    0    0  501 -0.00000000000E+00 -0.00000000000E+00 -0.52174113999E+02  0.52174113999E+02  0.00000000000E+00 0. -1.
         23    2    1    2    0    0  0.14020610729E+02 -0.14699782645E+02  0.39064093488E+02  0.10142249956E+03  0.91366617984E+02 0.  0.
          5    1    1    2  502    0  0.45776976809E+02  0.35321782717E+02  0.51112334458E+02  0.77285852999E+02  0.41800000000E+01 0.  1.
         -5    1    1    2    0  502 -0.59797587537E+02 -0.20622000072E+02  0.11912819379E+03  0.13494449717E+03  0.41800000000E+01 0.  1.
        -11    1    3    3    0    0  0.47555339001E+02  0.88319187389E+01  0.36086956577E+02  0.60347174674E+02  0.00000000000E+00 0.  1.
         11    1    3    3    0    0 -0.33534728272E+02 -0.23531701383E+02  0.29771369102E+01  0.41075324886E+02  0.00000000000E+00 0. -1.
</event>
<event>
 7    1  0.6610867E-006  0.8084399E+02  0.7561462E-02  0.1326673E+00
         -2   -1    0    0    0  501 -0.00000000000E+00  0.00000000000E+00  0.13856541924E+02  0.13856541924E+02  0.00000000000E+00 0.  1.
          2   -1    0    0  501    0  0.00000000000E+00 -0.00000000000E+00 -0.97139941016E+03  0.97139941016E+03  0.00000000000E+00 0. -1.
         23    2    1    2    0    0 -0.17382126652E+02 -0.33105741497E+02 -0.32460500324E+03  0.33899271988E+03  0.90274733766E+02 0.  0.
          5    1    1    2  502    0  0.40169699926E+02  0.21190951803E+02 -0.75427019329E+02  0.88144023481E+02  0.41800000000E+01 0. -1.
         -5    1    1    2    0  502 -0.22787573274E+02  0.11914789695E+02 -0.55751084567E+03  0.55811920872E+03  0.41800000000E+01 0. -1.
        -11    1    3    3    0    0 -0.33791726635E+02  0.16624559858E+02 -0.74656901266E+02  0.83617639802E+02  0.00000000000E+00 0.  1.
         11    1    3    3    0    0  0.16409599983E+02 -0.49730301355E+02 -0.24994810197E+03  0.25537508008E+03  0.00000000000E+00 0. -1.
</event>
<event>
 7    1  0.6610867E-006  0.1087794E+03  0.7561462E-02  0.1262847E+00
         -2   -1    0    0    0  501 -0.00000000000E+00  0.00000000000E+00  0.16469599880E+02  0.16469599880E+02  0.00000000000E+00 0.  1.
          2   -1    0    0  501    0  0.00000000000E+00 -0.00000000000E+00 -0.81728174464E+03  0.81728174464E+03  0.00000000000E+00 0. -1.
         23    2    1    2    0    0  0.20906342091E+02  0.28112749212E+02 -0.27435270219E+03  0.29150435767E+03  0.92075966112E+02 0.  0.
          5    1    1    2  502    0 -0.59027555065E+02 -0.56610902942E+02 -0.34749091699E+03  0.35701044295E+03  0.41800000000E+01 0. -1.
         -5    1    1    2    0  502  0.38121212973E+02  0.28498153729E+02 -0.17896852558E+03  0.18523654389E+03  0.41800000000E+01 0. -1.
        -11    1    3    3    0    0  0.51160534613E+02  0.26432888207E+02 -0.23434853877E+03  0.24131998571E+03  0.00000000000E+00 0. -1.
         11    1    3    3    0    0 -0.30254192522E+02  0.16798610049E+01 -0.40004163422E+02  0.50184371962E+02  0.00000000000E+00 0.  1.
</event>
<event>
 7    1  0.6610867E-006  0.1684226E+03  0.7561462E-02  0.1179503E+00
         -1   -1    0    0    0  501 -0.00000000000E+00  0.00000000000E+00  0.15650137586E+03  0.15650137586E+03  0.00000000000E+00 0.  1.
          1   -1    0    0  501    0  0.00000000000E+00 -0.00000000000E+00 -0.31290274127E+03  0.31290274127E+03  0.00000000000E+00 0. -1.
         23    2    1    2    0    0 -0.25789976617E+02  0.15051455455E+03  0.49112888981E+02  0.18444230682E+03  0.91033700668E+02 0.  0.
          5    1    1    2  502    0 -0.16410698272E+02 -0.13777206312E+03 -0.19515541817E+03  0.23948603724E+03  0.41800000000E+01 0. -1.
         -5    1    1    2    0  502  0.42200674888E+02 -0.12742491430E+02 -0.10358836220E+02  0.45475773074E+02  0.41800000000E+01 0. -1.
        -11    1    3    3    0    0 -0.13060093562E+02  0.11977445933E+03  0.75318925689E+02  0.14208950601E+03  0.00000000000E+00 0.  1.
         11    1    3    3    0    0 -0.12729883055E+02  0.30740095212E+02 -0.26206036707E+02  0.42352800807E+02  0.00000000000E+00 0. -1.
</event>
<event>
 7    1  0.6610867E-006  0.1314232E+03  0.7561462E-02  0.1225359E+00
          1   -1    0    0  501    0  0.00000000000E+00  0.00000000000E+00  0.10788603170E+03  0.10788603170E+03  0.00000000000E+00 0. -1.
         -1   -1    0    0    0  501 -0.00000000000E+00 -0.00000000000E+00 -0.25301842926E+03  0.25301842926E+03  0.00000000000E+00 0.  1.
         23    2    1    2    0    0 -0.64588859277E+02  0.84289875219E+02 -0.13814531937E+03  0.19668521614E+03  0.91238375558E+02 0.  0.
          5    1    1    2  502    0  0.81569695901E+02 -0.89409386962E+02  0.28427782235E+02  0.12439157917E+03  0.41800000000E+01 0.  1.
         -5    1    1    2    0  502 -0.16980836624E+02  0.51195117437E+01 -0.35414860420E+02  0.39827665655E+02  0.41800000000E+01 0.  1.
        -11    1    3    3    0    0 -0.52207612342E+02  0.16704461763E+02 -0.16964125518E+02  0.57379921434E+02  0.00000000000E+00 0. -1.
         11    1    3    3    0    0 -0.12381246935E+02  0.67585413456E+02 -0.12118119386E+03  0.13930529470E+03  0.00000000000E+00 0.  1.
</event>
<event>
 7    1  0.6610867E-006  0.7952917E+02  0.7561462E-02  0.1330393E+00
         -1   -1    0    0    0  501 -0.00000000000E+00  0.00000000000E+00  0.24298081096E+02  0.24298081096E+02  0.00000000000E+00 0.  1.
          1   -1    0    0  501    0  0.00000000000E+00 -0.00000000000E+00 -0.55681041621E+03  0.55681041621E+03  0.00000000000E+00 0. -1.
         23    2    1    2    0    0 -0.18006200814E+02  0.12027330457E+02 -0.12703343005E+03  0.15622032912E+03  0.88308657188E+02 0.  0.
          5    1    1    2  502    0  0.39025889619E+02 -0.21895927045E+02 -0.44868587862E+02  0.63506804820E+02  0.41800000000E+01 0. -1.
         -5    1    1    2    0  502 -0.21019688805E+02  0.98685965881E+01 -0.36061031720E+03  0.36138136336E+03  0.41800000000E+01 0. -1.
        -11    1    3    3    0    0 -0.38580236237E+01  0.49921989883E+02 -0.77523197517E+02  0.92287244912E+02  0.00000000000E+00 0. -1.
         11    1    3    3    0    0 -0.14148177190E+02 -0.37894659426E+02 -0.49510232532E+02  0.63933084207E+02  0.00000000000E+00 0.  1.
</event>
<event>
 7    1  0.6610867E-006  0.7182062E+02  0.7561462E-02  0.1354009E+00
          2   -1    0    0  501    0  0.00000000000E+00  0.00000000000E+00  0.41848345384E+03  0.41848345384E+03  0.00000000000E+00 0.  1.
         -2   -1    0    0    0  501 -0.00000000000E+00 -0.00000000000E+00 -0.44640762413E+02  0.44640762413E+02  0.00000000000E+00 0. -1.
         23    2    1    2    0    0  0.36017937636E+02  0.55054142784E+01  0.41704027665E+02  0.10634236210E+03  0.90784748915E+02 0.  0.
          5    1    1    2  502    0 -0.11930209537E+02  0.14405312577E+02 -0.36552490569E+01  0.19510924522E+02  0.41800000000E+01 0. -1.
         -5    1    1    2    0  502 -0.24087728099E+02 -0.19910726855E+02  0.33579391282E+03  0.33727092963E+03  0.41800000000E+01 0. -1.
        -11    1    3    3    0    0  0.85489909262E+01 -0.39393719903E+02  0.34804163661E+02  0.53256738746E+02  0.00000000000E+00 0.  1.
         11    1    3    3    0    0  0.27468946709E+02  0.44899134182E+02  0.68998640043E+01  0.53085623354E+02  0.00000000000E+00 0. -1.
</event>
<event>
 7    1  0.6610867E-006  0.1512829E+03  0.7561462E-02  0.1198905E+00
          2   -1    0    0  501    0  0.00000000000E+00  0.00000000000E+00  0.38415749028E+03  0.38415749028E+03  0.00000000000E+00 0. -1.
         -2   -1    0    0    0  501 -0.00000000000E+00 -0.00000000000E+00 -0.71909865468E+02  0.71909865468E+02  0.00000000000E+00 0.  1.
         23    2    1    2    0    0  0.63723215321E+02 -0.10617289228E+03  0.16563153789E+03  0.22698807270E+03  0.93575892076E+02 0.  0.
          5    1    1    2  502    0 -0.76663134917E+02  0.54906474561E+02  0.26912604965E+02  0.98151504879E+02  0.41800000000E+01 0.  1.
         -5    1    1    2    0  502  0.12939919595E+02  0.51266417716E+02  0.11970348196E+03  0.13092777817E+03  0.41800000000E+01 0.  1.
        -11    1    3    3    0    0  0.70347426019E+02 -0.26475539625E+02  0.83708309125E+02  0.11250242470E+03  0.00000000000E+00 0. -1.
         11    1    3    3    0    0 -0.66242106974E+01 -0.79697352652E+02  0.81923228765E+02  0.11448564800E+03  0.00000000000E+00 0.  1.
</event>
<event>
 7    1  0.6610867E-006  0.1128693E+03  0.7561462E-02  0.1255347E+00
         -1   -1    0    0    0  501 -0.00000000000E+00  0.00000000000E+00  0.27690469565E+02  0.27690469565E+02  0.00000000000E+00 0.  1.
          1   -1    0    0  501    0  0.00000000000E+00 -0.00000000000E+00 -0.70330226688E+03  0.70330226688E+03  0.00000000000E+00 0. -1.
         23    2    1    2    0    0 -0.44687786861E+02 -0.58852744795E+02 -0.32453651048E+03  0.35104157704E+03  0.11155984185E+03 0.  0.
          5    1    1    2  502    0  0.26811512966E+02 -0.16818709568E+02 -0.25163281755E+03  0.25364990338E+03  0.41800000000E+01 0. -1.
         -5    1    1    2    0  502  0.17876273895E+02  0.75671454363E+02 -0.99442469288E+02  0.12630125602E+03  0.41800000000E+01 0. -1.
        -11    1    3    3    0    0 -0.51209319514E+02  0.52825420112E+01 -0.23583381297E+03  0.24138742096E+03  0.00000000000E+00 0.  1.
         11    1    3    3    0    0  0.65215326532E+01 -0.64135286807E+02 -0.88702697503E+02  0.10965415608E+03  0.00000000000E+00 0. -1.
</event>
<event>
 7    1  0.6610867E-006  0.2042281E+03  0.7561462E-02  0.1146220E+00
          1   -1    0    0  501    0  0.00000000000E+00  0.00000000000E+00  0.10324272210E+04  0.10324272210E+04  0.00000000000E+00 0. -1.
         -1   -1    0    0    0  501 -0.00000000000E+00 -0.00000000000E+00 -0.40596437435E+02  0.40596437435E+02  0.00000000000E+00 0.  1.
         23    2    1    2    0    0 -0.16255442700E+03  0.62000943610E+02  0.46692640450E+03  0.50606674742E+03  0.88403771849E+02 0.  0.
          5    1    1    2  502    0  0.70551816079E+02  0.36212447703E+02  0.18228173620E+03  0.19882908206E+03  0.41800000000E+01 0. -1.
         -5    1    1    2    0  502  0.92002610925E+02 -0.98213391313E+02  0.34262264292E+03  0.36812782901E+03  0.41800000000E+01 0. -1.
        -11    1    3    3    0    0 -0.13698371614E+03  0.11089658192E+02  0.34948169806E+03  0.37553292304E+03  0.00000000000E+00 0. -1.
         11    1    3    3    0    0 -0.25570710866E+02  0.50911285418E+02  0.11744470644E+03  0.13053382438E+03  0.00000000000E+00 0.  1.
</event>
<event>
 7    1  0.6610867E-006  0.9552129E+02  0.7561462E-02  0.1290006E+00
         -1   -1    0    0    0  501 -0.00000000000E+00  0.00000000000E+00  0.21420430593E+03  0.21420430593E+03  0.00000000000E+00 0.  1.
          1   -1    0    0  501    0  0.00000000000E+00 -0.00000000000E+00 -0.66487878807E+02  0.66487878807E+02  0.00000000000E+00 0. -1.
         23    2    1    2    0    0 -0.42210134918E+02 -0.26067640185E+02  0.60865109768E+02  0.12053719742E+03  0.91451828957E+02 0.  0.
          5    1    1    2  502    0  0.66910037103E+02  0.50171271004E+01  0.10351888155E+03  0.12343320407E+03  0.41800000000E+01 0. -1.
         -5    1    1    2    0  502 -0.24699902185E+02  0.21050513085E+02 -0.16667564194E+02  0.36721783252E+02  0.41800000000E+01 0. -1.
        -11    1    3    3    0    0 -0.17466724179E+02 -0.52236170435E+02  0.63939742831E+02  0.84391911156E+02  0.00000000000E+00 0.  1.
         11    1    3    3    0    0 -0.24743410740E+02  0.26168530250E+02 -0.30746330631E+01  0.36145286262E+02  0.00000000000E+00 0. -1.
</event>
<event>
 7    1  0.6610867E-006  0.8326556E+02  0.7561462E-02  0.1320032E+00
          2   -1    0    0  501    0  0.00000000000E+00  0.00000000000E+00  0.20762031486E+03  0.20762031486E+03  0.00000000000E+00 0. -1.
         -2   -1    0    0    0  501 -0.00000000000E+00 -0.00000000000E+00 -0.99633379725E+02  0.99633379725E+02  0.00000000000E+00 0.  1.
         23    2    1    2    0    0  0.99630932749E+01  0.60566450581E+02 -0.25834958274E+02  0.11406134992E+03  0.92601232783E+02 0.  0.
          5    1    1    2  502    0 -0.20990686161E+02 -0.55626432749E+02  0.15632979000E+03  0.16730625979E+03  0.41800000000E+01 0. -1.
         -5    1    1    2    0  502  0.11027592886E+02 -0.49400178320E+01 -0.22507896589E+02  0.25886084870E+02  0.41800000000E+01 0. -1.
        -11    1    3    3    0    0  0.21484022778E+02  0.73644508246E+02 -0.44367918004E+02  0.88620477191E+02  0.00000000000E+00 0.  1.
         11    1    3    3    0    0 -0.11520929503E+02 -0.13078057665E+02  0.18532959730E+02  0.25440872729E+02  0.00000000000E+00 0. -1.
</event>
<event>
 7    1  0.6610867E-006  0.1258423E+03  0.7561462E-02  0.1233759E+00
          1   -1    0    0  501    0  0.00000000000E+00  0.00000000000E+00  0.31541986579E+02  0.31541986579E+02  0.00000000000E+00 0. -1.
         -1   -1    0    0    0  501 -0.00000000000E+00 -0.00000000000E+00 -0.63887077558E+03  0.63887077558E+03  0.00000000000E+00 0.  1.
         23    2    1    2    0    0  0.66246745954E+02  0.60634672849E+02 -0.33360531809E+03  0.35634697744E+03  0.87323909533E+02 0.  0.
          5    1    1    2  502    0 -0.10268157271E+03 -0.54777039811E+02 -0.19751410354E+03  0.22928873274E+03  0.41800000000E+01 0.  1.
         -5    1    1    2    0  502  0.36434826758E+02 -0.58576330381E+01 -0.76209367373E+02  0.84777051972E+02  0.41800000000E+01 0.  1.
        -11    1    3    3    0    0  0.50128880018E+02  0.19282069717E+02 -0.28702772775E+03  0.29200962196E+03  0.00000000000E+00 0.  1.
         11    1    3    3    0    0  0.16117865936E+02  0.41352603132E+02 -0.46577590341E+02  0.64337355479E+02  0.00000000000E+00 0. -1.
</event>
<event>
 7    1  0.6610867E-006  0.1426592E+03  0.7561462E-02  0.1209795E+00
          2   -1    0    0  501    0  0.00000000000E+00  0.00000000000E+00  0.42487095103E+03  0.42487095103E+03  0.00000000000E+00 0.  1.
         -2   -1    0    0    0  501 -0.00000000000E+00 -0.00000000000E+00 -0.73968870787E+02  0.73968870787E+02  0.00000000000E+00 0. -1.
         23    2    1    2    0    0 -0.97460298212E+02  0.37320834391E+02  0.34121463684E+02  0.14262569952E+03  0.91030003143E+02 0.  0.
          5    1    1    2  502    0  0.11813558344E+03 -0.10824790844E+01  0.20244768821E+03  0.23443490930E+03  0.41800000000E+01 0.  1.
         -5    1    1    2    0  502 -0.20675285225E+02 -0.36238355306E+02  0.11433292835E+03  0.12177921300E+03  0.41800000000E+01 0.  1.
        -11    1    3    3    0    0 -0.16184385806E+02 -0.19992431370E+02  0.34673544509E+02  0.43172750026E+02  0.00000000000E+00 0.  1.
         11    1    3    3    0    0 -0.81275912406E+02  0.57313265761E+02 -0.55208082503E+00  0.99452949493E+02  0.00000000000E+00 0. -1.
</event>
<event>
 7    1  0.6610867E-006  0.1045413E+03  0.7561462E-02  0.1271026E+00
          2   -1    0    0  501    0  0.00000000000E+00  0.00000000000E+00  0.18372745042E+03  0.18372745042E+03  0.00000000000E+00 0. -1.
         -2   -1    0    0    0  501 -0.00000000000E+00 -0.00000000000E+00 -0.84249213822E+02  0.84249213822E+02  0.00000000000E+00 0.  1.
         23    2    1    2    0    0 -0.57782191311E+02  0.21058987238E+02  0.40909534383E+02  0.11674971554E+03  0.90413735129E+02 0.  0.
          5    1    1    2  502    0 -0.70690321764E+01 -0.36962316490E+02  0.73498247053E+02  0.82677982415E+02  0.41800000000E+01 0. -1.
         -5    1    1    2    0  502  0.64851223488E+02  0.15903329252E+02 -0.14929544840E+02  0.68548966282E+02  0.41800000000E+01 0. -1.
        -11    1    3    3    0    0  0.95161882163E+01 -0.22309128249E+02 -0.45575125655E+01  0.24678451373E+02  0.00000000000E+00 0.  1.
         11    1    3    3    0    0 -0.67298379528E+02  0.43368115486E+02  0.45467046948E+02  0.92071264171E+02  0.00000000000E+00 0. -1.
</event>
<event>
 7    1  0.6610867E-006  0.1255583E+03  0.7561462E-02  0.1234199E+00
          1   -1    0    0  501    0  0.00000000000E+00  0.00000000000E+00  0.43562075432E+03  0.43562075432E+03  0.00000000000E+00 0. -1.
         -1   -1    0    0    0  501 -0.00000000000E+00 -0.00000000000E+00 -0.47959318942E+02  0.47959318942E+02  0.00000000000E+00 0.  1.
         23    2    1    2    0    0 -0.34039273638E+02  0.51298480812E+02  0.93456285309E+02  0.15801149287E+03  0.11154975720E+03 0.  0.
          5    1    1    2  502    0  0.77440114908E+02 -0.42845451891E+02  0.14531959363E+03  0.17019976744E+03  0.41800000000E+01 0. -1.
         -5    1    1    2    0  502 -0.43400841270E+02 -0.84530289205E+01  0.14888555644E+03  0.15536881295E+03  0.41800000000E+01 0. -1.
        -11    1    3    3    0    0  0.11243273550E+02 -0.26106431999E+02 -0.88897576103E-01  0.28424723298E+02  0.00000000000E+00 0.  1.
         11    1    3    3    0    0 -0.45282547188E+02  0.77404912810E+02  0.93545182885E+02  0.12958676957E+03  0.00000000000E+00 0. -1.
</event>
<event>
 7    1  0.6610867E-006  0.1029994E+03  0.7561462E-02  0.1274112E+00
          2   -1    0    0  501    0  0.00000000000E+00  0.00000000000E+00  0.10038316387E+04  0.10038316387E+04  0.00000000000E+00 0. -1.
         -2   -1    0    0    0  501 -0.00000000000E+00 -0.00000000000E+00 -0.30223573185E+02  0.30223573185E+02  0.00000000000E+00 0.  1.
         23    2    1    2    0    0  0.65937225899E+01  0.17573993417E+02  0.56941491442E+02  0.10870302837E+03  0.90673549109E+02 0.  0.
          5    1    1    2  502    0 -0.40124217113E+02 -0.51987771003E+02  0.31748806038E+03  0.32423575068E+03  0.41800000000E+01 0. -1.
         -5    1    1    2    0  502  0.33530494524E+02  0.34413777585E+02  0.59917851366E+03  0.60111643280E+03  0.41800000000E+01 0. -1.
        -11    1    3    3    0    0 -0.41136629456E+02  0.99150546288E-01  0.31808268938E+02  0.51999981602E+02  0.00000000000E+00 0.  1.
         11    1    3    3    0    0  0.47730352046E+02  0.17474842871E+02  0.25133222504E+02  0.56703046772E+02  0.00000000000E+00 0. -1.
</event>
<event>
 7    1  0.6610867E-006  0.1162059E+03  0.7561462E-02  0.1249491E+00
         -2   -1    0    0    0  501 -0.00000000000E+00  0.00000000000E+00  0.15961129097E+02  0.15961129097E+02  0.00000000000E+00 0.  1.
          2   -1    0    0  501    0  0.00000000000E+00 -0.00000000000E+00 -0.91400432872E+03  0.91400432872E+03  0.00000000000E+00 0. -1.
         23    2    1    2    0    0  0.50116896866E+02 -0.17691041899E+02 -0.35535247081E+03  0.37051424871E+03  0.90447518866E+02 0.  0.
          5    1    1    2  502    0 -0.88819218116E+02  0.18464143806E+01 -0.43178123883E+03  0.44084552096E+03  0.41800000000E+01 0. -1.
         -5    1    1    2    0  502  0.38702321250E+02  0.15844627518E+02 -0.11090948999E+03  0.11860568815E+03  0.41800000000E+01 0. -1.
        -11    1    3    3    0    0 -0.44919244902E+01  0.29154132723E+02 -0.65000139874E+02  0.71380382628E+02  0.00000000000E+00 0. -1.
         11    1    3    3    0    0  0.54608821356E+02 -0.46845174622E+02 -0.29035233094E+03  0.29913386608E+03  0.00000000000E+00 0.  1.
</event>
<event>
 7    1  0.6610867E-006  0.1078061E+03  0.7561462E-02  0.1264687E+00
          1   -1    0    0  501    0  0.00000000000E+00  0.00000000000E+00  0.29894759692E+03  0.29894759692E+03  0.00000000000E+00 0. -1.
         -1   -1    0    0    0  501 -0.00000000000E+00 -0.00000000000E+00 -0.57435569494E+02  0.57435569494E+02  0.00000000000E+00 0.  1.
         23    2    1    2    0    0 -0.29340313591E+02 -0.72079797845E+02  0.85690081166E+02  0.14194090032E+03  0.82146685354E+02 0.  0.
          5    1    1    2  502    0  0.54688880638E+01 -0.24875700638E+02  0.92729394133E+02  0.96254465637E+02  0.41800000000E+01 0.  1.
         -5    1    1    2    0  502  0.23871425527E+02  0.96955498482E+02  0.63092552126E+02  0.11818780046E+03  0.41800000000E+01 0.  1.
        -11    1    3    3    0    0  0.52186087617E+01 -0.46688746348E+02  0.97453009989E+00  0.46989601210E+02  0.00000000000E+00 0.  1.
         11    1    3    3    0    0 -0.34558922353E+02 -0.25391051496E+02  0.84715551066E+02  0.94951299110E+02  0.00000000000E+00 0. -1.
</event>
<event>
 7    1  0.6610867E-006  0.9335624E+02  0.7561462E-02  0.1294922E+00
         -2   -1    0    0    0  501 -0.00000000000E+00  0.00000000000E+00  0.13610310215E+02  0.13610310215E+02  0.00000000000E+00 0.  1.
          2   -1    0    0  501    0  0.00000000000E+00 -0.00000000000E+00 -0.12393656745E+04  0.12393656745E+04  0.00000000000E+00 0. -1.
         23    2    1    2    0    0 -0.50219495763E+02 -0.43499973123E+01 -0.30065351098E+03  0.31810816286E+03  0.90880962696E+02 0.  0.
          5    1    1    2  502    0  0.90388297174E+00 -0.42564771505E+02 -0.13023528859E+03  0.13708128819E+03  0.41800000000E+01 0. -1.
         -5    1    1    2    0  502  0.49315612792E+02  0.46914768817E+02 -0.79486656472E+03  0.79778653367E+03  0.41800000000E+01 0. -1.
        -11    1    3    3    0    0  0.45650000164E+01 -0.18583153649E+02 -0.92425276499E+01  0.21250815091E+02  0.00000000000E+00 0. -1.
         11    1    3    3    0    0 -0.54784495780E+02  0.14233156337E+02 -0.29141098333E+03  0.29685734777E+03  0.00000000000E+00 0.  1.
</event>
<event>
 7    1  0.6610867E-006  0.1138084E+03  0.7561462E-02  0.1253676E+00
          2   -1    0    0  501    0  0.00000000000E+00  0.00000000000E+00  0.61032521321E+02  0.61032521321E+02  0.00000000000E+00 0. -1.
         -2   -1    0    0    0  501 -0.00000000000E+00 -0.00000000000E+00 -0.24245381917E+03  0.24245381917E+03  0.00000000000E+00 0.  1.
         23    2    1    2    0    0 -0.33161708402E+02 -0.44295274228E+02 -0.75576190102E+02  0.13053433100E+03  0.90915789801E+02 0.  0.
          5    1    1    2  502    0  0.78837203327E+02  0.42610489468E+02 -0.80427801994E+02  0.12048677178E+03  0.41800000000E+01 0. -1.
         -5    1    1    2    0  502 -0.45675494925E+02  0.16847847593E+01 -0.25417305750E+02  0.52465237710E+02  0.41800000000E+01 0. -1.
        -11    1    3    3    0    0 -0.35390157860E+01 -0.58881207405E+02 -0.13941930135E+02  0.60612693671E+02  0.00000000000E+00 0. -1.
         11    1    3    3    0    0 -0.29622692616E+02  0.14585933177E+02 -0.61634259967E+02  0.69921637325E+02  0.00000000000E+00 0.  1.
</event>
<event>
 7    1  0.6610867E-006  0.1313227E+03  0.7561462E-02  0.1225506E+00
         -1   -1    0    0    0  501 -0.00000000000E+00  0.00000000000E+00  0.25358988432E+02  0.25358988432E+02  0.00000000000E+00 0.  1.
          1   -1    0    0  501    0  0.00000000000E+00 -0.00000000000E+00 -0.92692229722E+03  0.92692229722E+03  0.00000000000E+00 0. -1.
         23    2    1    2    0    0 -0.74303707332E+02  0.77287528475E+02 -0.44815356651E+03  0.46986834905E+03  0.91870796650E+02 0.  0.
          5    1    1    2  502    0 -0.25565475297E+02 -0.40747039816E+02 -0.22914296955E+03  0.23417490829E+03  0.41800000000E+01 0. -1.
         -5    1    1    2    0  502  0.99869182629E+02 -0.36540488659E+02 -0.22426677272E+03  0.24823802831E+03  0.41800000000E+01 0. -1.
        -11    1    3    3    0    0 -0.55182956962E+02  0.49042801508E+02 -0.41760301504E+03  0.42407856971E+03  0.00000000000E+00 0. -1.
         11    1    3    3    0    0 -0.19120750370E+02  0.28244726967E+02 -0.30550551470E+02  0.45789779332E+02  0.00000000000E+00 0.  1.
</event>
<event>
 7    1  0.6610867E-006  0.1029500E+03  0.7561462E-02  0.1274212E+00
          2   -1    0    0  501    0  0.00000000000E+00  0.00000000000E+00  0.10545172015E+04  0.10545172015E+04  0.00000000000E+00 0.  1.
         -2   -1    0    0    0  501 -0.00000000000E+00 -0.00000000000E+00 -0.12096549914E+02  0.12096549914E+02  0.00000000000E+00 0. -1.
         23    2    1    2    0    0 -0.24800816532E+02  0.17403411191E+02  0.40721615152E+03  0.41850058332E+03  0.91650340755E+02 0.  0.
          5    1    1    2  502    0  0.54015702160E+02 -0.44431056129E+02  0.21775580224E+03  0.22875068664E+03  0.41800000000E+01 0.  1.
         -5    1    1    2    0  502 -0.29214885628E+02  0.27027644939E+02  0.41744869780E+03  0.41936248143E+03  0.41800000000E+01 0.  1.
        -11    1    3    3    0    0 -0.59100271022E+02  0.17062661533E+02  0.28494536952E+03  0.29150958829E+03  0.00000000000E+00 0. -1.
         11    1    3    3    0    0  0.34299454490E+02  0.34074965769E+00  0.12227078199E+03  0.12699099503E+03  0.00000000000E+00 0.  1.
</event>
<event>
 7    1  0.6610867E-006  0.1317930E+03  0.7561462E-02  0.1224819E+00
          4   -1    0    0  501    0  0.00000000000E+00  0.00000000000E+00  0.14775050045E+03  0.14775050045E+03  0.00000000000E+00 0.  1.
         -4   -1    0    0    0  501 -0.00000000000E+00 -0.00000000000E+00 -0.12276562669E+03  0.12276562669E+03  0.00000000000E+00 0. -1.
         23    2    1    2    0    0 -0.67162058497E+02 -0.36205604545E+02 -0.12114074156E+02  0.11936634218E+03  0.90994422638E+02 0.  0.
          5    1    1    2  502    0  0.35632927714E+02 -0.45964856842E+02  0.11963145629E+02  0.59523632747E+02  0.41800000000E+01 0.  1.
         -5    1    1    2    0  502  0.31529130783E+02  0.82170461387E+02  0.25135802283E+02  0.91626152210E+02  0.41800000000E+01 0.  1.
        -11    1    3    3    0    0  0.57597451847E+01  0.22703281377E+02  0.53110174895E+01  0.24017088846E+02  0.00000000000E+00 0.  1.
         11    1    3    3    0    0 -0.72921803682E+02 -0.58908885922E+02 -0.17425091646E+02  0.95349253336E+02  0.00000000000E+00 0. -1.
</event>
<event>
 7    1  0.6610867E-006  0.1006787E+03  0.7561462E-02  0.1278875E+00
          2   -1    0    0  501    0  0.00000000000E+00  0.00000000000E+00  0.49109589452E+03  0.49109589452E+03  0.00000000000E+00 0. -1.
         -2   -1    0    0    0  501 -0.00000000000E+00 -0.00000000000E+00 -0.26426061284E+02  0.26426061284E+02  0.00000000000E+00 0.  1.
         23    2    1    2    0    0 -0.22676400843E+01 -0.68572032691E+01  0.12474107268E+03  0.15523609397E+03  0.92118110220E+02 0.  0.
          5    1    1    2  502    0 -0.57803532042E+02  0.15665777842E+02  0.12127534955E+03  0.13532127593E+03  0.41800000000E+01 0.  1.
         -5    1    1    2    0  502  0.60071172126E+02 -0.88085745725E+01  0.21865341101E+03  0.22696458590E+03  0.41800000000E+01 0.  1.
        -11    1    3    3    0    0 -0.41451905886E+01  0.36667233488E+02  0.20397298244E+02  0.42162997905E+02  0.00000000000E+00 0.  1.
         11    1    3    3    0    0  0.18775505044E+01 -0.43524436757E+02  0.10434377444E+03  0.11307309607E+03  0.00000000000E+00 0. -1.
</event>
<event>
 7    1  0.6610867E-006  0.1437087E+03  0.7561462E-02  0.1208424E+00
          3   -1    0    0  501    0  0.00000000000E+00  0.00000000000E+00  0.21865080067E+03  0.21865080067E+03  0.00000000000E+00 0. -1.
         -3   -1    0    0    0  501 -0.00000000000E+00 -0.00000000000E+00 -0.14727762545E+03  0.14727762545E+03  0.00000000000E+00 0.  1.
         23    2    1    2    0    0  0.74011376844E+02  0.11225002345E+03 -0.13769397659E+02  0.16350597359E+03  0.92015517294E+02 0.  0.
          5    1    1    2  502    0  0.89601819209E+01 -0.44958719477E+02  0.83675273231E+02  0.95501806619E+02  0.41800000000E+01 0.  1.
         -5    1    1    2    0  502 -0.82971558765E+02 -0.67291303968E+02  0.14672996530E+01  0.10692064591E+03  0.41800000000E+01 0.  1.
        -11    1    3    3    0    0  0.30631527886E+02  0.44381368226E+02 -0.51492770976E+02  0.74562066824E+02  0.00000000000E+00 0.  1.
         11    1    3    3    0    0  0.43379848958E+02  0.67868655219E+02  0.37723373317E+02  0.88943906769E+02  0.00000000000E+00 0. -1.
</event>
<event>
 7    1  0.6610867E-006  0.2052001E+03  0.7561462E-02  0.1145424E+00
          2   -1    0    0  501    0  0.00000000000E+00  0.00000000000E+00  0.83312773853E+03  0.83312773853E+03  0.00000000000E+00 0.  1.
         -2   -1    0    0    0  501 -0.00000000000E+00 -0.00000000000E+00 -0.64552668535E+02  0.64552668535E+02  0.00000000000E+00 0. -1.
         23    2    1    2    0    0  0.18258326764E+03 -0.58382834780E+02  0.22955837412E+03  0.31207598449E+03  0.89158106470E+02 0.  0.
          5    1    1    2  502    0 -0.94658533878E-01 -0.14088744785E+02  0.14106350065E+03  0.14182695550E+03  0.41800000000E+01 0.  1.
         -5    1    1    2    0  502 -0.18248860910E+03  0.72471579565E+02  0.39795319523E+03  0.44377746708E+03  0.41800000000E+01 0.  1.
        -11    1    3    3    0    0  0.50388092377E+02  0.85901827994E+01  0.11131898875E+03  0.12249354412E+03  0.00000000000E+00 0.  1.
         11    1    3    3    0    0  0.13219517526E+03 -0.66973017579E+02  0.11823938537E+03  0.18958244037E+03  0.00000000000E+00 0. -1.
</event>
<event>
 7    1  0.6610867E-006  0.1170024E+03  0.7561462E-02  0.1248126E+00
         -2   -1    0    0    0  501 -0.00000000000E+00  0.00000000000E+00  0.59005097744E+02  0.59005097744E+02  0.00000000000E+00 0.  1.
          2   -1    0    0  501    0  0.00000000000E+00 -0.00000000000E+00 -0.33449121897E+03  0.33449121897E+03  0.00000000000E+00 0. -1.
         23    2    1    2    0    0  0.57188769539E+02 -0.68350271468E+02 -0.93248382946E+02  0.15516908790E+03  0.86254680726E+02 0.  0.
          5    1    1    2  502    0  0.10947640746E+02 -0.22742896960E+02 -0.26769150586E+01  0.25724083546E+02  0.41800000000E+01 0. -1.
         -5    1    1    2    0  502 -0.68136410285E+02  0.91093168428E+02 -0.17956082322E+03  0.21260314526E+03  0.41800000000E+01 0. -1.
        -11    1    3    3    0    0  0.11495598102E+02 -0.38078977537E+02  0.74990375673E+01  0.40477065981E+02  0.00000000000E+00 0.  1.
         11    1    3    3    0    0  0.45693171437E+02 -0.30271293930E+02 -0.10074742051E+03  0.11469202192E+03  0.00000000000E+00 0. -1.
</event>
<event>
 7    1  0.6610867E-006  0.1090443E+03  0.7561462E-02  0.1262350E+00
         -3   -1    0    0    0  501 -0.00000000000E+00  0.00000000000E+00  0.25263064432E+03  0.25263064432E+03  0.00000000000E+00 0.  1.
          3   -1    0    0  501    0  0.00000000000E+00 -0.00000000000E+00 -0.10799409659E+03  0.10799409659E+03  0.00000000000E+00 0. -1.
         23    2    1    2    0    0 -0.78489315104E+02  0.54672068796E+02  0.15391944974E+03  0.20288055957E+03  0.91212481338E+02 0.  0.
          5    1    1    2  502    0  0.44911086520E+02  0.61036257419E+01 -0.57331245280E+02  0.73202486467E+02  0.41800000000E+01 0.  1.
         -5    1    1    2    0  502  0.33578228584E+02 -0.60775694538E+02  0.48048343270E+02  0.84541694875E+02  0.41800000000E+01 0.  1.
        -11    1    3    3    0    0 -0.80640476925E+02  0.43480905660E+02  0.16387668052E+03  0.18774728252E+03  0.00000000000E+00 0.  1.
         11    1    3    3    0    0  0.21511618212E+01  0.11191163136E+02 -0.99572307792E+01  0.15133277051E+02  0.00000000000E+00 0. -1.
</event>
<event>
 7    1  0.6610867E-006  0.7674792E+02  0.7561462E-02  0.1338542E+00
         -1   -1    0    0    0  501 -0.00000000000E+00  0.00000000000E+00  0.48960262086E+03  0.48960262086E+03  0.00000000000E+00 0.  1.
          1   -1    0    0  501    0  0.00000000000E+00 -0.00000000000E+00 -0.28513577571E+02  0.28513577571E+02  0.00000000000E+00 0. -1.
         23    2    1    2    0    0 -0.36686413979E+02  0.26696433449E+02  0.16969172096E+03  0.19777460336E+03  0.90889609103E+02 0.  0.
          5    1    1    2  502    0  0.39510694793E+02 -0.21826110068E+02  0.21183589529E+02  0.50036895877E+02  0.41800000000E+01 0. -1.
         -5    1    1    2    0  502 -0.28242808135E+01 -0.48703233812E+01  0.27021373280E+03  0.27030469919E+03  0.41800000000E+01 0. -1.
        -11    1    3    3    0    0 -0.63366709106E+02 -0.60027823322E-01  0.11494475897E+03  0.13125410867E+03  0.00000000000E+00 0.  1.
         11    1    3    3    0    0  0.26680295126E+02  0.26756461272E+02  0.54746961988E+02  0.66520494697E+02  0.00000000000E+00 0. -1.
</event>
<event>
 7    1  0.6610867E-006  0.1025552E+03  0.7561462E-02  0.1275013E+00
         -2   -1    0    0    0  501 -0.00000000000E+00  0.00000000000E+00  0.16480502156E+02  0.16480502156E+02  0.00000000000E+00 0.  1.
          2   -1    0    0  501    0  0.00000000000E+00 -0.00000000000E+00 -0.80136766673E+03  0.80136766673E+03  0.00000000000E+00 0. -1.
         23    2    1    2    0    0 -0.12009367886E+02  0.88521824426E+01 -0.20654160239E+03  0.22594237733E+03  0.90376646891E+02 0.  0.
          5    1    1    2  502    0  0.34027327373E+02 -0.56456785559E+02 -0.21947495883E+03  0.22919851133E+03  0.41800000000E+01 0. -1.
         -5    1    1    2    0  502 -0.22017959487E+02  0.47604603116E+02 -0.35887060335E+03  0.36270728023E+03  0.41800000000E+01 0. -1.
        -11    1    3    3    0    0  0.30944605596E+02 -0.17988358692E+02 -0.50589865541E+02  0.61971639960E+02  0.00000000000E+00 0.  1.
         11    1    3    3    0    0 -0.42953973482E+02  0.26840541134E+02 -0.15595173685E+03  0.16397073737E+03  0.00000000000E+00 0. -1.
</event>
<event>
 7    1  0.6610867E-006  0.9907093E+02  0.7561462E-02  0.1282262E+00
          2   -1    0    0  501    0  0.00000000000E+00  0.00000000000E+00  0.58040415341E+03  0.58040415341E+03  0.00000000000E+00 0.  1.
         -2   -1    0    0    0  501 -0.00000000000E+00 -0.00000000000E+00 -0.26307872307E+02  0.26307872307E+02  0.00000000000E+00 0. -1.
         23    2    1    2    0    0 -0.57766978615E+02  0.86602461019E+01  0.21917355606E+03  0.24469291477E+03  0.91790801176E+02 0.  0.
          5    1    1    2  502    0 -0.23058105773E+02  0.85821599542E+01  0.21425674349E+03  0.21570524852E+03  0.41800000000E+01 0.  1.
         -5    1    1    2    0  502  0.80825084387E+02 -0.17242406056E+02  0.12066598155E+03  0.14631386242E+03  0.41800000000E+01 0.  1.
        -11    1    3    3    0    0 -0.59236822385E+02 -0.19403861648E+02  0.73681015234E+02  0.96511154687E+02  0.00000000000E+00 0. -1.
         11    1    3    3    0    0  0.14698437700E+01  0.28064107749E+02  0.14549254083E+03  0.14818176008E+03  0.00000000000E+00 0.  1.
</event>
<event>
 7    1  0.6610867E-006  0.1203309E+03  0.7561462E-02  0.1242552E+00
         -2   -1    0    0    0  501 -0.00000000000E+00  0.00000000000E+00  0.34694671528E+02  0.34694671528E+02  0.00000000000E+00 0.  1.
          2   -1    0    0  501    0  0.00000000000E+00 -0.00000000000E+00 -0.78675997721E+03  0.78675997721E+03  0.00000000000E+00 0. -1.
         23    2    1    2    0    0 -0.35997210667E+02  0.35511597420E+01 -0.81765704279E+02  0.13115319552E+03  0.95953740877E+02 0.  0.
          5    1    1    2  502    0  0.91456159863E+02 -0.39334640604E+00 -0.24829558635E+03  0.26463664617E+03  0.41800000000E+01 0. -1.
         -5    1    1    2    0  502 -0.55458949196E+02 -0.31578133360E+01 -0.42200401506E+03  0.42566480705E+03  0.41800000000E+01 0.  1.
        -11    1    3    3    0    0 -0.36758330665E+02 -0.37403146289E+02 -0.71947567124E+02  0.89031582266E+02  0.00000000000E+00 0.  1.
         11    1    3    3    0    0  0.76111999839E+00  0.40954306031E+02 -0.98181371546E+01  0.42121613257E+02  0.00000000000E+00 0. -1.
</event>
<event>
 7    1  0.6610867E-006  0.1118013E+03  0.7561462E-02  0.1257270E+00
          1   -1    0    0  501    0  0.00000000000E+00  0.00000000000E+00  0.78973359085E+02  0.78973359085E+02  0.00000000000E+00 0. -1.
         -1   -1    0    0    0  501 -0.00000000000E+00 -0.00000000000E+00 -0.25382854021E+03  0.25382854021E+03  0.00000000000E+00 0.  1.
         23    2    1    2    0    0  0.16753681655E+02 -0.66627522166E+02 -0.15050239311E+03  0.18799247576E+03  0.89276469758E+02 0.  0.
          5    1    1    2  502    0 -0.13514622101E+02  0.88499933147E+02 -0.56220659964E+02  0.10579753392E+03  0.41800000000E+01 0. -1.
         -5    1    1    2    0  502 -0.32390595543E+01 -0.21872410981E+02  0.31867871944E+02  0.39011889613E+02  0.41800000000E+01 0. -1.
        -11    1    3    3    0    0 -0.29801493954E+02  0.47563757378E+00 -0.52981069838E+02  0.60789382577E+02  0.00000000000E+00 0.  1.
         11    1    3    3    0    0  0.46555175609E+02 -0.67103159739E+02 -0.97521323272E+02  0.12720309318E+03  0.00000000000E+00 0. -1.
</event>
<event>
 7    1  0.6610867E-006  0.9623614E+02  0.7561462E-02  0.1288416E+00
         -2   -1    0    0    0  501 -0.00000000000E+00  0.00000000000E+00  0.33146956002E+02  0.33146956002E+02  0.00000000000E+00 0.  1.
          2   -1    0    0  501    0  0.00000000000E+00 -0.00000000000E+00 -0.35571685363E+03  0.35571685363E+03  0.00000000000E+00 0. -1.
         23    2    1    2    0    0 -0.26022667016E+02 -0.27212425322E+02 -0.12833508510E+03  0.16230216173E+03  0.91947824037E+02 0.  0.
          5    1    1    2  502    0  0.49057407454E+01  0.58086256019E+02 -0.17457703301E+03  0.18409968030E+03  0.41800000000E+01 0. -1.
         -5    1    1    2    0  502  0.21116926270E+02 -0.30873830697E+02 -0.19657779516E+02  0.42461967601E+02  0.41800000000E+01 0.  1.
        -11    1    3    3    0    0  0.13648664865E+02 -0.49183946640E+02 -0.87383953307E+02  0.10119931796E+03  0.00000000000E+00 0.  1.
         11    1    3    3    0    0 -0.39671331881E+02  0.21971521318E+02 -0.40951131792E+02  0.61102843774E+02  0.00000000000E+00 0. -1.
</event>
<event>
 7    1  0.6610867E-006  0.1760088E+03  0.7561462E-02  0.1171723E+00
         -2   -1    0    0    0  501 -0.00000000000E+00  0.00000000000E+00  0.52442176021E+02  0.52442176021E+02  0.00000000000E+00 0.  1.
          2   -1    0    0  501    0  0.00000000000E+00 -0.00000000000E+00 -0.73160742116E+03  0.73160742116E+03  0.00000000000E+00 0. -1.
         23    2    1    2    0    0  0.13789511261E+03 -0.75798051975E+02 -0.38928581039E+03  0.43128919422E+03  0.98521673305E+02 0.  0.
          5    1    1    2  502    0  0.11903211679E+02  0.12833490489E+02 -0.10523312265E+03  0.10676079538E+03  0.41800000000E+01 0. -1.
         -5    1    1    2    0  502 -0.14979832429E+03  0.62964561486E+02 -0.18464631210E+03  0.24599960759E+03  0.41800000000E+01 0. -1.
        -11    1    3    3    0    0  0.10912944478E+03 -0.88037186710E+02 -0.23322425878E+03  0.27212742759E+03  0.00000000000E+00 0.  1.
         11    1    3    3    0    0  0.28765667827E+02  0.12239134736E+02 -0.15606155161E+03  0.15916176663E+03  0.00000000000E+00 0. -1.
</event>
<event>
 7    1  0.6610867E-006  0.2523449E+03  0.7561462E-02  0.1111832E+00
          1   -1    0    0  501    0  0.00000000000E+00  0.00000000000E+00  0.52856967161E+02  0.52856967161E+02  0.00000000000E+00 0. -1.
         -1   -1    0    0    0  501 -0.00000000000E+00 -0.00000000000E+00 -0.15936558832E+04  0.15936558832E+04  0.00000000000E+00 0.  1.
         23    2    1    2    0    0 -0.21419214001E+03  0.11144619915E+03 -0.10889661378E+04  0.11191614543E+04  0.91523675537E+02 0.  0.
          5    1    1    2  502    0  0.13832973661E+03 -0.10233415899E+03 -0.39848765707E+03  0.43407059491E+03  0.41800000000E+01 0. -1.
         -5    1    1    2    0  502  0.75862403396E+02 -0.91120401548E+01 -0.53345121145E+02  0.93280801212E+02  0.41800000000E+01 0. -1.
        -11    1    3    3    0    0 -0.15673243016E+03  0.35304256870E+02 -0.75093798582E+03  0.76793183536E+03  0.00000000000E+00 0.  1.
         11    1    3    3    0    0 -0.57459709854E+02  0.76141942275E+02 -0.33802815202E+03  0.35122961889E+03  0.00000000000E+00 0. -1.
</event>
<event>
 7    1  0.6610867E-006  0.1110886E+03  0.7561462E-02  0.1258567E+00
          2   -1    0    0  501    0  0.00000000000E+00  0.00000000000E+00  0.10303527718E+03  0.10303527718E+03  0.00000000000E+00 0. -1.
         -2   -1    0    0    0  501 -0.00000000000E+00 -0.00000000000E+00 -0.14294210590E+03  0.14294210590E+03  0.00000000000E+00 0.  1.
         23    2    1    2    0    0  0.12275818915E+02 -0.46755273562E+02 -0.41040754963E+02  0.11186563490E+03  0.92156526449E+02 0.  0.
          5    1    1    2  502    0  0.47448812908E+02  0.28787642665E+02 -0.31127001090E+02  0.63768964343E+02  0.41800000000E+01 0. -1.
         -5    1    1    2    0  502 -0.59724631823E+02  0.17967630897E+02  0.32260927334E+02  0.70342783844E+02  0.41800000000E+01 0. -1.
        -11    1    3    3    0    0  0.46845287282E+02 -0.12454675924E+01 -0.16719538653E+02  0.49755151520E+02  0.00000000000E+00 0. -1.
         11    1    3    3    0    0 -0.34569468367E+02 -0.45509805969E+02 -0.24321216310E+02  0.62110483377E+02  0.00000000000E+00 0.  1.
</event>
<event>
 7    1  0.6610867E-006  0.1210662E+03  0.7561462E-02  0.1241348E+00
         -2   -1    0    0    0  501 -0.00000000000E+00  0.00000000000E+00  0.32413008404E+02  0.32413008404E+02  0.00000000000E+00 0. -1.
          2   -1    0    0  501    0  0.00000000000E+00 -0.00000000000E+00 -0.57496311937E+03  0.57496311937E+03  0.00000000000E+00 0.  1.
         23    2    1    2    0    0  0.70133083339E+02  0.35064896188E+02 -0.19152138258E+03  0.22656516938E+03  0.92212470235E+02 0.  0.
          5    1    1    2  502    0 -0.34567133292E+02  0.30561516838E+02 -0.40903729979E+02  0.61801946099E+02  0.41800000000E+01 0.  1.
         -5    1    1    2    0  502 -0.35565950046E+02 -0.65626413026E+02 -0.31012499841E+03  0.31900901230E+03  0.41800000000E+01 0.  1.
        -11    1    3    3    0    0  0.30279845828E+02 -0.31351404974E+02 -0.69249184972E+02  0.81824380697E+02  0.00000000000E+00 0.  1.
         11    1    3    3    0    0  0.39853237511E+02  0.66416301162E+02 -0.12227219761E+03  0.14474078868E+03  0.00000000000E+00 0. -1.
</event>
<event>
 7    1  0.6610867E-006  0.1128775E+03  0.7561462E-02  0.1255332E+00
         -1   -1    0    0    0  501 -0.00000000000E+00  0.00000000000E+00  0.16436077194E+02  0.16436077194E+02  0.00000000000E+00 0.  1.
          1   -1    0    0  501    0  0.00000000000E+00 -0.00000000000E+00 -0.99290798248E+03  0.99290798248E+03  0.00000000000E+00 0. -1.
         23    2    1    2    0    0  0.93863898512E+00  0.37202538425E+02 -0.20660745555E+03  0.22849647476E+03  0.90216896315E+02 0.  0.
          5    1    1    2  502    0  0.53358015620E+02 -0.51408388268E+02 -0.43213350630E+03  0.43845950769E+03  0.41800000000E+01 0. -1.
         -5    1    1    2    0  502 -0.54296654605E+02  0.14205849843E+02 -0.33773094343E+03  0.34238807722E+03  0.41800000000E+01 0. -1.
        -11    1    3    3    0    0 -0.34411281282E+01  0.66022791095E+02 -0.16445019725E+03  0.17724197495E+03  0.00000000000E+00 0. -1.
         11    1    3    3    0    0  0.43797671133E+01 -0.28820252670E+02 -0.42157258294E+02  0.51254499810E+02  0.00000000000E+00 0.  1.
</event>
<event>
 7    1  0.6610867E-006  0.1427170E+03  0.7561462E-02  0.1209719E+00
          2   -1    0    0  501    0  0.00000000000E+00  0.00000000000E+00  0.75162768371E+03  0.75162768371E+03  0.00000000000E+00 0. -1.
         -2   -1    0    0    0  501 -0.00000000000E+00 -0.00000000000E+00 -0.51181894785E+02  0.51181894785E+02  0.00000000000E+00 0.  1.
         23    2    1    2    0    0 -0.11045174538E+03  0.81619728599E+02  0.15235292604E+03  0.22409170933E+03  0.90245841805E+02 0.  0.
          5    1    1    2  502    0 -0.32277629120E+01  0.32458566815E+00 -0.55097010541E+01  0.76389145156E+01  0.41800000000E+01 0.  1.
         -5    1    1    2    0  502  0.11367950829E+03 -0.81944314267E+02  0.55360256393E+03  0.57107895464E+03  0.41800000000E+01 0.  1.
        -11    1    3    3    0    0 -0.16914401373E+02  0.18551584282E+01  0.79276287148E+02  0.81081861662E+02  0.00000000000E+00 0. -1.
         11    1    3    3    0    0 -0.93537344007E+02  0.79764570170E+02  0.73076638897E+02  0.14300984767E+03  0.00000000000E+00 0.  1.
</event>
<event>
 7    1  0.6610867E-006  0.1303822E+03  0.7561462E-02  0.1226890E+00
          1   -1    0    0  501    0  0.00000000000E+00  0.00000000000E+00  0.77940663460E+03  0.77940663460E+03  0.00000000000E+00 0. -1.
         -1   -1    0    0    0  501 -0.00000000000E+00 -0.00000000000E+00 -0.82345109266E+02  0.82345109266E+02  0.00000000000E+00 0.  1.
         23    2    1    2    0    0 -0.11718600398E+02 -0.86500000181E+02 -0.22331136353E+02  0.12646203409E+03  0.88737764157E+02 0.  0.
          5    1    1    2  502    0  0.48456318827E+02  0.49307321782E+01  0.41867748414E+03  0.42152180854E+03  0.41800000000E+01 0. -1.
         -5    1    1    2    0  502 -0.36737718429E+02  0.81569268003E+02  0.30071517755E+03  0.31376790123E+03  0.41800000000E+01 0.  1.
        -11    1    3    3    0    0 -0.13197630284E+02 -0.10396188280E+03 -0.10506935940E+02  0.10532163226E+03  0.00000000000E+00 0.  1.
         11    1    3    3    0    0  0.14790298860E+01  0.17461882615E+02 -0.11824200413E+02  0.21140401823E+02  0.00000000000E+00 0. -1.
</event>
<event>
 7    1  0.6610867E-006  0.3056604E+03  0.7561462E-02  0.1082445E+00
         -1   -1    0    0    0  501 -0.00000000000E+00  0.00000000000E+00  0.40658126444E+03  0.40658126444E+03  0.00000000000E+00 0.  1.
          1   -1    0    0  501    0  0.00000000000E+00 -0.00000000000E+00 -0.24212803240E+03  0.24212803240E+03  0.00000000000E+00 0. -1.
         23    2    1    2    0    0 -0.41824135051E+02  0.28950122543E+03  0.47712118978E+02  0.30983414991E+03  0.90335687041E+02 0.  0.
          5    1    1    2  502    0  0.83376522786E+02 -0.23497951776E+03  0.88281330243E+02  0.26453371049E+03  0.41800000000E+01 0. -1.
         -5    1    1    2    0  502 -0.41552387736E+02 -0.54521707673E+02  0.28459782826E+02  0.74341436445E+02  0.41800000000E+01 0. -1.
        -11    1    3    3    0    0 -0.41523116672E+02  0.22663151120E+03 -0.82876725210E+00  0.23040550762E+03  0.00000000000E+00 0.  1.
         11    1    3    3    0    0 -0.30101837884E+00  0.62869714230E+02  0.48540886230E+02  0.79428642286E+02  0.00000000000E+00 0. -1.
</event>
<event>
 7    1  0.6610867E-006  0.9296749E+02  0.7561462E-02  0.1295821E+00
          1   -1    0    0  501    0  0.00000000000E+00  0.00000000000E+00  0.35168617525E+03  0.35168617525E+03  0.00000000000E+00 0. -1.
         -1   -1    0    0    0  501 -0.00000000000E+00 -0.00000000000E+00 -0.68586498502E+02  0.68586498502E+02  0.00000000000E+00 0.  1.
         23    2    1    2    0    0  0.50196322844E+01  0.51228913729E+02 -0.39173942314E+00  0.10616379070E+03  0.92849333255E+02 0.  0.
          5    1    1    2  502    0  0.40407935852E+02 -0.72388471223E+02  0.14961797288E+03  0.17110202294E+03  0.41800000000E+01 0.  1.
         -5    1    1    2    0  502 -0.45427568137E+02  0.21159557494E+02  0.13387344329E+03  0.14300686011E+03  0.41800000000E+01 0.  1.
        -11    1    3    3    0    0  0.85206001667E+01  0.38925092739E+02 -0.44795962954E+02  0.59953663515E+02  0.00000000000E+00 0.  1.
         11    1    3    3    0    0 -0.35009678823E+01  0.12303820990E+02  0.44404223530E+02  0.46210127185E+02  0.00000000000E+00 0. -1.
</event>
<event>
 7    1  0.6610867E-006  0.1332922E+03  0.7561462E-02  0.1222651E+00
         -1   -1    0    0    0  501 -0.00000000000E+00  0.00000000000E+00  0.40604458832E+02  0.40604458832E+02  0.00000000000E+00 0.  1.
          1   -1    0    0  501    0  0.00000000000E+00 -0.00000000000E+00 -0.61031038420E+03  0.61031038420E+03  0.00000000000E+00 0. -1.
         23    2    1    2    0    0  0.41887463429E+02 -0.71488924706E+02 -0.10053986218E+03  0.15833981718E+03  0.89988931930E+02 0.  0.
          5    1    1    2  502    0 -0.19092641498E+02  0.10423573097E+03 -0.28505371535E+03  0.30414258104E+03  0.41800000000E+01 0.  1.
         -5    1    1    2    0  502 -0.22794821931E+02 -0.32746806269E+02 -0.18411234785E+03  0.18843244481E+03  0.41800000000E+01 0.  1.
        -11    1    3    3    0    0  0.56663073904E+02 -0.10457564968E+02 -0.34253905242E+02  0.67032787750E+02  0.00000000000E+00 0.  1.
         11    1    3    3    0    0 -0.14775610475E+02 -0.61031359738E+02 -0.66285956934E+02  0.91307029428E+02  0.00000000000E+00 0. -1.
</event>
<event>
 7    1  0.6610867E-006  0.1627307E+03  0.7561462E-02  0.1185648E+00
          2   -1    0    0  501    0  0.00000000000E+00  0.00000000000E+00  0.51968081956E+03  0.51968081956E+03  0.00000000000E+00 0. -1.
         -2   -1    0    0    0  501 -0.00000000000E+00 -0.00000000000E+00 -0.58123483746E+02  0.58123483746E+02  0.00000000000E+00 0.  1.
         23    2    1    2    0    0 -0.11447872034E+03  0.42655066789E+02  0.11955647353E+03  0.19369942908E+03  0.91109200030E+02 0.  0.
          5    1    1    2  502    0  0.13040722534E+03 -0.29483430975E+01  0.23527618238E+03  0.26904849292E+03  0.41800000000E+01 0. -1.
         -5    1    1    2    0  502 -0.15928505009E+02 -0.39706723691E+02  0.10672467991E+03  0.11505638131E+03  0.41800000000E+01 0. -1.
        -11    1    3    3    0    0  0.15412678914E+02  0.87539667430E+01  0.95066832032E+01  0.20113667755E+02  0.00000000000E+00 0. -1.
         11    1    3    3    0    0 -0.12989139925E+03  0.33901100046E+02  0.11004979033E+03  0.17358576132E+03  0.00000000000E+00 0.  1.
</event>
<event>
 7    1  0.6610867E-006  0.1140411E+03  0.7561462E-02  0.1253264E+00
          2   -1    0    0  501    0  0.00000000000E+00  0.00000000000E+00  0.46685780418E+03  0.46685780418E+03  0.00000000000E+00 0.  1.
         -2   -1    0    0    0  501 -0.00000000000E+00 -0.00000000000E+00 -0.69716826438E+02  0.69716826438E+02  0.00000000000E+00 0. -1.
         23    2    1    2    0    0 -0.60246599649E+00 -0.44835569408E+02 -0.89311035308E+01  0.10931264467E+03  0.99291985705E+02 0.  0.
          5    1    1    2  502    0  0.22640340559E+02 -0.34989625049E+02  0.21394043442E+03  0.21800192834E+03  0.41800000000E+01 0. -1.
         -5    1    1    2    0  502 -0.22037874563E+02  0.79825194458E+02  0.19213164686E+03  0.20926005761E+03  0.41800000000E+01 0. -1.
        -11    1    3    3    0    0 -0.46393971242E+02 -0.29549251478E+02 -0.22091175161E+02  0.59275448969E+02  0.00000000000E+00 0.  1.
         11    1    3    3    0    0  0.45791505245E+02 -0.15286317931E+02  0.13160071630E+02  0.50037195703E+02  0.00000000000E+00 0. -1.
</event>
<event>
 7    1  0.6610867E-006  0.1728151E+03  0.7561462E-02  0.1174944E+00
         -2   -1    0    0    0  501 -0.00000000000E+00  0.00000000000E+00  0.51077552845E+02  0.51077552845E+02  0.00000000000E+00 0.  1.
          2   -1    0    0  501    0  0.00000000000E+00 -0.00000000000E+00 -0.68204055530E+03  0.68204055530E+03  0.00000000000E+00 0. -1.
         23    2    1    2    0    0 -0.12873027474E+03 -0.65579875661E+02 -0.19501817826E+03  0.25712775713E+03  0.84914014779E+02 0.  0.
          5    1    1    2  502    0  0.12900364440E+03  0.93880024689E+02 -0.39514327019E+03  0.42615851004E+03  0.41800000000E+01 0.  1.
         -5    1    1    2    0  502 -0.27336966471E+00 -0.28300149028E+02 -0.40801554002E+02  0.49831840975E+02  0.41800000000E+01 0.  1.
        -11    1    3    3    0    0 -0.12451557567E+03 -0.38960656487E+02 -0.18875794855E+03  0.22945941793E+03  0.00000000000E+00 0. -1.
         11    1    3    3    0    0 -0.42146990722E+01 -0.26619219174E+02 -0.62602297140E+01  0.27668339194E+02  0.00000000000E+00 0.  1.
</event>
<event>
 7    1  0.6610867E-006  0.1789923E+03  0.7561462E-02  0.1168782E+00
          2   -1    0    0  501    0  0.00000000000E+00  0.00000000000E+00  0.13377278792E+03  0.13377278792E+03  0.00000000000E+00 0. -1.
         -2   -1    0    0    0  501 -0.00000000000E+00 -0.00000000000E+00 -0.30147932555E+03  0.30147932555E+03  0.00000000000E+00 0.  1.
         23    2    1    2    0    0 -0.15613323302E+03 -0.52557465314E+02 -0.11791054259E+03  0.22249559188E+03  0.91986513887E+02 0.  0.
          5    1    1    2  502    0  0.51607954749E+02  0.69043908502E+02 -0.61845315014E+02  0.10617324373E+03  0.41800000000E+01 0.  1.
         -5    1    1    2    0  502  0.10452527827E+03 -0.16486443188E+02  0.12049319972E+02  0.10658327786E+03  0.41800000000E+01 0.  1.
        -11    1    3    3    0    0 -0.73562860012E+02 -0.15018671043E+02 -0.10760459740E+03  0.13120900973E+03  0.00000000000E+00 0.  1.
         11    1    3    3    0    0 -0.82570373009E+02 -0.37538794271E+02 -0.10305945195E+02  0.91286582150E+02  0.00000000000E+00 0. -1.
</event>
<event>
 7    1  0.6610867E-006  0.1175074E+03  0.7561462E-02  0.1247267E+00
         -3   -1    0    0    0  501 -0.00000000000E+00  0.00000000000E+00  0.11336111756E+03  0.11336111756E+03  0.00000000000E+00 0.  1.
          3   -1    0    0  501    0  0.00000000000E+00 -0.00000000000E+00 -0.24769362963E+03  0.24769362963E+03  0.00000000000E+00 0. -1.
         23    2    1    2    0    0  0.18444789966E+02  0.80081973706E+02  0.45372638064E+02  0.12718583693E+03  0.85815080495E+02 0.  0.
          5    1    1    2  502    0 -0.57655767300E+02 -0.19448053137E+02 -0.30799586343E+02  0.68326431142E+02  0.41800000000E+01 0. -1.
         -5    1    1    2    0  502  0.39210977334E+02 -0.60633920569E+02 -0.14890556379E+03  0.16554247913E+03  0.41800000000E+01 0. -1.
        -11    1    3    3    0    0  0.28825591457E+02  0.85327074095E+02  0.60207346983E+02  0.10833535400E+03  0.00000000000E+00 0.  1.
         11    1    3    3    0    0 -0.10380801490E+02 -0.52451003894E+01 -0.14834708920E+02  0.18850482922E+02  0.00000000000E+00 0. -1.
</event>
<event>
 7    1  0.6610867E-006  0.1293531E+03  0.7561462E-02  0.1228419E+00
         -2   -1    0    0    0  501 -0.00000000000E+00  0.00000000000E+00  0.14040987282E+02  0.14040987282E+02  0.00000000000E+00 0.  1.
          2   -1    0    0  501    0  0.00000000000E+00 -0.00000000000E+00 -0.13253962353E+04  0.13253962353E+04  0.00000000000E+00 0. -1.
         23    2    1    2    0    0  0.75638017701E+02 -0.32655543357E+02 -0.56551674998E+03  0.57870735256E+03  0.91134577217E+02 0.  0.
          5    1    1    2  502    0 -0.16085592159E+02 -0.39466727380E+02 -0.11010963323E+03  0.11814386389E+03  0.41800000000E+01 0.  1.
         -5    1    1    2    0  502 -0.59552425542E+02  0.72122270737E+02 -0.63572886478E+03  0.64258600610E+03  0.41800000000E+01 0.  1.
        -11    1    3    3    0    0  0.77516274514E+02  0.11236072952E+02 -0.33422117583E+03  0.34327658896E+03  0.00000000000E+00 0.  1.
         11    1    3    3    0    0 -0.18782568134E+01 -0.43891616309E+02 -0.23129557415E+03  0.23543076361E+03  0.00000000000E+00 0. -1.
</event>
<event>
 7    1  0.6610867E-006  0.1068461E+03  0.7561462E-02  0.1266524E+00
         -1   -1    0    0    0  501 -0.00000000000E+00  0.00000000000E+00  0.14664950055E+03  0.14664950055E+03  0.00000000000E+00 0.  1.
          1   -1    0    0  501    0  0.00000000000E+00 -0.00000000000E+00 -0.14570995222E+03  0.14570995222E+03  0.00000000000E+00 0. -1.
         23    2    1    2    0    0  0.71242857217E+01  0.20907187931E+02  0.86947428634E+02  0.12967648783E+03  0.93639042047E+02 0.  0.
          5    1    1    2  502    0  0.53796885242E+02 -0.43974709426E+00 -0.81991172233E+02  0.98154587072E+02  0.41800000000E+01 0. -1.
         -5    1    1    2    0  502 -0.60921170964E+02 -0.20467440837E+02 -0.40167080672E+01  0.64528377864E+02  0.41800000000E+01 0.  1.
        -11    1    3    3    0    0  0.43323459370E+02 -0.13507801089E+02  0.32685663773E+02  0.55926160590E+02  0.00000000000E+00 0. -1.
         11    1    3    3    0    0 -0.36199173649E+02  0.34414989020E+02  0.54261764861E+02  0.73750327239E+02  0.00000000000E+00 0.  1.
</event>
<event>
 7    1  0.6610867E-006  0.8172625E+02  0.7561462E-02  0.1324223E+00
         -1   -1    0    0    0  501 -0.00000000000E+00  0.00000000000E+00  0.10880016513E+03  0.10880016513E+03  0.00000000000E+00 0.  1.
          1   -1    0    0  501    0  0.00000000000E+00 -0.00000000000E+00 -0.16489429860E+03  0.16489429860E+03  0.00000000000E+00 0. -1.
         23    2    1    2    0    0 -0.32803886714E+02 -0.30419389676E+02 -0.28512712746E+02  0.13801265679E+03  0.12740912210E+03 0.  0.
          5    1    1    2  502    0  0.99614171502E+00 -0.22443676919E+02  0.38757447880E+02  0.44992478239E+02  0.41800000000E+01 0.  1.
         -5    1    1    2    0  502  0.31807744999E+02  0.52863066595E+02 -0.66338868605E+02  0.90689328697E+02  0.41800000000E+01 0.  1.
        -11    1    3    3    0    0 -0.33073894606E+02  0.12859048620E+02  0.42181389259E+02  0.55122656283E+02  0.00000000000E+00 0.  1.
         11    1    3    3    0    0  0.27000789226E+00 -0.43278438296E+02 -0.70694102006E+02  0.82890000507E+02  0.00000000000E+00 0. -1.
</event>
<event>
 7    1  0.6610867E-006  0.8811926E+02  0.7561462E-02  0.1307471E+00
         -1   -1    0    0    0  501 -0.00000000000E+00  0.00000000000E+00  0.20705538670E+03  0.20705538670E+03  0.00000000000E+00 0.  1.
          1   -1    0    0  501    0  0.00000000000E+00 -0.00000000000E+00 -0.81255817214E+02  0.81255817214E+02  0.00000000000E+00 0. -1.
         23    2    1    2    0    0  0.46395746618E+02  0.20525283160E+02  0.57094268233E+02  0.13683753419E+03  0.11353811142E+03 0.  0.
          5    1    1    2  502    0  0.26980981833E+01 -0.38922739945E+02  0.87280704007E+02  0.95695627437E+02  0.41800000000E+01 0. -1.
         -5    1    1    2    0  502 -0.49093844801E+02  0.18397456785E+02 -0.18575402756E+02  0.55778042284E+02  0.41800000000E+01 0. -1.
        -11    1    3    3    0    0  0.52177671816E+02  0.38938409557E+02  0.82397245954E+02  0.10501435766E+03  0.00000000000E+00 0.  1.
         11    1    3    3    0    0 -0.57819251985E+01 -0.18413126397E+02 -0.25302977721E+02  0.31823176527E+02  0.00000000000E+00 0. -1.
</event>
<event>
 7    1  0.6610867E-006  0.1669064E+03  0.7561462E-02  0.1181113E+00
         -2   -1    0    0    0  501 -0.00000000000E+00  0.00000000000E+00  0.19549381554E+02  0.19549381554E+02  0.00000000000E+00 0.  1.
          2   -1    0    0  501    0  0.00000000000E+00 -0.00000000000E+00 -0.18134996906E+04  0.18134996906E+04  0.00000000000E+00 0. -1.
         23    2    1    2    0    0 -0.48727202711E+02  0.12193008879E+03 -0.47058946112E+03  0.49731994604E+03  0.92905333386E+02 0.  0.
          5    1    1    2  502    0  0.68858744420E+02 -0.23749661476E+02 -0.76123525104E+03  0.76472357942E+03  0.41800000000E+01 0. -1.
         -5    1    1    2    0  502 -0.20131541710E+02 -0.98180427316E+02 -0.56212559692E+03  0.57100554673E+03  0.41800000000E+01 0. -1.
        -11    1    3    3    0    0  0.27851976259E+02  0.31732133536E+02 -0.11066725521E+03  0.11844788836E+03  0.00000000000E+00 0.  1.
         11    1    3    3    0    0 -0.76579178969E+02  0.90197955256E+02 -0.35992220590E+03  0.37887205767E+03  0.00000000000E+00 0. -1.
</event>
<event>
 7    1  0.6610867E-006  0.1048950E+03  0.7561462E-02  0.1270327E+00
          1   -1    0    0  501    0  0.00000000000E+00  0.00000000000E+00  0.74146370846E+02  0.74146370846E+02  0.00000000000E+00 0. -1.
         -1   -1    0    0    0  501 -0.00000000000E+00 -0.00000000000E+00 -0.17184489894E+03  0.17184489894E+03  0.00000000000E+00 0.  1.
         23    2    1    2    0    0  0.62676113022E+01 -0.45021771482E+02 -0.55154513336E+02  0.11492521405E+03  0.89997453432E+02 0.  0.
          5    1    1    2  502    0 -0.60496013278E+02  0.20359875620E+02 -0.17578107806E+02  0.66338182307E+02  0.41800000000E+01 0. -1.
         -5    1    1    2    0  502  0.54228401976E+02  0.24661895862E+02 -0.24965906949E+02  0.64727873425E+02  0.41800000000E+01 0.  1.
        -11    1    3    3    0    0  0.33248138421E+02 -0.48602482707E+02 -0.63358828683E+02  0.86498446263E+02  0.00000000000E+00 0.  1.
         11    1    3    3    0    0 -0.26980527119E+02  0.35807112250E+01  0.82043153471E+01  0.28426767787E+02  0.00000000000E+00 0. -1.
</event>
<event>
 7    1  0.6610867E-006  0.2148962E+03  0.7561462E-02  0.1137746E+00
          2   -1    0    0  501    0  0.00000000000E+00  0.00000000000E+00  0.97877042638E+02  0.97877042638E+02  0.00000000000E+00 0. -1.
         -2   -1    0    0    0  501 -0.00000000000E+00 -0.00000000000E+00 -0.77142059179E+03  0.77142059179E+03  0.00000000000E+00 0.  1.
         23    2    1    2    0    0  0.19176815124E+02  0.37235781541E+01 -0.22801204074E+03  0.24651789961E+03  0.91651343884E+02 0.  0.
          5    1    1    2  502    0  0.10695016921E+03  0.11995840959E+03 -0.19982412292E+02  0.16200348122E+03  0.41800000000E+01 0. -1.
         -5    1    1    2    0  502 -0.12612698433E+03 -0.12368198775E+03 -0.42554909612E+03  0.46077625360E+03  0.41800000000E+01 0.  1.
        -11    1    3    3    0    0 -0.22740573408E+02  0.33798109238E+02 -0.80035414108E+02  0.89805976296E+02  0.00000000000E+00 0. -1.
         11    1    3    3    0    0  0.41917388532E+02 -0.30074531084E+02 -0.14797662663E+03  0.15671192332E+03  0.00000000000E+00 0.  1.
</event>
<event>
 7    1  0.6610867E-006  0.9122719E+02  0.7561462E-02  0.1299907E+00
          2   -1    0    0  501    0  0.00000000000E+00  0.00000000000E+00  0.33535535338E+02  0.33535535338E+02  0.00000000000E+00 0. -1.
         -2   -1    0    0    0  501 -0.00000000000E+00 -0.00000000000E+00 -0.41065770965E+03  0.41065770965E+03  0.00000000000E+00 0.  1.
         23    2    1    2    0    0 -0.21038294104E+02  0.58700818831E+01 -0.24011602078E+03  0.25738931631E+03  0.90091559175E+02 0.  0.
          5    1    1    2  502    0  0.55335294439E+02 -0.10770559081E+01 -0.11686579857E+02  0.56720396762E+02  0.41800000000E+01 0. -1.
         -5    1    1    2    0  502 -0.34297000334E+02 -0.47930259750E+01 -0.12531957367E+03  0.13008353192E+03  0.41800000000E+01 0. -1.
        -11    1    3    3    0    0 -0.55461066074E+02 -0.57021891155E+01 -0.15972975098E+03  0.16918048989E+03  0.00000000000E+00 0.  1.
         11    1    3    3    0    0  0.34422771969E+02  0.11572270999E+02 -0.80386269801E+02  0.88208826421E+02  0.00000000000E+00 0. -1.
</event>
<event>
 7    1  0.6610867E-006  0.8572589E+02  0.7561462E-02  0.1313545E+00
         -2   -1    0    0    0  501 -0.00000000000E+00  0.00000000000E+00  0.15281813681E+02  0.15281813681E+02  0.00000000000E+00 0.  1.
          2   -1    0    0  501    0  0.00000000000E+00 -0.00000000000E+00 -0.15214267124E+04  0.15214267124E+04  0.00000000000E+00 0. -1.
         23    2    1    2    0    0  0.58392586341E+02 -0.18421716895E+02 -0.27425351018E+03  0.29735730114E+03  0.97248768127E+02 0.  0.
          5    1    1    2  502    0 -0.22953695949E+02 -0.28994476835E+01 -0.11157010340E+04  0.11159487214E+04  0.41800000000E+01 0. -1.
         -5    1    1    2    0  502 -0.35438890393E+02  0.21321164578E+02 -0.11619035453E+03  0.12340250361E+03  0.41800000000E+01 0.  1.
        -11    1    3    3    0    0  0.80554561888E+02 -0.55549819658E+01 -0.24737749174E+03  0.26022205649E+03  0.00000000000E+00 0.  1.
         11    1    3    3    0    0 -0.22161975546E+02 -0.12866734929E+02 -0.26876018440E+02  0.37135244648E+02  0.00000000000E+00 0. -1.
</event>
<event>
 7    1  0.6610867E-006  0.9390752E+02  0.7561462E-02  0.1293656E+00
          1   -1    0    0  501    0  0.00000000000E+00  0.00000000000E+00  0.22335520043E+03  0.22335520043E+03  0.00000000000E+00 0. -1.
         -1   -1    0    0    0  501 -0.00000000000E+00 -0.00000000000E+00 -0.10344969025E+03  0.10344969025E+03  0.00000000000E+00 0.  1.
         23    2    1    2    0    0  0.21637871857E+01  0.93738705055E+01 -0.56358413545E+02  0.11045066421E+03  0.94501465727E+02 0.  0.
          5    1    1    2  502    0  0.30606832310E+02 -0.38294357742E+02  0.16333405016E+03  0.17058347036E+03  0.41800000000E+01 0.  1.
         -5    1    1    2    0  502 -0.32770619496E+02  0.28920487236E+02  0.12929873561E+02  0.45770756105E+02  0.41800000000E+01 0.  1.
        -11    1    3    3    0    0  0.44051183317E+02 -0.14646054183E+02 -0.23376280147E+02  0.51975610898E+02  0.00000000000E+00 0. -1.
         11    1    3    3    0    0 -0.41887396131E+02  0.24019924689E+02 -0.32982133398E+02  0.58475053315E+02  0.00000000000E+00 0.  1.
</event>
<event>
 7    1  0.6610867E-006  0.1414828E+03  0.7561462E-02  0.1211348E+00
         -1   -1    0    0    0  501 -0.00000000000E+00  0.00000000000E+00  0.78798830612E+02  0.78798830612E+02  0.00000000000E+00 0.  1.
          1   -1    0    0  501    0  0.00000000000E+00 -0.00000000000E+00 -0.33852882221E+03  0.33852882221E+03  0.00000000000E+00 0. -1.
         23    2    1    2    0    0 -0.68385445927E+02 -0.74205197386E+02 -0.38987105956E+02  0.14246953812E+03  0.92707034934E+02 0.  0.
          5    1    1    2  502    0 -0.63289324885E+01  0.83164046240E+02 -0.82397880922E+02  0.11731665335E+03  0.41800000000E+01 0. -1.
         -5    1    1    2    0  502  0.74714378415E+02 -0.89588488539E+01 -0.13834500472E+03  0.15754146135E+03  0.41800000000E+01 0.  1.
        -11    1    3    3    0    0 -0.32320617020E+01 -0.56475751159E+02  0.12039251935E+02  0.57835112855E+02  0.00000000000E+00 0.  1.
         11    1    3    3    0    0 -0.65153384225E+02 -0.17729446227E+02 -0.51026357892E+02  0.84634425260E+02  0.00000000000E+00 0. -1.
</event>
<event>
 7    1  0.6610867E-006  0.1459858E+03  0.7561462E-02  0.1205494E+00
          1   -1    0    0  501    0  0.00000000000E+00  0.00000000000E+00  0.28445926735E+02  0.28445926735E+02  0.00000000000E+00 0. -1.
         -1   -1    0    0    0  501 -0.00000000000E+00 -0.00000000000E+00 -0.11403028377E+04  0.11403028377E+04  0.00000000000E+00 0.  1.
         23    2    1    2    0    0 -0.13478972914E+03  0.44285277057E+02 -0.58145874885E+03  0.60563335989E+03  0.92563670829E+02 0.  0.
          5    1    1    2  502    0  0.13267931304E+03 -0.43566708498E+02 -0.53706334443E+03  0.55493816460E+03  0.41800000000E+01 0.  1.
         -5    1    1    2    0  502  0.21104160961E+01 -0.71856855920E+00  0.66651823457E+01  0.81772399117E+01  0.41800000000E+01 0.  1.
        -11    1    3    3    0    0 -0.32792961263E+02 -0.67343001681E+01 -0.39374961377E+02  0.51682847160E+02  0.00000000000E+00 0. -1.
         11    1    3    3    0    0 -0.10199676787E+03  0.51019577225E+02 -0.54208378747E+03  0.55395051273E+03  0.00000000000E+00 0.  1.
</event>
<event>
 6    1  0.6610867E-006  0.6201359E+02  0.7561462E-02  0.1389571E+00
         -3   -1    0    0    0  501 -0.00000000000E+00  0.00000000000E+00  0.13882765437E+03  0.13882765437E+03  0.00000000000E+00 0.  1.
          3   -1    0    0  501    0  0.00000000000E+00 -0.00000000000E+00 -0.74202355151E+02  0.74202355151E+02  0.00000000000E+00 0. -1.
          5    1    1    2  502    0  0.65377614925E+01 -0.22973909364E+02 -0.45719648903E+02  0.51752309442E+02  0.41800000000E+01 0. -1.
         -5    1    1    2    0  502  0.66662309258E+01 -0.32645584690E+02  0.82954435271E+02  0.89493483369E+02  0.41800000000E+01 0.  1.
        -11    1    1    2    0    0 -0.20806493291E+02  0.17090241347E+02  0.87409121455E+01  0.28308833560E+02  0.00000000000E+00 0. -1.
         11    1    1    2    0    0  0.76025008725E+01  0.38529252707E+02  0.18649600706E+02  0.43475383151E+02  0.00000000000E+00 0.  1.
</event>
<event>
 7    1  0.6610867E-006  0.1523266E+03  0.7561462E-02  0.1197643E+00
          1   -1    0    0  501    0  0.00000000000E+00  0.00000000000E+00  0.52569684233E+03  0.52569684233E+03  0.00000000000E+00 0. -1.
         -1   -1    0    0    0  501 -0.00000000000E+00 -0.00000000000E+00 -0.84539709915E+02  0.84539709915E+02  0.00000000000E+00 0.  1.
         23    2    1    2    0    0  0.25684195481E+01  0.14354357624E+03  0.53018209354E+02  0.17790454799E+03  0.90706904992E+02 0.  0.
          5    1    1    2  502    0  0.20144905658E+02 -0.12589622864E+03  0.17144404160E+03  0.21369653579E+03  0.41800000000E+01 0.  1.
         -5    1    1    2    0  502 -0.22713325206E+02 -0.17647347603E+02  0.21669488146E+03  0.21863546847E+03  0.41800000000E+01 0.  1.
        -11    1    3    3    0    0 -0.15168445674E+02  0.36623965276E+02  0.57025114803E+02  0.69449696147E+02  0.00000000000E+00 0. -1.
         11    1    3    3    0    0  0.17736865222E+02  0.10691961096E+03 -0.40069054494E+01  0.10845485184E+03  0.00000000000E+00 0.  1.
</event>
<event>
 7    1  0.6610867E-006  0.1804433E+03  0.7561462E-02  0.1167375E+00
          1   -1    0    0  501    0  0.00000000000E+00  0.00000000000E+00  0.53625846624E+03  0.53625846624E+03  0.00000000000E+00 0. -1.
         -1   -1    0    0    0  501 -0.00000000000E+00 -0.00000000000E+00 -0.81769119262E+02  0.81769119262E+02  0.00000000000E+00 0.  1.
         23    2    1    2    0    0 -0.16509566506E+03  0.11143651616E+02  0.11857817705E+03  0.22322834511E+03  0.91593397107E+02 0.  0.
          5    1    1    2  502    0  0.10318977938E+03  0.19240013222E+02  0.29804296358E+03  0.31601485601E+03  0.41800000000E+01 0.  1.
         -5    1    1    2    0  502  0.61905885682E+02 -0.30383664838E+02  0.37868206347E+02  0.78784384386E+02  0.41800000000E+01 0.  1.
        -11    1    3    3    0    0  0.10057599516E+02  0.55914072567E+01  0.17444664335E+02  0.20898216596E+02  0.00000000000E+00 0. -1.
         11    1    3    3    0    0 -0.17515326458E+03  0.55522443592E+01  0.10113351272E+03  0.20233012851E+03  0.00000000000E+00 0.  1.
</event>
<event>
 7    1  0.8707943E-006  0.2532568E+03  0.7561462E-02  0.1111264E+00
          1   -1    0    0  501    0  0.00000000000E+00  0.00000000000E+00  0.57954300614E+02  0.57954300614E+02  0.00000000000E+00 0. -1.
         -1   -1    0    0    0  501 -0.00000000000E+00 -0.00000000000E+00 -0.13052590391E+04  0.13052590391E+04  0.00000000000E+00 0.  1.
         23    2    1    2    0    0 -0.95225490366E+02  0.23442443710E+03 -0.63930020566E+03  0.69288532594E+03  0.85805659581E+02 0.  0.
          5    1    1    2  502    0  0.66369525285E+02 -0.17618591683E+03 -0.55586687802E+03  0.58690020417E+03  0.41800000000E+01 0.  1.
         -5    1    1    2    0  502  0.28855965081E+02 -0.58238520274E+02 -0.52137654764E+02  0.83427809565E+02  0.41800000000E+01 0.  1.
        -11    1    3    3    0    0 -0.42994875515E+02  0.11169444702E+03 -0.41509565963E+03  0.43200534194E+03  0.00000000000E+00 0.  1.
         11    1    3    3    0    0 -0.52230614852E+02  0.12272999008E+03 -0.22420454602E+03  0.26087998400E+03  0.00000000000E+00 0. -1.
</event>
<event>
 7    1  0.6610867E-006  0.1125734E+03  0.7561462E-02  0.1255877E+00
         -1   -1    0    0    0  501 -0.00000000000E+00  0.00000000000E+00  0.98995694250E+02  0.98995694250E+02  0.00000000000E+00 0.  1.
          1   -1    0    0  501    0  0.00000000000E+00 -0.00000000000E+00 -0.21546589181E+03  0.21546589181E+03  0.00000000000E+00 0. -1.
         23    2    1    2    0    0  0.12242907032E+02 -0.26872191460E+02  0.45135715273E+02  0.10492274445E+03  0.89997478098E+02 0.  0.
          5    1    1    2  502    0 -0.27216965989E+01  0.79185022471E+02 -0.10699713521E+03  0.13320486012E+03  0.41800000000E+01 0. -1.
         -5    1    1    2    0  502 -0.95212104327E+01 -0.52312831010E+02 -0.54608777623E+02  0.76333981489E+02  0.41800000000E+01 0.  1.
        -11    1    3    3    0    0  0.50345727853E+02 -0.16471291815E+02  0.36952569410E+02  0.64587058713E+02  0.00000000000E+00 0.  1.
         11    1    3    3    0    0 -0.38102820822E+02 -0.10400899645E+02  0.81831458629E+01  0.40335685741E+02  0.00000000000E+00 0. -1.
</event>
<event>
 7    1  0.6610867E-006  0.1458049E+03  0.7561462E-02  0.1205725E+00
         -1   -1    0    0    0  501 -0.00000000000E+00  0.00000000000E+00  0.25039090207E+02  0.25039090207E+02  0.00000000000E+00 0.  1.
          1   -1    0    0  501    0  0.00000000000E+00 -0.00000000000E+00 -0.13191470560E+04  0.13191470560E+04  0.00000000000E+00 0. -1.
         23    2    1    2    0    0 -0.74998414240E+02  0.95448574210E+02 -0.30453168053E+03  0.34064262706E+03  0.92534655491E+02 0.  0.
          5    1    1    2  502    0  0.43061405294E+02 -0.10291641797E+03 -0.91723823215E+03  0.92400731633E+03  0.41800000000E+01 0. -1.
         -5    1    1    2    0  502  0.31937008947E+02  0.74678437597E+01 -0.72338053150E+02  0.79536202853E+02  0.41800000000E+01 0.  1.
        -11    1    3    3    0    0 -0.45541648962E+01  0.72753630677E+02 -0.19742657581E+03  0.21045447021E+03  0.00000000000E+00 0. -1.
         11    1    3    3    0    0 -0.70444249344E+02  0.22694943533E+02 -0.10710510473E+03  0.13018815686E+03  0.00000000000E+00 0.  1.
</event>
<event>
 7    1  0.6610867E-006  0.1842874E+03  0.7561462E-02  0.1163717E+00
         -1   -1    0    0    0  501 -0.00000000000E+00  0.00000000000E+00  0.35774472893E+03  0.35774472893E+03  0.00000000000E+00 0.  1.
          1   -1    0    0  501    0  0.00000000000E+00 -0.00000000000E+00 -0.11709191383E+03  0.11709191383E+03  0.00000000000E+00 0. -1.
         23    2    1    2    0    0  0.49013934635E+02  0.16481484186E+03  0.89472722185E+02  0.21393409694E+03  0.90532491019E+02 0.  0.
          5    1    1    2  502    0  0.21821846826E+01 -0.33990091156E+02 -0.19762600233E+02  0.39599507507E+02  0.41800000000E+01 0.  1.
         -5    1    1    2    0  502 -0.51196119318E+02 -0.13082475071E+03  0.17094269314E+03  0.22130303832E+03  0.41800000000E+01 0.  1.
        -11    1    3    3    0    0 -0.13979149769E+02  0.10794101175E+03  0.58669835069E+02  0.12364800117E+03  0.00000000000E+00 0.  1.
         11    1    3    3    0    0  0.62993084404E+02  0.56873830116E+02  0.30802887116E+02  0.90286095771E+02  0.00000000000E+00 0. -1.
</event>
<event>
 7    1  0.6610867E-006  0.9586771E+02  0.7561462E-02  0.1289234E+00
         -1   -1    0    0    0  501 -0.00000000000E+00  0.00000000000E+00  0.39041207634E+02  0.39041207634E+02  0.00000000000E+00 0.  1.
          1   -1    0    0  501    0  0.00000000000E+00 -0.00000000000E+00 -0.44223164167E+03  0.44223164167E+03  0.00000000000E+00 0. -1.
         23    2    1    2    0    0  0.10193523256E+02  0.32081037274E+02 -0.61196886210E+02  0.11556740533E+03  0.92074238655E+02 0.  0.
          5    1    1    2  502    0 -0.60965491961E+01 -0.79766594652E+02 -0.23874594625E+03  0.25182727569E+03  0.41800000000E+01 0.  1.
         -5    1    1    2    0  502 -0.40969740603E+01  0.47685557378E+02 -0.10324760158E+03  0.11387816828E+03  0.41800000000E+01 0.  1.
        -11    1    3    3    0    0 -0.17698062184E+02 -0.38356409809E+01  0.17174710159E+02  0.24958049120E+02  0.00000000000E+00 0.  1.
         11    1    3    3    0    0  0.27891585441E+02  0.35916678255E+02 -0.78371596370E+02  0.90609356210E+02  0.00000000000E+00 0. -1.
</event>
<event>
 7    1  0.6610867E-006  0.7735768E+02  0.7561462E-02  0.1336722E+00
          2   -1    0    0  501    0  0.00000000000E+00  0.00000000000E+00  0.39339627527E+03  0.39339627527E+03  0.00000000000E+00 0. -1.
         -2   -1    0    0    0  501 -0.00000000000E+00 -0.00000000000E+00 -0.31015893005E+02  0.31015893005E+02  0.00000000000E+00 0.  1.
         23    2    1    2    0    0 -0.23548997530E+02  0.11758335786E+02  0.11091218307E+03  0.14231914042E+03  0.85208049088E+02 0.  0.
          5    1    1    2  502    0  0.48627819363E+02  0.16210615561E+02  0.23551767699E+03  0.24106741266E+03  0.41800000000E+01 0.  1.
         -5    1    1    2    0  502 -0.25078821834E+02 -0.27968951347E+02  0.15950522206E+02  0.41025615201E+02  0.41800000000E+01 0.  1.
        -11    1    3    3    0    0 -0.39110566905E+02 -0.84200841729E+01  0.14431375276E+02  0.42529975940E+02  0.00000000000E+00 0.  1.
         11    1    3    3    0    0  0.15561569375E+02  0.20178419959E+02  0.96480807799E+02  0.99789164477E+02  0.00000000000E+00 0. -1.
</event>
<event>
 7    1  0.6610867E-006  0.1646575E+03  0.7561462E-02  0.1183537E+00
          2   -1    0    0  501    0  0.00000000000E+00  0.00000000000E+00  0.97065440754E+03  0.97065440754E+03  0.00000000000E+00 0. -1.
         -2   -1    0    0    0  501 -0.00000000000E+00 -0.00000000000E+00 -0.57182161790E+02  0.57182161790E+02  0.00000000000E+00 0.  1.
         23    2    1    2    0    0 -0.14473769760E+03 -0.56861026095E+02  0.13639928992E+03  0.22554562949E+03  0.89910440418E+02 0.  0.
          5    1    1    2  502    0  0.58545636630E+02 -0.11985169989E+02  0.10231540290E+03  0.11856285227E+03  0.41800000000E+01 0.  1.
         -5    1    1    2    0  502  0.86192060972E+02  0.68846196084E+02  0.67475755293E+03  0.68372808757E+03  0.41800000000E+01 0.  1.
        -11    1    3    3    0    0 -0.95539573000E+02 -0.20173368244E+02  0.13176111358E+03  0.16399928612E+03  0.00000000000E+00 0. -1.
         11    1    3    3    0    0 -0.49198124603E+02 -0.36687657852E+02  0.46381763409E+01  0.61546343375E+02  0.00000000000E+00 0.  1.
</event>
<event>
 7    1  0.6610867E-006  0.1223181E+03  0.7561462E-02  0.1239321E+00
          2   -1    0    0  501    0  0.00000000000E+00  0.00000000000E+00  0.34686908693E+03  0.34686908693E+03  0.00000000000E+00 0. -1.
         -2   -1    0    0    0  501 -0.00000000000E+00 -0.00000000000E+00 -0.70359322316E+02  0.70359322316E+02  0.00000000000E+00 0.  1.
         23    2    1    2    0    0 -0.26802712645E+02 -0.11163296366E+03  0.12309258986E+03  0.18839524540E+03  0.84620794319E+02 0.  0.
          5    1    1    2  502    0 -0.18448068856E+01  0.22580315509E+02  0.13038116218E+03  0.13240088297E+03  0.41800000000E+01 0. -1.
         -5    1    1    2    0  502  0.28647519530E+02  0.89052648153E+02  0.23036012576E+02  0.96432280869E+02  0.41800000000E+01 0. -1.
        -11    1    3    3    0    0 -0.41105943660E+02 -0.50203857453E+02  0.20648334158E+02  0.68091700014E+02  0.00000000000E+00 0.  1.
         11    1    3    3    0    0  0.14303231015E+02 -0.61429106209E+02  0.10244425570E+03  0.12030354539E+03  0.00000000000E+00 0. -1.
</event>
<event>
 7    1  0.7775553E-006  0.1472122E+03  0.7561462E-02  0.1203941E+00
          4   -1    0    0  501    0  0.00000000000E+00  0.00000000000E+00  0.22312679640E+03  0.22312679640E+03  0.00000000000E+00 0.  1.
         -4   -1    0    0    0  501 -0.00000000000E+00 -0.00000000000E+00 -0.11513620113E+03  0.11513620113E+03  0.00000000000E+00 0. -1.
         23    2    1    2    0    0  0.96800739771E+02  0.54075418113E+02  0.81775043799E+01  0.14357224098E+03  0.90838222888E+02 0.  0.
          5    1    1    2  502    0  0.66815197509E+01  0.28020358578E+02  0.40395406285E+02  0.49790003515E+02  0.41800000000E+01 0.  1.
         -5    1    1    2    0  502 -0.10348225952E+03 -0.82095776691E+02  0.59417684610E+02  0.14490075304E+03  0.41800000000E+01 0.  1.
        -11    1    3    3    0    0  0.53438953814E+02 -0.11385853314E+02  0.29655432358E+02  0.62167548679E+02  0.00000000000E+00 0.  1.
         11    1    3    3    0    0  0.43361785956E+02  0.65461271427E+02 -0.21477927978E+02  0.81404692299E+02  0.00000000000E+00 0. -1.
</event>
<event>
 7    1  0.6610867E-006  0.1098422E+03  0.7561462E-02  0.1260862E+00
         -2   -1    0    0    0  501 -0.00000000000E+00  0.00000000000E+00  0.20214848455E+02  0.20214848455E+02  0.00000000000E+00 0.  1.
          2   -1    0    0  501    0  0.00000000000E+00 -0.00000000000E+00 -0.81813766326E+03  0.81813766326E+03  0.00000000000E+00 0. -1.
         23    2    1    2    0    0  0.37070798141E+02 -0.22538946841E+02 -0.18034397511E+03  0.20674101126E+03  0.91299770983E+02 0.  0.
          5    1    1    2  502    0  0.93250167413E+01  0.66373512709E+02 -0.27239227582E+03  0.28054843335E+03  0.41800000000E+01 0.  1.
         -5    1    1    2    0  502 -0.46395814882E+02 -0.43834565868E+02 -0.34518656388E+03  0.35106306711E+03  0.41800000000E+01 0.  1.
        -11    1    3    3    0    0  0.11493867751E+01  0.27192082860E+02 -0.16593110885E+02  0.31875724134E+02  0.00000000000E+00 0.  1.
         11    1    3    3    0    0  0.35921411366E+02 -0.49731029701E+02 -0.16375086422E+03  0.17486528713E+03  0.00000000000E+00 0. -1.
</event>
<event>
 7    1  0.6610867E-006  0.1311427E+03  0.7561462E-02  0.1225770E+00
         -2   -1    0    0    0  501 -0.00000000000E+00  0.00000000000E+00  0.76179516126E+02  0.76179516126E+02  0.00000000000E+00 0.  1.
          2   -1    0    0  501    0  0.00000000000E+00 -0.00000000000E+00 -0.23444405095E+03  0.23444405095E+03  0.00000000000E+00 0. -1.
         23    2    1    2    0    0 -0.38134443148E+02  0.60178842414E+02 -0.45016443673E+02  0.12746233317E+03  0.95626551485E+02 0.  0.
          5    1    1    2  502    0  0.60551035412E+01 -0.95599240823E+02 -0.72203785296E+02  0.12002807228E+03  0.41800000000E+01 0.  1.
         -5    1    1    2    0  502  0.32079339607E+02  0.35420398409E+02 -0.41044305859E+02  0.63133161623E+02  0.41800000000E+01 0.  1.
        -11    1    3    3    0    0 -0.49313407440E+02  0.80982816365E+02 -0.41823308798E+02  0.10363019762E+03  0.00000000000E+00 0.  1.
         11    1    3    3    0    0  0.11178964292E+02 -0.20803973952E+02 -0.31931348759E+01  0.23832135556E+02  0.00000000000E+00 0. -1.
</event>
<event>
 7    1  0.6610867E-006  0.1105765E+03  0.7561462E-02  0.1259506E+00
          2   -1    0    0  501    0  0.00000000000E+00  0.00000000000E+00  0.22963330338E+04  0.22963330338E+04  0.00000000000E+00 0. -1.
         -2   -1    0    0    0  501 -0.00000000000E+00 -0.00000000000E+00 -0.11257936472E+02  0.11257936472E+02  0.00000000000E+00 0.  1.
         23    2    1    2    0    0 -0.35367840314E+02 -0.32534660809E+02  0.28864624331E+03  0.30666968493E+03  0.91761939811E+02 0.  0.
          5    1    1    2  502    0 -0.17641876079E+02  0.63781144056E+02  0.13275739821E+04  0.13292288819E+04  0.41800000000E+01 0.  1.
         -5    1    1    2    0  502  0.53009716393E+02 -0.31246483247E+02  0.66885487187E+03  0.67169240339E+03  0.41800000000E+01 0.  1.
        -11    1    3    3    0    0  0.23128966404E+02 -0.25216135161E+02  0.48255106979E+02  0.59155370922E+02  0.00000000000E+00 0.  1.
         11    1    3    3    0    0 -0.58496806718E+02 -0.73185256482E+01  0.24039113633E+03  0.24751431401E+03  0.00000000000E+00 0. -1.
</event>
<event>
 7    1  0.6610867E-006  0.1103758E+03  0.7561462E-02  0.1259876E+00
         -1   -1    0    0    0  501 -0.00000000000E+00  0.00000000000E+00  0.32218852222E+02  0.32218852222E+02  0.00000000000E+00 0.  1.
          1   -1    0    0  501    0  0.00000000000E+00 -0.00000000000E+00 -0.41782550077E+03  0.41782550077E+03  0.00000000000E+00 0. -1.
         23    2    1    2    0    0  0.24721948473E+02  0.17652110916E+02 -0.10902595422E+03  0.14497382154E+03  0.90597894469E+02 0.  0.
          5    1    1    2  502    0  0.14629419568E+02 -0.64190180165E+02 -0.16795103924E+03  0.18044229861E+03  0.41800000000E+01 0. -1.
         -5    1    1    2    0  502 -0.39351368041E+02  0.46538069249E+02 -0.10862965509E+03  0.12462823284E+03  0.41800000000E+01 0. -1.
        -11    1    3    3    0    0  0.26786693376E+02  0.52418807106E+02 -0.81736454957E+02  0.10072788268E+03  0.00000000000E+00 0. -1.
         11    1    3    3    0    0 -0.20647449033E+01 -0.34766696190E+02 -0.27289499262E+02  0.44245938858E+02  0.00000000000E+00 0.  1.
</event>
<event>
 7    1  0.6610867E-006  0.1239692E+03  0.7561462E-02  0.1236689E+00
          2   -1    0    0  501    0  0.00000000000E+00  0.00000000000E+00  0.67322760963E+03  0.67322760963E+03  0.00000000000E+00 0. -1.
         -2   -1    0    0    0  501 -0.00000000000E+00 -0.00000000000E+00 -0.23209674173E+02  0.23209674173E+02  0.00000000000E+00 0.  1.
         23    2    1    2    0    0  0.61894755915E+02 -0.69243477245E+01  0.28464932031E+03  0.30526315815E+03  0.91002487705E+02 0.  0.
          5    1    1    2  502    0 -0.61629814890E+02 -0.51460342737E+02  0.23164295783E+03  0.24519855887E+03  0.41800000000E+01 0. -1.
         -5    1    1    2    0  502 -0.26494102455E+00  0.58384690461E+02  0.13372565731E+03  0.14597556678E+03  0.41800000000E+01 0. -1.
        -11    1    3    3    0    0  0.51687209344E+02  0.37221601392E+02  0.18854125686E+03  0.19900959967E+03  0.00000000000E+00 0. -1.
         11    1    3    3    0    0  0.10207546571E+02 -0.44145949117E+02  0.96108063448E+02  0.10625355848E+03  0.00000000000E+00 0.  1.
</event>
<event>
 7    1  0.6610867E-006  0.1924555E+03  0.7561462E-02  0.1156265E+00
          2   -1    0    0  501    0  0.00000000000E+00  0.00000000000E+00  0.73234767980E+03  0.73234767980E+03  0.00000000000E+00 0. -1.
         -2   -1    0    0    0  501 -0.00000000000E+00 -0.00000000000E+00 -0.56877606086E+02  0.56877606086E+02  0.00000000000E+00 0.  1.
         23    2    1    2    0    0 -0.69512871636E+02 -0.15749554406E+03  0.34801464621E+03  0.39869893409E+03  0.90607727857E+02 0.  0.
          5    1    1    2  502    0  0.47620710741E+02  0.16676736903E+03  0.32202728609E+03  0.36578427092E+03  0.41800000000E+01 0. -1.
         -5    1    1    2    0  502  0.21892160895E+02 -0.92718249707E+01  0.54281414101E+01  0.24742080877E+02  0.41800000000E+01 0. -1.
        -11    1    3    3    0    0  0.78395358587E+01 -0.70265049883E+02  0.18690290155E+03  0.19982825167E+03  0.00000000000E+00 0. -1.
         11    1    3    3    0    0 -0.77352407495E+02 -0.87230494172E+02  0.16111174466E+03  0.19887068242E+03  0.00000000000E+00 0.  1.
</event>
<event>
 7    1  0.6610867E-006  0.1013541E+03  0.7561462E-02  0.1277474E+00
          1   -1    0    0  501    0  0.00000000000E+00  0.00000000000E+00  0.17120369218E+03  0.17120369218E+03  0.00000000000E+00 0. -1.
         -1   -1    0    0    0  501 -0.00000000000E+00 -0.00000000000E+00 -0.11059137093E+03  0.11059137093E+03  0.00000000000E+00 0.  1.
         23    2    1    2    0    0 -0.64496940921E+02  0.61538492062E+01 -0.27528588516E+02  0.11561601437E+03  0.91714308288E+02 0.  0.
          5    1    1    2  502    0 -0.26529546798E+02 -0.33341382049E+02  0.43830129241E+02  0.61270035413E+02  0.41800000000E+01 0.  1.
         -5    1    1    2    0  502  0.91026487719E+02  0.27187532843E+02  0.44310780525E+02  0.10490901334E+03  0.41800000000E+01 0.  1.
        -11    1    3    3    0    0 -0.50778810730E+02  0.42957157023E+01 -0.60946396329E+02  0.79444345413E+02  0.00000000000E+00 0.  1.
         11    1    3    3    0    0 -0.13718130191E+02  0.18581335039E+01  0.33417807813E+02  0.36171668957E+02  0.00000000000E+00 0. -1.
</event>
<event>
 7    1  0.6610867E-006  0.1578671E+03  0.7561462E-02  0.1191126E+00
          2   -1    0    0  501    0  0.00000000000E+00  0.00000000000E+00  0.25820547726E+04  0.25820547726E+04  0.00000000000E+00 0. -1.
         -2   -1    0    0    0  501 -0.00000000000E+00 -0.00000000000E+00 -0.17541109260E+02  0.17541109260E+02  0.00000000000E+00 0.  1.
         23    2    1    2    0    0 -0.67894409805E+01 -0.11740693281E+03  0.37483811421E+03  0.40319663612E+03  0.90738256175E+02 0.  0.
          5    1    1    2  502    0  0.54371080015E+02  0.10991615682E+03  0.14789809071E+04  0.14840619164E+04  0.41800000000E+01 0. -1.
         -5    1    1    2    0  502 -0.47581639034E+02  0.74907759950E+01  0.71069464200E+03  0.71233732927E+03  0.41800000000E+01 0. -1.
        -11    1    3    3    0    0  0.33485954541E+02 -0.19338416572E+02  0.63983671375E+02  0.74760910305E+02  0.00000000000E+00 0.  1.
         11    1    3    3    0    0 -0.40275395522E+02 -0.98068516238E+02  0.31085444284E+03  0.32843572582E+03  0.00000000000E+00 0. -1.
</event>
<event>
 7    1  0.6610867E-006  0.1532630E+03  0.7561462E-02  0.1196520E+00
          1   -1    0    0  501    0  0.00000000000E+00  0.00000000000E+00  0.21073644373E+04  0.21073644373E+04  0.00000000000E+00 0. -1.
         -1   -1    0    0    0  501 -0.00000000000E+00 -0.00000000000E+00 -0.18579159000E+02  0.18579159000E+02  0.00000000000E+00 0.  1.
         23    2    1    2    0    0  0.89608761085E+00  0.13183439884E+03  0.47698906271E+03  0.50393400921E+03  0.95130478859E+02 0.  0.
          5    1    1    2  502    0  0.30601649234E+02 -0.10228305564E+03  0.14661243516E+04  0.14700123711E+04  0.41800000000E+01 0. -1.
         -5    1    1    2    0  502 -0.31497736844E+02 -0.29551343193E+02  0.14567186392E+03  0.15199721593E+03  0.41800000000E+01 0. -1.
        -11    1    3    3    0    0  0.23120179262E+02  0.53899846255E+00  0.32235500446E+02  0.39673173524E+02  0.00000000000E+00 0. -1.
         11    1    3    3    0    0 -0.22224091651E+02  0.13129540037E+03  0.44475356226E+03  0.46426083569E+03  0.00000000000E+00 0.  1.
</event>
<event>
 7    1  0.6610867E-006  0.9230946E+02  0.7561462E-02  0.1297353E+00
          1   -1    0    0  501    0  0.00000000000E+00  0.00000000000E+00  0.25447321107E+03  0.25447321107E+03  0.00000000000E+00 0. -1.
         -1   -1    0    0    0  501 -0.00000000000E+00 -0.00000000000E+00 -0.59169853843E+02  0.59169853843E+02  0.00000000000E+00 0.  1.
         23    2    1    2    0    0  0.39763208871E+02  0.93215716526E+01  0.35590228418E+02  0.10670174911E+03  0.91927114748E+02 0.  0.
          5    1    1    2  502    0 -0.39736569942E+02 -0.51945038402E+02  0.33379377852E+02  0.73545477570E+02  0.41800000000E+01 0. -1.
         -5    1    1    2    0  502 -0.26638929288E-01  0.42623466749E+02  0.12633375095E+03  0.13339583823E+03  0.41800000000E+01 0. -1.
        -11    1    3    3    0    0  0.65919362073E+01 -0.26574936856E+02  0.48901740219E+02  0.56045170071E+02  0.00000000000E+00 0. -1.
         11    1    3    3    0    0  0.33171272664E+02  0.35896508508E+02 -0.13311511801E+02  0.50656579036E+02  0.00000000000E+00 0.  1.
</event>
<event>
 7    1  0.6610867E-006  0.1011726E+03  0.7561462E-02  0.1277849E+00
         -2   -1    0    0    0  501 -0.00000000000E+00  0.00000000000E+00  0.15573957838E+03  0.15573957838E+03  0.00000000000E+00 0. -1.
          2   -1    0    0  501    0  0.00000000000E+00 -0.00000000000E+00 -0.76898652315E+02  0.76898652315E+02  0.00000000000E+00 0.  1.
         23    2    1    2    0    0  0.20621899474E+01 -0.14020725886E+02  0.41413359211E+02  0.10130213687E+03  0.91357666516E+02 0.  0.
          5    1    1    2  502    0  0.48698210846E+02 -0.16846116457E+02 -0.12989468056E+02  0.53305778858E+02  0.41800000000E+01 0. -1.
         -5    1    1    2    0  502 -0.50760400793E+02  0.30866842343E+02  0.50417034908E+02  0.78030314967E+02  0.41800000000E+01 0. -1.
        -11    1    3    3    0    0  0.45959876978E+02 -0.97777239240E+01  0.12693189067E+02  0.48672694867E+02  0.00000000000E+00 0. -1.
         11    1    3    3    0    0 -0.43897687031E+02 -0.42430019625E+01  0.28720170144E+02  0.52629442001E+02  0.00000000000E+00 0.  1.
</event>
<event>
 7    1  0.6610867E-006  0.9645811E+02  0.7561462E-02  0.1287925E+00
         -2   -1    0    0    0  501 -0.00000000000E+00  0.00000000000E+00  0.78144409682E+02  0.78144409682E+02  0.00000000000E+00 0. -1.
          2   -1    0    0  501    0  0.00000000000E+00 -0.00000000000E+00 -0.20017677124E+03  0.20017677124E+03  0.00000000000E+00 0.  1.
         23    2    1    2    0    0 -0.86646947265E+01 -0.39852131985E+02  0.65256501237E+01  0.94370172336E+02  0.84852082819E+02 0.  0.
          5    1    1    2  502    0  0.73265208174E+01  0.78123447197E+02 -0.41751699152E+02  0.88981052429E+02  0.41800000000E+01 0. -1.
         -5    1    1    2    0  502  0.13381739091E+01 -0.38271315213E+02 -0.86806312528E+02  0.94969956156E+02  0.41800000000E+01 0. -1.
        -11    1    3    3    0    0  0.16458669471E+02  0.10515328959E+02 -0.23516174141E+02  0.30569108429E+02  0.00000000000E+00 0.  1.
         11    1    3    3    0    0 -0.25123364198E+02 -0.50367460944E+02  0.30041824265E+02  0.63801063907E+02  0.00000000000E+00 0. -1.
</event>
<event>
 6    1  0.6610867E-006  0.8254414E+02  0.7561462E-02  0.1321983E+00
         -2   -1    0    0    0  501 -0.00000000000E+00  0.00000000000E+00  0.11136253172E+03  0.11136253172E+03  0.00000000000E+00 0.  1.
          2   -1    0    0  501    0  0.00000000000E+00 -0.00000000000E+00 -0.27838663241E+03  0.27838663241E+03  0.00000000000E+00 0. -1.
          5    1    1    2  502    0  0.29680595120E+02  0.74504909756E+02 -0.25225113089E+03  0.26472632045E+03  0.41800000000E+01 0. -1.
         -5    1    1    2    0  502  0.15435290180E+01 -0.25530472276E+02  0.41051245343E+02  0.48547550305E+02  0.41800000000E+01 0.  1.
        -11    1    1    2    0    0 -0.10792843239E+02 -0.93398795384E+01  0.84344533070E+00  0.14297909463E+02  0.00000000000E+00 0. -1.
         11    1    1    2    0    0 -0.20431280899E+02 -0.39634557942E+02  0.43332339518E+02  0.62177383915E+02  0.00000000000E+00 0.  1.
</event>
<event>
 7    1  0.6610867E-006  0.1021814E+03  0.7561462E-02  0.1275774E+00
          1   -1    0    0  501    0  0.00000000000E+00  0.00000000000E+00  0.57740270421E+02  0.57740270421E+02  0.00000000000E+00 0. -1.
         -1   -1    0    0    0  501 -0.00000000000E+00 -0.00000000000E+00 -0.30037685385E+03  0.30037685385E+03  0.00000000000E+00 0.  1.
         23    2    1    2    0    0 -0.62685167060E+02 -0.31660642598E+02 -0.14319626051E+03  0.18356708037E+03  0.90883868280E+02 0.  0.
          5    1    1    2  502    0  0.35835576484E+02 -0.26776030833E+02 -0.10051091453E+03  0.11009568887E+03  0.41800000000E+01 0. -1.
         -5    1    1    2    0  502  0.26849590576E+02  0.58436673431E+02  0.10705916060E+01  0.64454355029E+02  0.41800000000E+01 0. -1.
        -11    1    3    3    0    0 -0.15560977497E+02 -0.43668652065E+02 -0.12201399959E+03  0.13052398741E+03  0.00000000000E+00 0.  1.
         11    1    3    3    0    0 -0.47124189563E+02  0.12008009467E+02 -0.21182260921E+02  0.53043092962E+02  0.00000000000E+00 0. -1.
</event>
<event>
 7    1  0.6610867E-006  0.1044523E+03  0.7561462E-02  0.1271203E+00
         -1   -1    0    0    0  501 -0.00000000000E+00  0.00000000000E+00  0.49993369055E+02  0.49993369055E+02  0.00000000000E+00 0.  1.
          1   -1    0    0  501    0  0.00000000000E+00 -0.00000000000E+00 -0.34363692097E+03  0.34363692097E+03  0.00000000000E+00 0. -1.
         23    2    1    2    0    0 -0.68261692803E+02  0.27296480998E+02 -0.14621426327E+03  0.18678077899E+03  0.90020508990E+02 0.  0.
          5    1    1    2  502    0 -0.11515165241E+02  0.84200170702E+01  0.15768891622E+02  0.21670857412E+02  0.41800000000E+01 0.  1.
         -5    1    1    2    0  502  0.79776858045E+02 -0.35716498069E+02 -0.16319818027E+03  0.18517865362E+03  0.41800000000E+01 0.  1.
        -11    1    3    3    0    0 -0.34235218302E+02  0.53547908768E+02 -0.12172092865E+03  0.13731501439E+03  0.00000000000E+00 0.  1.
         11    1    3    3    0    0 -0.34026474501E+02 -0.26251427770E+02 -0.24493334618E+02  0.49465764602E+02  0.00000000000E+00 0. -1.
</event>
<event>
 7    1  0.6610867E-006  0.8754495E+02  0.7561462E-02  0.1308908E+00
         -2   -1    0    0    0  501 -0.00000000000E+00  0.00000000000E+00  0.64185398191E+02  0.64185398191E+02  0.00000000000E+00 0.  1.
          2   -1    0    0  501    0  0.00000000000E+00 -0.00000000000E+00 -0.25835401394E+03  0.25835401394E+03  0.00000000000E+00 0. -1.
         23    2    1    2    0    0  0.59107064840E+02  0.23862893753E+02 -0.52078747573E+02  0.12278527491E+03  0.91109521857E+02 0.  0.
          5    1    1    2  502    0 -0.57789372289E+02 -0.30437783333E+02 -0.16393868550E+03  0.17652035352E+03  0.41800000000E+01 0. -1.
         -5    1    1    2    0  502 -0.13176925512E+01  0.65748895802E+01  0.21848817325E+02  0.23233783703E+02  0.41800000000E+01 0. -1.
        -11    1    3    3    0    0  0.77958167908E+02  0.27255613072E+02 -0.59977191020E+02  0.10206668325E+03  0.00000000000E+00 0. -1.
         11    1    3    3    0    0 -0.18851103068E+02 -0.33927193198E+01  0.78984434467E+01  0.20718591655E+02  0.00000000000E+00 0.  1.
</event>
<event>
 7    1  0.6610867E-006  0.8599189E+02  0.7561462E-02  0.1312859E+00
          2   -1    0    0  501    0  0.00000000000E+00  0.00000000000E+00  0.26570173150E+03  0.26570173150E+03  0.00000000000E+00 0. -1.
         -2   -1    0    0    0  501 -0.00000000000E+00 -0.00000000000E+00 -0.54568683479E+02  0.54568683479E+02  0.00000000000E+00 0.  1.
         23    2    1    2    0    0 -0.53508591117E+02  0.22754595297E+01  0.93317704850E+02  0.14028066222E+03  0.90011794310E+02 0.  0.
          5    1    1    2  502    0  0.34122118702E+02  0.25695512778E+02  0.13498427878E+03  0.14164323591E+03  0.41800000000E+01 0.  1.
         -5    1    1    2    0  502  0.19386472415E+02 -0.27970972308E+02 -0.17168935607E+02  0.38346516849E+02  0.41800000000E+01 0.  1.
        -11    1    3    3    0    0 -0.38900133606E+02 -0.36498428095E+02  0.21794789124E+02  0.57622638615E+02  0.00000000000E+00 0.  1.
         11    1    3    3    0    0 -0.14608457511E+02  0.38773887625E+02  0.71522915725E+02  0.82658023605E+02  0.00000000000E+00 0. -1.
</event>
<event>
 7    1  0.6610867E-006  0.9546262E+02  0.7561462E-02  0.1290138E+00
         -1   -1    0    0    0  501 -0.00000000000E+00  0.00000000000E+00  0.40208732380E+02  0.40208732380E+02  0.00000000000E+00 0.  1.
          1   -1    0    0  501    0  0.00000000000E+00 -0.00000000000E+00 -0.45042921978E+03  0.45042921978E+03  0.00000000000E+00 0. -1.
         23    2    1    2    0    0 -0.55767685750E+02 -0.49664573161E+02 -0.16080863363E+03  0.20179642374E+03  0.96362728178E+02 0.  0.
          5    1    1    2  502    0  0.51981322732E+02  0.43635621740E+02 -0.39239153022E+02  0.78506744471E+02  0.41800000000E+01 0.  1.
         -5    1    1    2    0  502  0.37863630182E+01  0.60289514208E+01 -0.21017270075E+03  0.21033478395E+03  0.41800000000E+01 0.  1.
        -11    1    3    3    0    0 -0.42764649876E+02  0.17539686726E+02 -0.10029065705E+03  0.11042948783E+03  0.00000000000E+00 0.  1.
         11    1    3    3    0    0 -0.13003035874E+02 -0.67204259886E+02 -0.60517976579E+02  0.91366935913E+02  0.00000000000E+00 0. -1.
</event>
<event>
 7    1  0.6610867E-006  0.1362080E+03  0.7561462E-02  0.1218524E+00
          3   -1    0    0  501    0  0.00000000000E+00  0.00000000000E+00  0.60039646988E+02  0.60039646988E+02  0.00000000000E+00 0. -1.
         -3   -1    0    0    0  501 -0.00000000000E+00 -0.00000000000E+00 -0.31020977206E+03  0.31020977206E+03  0.00000000000E+00 0.  1.
         23    2    1    2    0    0  0.62431898824E+00 -0.83721718273E+02 -0.11194927051E+03  0.16588882634E+03  0.89312639931E+02 0.  0.
          5    1    1    2  502    0 -0.54918872771E+02  0.78360433495E+02 -0.89839335043E+02  0.13132029030E+03  0.41800000000E+01 0.  1.
         -5    1    1    2    0  502  0.54294553783E+02  0.53612847781E+01 -0.48381519521E+02  0.73040302410E+02  0.41800000000E+01 0.  1.
        -11    1    3    3    0    0  0.22789625509E+02  0.10522281684E+02 -0.29401900607E+02  0.38659503385E+02  0.00000000000E+00 0. -1.
         11    1    3    3    0    0 -0.22165306521E+02 -0.94243999958E+02 -0.82547369902E+02  0.12722932295E+03  0.00000000000E+00 0.  1.
</event>
<event>
 7    1  0.6610867E-006  0.7939396E+02  0.7561462E-02  0.1330780E+00
         -2   -1    0    0    0  501 -0.00000000000E+00  0.00000000000E+00  0.47568842759E+02  0.47568842759E+02  0.00000000000E+00 0.  1.
          2   -1    0    0  501    0  0.00000000000E+00 -0.00000000000E+00 -0.56715721192E+03  0.56715721192E+03  0.00000000000E+00 0. -1.
         23    2    1    2    0    0 -0.73192692638E+02 -0.36311390268E+01 -0.60512774542E+02  0.13330266696E+03  0.93474326474E+02 0.  0.
          5    1    1    2  502    0  0.48094453743E+02 -0.14335084763E+01 -0.45194483712E+03  0.45451814004E+03  0.41800000000E+01 0. -1.
         -5    1    1    2    0  502  0.25098238895E+02  0.50646475031E+01 -0.71307574955E+01  0.26905247674E+02  0.41800000000E+01 0. -1.
        -11    1    3    3    0    0 -0.63183736558E+02 -0.19202315664E+02  0.40279478124E+01  0.66159941474E+02  0.00000000000E+00 0.  1.
         11    1    3    3    0    0 -0.10008956080E+02  0.15571176637E+02 -0.64540722355E+02  0.67142725486E+02  0.00000000000E+00 0. -1.
</event>
<event>
 7    1  0.6610867E-006  0.1453148E+03  0.7561462E-02  0.1206351E+00
         -4   -1    0    0    0  501 -0.00000000000E+00  0.00000000000E+00  0.18620640658E+02  0.18620640658E+02  0.00000000000E+00 0.  1.
          4   -1    0    0  501    0  0.00000000000E+00 -0.00000000000E+00 -0.14851851410E+04  0.14851851410E+04  0.00000000000E+00 0. -1.
         23    2    1    2    0    0 -0.25089957687E+02 -0.11919740143E+03 -0.52984651792E+03  0.55095522430E+03  0.89312933804E+02 0.  0.
          5    1    1    2  502    0  0.58500810947E+02  0.47937192012E+02 -0.23952999712E+03  0.25122183659E+03  0.41800000000E+01 0.  1.
         -5    1    1    2    0  502 -0.33410853261E+02  0.71260209416E+02 -0.69718798534E+03  0.70162872081E+03  0.41800000000E+01 0.  1.
        -11    1    3    3    0    0  0.17677511501E+02 -0.63080095513E+02 -0.13741831460E+03  0.15223464143E+03  0.00000000000E+00 0.  1.
         11    1    3    3    0    0 -0.42767469187E+02 -0.56117305916E+02 -0.39242820332E+03  0.39872058287E+03  0.00000000000E+00 0. -1.
</event>
<event>
 7    1  0.6610867E-006  0.1206797E+03  0.7561462E-02  0.1241980E+00
          1   -1    0    0  501    0  0.00000000000E+00  0.00000000000E+00  0.16273422684E+04  0.16273422684E+04  0.00000000000E+00 0. -1.
         -1   -1    0    0    0  501 -0.00000000000E+00 -0.00000000000E+00 -0.27864072966E+02  0.27864072966E+02  0.00000000000E+00 0.  1.
         23    2    1    2    0    0 -0.75214911269E+02 -0.77192950568E+02  0.19995553529E+03  0.24597721939E+03  0.94374476785E+02 0.  0.
          5    1    1    2  502    0  0.55333878810E+02  0.90983595260E+02  0.60414192247E+03  0.61346946757E+03  0.41800000000E+01 0. -1.
         -5    1    1    2    0  502  0.19881032459E+02 -0.13790644692E+02  0.79538073768E+03  0.79575965443E+03  0.41800000000E+01 0. -1.
        -11    1    3    3    0    0 -0.53535046391E+02 -0.68350866512E+02  0.63593216771E+02  0.10761941909E+03  0.00000000000E+00 0.  1.
         11    1    3    3    0    0 -0.21679864878E+02 -0.88420840559E+01  0.13636231852E+03  0.13835780030E+03  0.00000000000E+00 0. -1.
</event>
<event>
 7    1  0.6610867E-006  0.1137176E+03  0.7561462E-02  0.1253836E+00
          3   -1    0    0  501    0  0.00000000000E+00  0.00000000000E+00  0.35462068227E+02  0.35462068227E+02  0.00000000000E+00 0. -1.
         -3   -1    0    0    0  501 -0.00000000000E+00 -0.00000000000E+00 -0.49136541888E+03  0.49136541888E+03  0.00000000000E+00 0.  1.
         23    2    1    2    0    0 -0.15403188548E+01 -0.70902265657E+02 -0.15869240280E+03  0.19665962424E+03  0.91990354075E+02 0.  0.
          5    1    1    2  502    0  0.49051966457E+02  0.55134530558E+02 -0.87579838297E+02  0.11460197358E+03  0.41800000000E+01 0. -1.
         -5    1    1    2    0  502 -0.47511647602E+02  0.15767735099E+02 -0.20963110956E+03  0.21556588929E+03  0.41800000000E+01 0. -1.
        -11    1    3    3    0    0 -0.38225168289E+02 -0.32445891473E+02 -0.32549812360E+02  0.59777835766E+02  0.00000000000E+00 0.  1.
         11    1    3    3    0    0  0.36684849434E+02 -0.38456374184E+02 -0.12614259044E+03  0.13688178847E+03  0.00000000000E+00 0. -1.
</event>
<event>
 7    1  0.6610867E-006  0.8730495E+02  0.7561462E-02  0.1309513E+00
          1   -1    0    0  501    0  0.00000000000E+00  0.00000000000E+00  0.45766960352E+03  0.45766960352E+03  0.00000000000E+00 0.  1.
         -1   -1    0    0    0  501 -0.00000000000E+00 -0.00000000000E+00 -0.39725725788E+02  0.39725725788E+02  0.00000000000E+00 0. -1.
         23    2    1    2    0    0 -0.12919208675E+02  0.24123371163E+02  0.16400144181E+02  0.75928969871E+02  0.68901384220E+02 0.  0.
          5    1    1    2  502    0 -0.33039864491E+02 -0.60096721030E+02  0.19279895475E+03  0.20467573836E+03  0.41800000000E+01 0. -1.
         -5    1    1    2    0  502  0.45959073166E+02  0.35973349868E+02  0.20874477881E+03  0.21679062108E+03  0.41800000000E+01 0. -1.
        -11    1    3    3    0    0  0.24737121618E+01 -0.98156944617E+01  0.33449396018E+02  0.34947520707E+02  0.00000000000E+00 0.  1.
         11    1    3    3    0    0 -0.15392920837E+02  0.33939065624E+02 -0.17049251836E+02  0.40981449164E+02  0.00000000000E+00 0. -1.
</event>
<event>
 7    1  0.6610867E-006  0.8276168E+02  0.7561462E-02  0.1321392E+00
         -2   -1    0    0    0  501 -0.00000000000E+00  0.00000000000E+00  0.10273801285E+03  0.10273801285E+03  0.00000000000E+00 0.  1.
          2   -1    0    0  501    0  0.00000000000E+00 -0.00000000000E+00 -0.16082899881E+03  0.16082899881E+03  0.00000000000E+00 0. -1.
         23    2    1    2    0    0  0.71448455181E+01 -0.34088507065E+02  0.35614861198E+02  0.10344261471E+03  0.90658044704E+02 0.  0.
          5    1    1    2  502    0 -0.32039471848E+02  0.27521180048E+02  0.17493534496E+02  0.45906854136E+02  0.41800000000E+01 0.  1.
         -5    1    1    2    0  502  0.24894626330E+02  0.65673270165E+01 -0.11119938166E+03  0.11421754281E+03  0.41800000000E+01 0.  1.
        -11    1    3    3    0    0 -0.23895717586E+02 -0.54730349051E+02  0.19401827361E+02  0.62792096088E+02  0.00000000000E+00 0.  1.
         11    1    3    3    0    0  0.31040563105E+02  0.20641841986E+02  0.16213033837E+02  0.40650518627E+02  0.00000000000E+00 0. -1.
</event>
<event>
 7    1  0.6610867E-006  0.9392198E+02  0.7561462E-02  0.1293623E+00
          2   -1    0    0  501    0  0.00000000000E+00  0.00000000000E+00  0.32916048353E+03  0.32916048353E+03  0.00000000000E+00 0. -1.
         -2   -1    0    0    0  501 -0.00000000000E+00 -0.00000000000E+00 -0.43971521125E+02  0.43971521125E+02  0.00000000000E+00 0.  1.
         23    2    1    2    0    0  0.20976851122E+02 -0.44745621479E+02  0.12657418786E+03  0.16517014024E+03  0.93903947044E+02 0.  0.
          5    1    1    2  502    0  0.21971641128E+02  0.35740972223E+02  0.15836376257E+03  0.16388021175E+03  0.41800000000E+01 0. -1.
         -5    1    1    2    0  502 -0.42948492250E+02  0.90046492553E+01  0.25101198188E+00  0.44081652666E+02  0.41800000000E+01 0. -1.
        -11    1    3    3    0    0  0.54805427976E+02 -0.39054388877E+02  0.10477472207E+03  0.12452559019E+03  0.00000000000E+00 0. -1.
         11    1    3    3    0    0 -0.33828576854E+02 -0.56912326014E+01  0.21799465786E+02  0.40644550053E+02  0.00000000000E+00 0.  1.
</event>
<event>
 7    1  0.6610867E-006  0.1359819E+03  0.7561462E-02  0.1218840E+00
          1   -1    0    0  501    0  0.00000000000E+00  0.00000000000E+00  0.16962504776E+04  0.16962504776E+04  0.00000000000E+00 0. -1.
         -1   -1    0    0    0  501 -0.00000000000E+00 -0.00000000000E+00 -0.15789759805E+02  0.15789759805E+02  0.00000000000E+00 0.  1.
         23    2    1    2    0    0 -0.23431823317E+02  0.97523240591E+02  0.41840916939E+03  0.43984480135E+03  0.91309273590E+02 0.  0.
          5    1    1    2  502    0 -0.20051203768E+02  0.85895176405E+01  0.58995424423E+03  0.59037218199E+03  0.41800000000E+01 0.  1.
         -5    1    1    2    0  502  0.43483027085E+02 -0.10611275823E+03  0.67209730417E+03  0.68182325406E+03  0.41800000000E+01 0.  1.
        -11    1    3    3    0    0 -0.54522556010E+02  0.33940051931E+02  0.17790367440E+03  0.18914109443E+03  0.00000000000E+00 0. -1.
         11    1    3    3    0    0  0.31090732692E+02  0.63583188660E+02  0.24050549500E+03  0.25070370692E+03  0.00000000000E+00 0.  1.
</event>
<event>
 7    1  0.6610867E-006  0.8221048E+02  0.7561462E-02  0.1322893E+00
         -1   -1    0    0    0  501 -0.00000000000E+00  0.00000000000E+00  0.62283991157E+02  0.62283991157E+02  0.00000000000E+00 0.  1.
          1   -1    0    0  501    0  0.00000000000E+00 -0.00000000000E+00 -0.26700607156E+03  0.26700607156E+03  0.00000000000E+00 0. -1.
         23    2    1    2    0    0  0.18291178757E+02 -0.34635186571E+02  0.19960839236E+02  0.74238019402E+02  0.59822111736E+02 0.  0.
          5    1    1    2  502    0  0.27358337277E+02  0.51753039840E+02 -0.17799085387E+03  0.18741684079E+03  0.41800000000E+01 0. -1.
         -5    1    1    2    0  502 -0.45649516035E+02 -0.17117853269E+02 -0.46692065775E+02  0.67635202529E+02  0.41800000000E+01 0.  1.
        -11    1    3    3    0    0 -0.13098922286E+02 -0.14332745770E+02 -0.13835983435E+02  0.23842059558E+02  0.00000000000E+00 0. -1.
         11    1    3    3    0    0  0.31390101043E+02 -0.20302440801E+02  0.33796822671E+02  0.50395959844E+02  0.00000000000E+00 0.  1.
</event>
<event>
 7    1  0.6610867E-006  0.1104717E+03  0.7561462E-02  0.1259699E+00
          1   -1    0    0  501    0  0.00000000000E+00  0.00000000000E+00  0.25479461458E+03  0.25479461458E+03  0.00000000000E+00 0. -1.
         -1   -1    0    0    0  501 -0.00000000000E+00 -0.00000000000E+00 -0.75072185380E+02  0.75072185380E+02  0.00000000000E+00 0.  1.
         23    2    1    2    0    0 -0.31000605382E+02 -0.13017994872E+02 -0.12874835553E+02  0.97763986098E+02  0.90892958267E+02 0.  0.
          5    1    1    2  502    0  0.95370749496E+01  0.68579293516E+02  0.93758062189E+02  0.11662813521E+03  0.41800000000E+01 0.  1.
         -5    1    1    2    0  502  0.21463530433E+02 -0.55561298644E+02  0.98839202560E+02  0.11547467865E+03  0.41800000000E+01 0.  1.
        -11    1    3    3    0    0 -0.18878341116E+02 -0.49737580164E+02  0.80360172891E+01  0.53803310471E+02  0.00000000000E+00 0. -1.
         11    1    3    3    0    0 -0.12122264266E+02  0.36719585292E+02 -0.20910852842E+02  0.43960675626E+02  0.00000000000E+00 0.  1.
</event>
<event>
 7    1  0.6610867E-006  0.9536874E+02  0.7561462E-02  0.1290348E+00
         -4   -1    0    0    0  501 -0.00000000000E+00  0.00000000000E+00  0.54693532319E+02  0.54693532319E+02  0.00000000000E+00 0.  1.
          4   -1    0    0  501    0  0.00000000000E+00 -0.00000000000E+00 -0.30609439121E+03  0.30609439121E+03  0.00000000000E+00 0. -1.
         23    2    1    2    0    0 -0.17808017145E+02 -0.62999235098E+02 -0.98968572435E+02  0.15302697020E+03  0.96625287478E+02 0.  0.
          5    1    1    2  502    0 -0.89472067434E+01  0.28970646257E+02 -0.16061830862E+03  0.16350860624E+03  0.41800000000E+01 0. -1.
         -5    1    1    2    0  502  0.26755223889E+02  0.34028588841E+02  0.81860221618E+01  0.44252347087E+02  0.41800000000E+01 0. -1.
        -11    1    3    3    0    0 -0.54842566887E+02 -0.57043875672E+02 -0.64572944109E+02  0.10213410794E+03  0.00000000000E+00 0.  1.
         11    1    3    3    0    0  0.37034549742E+02 -0.59553594256E+01 -0.34395628327E+02  0.50892862254E+02  0.00000000000E+00 0. -1.
</event>
<event>
 7    1  0.6610867E-006  0.1111346E+03  0.7561462E-02  0.1258483E+00
         -1   -1    0    0    0  501 -0.00000000000E+00  0.00000000000E+00  0.36305511283E+02  0.36305511283E+02  0.00000000000E+00 0.  1.
          1   -1    0    0  501    0  0.00000000000E+00 -0.00000000000E+00 -0.66460354539E+03  0.66460354539E+03  0.00000000000E+00 0. -1.
         23    2    1    2    0    0  0.16552575297E+02 -0.83252761176E+01 -0.51824247985E+02  0.10580580648E+03  0.90364915947E+02 0.  0.
          5    1    1    2  502    0  0.40055755832E+02  0.47055215980E+02 -0.41528440437E+03  0.41987767961E+03  0.41800000000E+01 0. -1.
         -5    1    1    2    0  502 -0.56608331129E+02 -0.38729939863E+02 -0.16118938176E+03  0.17522557058E+03  0.41800000000E+01 0.  1.
        -11    1    3    3    0    0 -0.32355771735E+02 -0.23969027084E+02 -0.28942031286E+02  0.49588823326E+02  0.00000000000E+00 0.  1.
         11    1    3    3    0    0  0.48908347033E+02  0.15643750966E+02 -0.22882216699E+02  0.56216983153E+02  0.00000000000E+00 0. -1.
</event>
<event>
 7    1  0.6610867E-006  0.8952057E+02  0.7561462E-02  0.1304017E+00
          1   -1    0    0  501    0  0.00000000000E+00  0.00000000000E+00  0.15250061051E+03  0.15250061051E+03  0.00000000000E+00 0. -1.
         -1   -1    0    0    0  501 -0.00000000000E+00 -0.00000000000E+00 -0.12552099203E+03  0.12552099203E+03  0.00000000000E+00 0.  1.
         23    2    1    2    0    0  0.63342253785E+02  0.30392710885E+02 -0.38738819763E+02  0.12021570194E+03  0.89527430698E+02 0.  0.
          5    1    1    2  502    0 -0.24586075901E+02 -0.28897980032E+02  0.99267849500E+02  0.10635387498E+03  0.41800000000E+01 0. -1.
         -5    1    1    2    0  502 -0.38756177884E+02 -0.14947308531E+01 -0.33549411258E+02  0.51452025618E+02  0.41800000000E+01 0. -1.
        -11    1    3    3    0    0  0.39187240889E+02  0.54899280118E+02  0.12475771884E+01  0.67462043067E+02  0.00000000000E+00 0. -1.
         11    1    3    3    0    0  0.24155012896E+02 -0.24506569233E+02 -0.39986396952E+02  0.52753658875E+02  0.00000000000E+00 0.  1.
</event>
<event>
 7    1  0.6610867E-006  0.2334384E+03  0.7561462E-02  0.1124243E+00
          1   -1    0    0  501    0  0.00000000000E+00  0.00000000000E+00  0.30172168649E+04  0.30172168649E+04  0.00000000000E+00 0. -1.
         -1   -1    0    0    0  501 -0.00000000000E+00 -0.00000000000E+00 -0.18562449603E+02  0.18562449603E+02  0.00000000000E+00 0.  1.
         23    2    1    2    0    0 -0.17526302484E+03  0.11152531876E+03  0.11990726701E+04  0.12199326782E+04  0.85471904817E+02 0.  0.
          5    1    1    2  502    0  0.10296907934E+03  0.72709445754E+01  0.74711412097E+03  0.75422309702E+03  0.41800000000E+01 0.  1.
         -5    1    1    2    0  502  0.72293945507E+02 -0.11879626334E+03  0.10524676242E+04  0.10616235393E+04  0.41800000000E+01 0.  1.
        -11    1    3    3    0    0 -0.12850740805E+03  0.32394571774E+02  0.73282114417E+03  0.74470825935E+03  0.00000000000E+00 0.  1.
         11    1    3    3    0    0 -0.46755616797E+02  0.79130746987E+02  0.46625152596E+03  0.47522441886E+03  0.00000000000E+00 0. -1.
</event>
<event>
 7    1  0.6610867E-006  0.1138944E+03  0.7561462E-02  0.1253523E+00
         -1   -1    0    0    0  501 -0.00000000000E+00  0.00000000000E+00  0.76837739691E+02  0.76837739691E+02  0.00000000000E+00 0.  1.
          1   -1    0    0  501    0  0.00000000000E+00 -0.00000000000E+00 -0.28132435749E+03  0.28132435749E+03  0.00000000000E+00 0. -1.
         23    2    1    2    0    0  0.31272606785E+02  0.91057263379E+02 -0.64805579451E+02  0.14737838873E+03  0.90836254803E+02 0.  0.
          5    1    1    2  502    0 -0.33842390329E+02 -0.48206346573E+02  0.55266905388E+01  0.59305783372E+02  0.41800000000E+01 0.  1.
         -5    1    1    2    0  502  0.25697835433E+01 -0.42850916806E+02 -0.14520772889E+03  0.15147792508E+03  0.41800000000E+01 0.  1.
        -11    1    3    3    0    0  0.96576292534E+01  0.10125199547E+03 -0.31678486980E+02  0.10653057273E+03  0.00000000000E+00 0. -1.
         11    1    3    3    0    0  0.21614977532E+02 -0.10194732089E+02 -0.33127092472E+02  0.40847815996E+02  0.00000000000E+00 0.  1.
</event>
<event>
 7    1  0.6610867E-006  0.2282230E+03  0.7561462E-02  0.1127897E+00
          3   -1    0    0  501    0  0.00000000000E+00  0.00000000000E+00  0.36223054721E+03  0.36223054721E+03  0.00000000000E+00 0. -1.
         -3   -1    0    0    0  501 -0.00000000000E+00 -0.00000000000E+00 -0.15684450167E+03  0.15684450167E+03  0.00000000000E+00 0.  1.
         23    2    1    2    0    0  0.33186154734E+02 -0.20750970346E+03  0.71821909832E+02  0.24042409106E+03  0.92107322912E+02 0.  0.
          5    1    1    2  502    0 -0.61493985367E+02  0.76830578519E+02  0.14491907557E+02  0.99558705378E+02  0.41800000000E+01 0.  1.
         -5    1    1    2    0  502  0.28307830633E+02  0.13067912494E+03  0.11907222815E+03  0.17909225245E+03  0.41800000000E+01 0.  1.
        -11    1    3    3    0    0 -0.18092253826E+02 -0.12988934576E+03  0.67007934176E+02  0.14727061837E+03  0.00000000000E+00 0. -1.
         11    1    3    3    0    0  0.51278408559E+02 -0.77620357697E+02  0.48139756558E+01  0.93153472694E+02  0.00000000000E+00 0.  1.
</event>
<event>
 7    1  0.6610867E-006  0.9150156E+02  0.7561462E-02  0.1299256E+00
         -2   -1    0    0    0  501 -0.00000000000E+00  0.00000000000E+00  0.19835273360E+02  0.19835273360E+02  0.00000000000E+00 0.  1.
          2   -1    0    0  501    0  0.00000000000E+00 -0.00000000000E+00 -0.73001972983E+03  0.73001972983E+03  0.00000000000E+00 0. -1.
         23    2    1    2    0    0 -0.10987922291E+02 -0.93783580753E+01 -0.15355736682E+03  0.17916225335E+03  0.91162273362E+02 0.  0.
          5    1    1    2  502    0  0.45530179615E+02 -0.42617155773E+02 -0.24497314659E+03  0.25282115056E+03  0.41800000000E+01 0.  1.
         -5    1    1    2    0  502 -0.34542257324E+02  0.51995513849E+02 -0.31165394305E+03  0.31787159927E+03  0.41800000000E+01 0.  1.
        -11    1    3    3    0    0  0.18645586005E+02 -0.19155134425E+02 -0.47898611054E+01  0.27157316173E+02  0.00000000000E+00 0.  1.
         11    1    3    3    0    0 -0.29633508296E+02  0.97767763498E+01 -0.14876750572E+03  0.15200493718E+03  0.00000000000E+00 0. -1.
</event>
<event>
 7    1  0.6610867E-006  0.1316525E+03  0.7561462E-02  0.1225024E+00
         -1   -1    0    0    0  501 -0.00000000000E+00  0.00000000000E+00  0.76086102612E+02  0.76086102612E+02  0.00000000000E+00 0.  1.
          1   -1    0    0  501    0  0.00000000000E+00 -0.00000000000E+00 -0.11337732340E+04  0.11337732340E+04  0.00000000000E+00 0. -1.
         23    2    1    2    0    0 -0.11513614538E+03  0.26779351593E+02 -0.14273847231E+02  0.15234693198E+03  0.95038830619E+02 0.  0.
          5    1    1    2  502    0  0.39076816329E+02 -0.12414531976E+02 -0.71615438975E+02  0.82627850500E+02  0.41800000000E+01 0. -1.
         -5    1    1    2    0  502  0.76059329050E+02 -0.14364819617E+02 -0.97179784516E+03  0.97488455410E+03  0.41800000000E+01 0. -1.
        -11    1    3    3    0    0 -0.22313937336E+02  0.44771968525E+02 -0.27161546969E+02  0.56922672099E+02  0.00000000000E+00 0. -1.
         11    1    3    3    0    0 -0.92822208043E+02 -0.17992616933E+02  0.12887699738E+02  0.95424259885E+02  0.00000000000E+00 0.  1.
</event>
<event>
 7    1  0.6610867E-006  0.3100901E+03  0.7561462E-02  0.1080303E+00
         -2   -1    0    0    0  501 -0.00000000000E+00  0.00000000000E+00  0.43221729912E+03  0.43221729912E+03  0.00000000000E+00 0.  1.
          2   -1    0    0  501    0  0.00000000000E+00 -0.00000000000E+00 -0.24219916407E+03  0.24219916407E+03  0.00000000000E+00 0. -1.
         23    2    1    2    0    0  0.21362646721E+01  0.29673244963E+03  0.16309406326E+03  0.35126431097E+03  0.93446414588E+02 0.  0.
          5    1    1    2  502    0  0.19147759727E+02 -0.32864718793E+01  0.20906249505E+02  0.28844085500E+02  0.41800000000E+01 0. -1.
         -5    1    1    2    0  502 -0.21284024399E+02 -0.29344597775E+03  0.60178222809E+01  0.29430806672E+03  0.41800000000E+01 0. -1.
        -11    1    3    3    0    0 -0.27182797566E+02  0.44606482287E+02  0.53555931971E+02  0.74812302430E+02  0.00000000000E+00 0.  1.
         11    1    3    3    0    0  0.29319062238E+02  0.25212596734E+03  0.10953813129E+03  0.27645200854E+03  0.00000000000E+00 0. -1.
</event>
<event>
 7    1  0.6610867E-006  0.1374871E+03  0.7561462E-02  0.1216751E+00
         -2   -1    0    0    0  501 -0.00000000000E+00  0.00000000000E+00  0.24678487396E+02  0.24678487396E+02  0.00000000000E+00 0.  1.
          2   -1    0    0  501    0  0.00000000000E+00 -0.00000000000E+00 -0.79771132550E+03  0.79771132550E+03  0.00000000000E+00 0. -1.
         23    2    1    2    0    0 -0.37361583255E+02 -0.80125182573E+02 -0.33806763485E+03  0.36124086583E+03  0.91593147286E+02 0.  0.
          5    1    1    2  502    0  0.80473831784E+02  0.28520541731E+02 -0.25802962266E+03  0.27182019328E+03  0.41800000000E+01 0.  1.
         -5    1    1    2    0  502 -0.43112248529E+02  0.51604640843E+02 -0.17693558059E+03  0.18932875378E+03  0.41800000000E+01 0.  1.
        -11    1    3    3    0    0 -0.64531486134E+02 -0.61778864689E+02 -0.28676030720E+03  0.30035381571E+03  0.00000000000E+00 0.  1.
         11    1    3    3    0    0  0.27169902880E+02 -0.18346317885E+02 -0.51307327647E+02  0.60887050123E+02  0.00000000000E+00 0. -1.
</event>
<event>
 7    1  0.6610867E-006  0.1852968E+03  0.7561462E-02  0.1162773E+00
         -2   -1    0    0    0  501 -0.00000000000E+00  0.00000000000E+00  0.21287034002E+02  0.21287034002E+02  0.00000000000E+00 0.  1.
          2   -1    0    0  501    0  0.00000000000E+00 -0.00000000000E+00 -0.21265816010E+04  0.21265816010E+04  0.00000000000E+00 0. -1.
         23    2    1    2    0    0 -0.11121889464E+03  0.13217963312E+03 -0.73671684045E+03  0.76277180964E+03  0.96062649573E+02 0.  0.
          5    1    1    2  502    0  0.59152836410E+02 -0.72378849669E+02 -0.11254322963E+04  0.11293153156E+04  0.41800000000E+01 0. -1.
         -5    1    1    2    0  502  0.52066058230E+02 -0.59800783448E+02 -0.24314543019E+03  0.25578150977E+03  0.41800000000E+01 0. -1.
        -11    1    3    3    0    0 -0.27736039891E+02  0.10683727259E+03 -0.40426880267E+03  0.41906652877E+03  0.00000000000E+00 0. -1.
         11    1    3    3    0    0 -0.83482854749E+02  0.25342360528E+02 -0.33244803778E+03  0.34370528087E+03  0.00000000000E+00 0.  1.
</event>
<event>
 7    1  0.6610867E-006  0.8794715E+02  0.7561462E-02  0.1307900E+00
          1   -1    0    0  501    0  0.00000000000E+00  0.00000000000E+00  0.12435787202E+03  0.12435787202E+03  0.00000000000E+00 0. -1.
         -1   -1    0    0    0  501 -0.00000000000E+00 -0.00000000000E+00 -0.46621354276E+03  0.46621354276E+03  0.00000000000E+00 0.  1.
         23    2    1    2    0    0  0.24369838961E+02  0.70394527531E+02 -0.41212907228E+03  0.42890890733E+03  0.92537560003E+02 0.  0.
          5    1    1    2  502    0 -0.15770811613E+02 -0.51094465297E+02 -0.28382525293E+02  0.60682806667E+02  0.41800000000E+01 0. -1.
         -5    1    1    2    0  502 -0.85990273483E+01 -0.19300062233E+02  0.98655926828E+02  0.10097970079E+03  0.41800000000E+01 0. -1.
        -11    1    3    3    0    0 -0.12665375626E+02 -0.73221680189E+01 -0.10128978021E+02  0.17793877598E+02  0.00000000000E+00 0. -1.
         11    1    3    3    0    0  0.37035214587E+02  0.77716695549E+02 -0.40200009426E+03  0.41111502973E+03  0.00000000000E+00 0.  1.
</event>
<event>
 7    1  0.6610867E-006  0.2637470E+03  0.7561462E-02  0.1104913E+00
          1   -1    0    0  501    0  0.00000000000E+00  0.00000000000E+00  0.47717287846E+03  0.47717287846E+03  0.00000000000E+00 0. -1.
         -1   -1    0    0    0  501 -0.00000000000E+00 -0.00000000000E+00 -0.15846315465E+03  0.15846315465E+03  0.00000000000E+00 0.  1.
         23    2    1    2    0    0 -0.89770278706E+02  0.23579364306E+03  0.15947851210E+03  0.31212562461E+03  0.91277952787E+02 0.  0.
          5    1    1    2  502    0 -0.21720697189E+01 -0.14459024290E+03  0.12048582979E+03  0.18826939159E+03  0.41800000000E+01 0. -1.
         -5    1    1    2    0  502  0.91942348425E+02 -0.91203400167E+02  0.38745381907E+02  0.13524101691E+03  0.41800000000E+01 0. -1.
        -11    1    3    3    0    0 -0.19198078756E+02  0.29250806196E+02  0.65965784962E+02  0.74670346703E+02  0.00000000000E+00 0. -1.
         11    1    3    3    0    0 -0.70572199950E+02  0.20654283687E+03  0.93512727143E+02  0.23745527790E+03  0.00000000000E+00 0.  1.
</event>
<event>
 7    1  0.6610867E-006  0.1204438E+03  0.7561462E-02  0.1242367E+00
          2   -1    0    0  501    0  0.00000000000E+00  0.00000000000E+00  0.32307710874E+03  0.32307710874E+03  0.00000000000E+00 0.  1.
         -2   -1    0    0    0  501 -0.00000000000E+00 -0.00000000000E+00 -0.51357985475E+02  0.51357985475E+02  0.00000000000E+00 0. -1.
         23    2    1    2    0    0  0.69580918621E+02 -0.15496005187E+02  0.96387096394E+02  0.14756402906E+03  0.86040919972E+02 0.  0.
          5    1    1    2  502    0  0.22373695200E+01 -0.44738421280E+02  0.30681903857E+02  0.54455337528E+02  0.41800000000E+01 0. -1.
         -5    1    1    2    0  502 -0.71818288141E+02  0.60234426468E+02  0.14465012301E+03  0.17241572762E+03  0.41800000000E+01 0. -1.
        -11    1    3    3    0    0  0.90963978256E+01 -0.36828649848E+02  0.67047640624E+02  0.77035576303E+02  0.00000000000E+00 0.  1.
         11    1    3    3    0    0  0.60484520796E+02  0.21332644661E+02  0.29339455770E+02  0.70528452762E+02  0.00000000000E+00 0. -1.
</event>
<event>
 7    1  0.6610867E-006  0.8374399E+02  0.7561462E-02  0.1318750E+00
          1   -1    0    0  501    0  0.00000000000E+00  0.00000000000E+00  0.13354146282E+03  0.13354146282E+03  0.00000000000E+00 0. -1.
         -1   -1    0    0    0  501 -0.00000000000E+00 -0.00000000000E+00 -0.30632273496E+03  0.30632273496E+03  0.00000000000E+00 0.  1.
         23    2    1    2    0    0  0.25606166463E+02  0.17013488415E+02 -0.23580717992E+03  0.25265731635E+03  0.85355485213E+02 0.  0.
          5    1    1    2  502    0 -0.65134722356E+02 -0.25815142380E+02  0.10656243907E+03  0.12760085992E+03  0.41800000000E+01 0. -1.
         -5    1    1    2    0  502  0.39528555893E+02  0.88016539656E+01 -0.43536531295E+02  0.59606021514E+02  0.41800000000E+01 0.  1.
        -11    1    3    3    0    0  0.38037018926E+02  0.21106228973E+02 -0.23558569956E+03  0.23956817307E+03  0.00000000000E+00 0.  1.
         11    1    3    3    0    0 -0.12430852463E+02 -0.40927405584E+01 -0.22148035385E+00  0.13089143279E+02  0.00000000000E+00 0. -1.
</event>
<event>
 7    1  0.6610867E-006  0.1141485E+03  0.7561462E-02  0.1253075E+00
         -1   -1    0    0    0  501 -0.00000000000E+00  0.00000000000E+00  0.55117240105E+02  0.55117240105E+02  0.00000000000E+00 0.  1.
          1   -1    0    0  501    0  0.00000000000E+00 -0.00000000000E+00 -0.45004106187E+03  0.45004106187E+03  0.00000000000E+00 0. -1.
         23    2    1    2    0    0 -0.11091022503E+03 -0.52436848059E+01 -0.14472845004E+03  0.20420305697E+03  0.91782296653E+02 0.  0.
          5    1    1    2  502    0  0.43438509757E+02 -0.55060081683E+01 -0.25887031455E+01  0.44061253271E+02  0.41800000000E+01 0.  1.
         -5    1    1    2    0  502  0.67471715277E+02  0.10749692974E+02 -0.24760666859E+03  0.25689399174E+03  0.41800000000E+01 0.  1.
        -11    1    3    3    0    0 -0.76932461555E+02  0.11827319171E+02 -0.30136259905E+02  0.83466659696E+02  0.00000000000E+00 0.  1.
         11    1    3    3    0    0 -0.33977763478E+02 -0.17071003977E+02 -0.11459219013E+03  0.12073639728E+03  0.00000000000E+00 0. -1.
</event>
<event>
 7    1  0.6610867E-006  0.1518790E+03  0.7561462E-02  0.1198183E+00
          2   -1    0    0  501    0  0.00000000000E+00  0.00000000000E+00  0.67673365052E+03  0.67673365052E+03  0.00000000000E+00 0. -1.
         -2   -1    0    0    0  501 -0.00000000000E+00 -0.00000000000E+00 -0.38537251838E+02  0.38537251838E+02  0.00000000000E+00 0.  1.
         23    2    1    2    0    0 -0.40339973387E+02 -0.10756793520E+03  0.22955973896E+03  0.27274429396E+03  0.92160740024E+02 0.  0.
          5    1    1    2  502    0  0.79961277985E+02  0.40584443621E+02  0.25326705835E+03  0.26870537451E+03  0.41800000000E+01 0. -1.
         -5    1    1    2    0  502 -0.39621304597E+02  0.66983491578E+02  0.15536960137E+03  0.17382123389E+03  0.41800000000E+01 0. -1.
        -11    1    3    3    0    0  0.84683297505E+01 -0.79094133539E+02  0.79783222348E+02  0.11266302471E+03  0.00000000000E+00 0.  1.
         11    1    3    3    0    0 -0.48808303138E+02 -0.28473801660E+02  0.14977651661E+03  0.16008126925E+03  0.00000000000E+00 0. -1.
</event>
<event>
 7    1  0.6610867E-006  0.2132931E+03  0.7561462E-02  0.1138984E+00
          2   -1    0    0  501    0  0.00000000000E+00  0.00000000000E+00  0.80312144050E+02  0.80312144050E+02  0.00000000000E+00 0. -1.
         -2   -1    0    0    0  501 -0.00000000000E+00 -0.00000000000E+00 -0.62289549915E+03  0.62289549915E+03  0.00000000000E+00 0.  1.
         23    2    1    2    0    0  0.18573955942E+03  0.51677926781E+02 -0.31314445019E+03  0.37846184944E+03  0.89465818872E+02 0.  0.
          5    1    1    2  502    0 -0.84982347184E+02 -0.75914370977E+02 -0.17148814105E+03  0.20593845191E+03  0.41800000000E+01 0.  1.
         -5    1    1    2    0  502 -0.10075721224E+03  0.24236444196E+02 -0.57950763861E+02  0.11880734185E+03  0.41800000000E+01 0.  1.
        -11    1    3    3    0    0  0.13427783139E+03  0.73347309593E+02 -0.19564273045E+03  0.24836755385E+03  0.00000000000E+00 0. -1.
         11    1    3    3    0    0  0.51461728037E+02 -0.21669382813E+02 -0.11750171974E+03  0.13009429559E+03  0.00000000000E+00 0.  1.
</event>
<event>
 7    1  0.6610867E-006  0.1375345E+03  0.7561462E-02  0.1216685E+00
         -2   -1    0    0    0  501 -0.00000000000E+00  0.00000000000E+00  0.99657720437E+02  0.99657720437E+02  0.00000000000E+00 0.  1.
          2   -1    0    0  501    0  0.00000000000E+00 -0.00000000000E+00 -0.23993609955E+03  0.23993609955E+03  0.00000000000E+00 0. -1.
         23    2    1    2    0    0 -0.87609862431E+02 -0.54316280827E+02 -0.21648735016E+02  0.13872654629E+03  0.90280898090E+02 0.  0.
          5    1    1    2  502    0  0.57901026087E+02 -0.19363792928E+02 -0.10297667909E+03  0.11978795488E+03  0.41800000000E+01 0.  1.
         -5    1    1    2    0  502  0.29708836344E+02  0.73680073755E+02 -0.15652965003E+02  0.81079318811E+02  0.41800000000E+01 0.  1.
        -11    1    3    3    0    0 -0.75215919700E+01 -0.53704214235E+02  0.46532924315E+01  0.54427659354E+02  0.00000000000E+00 0.  1.
         11    1    3    3    0    0 -0.80088270461E+02 -0.61206659231E+00 -0.26302027448E+02  0.84298886937E+02  0.00000000000E+00 0. -1.
</event>
<event>
 7    1  0.6610867E-006  0.1173010E+03  0.7561462E-02  0.1247617E+00
          1   -1    0    0  501    0  0.00000000000E+00  0.00000000000E+00  0.69244417785E+03  0.69244417785E+03  0.00000000000E+00 0. -1.
         -1   -1    0    0    0  501 -0.00000000000E+00 -0.00000000000E+00 -0.29283080020E+02  0.29283080020E+02  0.00000000000E+00 0.  1.
         23    2    1    2    0    0 -0.18206244452E+02  0.80380203581E+02  0.20022440645E+03  0.23497963101E+03  0.91286196027E+02 0.  0.
          5    1    1    2  502    0  0.57142032233E+02  0.21319100544E+01  0.14409593464E+03  0.15508342164E+03  0.41800000000E+01 0.  1.
         -5    1    1    2    0  502 -0.38935787781E+02 -0.82512113636E+02  0.31884075674E+03  0.33166420522E+03  0.41800000000E+01 0.  1.
        -11    1    3    3    0    0  0.60935876919E+01  0.16322724281E+02 -0.54009732634E+01  0.18240988216E+02  0.00000000000E+00 0.  1.
         11    1    3    3    0    0 -0.24299832144E+02  0.64057479301E+02  0.20562537971E+03  0.21673864279E+03  0.00000000000E+00 0. -1.
</event>
<event>
 7    1  0.6610867E-006  0.1694839E+03  0.7561462E-02  0.1178387E+00
          1   -1    0    0  501    0  0.00000000000E+00  0.00000000000E+00  0.12067853125E+04  0.12067853125E+04  0.00000000000E+00 0.  1.
         -1   -1    0    0    0  501 -0.00000000000E+00 -0.00000000000E+00 -0.26276152233E+02  0.26276152233E+02  0.00000000000E+00 0. -1.
         23    2    1    2    0    0  0.85339763667E+02  0.98472847594E+02  0.38765943789E+03  0.41989541163E+03  0.95144836713E+02 0.  0.
          5    1    1    2  502    0  0.32764109866E+02 -0.21972975071E+02  0.15950796983E+03  0.16436716024E+03  0.41800000000E+01 0. -1.
         -5    1    1    2    0  502 -0.11810387353E+03 -0.76499872524E+02  0.63334175256E+03  0.64879889286E+03  0.41800000000E+01 0. -1.
        -11    1    3    3    0    0  0.10067112547E+03  0.10142741300E+03  0.32003525974E+03  0.35049217265E+03  0.00000000000E+00 0.  1.
         11    1    3    3    0    0 -0.15331361807E+02 -0.29545654053E+01  0.67624178143E+02  0.69403238981E+02  0.00000000000E+00 0. -1.
</event>
<event>
 7    1  0.6610867E-006  0.1857875E+03  0.7561462E-02  0.1162317E+00
         -2   -1    0    0    0  501 -0.00000000000E+00  0.00000000000E+00  0.22053505453E+02  0.22053505453E+02  0.00000000000E+00 0.  1.
          2   -1    0    0  501    0  0.00000000000E+00 -0.00000000000E+00 -0.27631156469E+04  0.27631156469E+04  0.00000000000E+00 0. -1.
         23    2    1    2    0    0 -0.11283268588E+03  0.11823881316E+03 -0.48703149000E+03  0.52176211558E+03  0.91238155713E+02 0.  0.
          5    1    1    2  502    0  0.91596856231E+02 -0.33491985463E+02 -0.68268115294E+03  0.68962506201E+03  0.41800000000E+01 0. -1.
         -5    1    1    2    0  502  0.21235829649E+02 -0.84746827700E+02 -0.15713494985E+04  0.15737819747E+04  0.41800000000E+01 0. -1.
        -11    1    3    3    0    0 -0.12568810988E+03  0.87426636000E+02 -0.38150852677E+03  0.41108353610E+03  0.00000000000E+00 0.  1.
         11    1    3    3    0    0  0.12855424001E+02  0.30812177163E+02 -0.10552296323E+03  0.11067857949E+03  0.00000000000E+00 0. -1.
</event>
<event>
 7    1  0.6610867E-006  0.1145410E+03  0.7561462E-02  0.1252384E+00
         -2   -1    0    0    0  501 -0.00000000000E+00  0.00000000000E+00  0.15104465218E+02  0.15104465218E+02  0.00000000000E+00 0.  1.
          2   -1    0    0  501    0  0.00000000000E+00 -0.00000000000E+00 -0.99229490297E+03  0.99229490297E+03  0.00000000000E+00 0. -1.
         23    2    1    2    0    0 -0.44983061875E+02 -0.23005520469E+02 -0.29473109188E+03  0.31173195064E+03  0.88077594785E+02 0.  0.
          5    1    1    2  502    0  0.78491554967E+02 -0.14367646543E+02 -0.32509906942E+03  0.33477489572E+03  0.41800000000E+01 0. -1.
         -5    1    1    2    0  502 -0.33508493092E+02  0.37373167013E+02 -0.35736027646E+03  0.36089252183E+03  0.41800000000E+01 0. -1.
        -11    1    3    3    0    0 -0.61633117662E+02 -0.41207191847E+02 -0.24859475142E+03  0.25941477268E+03  0.00000000000E+00 0. -1.
         11    1    3    3    0    0  0.16650055787E+02  0.18201671377E+02 -0.46136340457E+02  0.52317177957E+02  0.00000000000E+00 0.  1.
</event>
<event>
 7    1  0.6610867E-006  0.7628892E+02  0.7561462E-02  0.1339925E+00
         -1   -1    0    0    0  501 -0.00000000000E+00  0.00000000000E+00  0.53838572291E+03  0.53838572291E+03  0.00000000000E+00 0.  1.
          1   -1    0    0  501    0  0.00000000000E+00 -0.00000000000E+00 -0.22942210707E+02  0.22942210707E+02  0.00000000000E+00 0. -1.
         23    2    1    2    0    0 -0.94568970298E+01 -0.22952024713E+02  0.24357155785E+03  0.26103061031E+03  0.90518768161E+02 0.  0.
          5    1    1    2  502    0 -0.25983035356E+02  0.21528289056E+02  0.26065503379E+03  0.26286328081E+03  0.41800000000E+01 0.  1.
         -5    1    1    2    0  502  0.35439932385E+02  0.14237356572E+01  0.11216920566E+02  0.37434042497E+02  0.41800000000E+01 0.  1.
        -11    1    3    3    0    0  0.30767715666E+02 -0.28886651839E+02  0.18484758000E+03  0.18960411076E+03  0.00000000000E+00 0.  1.
         11    1    3    3    0    0 -0.40224612696E+02  0.59346271261E+01  0.58723977842E+02  0.71426499559E+02  0.00000000000E+00 0. -1.
</event>
<event>
 7    1  0.6610867E-006  0.4338248E+02  0.7561462E-02  0.1484700E+00
          1   -1    0    0  501    0  0.00000000000E+00  0.00000000000E+00  0.13415093491E+03  0.13415093491E+03  0.00000000000E+00 0.  1.
         -1   -1    0    0    0  501 -0.00000000000E+00 -0.00000000000E+00 -0.93904268701E+02  0.93904268701E+02  0.00000000000E+00 0. -1.
         23    2    1    2    0    0 -0.23247517668E+02  0.72113890517E+01  0.22824857902E+02  0.99433766016E+02  0.93667755797E+02 0.  0.
          5    1    1    2  502    0  0.16769363914E+02  0.51532489140E+01 -0.53375640612E+02  0.56340029741E+02  0.41800000000E+01 0. -1.
         -5    1    1    2    0  502  0.64781537545E+01 -0.12364637966E+02  0.70797448923E+02  0.72281407860E+02  0.41800000000E+01 0. -1.
        -11    1    3    3    0    0 -0.32830585128E+02  0.19799230287E+02  0.52970435368E+02  0.65389019436E+02  0.00000000000E+00 0.  1.
         11    1    3    3    0    0  0.95830674598E+01 -0.12587841235E+02 -0.30145577466E+02  0.34044746579E+02  0.00000000000E+00 0. -1.
</event>
<event>
 7    1  0.6610867E-006  0.9994614E+02  0.7561462E-02  0.1280409E+00
          2   -1    0    0  501    0  0.00000000000E+00  0.00000000000E+00  0.22687067855E+03  0.22687067855E+03  0.00000000000E+00 0. -1.
         -2   -1    0    0    0  501 -0.00000000000E+00 -0.00000000000E+00 -0.69414497082E+02  0.69414497082E+02  0.00000000000E+00 0.  1.
         23    2    1    2    0    0 -0.63732667995E+02  0.49603487473E+01  0.64493064764E+02  0.12782912732E+03  0.89969285639E+02 0.  0.
          5    1    1    2  502    0 -0.15092476174E+02  0.16280210062E+01  0.87666064004E+02  0.89068762580E+02  0.41800000000E+01 0.  1.
         -5    1    1    2    0  502  0.78825144169E+02 -0.65883697535E+01  0.52970526999E+01  0.79387285736E+02  0.41800000000E+01 0.  1.
        -11    1    3    3    0    0 -0.49078783618E+02 -0.36369727780E+02  0.17475692195E+02  0.63536477065E+02  0.00000000000E+00 0.  1.
         11    1    3    3    0    0 -0.14653884377E+02  0.41330076527E+02  0.47017372570E+02  0.64292650252E+02  0.00000000000E+00 0. -1.
</event>
<event>
 7    1  0.6610867E-006  0.1013039E+03  0.7561462E-02  0.1277578E+00
          2   -1    0    0  501    0  0.00000000000E+00  0.00000000000E+00  0.10655669840E+04  0.10655669840E+04  0.00000000000E+00 0. -1.
         -2   -1    0    0    0  501 -0.00000000000E+00 -0.00000000000E+00 -0.27179041238E+02  0.27179041238E+02  0.00000000000E+00 0.  1.
         23    2    1    2    0    0  0.55737068163E+02 -0.10669797866E+02  0.10798554855E+03  0.15225857159E+03  0.91111626993E+02 0.  0.
          5    1    1    2  502    0  0.11466289243E+02  0.33038910890E+02  0.65975287890E+03  0.66069234825E+03  0.41800000000E+01 0.  1.
         -5    1    1    2    0  502 -0.67203357406E+02 -0.22369113024E+02  0.27064951528E+03  0.27979510536E+03  0.41800000000E+01 0.  1.
        -11    1    3    3    0    0  0.47901658383E+02  0.29001842030E+02  0.94103549706E+02  0.10950412679E+03  0.00000000000E+00 0. -1.
         11    1    3    3    0    0  0.78354097806E+01 -0.39671639896E+02  0.13881998849E+02  0.42754444804E+02  0.00000000000E+00 0.  1.
</event>
<event>
 7    1  0.6610867E-006  0.1100973E+03  0.7561462E-02  0.1260390E+00
          2   -1    0    0  501    0  0.00000000000E+00  0.00000000000E+00  0.52512285598E+03  0.52512285598E+03  0.00000000000E+00 0.  1.
         -2   -1    0    0    0  501 -0.00000000000E+00 -0.00000000000E+00 -0.43820886161E+02  0.43820886161E+02  0.00000000000E+00 0. -1.
         23    2    1    2    0    0 -0.86076371345E+02  0.62207575125E+02  0.25628749301E+03  0.29045103165E+03  0.86020919584E+02 0.  0.
          5    1    1    2  502    0  0.28119946321E+02 -0.45345479681E+00 -0.88116421980E+01  0.29766666601E+02  0.41800000000E+01 0.  1.
         -5    1    1    2    0  502  0.57956425024E+02 -0.61754120329E+02  0.23382611901E+03  0.24872604389E+03  0.41800000000E+01 0.  1.
        -11    1    3    3    0    0 -0.28057329561E+02  0.13137011162E+02  0.18046513665E+03  0.18310505277E+03  0.00000000000E+00 0.  1.
         11    1    3    3    0    0 -0.58019041784E+02  0.49070563964E+02  0.75822356358E+02  0.10734597888E+03  0.00000000000E+00 0. -1.
</event>
<event>
 7    1  0.6610867E-006  0.1132405E+03  0.7561462E-02  0.1254684E+00
         -1   -1    0    0    0  501 -0.00000000000E+00  0.00000000000E+00  0.10712271096E+03  0.10712271096E+03  0.00000000000E+00 0.  1.
          1   -1    0    0  501    0  0.00000000000E+00 -0.00000000000E+00 -0.21205723739E+03  0.21205723739E+03  0.00000000000E+00 0. -1.
         23    2    1    2    0    0 -0.82197998891E+02  0.64244873801E+02 -0.43373430831E+02  0.14504818165E+03  0.90960462105E+02 0.  0.
          5    1    1    2  502    0  0.83416291473E+02 -0.42970412477E+02 -0.95429749610E+02  0.13389937842E+03  0.41800000000E+01 0.  1.
         -5    1    1    2    0  502 -0.12182925816E+01 -0.21274461323E+02  0.33868654013E+02  0.40232388272E+02  0.41800000000E+01 0.  1.
        -11    1    3    3    0    0 -0.32986940390E+02  0.49467024069E+02  0.20663770240E+02  0.62945342219E+02  0.00000000000E+00 0.  1.
         11    1    3    3    0    0 -0.49211058501E+02  0.14777849732E+02 -0.64037201072E+02  0.82102839431E+02  0.00000000000E+00 0. -1.
</event>
<event>
 7    1  0.6610867E-006  0.8013990E+02  0.7561462E-02  0.1328655E+00
         -1   -1    0    0    0  501 -0.00000000000E+00  0.00000000000E+00  0.62482007280E+01  0.62482007280E+01  0.00000000000E+00 0.  1.
          1   -1    0    0  501    0  0.00000000000E+00 -0.00000000000E+00 -0.32222726517E+04  0.32222726517E+04  0.00000000000E+00 0. -1.
         23    2    1    2    0    0  0.12764447883E+02  0.71635105146E+01 -0.43677315038E+03  0.44641754020E+03  0.91124026952E+02 0.  0.
          5    1    1    2  502    0 -0.20921171037E+02  0.26151213920E+02 -0.25535055780E+04  0.25537286055E+04  0.41800000000E+01 0.  1.
         -5    1    1    2    0  502  0.81567231533E+01 -0.33314724435E+02 -0.22574572261E+03  0.22837470673E+03  0.41800000000E+01 0.  1.
        -11    1    3    3    0    0  0.18836737102E+02 -0.40111367616E+02 -0.19208382063E+03  0.19712924345E+03  0.00000000000E+00 0. -1.
         11    1    3    3    0    0 -0.60722892188E+01  0.47274878131E+02 -0.24468932975E+03  0.24928829674E+03  0.00000000000E+00 0.  1.
</event>
<event>
 7    1  0.6610867E-006  0.1681955E+03  0.7561462E-02  0.1179743E+00
          2   -1    0    0  501    0  0.00000000000E+00  0.00000000000E+00  0.15480322773E+04  0.15480322773E+04  0.00000000000E+00 0. -1.
         -2   -1    0    0    0  501 -0.00000000000E+00 -0.00000000000E+00 -0.50340477661E+02  0.50340477661E+02  0.00000000000E+00 0.  1.
         23    2    1    2    0    0  0.14730519735E+01  0.12979453826E+03  0.94802952874E+02  0.18394951709E+03  0.89448493116E+02 0.  0.
          5    1    1    2  502    0 -0.62444870361E+02 -0.74840341749E+02  0.81445436791E+03  0.82027667795E+03  0.41800000000E+01 0.  1.
         -5    1    1    2    0  502  0.60971818387E+02 -0.54954196512E+02  0.58843447889E+03  0.59414655995E+03  0.41800000000E+01 0.  1.
        -11    1    3    3    0    0 -0.89313861196E+01  0.14103972978E+03  0.78847873706E+02  0.16183004116E+03  0.00000000000E+00 0.  1.
         11    1    3    3    0    0  0.10404438093E+02 -0.11245191518E+02  0.15955079168E+02  0.22119475933E+02  0.00000000000E+00 0. -1.
</event>
<event>
 7    1  0.6610867E-006  0.2072104E+03  0.7561462E-02  0.1143794E+00
         -2   -1    0    0    0  501 -0.00000000000E+00  0.00000000000E+00  0.16844780174E+03  0.16844780174E+03  0.00000000000E+00 0.  1.
          2   -1    0    0  501    0  0.00000000000E+00 -0.00000000000E+00 -0.29057374667E+03  0.29057374667E+03  0.00000000000E+00 0. -1.
         23    2    1    2    0    0  0.13944278782E+03 -0.12963323662E+03 -0.87374177520E+02  0.22857502890E+03  0.91450696165E+02 0.  0.
          5    1    1    2  502    0 -0.92284176347E+02  0.19648026640E+02 -0.54567934196E+02  0.10907587266E+03  0.41800000000E+01 0. -1.
         -5    1    1    2    0  502 -0.47158611472E+02  0.10998520998E+03  0.19816166791E+02  0.12137064685E+03  0.41800000000E+01 0. -1.
        -11    1    3    3    0    0  0.68925285415E+02 -0.10487380918E+03 -0.18332522629E+02  0.12682780534E+03  0.00000000000E+00 0.  1.
         11    1    3    3    0    0  0.70517502403E+02 -0.24759427439E+02 -0.69041654892E+02  0.10174722356E+03  0.00000000000E+00 0. -1.
</event>
<event>
 6    1  0.2031020E-005  0.1320427E+03  0.7561462E-02  0.1224456E+00
         -1   -1    0    0    0  501 -0.00000000000E+00  0.00000000000E+00  0.29401683671E+02  0.29401683671E+02  0.00000000000E+00 0.  1.
          1   -1    0    0  501    0  0.00000000000E+00 -0.00000000000E+00 -0.81269203922E+03  0.81269203922E+03  0.00000000000E+00 0. -1.
          5    1    1    2  502    0  0.10334934127E+02  0.70849270108E+02 -0.11291708101E+03  0.13376909031E+03  0.41800000000E+01 0.  1.
         -5    1    1    2    0  502  0.65360756763E+02  0.23705748428E+02 -0.45316500029E+03  0.45848662022E+03  0.41800000000E+01 0.  1.
        -11    1    1    2    0    0 -0.24768189224E+02 -0.17417652676E+02 -0.66026078024E+02  0.72638012097E+02  0.00000000000E+00 0.  1.
         11    1    1    2    0    0 -0.50927501665E+02 -0.77137365861E+02 -0.15118219622E+03  0.17720000026E+03  0.00000000000E+00 0. -1.
</event>
<event>
 7    1  0.7462879E-006  0.1040033E+03  0.7561462E-02  0.1272096E+00
         -1   -1    0    0    0  501 -0.00000000000E+00  0.00000000000E+00  0.88658324407E+02  0.88658324407E+02  0.00000000000E+00 0.  1.
          1   -1    0    0  501    0  0.00000000000E+00 -0.00000000000E+00 -0.22285749625E+03  0.22285749625E+03  0.00000000000E+00 0. -1.
         23    2    1    2    0    0  0.86783156943E+02 -0.19406215386E+02 -0.49668293280E+02  0.13629814990E+03  0.90566709026E+02 0.  0.
          5    1    1    2  502    0 -0.45150545670E+01 -0.11844796239E+01  0.31119853980E+02  0.31744391968E+02  0.41800000000E+01 0. -1.
         -5    1    1    2    0  502 -0.82268102376E+02  0.20590695010E+02 -0.11565073254E+03  0.14347327879E+03  0.41800000000E+01 0. -1.
        -11    1    3    3    0    0  0.45294233875E+02  0.28455623034E+02  0.34926168825E+01  0.53604929599E+02  0.00000000000E+00 0.  1.
         11    1    3    3    0    0  0.41488923067E+02 -0.47861838420E+02 -0.53160910162E+02  0.82693220299E+02  0.00000000000E+00 0. -1.
</event>
<event>
 7    1  0.6610867E-006  0.7298698E+02  0.7561462E-02  0.1350220E+00
         -2   -1    0    0    0  501 -0.00000000000E+00  0.00000000000E+00  0.11619277908E+02  0.11619277908E+02  0.00000000000E+00 0.  1.
          2   -1    0    0  501    0  0.00000000000E+00 -0.00000000000E+00 -0.12812674033E+04  0.12812674033E+04  0.00000000000E+00 0. -1.
         23    2    1    2    0    0 -0.38923909931E+02 -0.51589037628E+01 -0.48382580028E+03  0.49620250797E+03  0.10289722466E+03 0.  0.
          5    1    1    2  502    0  0.23418490009E+02  0.18480969301E+01 -0.77826327635E+03  0.77862894941E+03  0.41800000000E+01 0. -1.
         -5    1    1    2    0  502  0.15505419922E+02  0.33108068327E+01 -0.75590487235E+01  0.18055223799E+02  0.41800000000E+01 0. -1.
        -11    1    3    3    0    0  0.33326920882E+02 -0.24076368147E+01 -0.94838712632E+02  0.10055278109E+03  0.00000000000E+00 0.  1.
         11    1    3    3    0    0 -0.72250830813E+02 -0.27512669482E+01 -0.38898708765E+03  0.39564972688E+03  0.00000000000E+00 0. -1.
</event>
<event>
 7    1  0.6610867E-006  0.1234197E+03  0.7561462E-02  0.1237560E+00
          3   -1    0    0  501    0  0.00000000000E+00  0.00000000000E+00  0.10362246218E+03  0.10362246218E+03  0.00000000000E+00 0. -1.
         -3   -1    0    0    0  501 -0.00000000000E+00 -0.00000000000E+00 -0.25058479857E+03  0.25058479857E+03  0.00000000000E+00 0.  1.
         23    2    1    2    0    0  0.29356412556E+02 -0.55669057771E+02 -0.17947198979E+03  0.21044783483E+03  0.90095799637E+02 0.  0.
          5    1    1    2  502    0  0.21341781873E+02 -0.31929766182E+02  0.64997495941E+01  0.39175257073E+02  0.41800000000E+01 0. -1.
         -5    1    1    2    0  502 -0.50698194429E+02  0.87598823953E+02  0.26009903811E+02  0.10458416884E+03  0.41800000000E+01 0. -1.
        -11    1    3    3    0    0  0.71992057530E+01 -0.76297007351E+02 -0.14866948699E+03  0.16725931441E+03  0.00000000000E+00 0.  1.
         11    1    3    3    0    0  0.22157206803E+02  0.20627949580E+02 -0.30802502802E+02  0.43188520420E+02  0.00000000000E+00 0. -1.
</event>
<event>
 7    1  0.6610867E-006  0.1009631E+03  0.7561462E-02  0.1278284E+00
          1   -1    0    0  501    0  0.00000000000E+00  0.00000000000E+00  0.68516682333E+03  0.68516682333E+03  0.00000000000E+00 0. -1.
         -1   -1    0    0    0  501 -0.00000000000E+00 -0.00000000000E+00 -0.41161959247E+02  0.41161959247E+02  0.00000000000E+00 0.  1.
         23    2    1    2    0    0 -0.46703750760E+02 -0.53342226173E+01  0.45324039783E+02  0.11291453926E+03  0.92118023899E+02 0.  0.
          5    1    1    2  502    0 -0.23091521569E+02  0.15339858573E+02  0.42495181056E+03  0.42587561955E+03  0.41800000000E+01 0. -1.
         -5    1    1    2    0  502  0.69795272330E+02 -0.10005635956E+02  0.17372901374E+03  0.18753862377E+03  0.41800000000E+01 0. -1.
        -11    1    3    3    0    0 -0.37411803320E+02 -0.47282216171E+02  0.29556203943E+02  0.67147748922E+02  0.00000000000E+00 0.  1.
         11    1    3    3    0    0 -0.92919474407E+01  0.41947993554E+02  0.15767835839E+02  0.45766790334E+02  0.00000000000E+00 0. -1.
</event>
<event>
 7    1  0.6610867E-006  0.7894231E+02  0.7561462E-02  0.1332080E+00
         -2   -1    0    0    0  501 -0.00000000000E+00  0.00000000000E+00  0.10926535499E+03  0.10926535499E+03  0.00000000000E+00 0.  1.
          2   -1    0    0  501    0  0.00000000000E+00 -0.00000000000E+00 -0.89630252498E+02  0.89630252498E+02  0.00000000000E+00 0. -1.
         23    2    1    2    0    0  0.28474449761E+02 -0.47352277328E+01  0.26667758435E+02  0.70324619851E+02  0.58319517714E+02 0.  0.
          5    1    1    2  502    0  0.31671242083E+02  0.73978435011E+01  0.40241488598E+02  0.51909974650E+02  0.41800000000E+01 0.  1.
         -5    1    1    2    0  502 -0.60145691844E+02 -0.26626157684E+01 -0.47274144541E+02  0.76661012987E+02  0.41800000000E+01 0.  1.
        -11    1    3    3    0    0  0.93234096231E+00  0.24535071656E+02  0.67212117216E+01  0.25456112976E+02  0.00000000000E+00 0. -1.
         11    1    3    3    0    0  0.27542108798E+02 -0.29270299389E+02  0.19946546713E+02  0.44868506875E+02  0.00000000000E+00 0.  1.
</event>
<event>
 7    1  0.6610867E-006  0.9479179E+02  0.7561462E-02  0.1291646E+00
          2   -1    0    0  501    0  0.00000000000E+00  0.00000000000E+00  0.79116459529E+03  0.79116459529E+03  0.00000000000E+00 0. -1.
         -2   -1    0    0    0  501 -0.00000000000E+00 -0.00000000000E+00 -0.21779065235E+02  0.21779065235E+02  0.00000000000E+00 0.  1.
         23    2    1    2    0    0  0.27459216087E+02  0.31853195123E+01  0.11921329789E+03  0.15238628936E+03  0.90805374194E+02 0.  0.
          5    1    1    2  502    0  0.15270082723E+02 -0.37932133531E+02  0.47751970438E+03  0.47928547094E+03  0.41800000000E+01 0. -1.
         -5    1    1    2    0  502 -0.42729298810E+02  0.34746814019E+02  0.17265252779E+03  0.18127190023E+03  0.41800000000E+01 0.  1.
        -11    1    3    3    0    0 -0.29522760892E+02 -0.15417553559E+02  0.56840865127E+02  0.65880029727E+02  0.00000000000E+00 0.  1.
         11    1    3    3    0    0  0.56981976979E+02  0.18602873071E+02  0.62372432762E+02  0.86506259633E+02  0.00000000000E+00 0. -1.
</event>
<event>
 7    1  0.6610867E-006  0.1772464E+03  0.7561462E-02  0.1170495E+00
         -1   -1    0    0    0  501 -0.00000000000E+00  0.00000000000E+00  0.16449374017E+02  0.16449374017E+02  0.00000000000E+00 0.  1.
          1   -1    0    0  501    0  0.00000000000E+00 -0.00000000000E+00 -0.21636968806E+04  0.21636968806E+04  0.00000000000E+00 0. -1.
         23    2    1    2    0    0 -0.46176500147E+02  0.14349186568E+03 -0.82916291446E+03  0.84758646425E+03  0.90385236451E+02 0.  0.
          5    1    1    2  502    0  0.64645872185E+02 -0.39566757888E+02 -0.81363481321E+03  0.81716809702E+03  0.41800000000E+01 0. -1.
         -5    1    1    2    0  502 -0.18469372038E+02 -0.10392510779E+03 -0.50444977886E+03  0.51539169330E+03  0.41800000000E+01 0. -1.
        -11    1    3    3    0    0  0.22843403439E+02  0.62459335124E+02 -0.39541721066E+03  0.40097102153E+03  0.00000000000E+00 0.  1.
         11    1    3    3    0    0 -0.69019903586E+02  0.81032530558E+02 -0.43374570381E+03  0.44661544272E+03  0.00000000000E+00 0. -1.
</event>
<event>
 7    1  0.6610867E-006  0.1091996E+03  0.7561462E-02  0.1262059E+00
          1   -1    0    0  501    0  0.00000000000E+00  0.00000000000E+00  0.81660474989E+02  0.81660474989E+02  0.00000000000E+00 0. -1.
         -1   -1    0    0    0  501 -0.00000000000E+00 -0.00000000000E+00 -0.21810473594E+03  0.21810473594E+03  0.00000000000E+00 0.  1.
         23    2    1    2    0    0  0.33077929276E+02  0.63600859654E+02 -0.92714713848E+02  0.14911036111E+03  0.92188192701E+02 0.  0.
          5    1    1    2  502    0 -0.53867601964E+02  0.17473882559E+02 -0.14784645099E+01  0.56804166839E+02  0.41800000000E+01 0. -1.
         -5    1    1    2    0  502  0.20789672687E+02 -0.81074742213E+02 -0.42251082597E+02  0.93850682981E+02  0.41800000000E+01 0. -1.
        -11    1    3    3    0    0  0.32207941875E+02  0.29425713317E+02 -0.10426636159E+03  0.11302521083E+03  0.00000000000E+00 0.  1.
         11    1    3    3    0    0  0.86998740112E+00  0.34175146338E+02  0.11551647743E+02  0.36085150282E+02  0.00000000000E+00 0. -1.
</event>
<event>
 7    1  0.6610867E-006  0.1006370E+03  0.7561462E-02  0.1278962E+00
         -2   -1    0    0    0  501 -0.00000000000E+00  0.00000000000E+00  0.22484974866E+02  0.22484974866E+02  0.00000000000E+00 0.  1.
          2   -1    0    0  501    0  0.00000000000E+00 -0.00000000000E+00 -0.73933960474E+03  0.73933960474E+03  0.00000000000E+00 0. -1.
         23    2    1    2    0    0 -0.42027104928E+01  0.56725176806E+02 -0.19486221327E+03  0.22204803825E+03  0.89992447851E+02 0.  0.
          5    1    1    2  502    0 -0.53752813256E+02 -0.53714799154E+02 -0.23752866439E+03  0.24942330162E+03  0.41800000000E+01 0.  1.
         -5    1    1    2    0  502  0.57955523749E+02 -0.30103776517E+01 -0.28446375221E+03  0.29035323974E+03  0.41800000000E+01 0.  1.
        -11    1    3    3    0    0  0.11675907443E+02  0.46942454823E+01  0.60058424382E+01  0.13943919773E+02  0.00000000000E+00 0.  1.
         11    1    3    3    0    0 -0.15878617935E+02  0.52030931323E+02 -0.20086805571E+03  0.20810411848E+03  0.00000000000E+00 0. -1.
</event>
<event>
 7    1  0.6610867E-006  0.1058848E+03  0.7561462E-02  0.1268386E+00
         -2   -1    0    0    0  501 -0.00000000000E+00  0.00000000000E+00  0.19430755883E+02  0.19430755883E+02  0.00000000000E+00 0.  1.
          2   -1    0    0  501    0  0.00000000000E+00 -0.00000000000E+00 -0.11206042546E+04  0.11206042546E+04  0.00000000000E+00 0. -1.
         23    2    1    2    0    0 -0.26086062693E+02  0.47297180001E+02 -0.18564655269E+03  0.21442474925E+03  0.92713670319E+02 0.  0.
          5    1    1    2  502    0  0.26252547917E+02 -0.76096848056E+02 -0.34299961557E+03  0.35234377423E+03  0.41800000000E+01 0. -1.
         -5    1    1    2    0  502 -0.16648522462E+00  0.28799668055E+02 -0.57252733042E+03  0.57326648696E+03  0.41800000000E+01 0. -1.
        -11    1    3    3    0    0 -0.29467238313E+02 -0.19399044830E+02 -0.35268965752E+02  0.49885278583E+02  0.00000000000E+00 0.  1.
         11    1    3    3    0    0  0.33811756204E+01  0.66696224831E+02 -0.15037758694E+03  0.16453947067E+03  0.00000000000E+00 0. -1.
</event>
<event>
 7    1  0.6610867E-006  0.1272596E+03  0.7561462E-02  0.1231580E+00
          1   -1    0    0  501    0  0.00000000000E+00  0.00000000000E+00  0.95307473505E+02  0.95307473505E+02  0.00000000000E+00 0. -1.
         -1   -1    0    0    0  501 -0.00000000000E+00 -0.00000000000E+00 -0.22490658751E+03  0.22490658751E+03  0.00000000000E+00 0.  1.
         23    2    1    2    0    0 -0.85194268298E+02 -0.56616442541E+02 -0.94360339860E+02  0.16057079082E+03  0.80097566817E+02 0.  0.
          5    1    1    2  502    0 -0.24474141566E+02  0.29034342247E+02  0.70328637470E+01  0.38844693429E+02  0.41800000000E+01 0. -1.
         -5    1    1    2    0  502  0.10966840986E+03  0.27582100294E+02 -0.42271637896E+02  0.12079857677E+03  0.41800000000E+01 0.  1.
        -11    1    3    3    0    0 -0.40408469310E+02 -0.18928493531E+02  0.53578848824E+01  0.44942621083E+02  0.00000000000E+00 0. -1.
         11    1    3    3    0    0 -0.44785798988E+02 -0.37687949010E+02 -0.99718224743E+02  0.11562816974E+03  0.00000000000E+00 0.  1.
</event>
<event>
 7    1  0.6610867E-006  0.1938593E+03  0.7561462E-02  0.1155026E+00
         -2   -1    0    0    0  501 -0.00000000000E+00  0.00000000000E+00  0.95177862281E+02  0.95177862281E+02  0.00000000000E+00 0.  1.
          2   -1    0    0  501    0  0.00000000000E+00 -0.00000000000E+00 -0.42203423395E+03  0.42203423395E+03  0.00000000000E+00 0. -1.
         23    2    1    2    0    0 -0.15290702423E+01  0.16624381518E+03 -0.12259754397E+03  0.22565073387E+03  0.90822639044E+02 0.  0.
          5    1    1    2  502    0  0.51929175344E+02 -0.13847548162E+03 -0.16584533086E+03  0.22224815956E+03  0.41800000000E+01 0. -1.
         -5    1    1    2    0  502 -0.50400105101E+02 -0.27768333564E+02 -0.38413496832E+02  0.69313202797E+02  0.41800000000E+01 0. -1.
        -11    1    3    3    0    0  0.35026641599E+02  0.57287854368E+02 -0.76595751902E+02  0.10186104795E+03  0.00000000000E+00 0. -1.
         11    1    3    3    0    0 -0.36555711842E+02  0.10895596082E+03 -0.46001792072E+02  0.12378968592E+03  0.00000000000E+00 0.  1.
</event>
<event>
 7    1  0.6610867E-006  0.2221606E+03  0.7561462E-02  0.1132282E+00
         -2   -1    0    0    0  501 -0.00000000000E+00  0.00000000000E+00  0.17325036412E+02  0.17325036412E+02  0.00000000000E+00 0.  1.
          2   -1    0    0  501    0  0.00000000000E+00 -0.00000000000E+00 -0.30871675240E+04  0.30871675240E+04  0.00000000000E+00 0. -1.
         23    2    1    2    0    0 -0.33043005646E+00  0.16881293187E+03 -0.91361796329E+03  0.93312384532E+03  0.86743372618E+02 0.  0.
          5    1    1    2  502    0 -0.69230434362E+02  0.29011191556E+01 -0.49611128905E+03  0.50094426143E+03  0.41800000000E+01 0. -1.
         -5    1    1    2    0  502  0.69560864418E+02 -0.17171405103E+03 -0.16601132352E+04  0.16704244536E+04  0.41800000000E+01 0.  1.
        -11    1    3    3    0    0  0.42545283469E+02  0.70667556690E+02 -0.41923246253E+03  0.42727024511E+03  0.00000000000E+00 0.  1.
         11    1    3    3    0    0 -0.42875713526E+02  0.98145375184E+02 -0.49438550076E+03  0.50585360021E+03  0.00000000000E+00 0. -1.
</event>
<event>
 7    1  0.6610867E-006  0.1136839E+03  0.7561462E-02  0.1253896E+00
          2   -1    0    0  501    0  0.00000000000E+00  0.00000000000E+00  0.12370624630E+04  0.12370624630E+04  0.00000000000E+00 0.  1.
         -2   -1    0    0    0  501 -0.00000000000E+00 -0.00000000000E+00 -0.14980371228E+02  0.14980371228E+02  0.00000000000E+00 0. -1.
         23    2    1    2    0    0 -0.51229782080E+02 -0.11224747591E+02  0.25484282962E+03  0.27533930096E+03  0.90090939121E+02 0.  0.
          5    1    1    2  502    0 -0.20128021997E+02  0.45512140142E+02  0.23900025982E+03  0.24416201335E+03  0.41800000000E+01 0.  1.
         -5    1    1    2    0  502  0.71357804077E+02 -0.34287392552E+02  0.72823900235E+03  0.73254151994E+03  0.41800000000E+01 0.  1.
        -11    1    3    3    0    0 -0.33821321343E+02  0.35051154817E+02  0.17295705816E+03  0.17968474949E+03  0.00000000000E+00 0. -1.
         11    1    3    3    0    0 -0.17408460737E+02 -0.46275902407E+02  0.81885771462E+02  0.95654551469E+02  0.00000000000E+00 0.  1.
</event>
<event>
 7    1  0.6610867E-006  0.9696648E+02  0.7561462E-02  0.1286807E+00
         -2   -1    0    0    0  501 -0.00000000000E+00  0.00000000000E+00  0.25724568547E+02  0.25724568547E+02  0.00000000000E+00 0.  1.
          2   -1    0    0  501    0  0.00000000000E+00 -0.00000000000E+00 -0.74050091982E+03  0.74050091982E+03  0.00000000000E+00 0. -1.
         23    2    1    2    0    0 -0.45480234931E+02  0.50927941627E+01 -0.14310293691E+03  0.17924562405E+03  0.97755587398E+02 0.  0.
          5    1    1    2  502    0  0.83509811813E+02 -0.20935314913E+01 -0.48543895855E+03  0.49259184567E+03  0.41800000000E+01 0.  1.
         -5    1    1    2    0  502 -0.38029576882E+02 -0.29992626713E+01 -0.86234455816E+02  0.94388018648E+02  0.41800000000E+01 0.  1.
        -11    1    3    3    0    0  0.10966773748E+02 -0.84771724317E+01  0.89412211862E+01  0.16494787515E+02  0.00000000000E+00 0.  1.
         11    1    3    3    0    0 -0.56447008679E+02  0.13569966594E+02 -0.15204415809E+03  0.16275083653E+03  0.00000000000E+00 0. -1.
</event>
<event>
 7    1  0.6610867E-006  0.1088776E+03  0.7561462E-02  0.1262663E+00
         -1   -1    0    0    0  501 -0.00000000000E+00  0.00000000000E+00  0.42697613947E+02  0.42697613947E+02  0.00000000000E+00 0.  1.
          1   -1    0    0  501    0  0.00000000000E+00 -0.00000000000E+00 -0.44831958285E+03  0.44831958285E+03  0.00000000000E+00 0. -1.
         23    2    1    2    0    0 -0.31331744197E+02 -0.15416011662E+01 -0.49098384517E+02  0.11188535779E+03  0.95517680028E+02 0.  0.
          5    1    1    2  502    0  0.35207743212E+02  0.55789915468E+02 -0.25990139565E+03  0.26817588951E+03  0.41800000000E+01 0.  1.
         -5    1    1    2    0  502 -0.38759990148E+01 -0.54248314302E+02 -0.96622188731E+02  0.11095594949E+03  0.41800000000E+01 0.  1.
        -11    1    3    3    0    0 -0.63920947238E+02 -0.60468374463E+01 -0.18162331835E+02  0.66725722451E+02  0.00000000000E+00 0. -1.
         11    1    3    3    0    0  0.32589203041E+02  0.45052362801E+01 -0.30936052682E+02  0.45159635343E+02  0.00000000000E+00 0.  1.
</event>
<event>
 7    1  0.6610867E-006  0.1056405E+03  0.7561462E-02  0.1268863E+00
         -2   -1    0    0    0  501 -0.00000000000E+00  0.00000000000E+00  0.55563635276E+02  0.55563635276E+02  0.00000000000E+00 0.  1.
          2   -1    0    0  501    0  0.00000000000E+00 -0.00000000000E+00 -0.24234227725E+03  0.24234227725E+03  0.00000000000E+00 0. -1.
         23    2    1    2    0    0  0.13231968632E+02 -0.28776345265E+02 -0.45245968147E+02  0.10637646219E+03  0.90915295930E+02 0.  0.
          5    1    1    2  502    0 -0.61475749348E+02  0.35378239545E+02 -0.47236792294E+02  0.85321008769E+02  0.41800000000E+01 0. -1.
         -5    1    1    2    0  502  0.48243780716E+02 -0.66018942803E+01 -0.94295881530E+02  0.10620844156E+03  0.41800000000E+01 0. -1.
        -11    1    3    3    0    0  0.45916993285E+02 -0.35435168492E+02 -0.11895302064E+02  0.59207429007E+02  0.00000000000E+00 0.  1.
         11    1    3    3    0    0 -0.32685024653E+02  0.66588232274E+01 -0.33350666083E+02  0.47169033184E+02  0.00000000000E+00 0. -1.
</event>
<event>
 7    1  0.6610867E-006  0.2146454E+03  0.7561462E-02  0.1137939E+00
         -2   -1    0    0    0  501 -0.00000000000E+00  0.00000000000E+00  0.80240998929E+02  0.80240998929E+02  0.00000000000E+00 0.  1.
          2   -1    0    0  501    0  0.00000000000E+00 -0.00000000000E+00 -0.69156146650E+03  0.69156146650E+03  0.00000000000E+00 0. -1.
         23    2    1    2    0    0  0.13866562479E+03  0.71071319250E+01 -0.17019495117E+03  0.23572491945E+03  0.85564299940E+02 0.  0.
          5    1    1    2  502    0 -0.11810566744E+03 -0.11103448986E+03 -0.38127855937E+03  0.41432887765E+03  0.41800000000E+01 0. -1.
         -5    1    1    2    0  502 -0.20559957343E+02  0.10392735794E+03 -0.59846957030E+02  0.12174866833E+03  0.41800000000E+01 0.  1.
        -11    1    3    3    0    0  0.89258692175E+02 -0.35312892311E+02 -0.11901227655E+03  0.15289877848E+03  0.00000000000E+00 0.  1.
         11    1    3    3    0    0  0.49406932612E+02  0.42420024236E+02 -0.51182674625E+02  0.82826140971E+02  0.00000000000E+00 0. -1.
</event>
<event>
 7    1  0.6610867E-006  0.9666424E+02  0.7561462E-02  0.1287471E+00
          1   -1    0    0  501    0  0.00000000000E+00  0.00000000000E+00  0.11264267262E+03  0.11264267262E+03  0.00000000000E+00 0. -1.
         -1   -1    0    0    0  501 -0.00000000000E+00 -0.00000000000E+00 -0.14959565245E+03  0.14959565245E+03  0.00000000000E+00 0.  1.
         23    2    1    2    0    0  0.19466735463E+02  0.66957054395E+02 -0.31042949079E+02  0.11890676990E+03  0.91175404131E+02 0.  0.
          5    1    1    2  502    0  0.21219673012E+02 -0.62277910417E+02  0.43526247118E+02  0.78998855921E+02  0.41800000000E+01 0. -1.
         -5    1    1    2    0  502 -0.40686408474E+02 -0.46791439780E+01 -0.49436277863E+02  0.64332699242E+02  0.41800000000E+01 0. -1.
        -11    1    3    3    0    0 -0.41704724759E+00  0.66340114304E+02  0.15641585996E+02  0.68160427718E+02  0.00000000000E+00 0. -1.
         11    1    3    3    0    0  0.19883782710E+02  0.61694009107E+00 -0.46684535075E+02  0.50746342184E+02  0.00000000000E+00 0.  1.
</event>
<event>
 7    1  0.6610867E-006  0.8990320E+02  0.7561462E-02  0.1303086E+00
         -1   -1    0    0    0  501 -0.00000000000E+00  0.00000000000E+00  0.10749169529E+03  0.10749169529E+03  0.00000000000E+00 0.  1.
          1   -1    0    0  501    0  0.00000000000E+00 -0.00000000000E+00 -0.15227303679E+03  0.15227303679E+03  0.00000000000E+00 0. -1.
         23    2    1    2    0    0  0.55241517625E+02  0.15003303470E+02 -0.56622960943E+02  0.12168484278E+03  0.91237694352E+02 0.  0.
          5    1    1    2  502    0 -0.46086058146E+02  0.12095939404E+02 -0.50381553673E+02  0.69469488670E+02  0.41800000000E+01 0.  1.
         -5    1    1    2    0  502 -0.91554594788E+01 -0.27099242874E+02  0.62223173122E+02  0.68610400640E+02  0.41800000000E+01 0.  1.
        -11    1    3    3    0    0 -0.22070305333E+02  0.13239123712E+02  0.17249086885E+00  0.25737181804E+02  0.00000000000E+00 0.  1.
         11    1    3    3    0    0  0.77311822958E+02  0.17641797582E+01 -0.56795451812E+02  0.95947660971E+02  0.00000000000E+00 0. -1.
</event>
<event>
 7    1  0.6610867E-006  0.8436523E+02  0.7561462E-02  0.1317101E+00
         -2   -1    0    0    0  501 -0.00000000000E+00  0.00000000000E+00  0.42871235912E+02  0.42871235912E+02  0.00000000000E+00 0.  1.
          2   -1    0    0  501    0  0.00000000000E+00 -0.00000000000E+00 -0.32656100039E+03  0.32656100039E+03  0.00000000000E+00 0. -1.
         23    2    1    2    0    0 -0.26738672515E+02  0.27127537505E+02 -0.85612696699E+02  0.13208809898E+03  0.93096037282E+02 0.  0.
          5    1    1    2  502    0  0.67568496451E+02 -0.47544300509E+02 -0.14726748363E+03  0.16891165252E+03  0.41800000000E+01 0. -1.
         -5    1    1    2    0  502 -0.40829823936E+02  0.20416763003E+02 -0.50809584154E+02  0.68432484802E+02  0.41800000000E+01 0. -1.
        -11    1    3    3    0    0 -0.16426502494E+02  0.76391395243E+01 -0.10264228355E+03  0.10422871394E+03  0.00000000000E+00 0. -1.
         11    1    3    3    0    0 -0.10312170020E+02  0.19488397981E+02  0.17029586855E+02  0.27859385040E+02  0.00000000000E+00 0.  1.
</event>
<event>
 7    1  0.6610867E-006  0.3444751E+03  0.7561462E-02  0.1064906E+00
         -2   -1    0    0    0  501 -0.00000000000E+00  0.00000000000E+00  0.50386698870E+02  0.50386698870E+02  0.00000000000E+00 0.  1.
          2   -1    0    0  501    0  0.00000000000E+00 -0.00000000000E+00 -0.27981368432E+04  0.27981368432E+04  0.00000000000E+00 0. -1.
         23    2    1    2    0    0  0.98101514788E+02  0.32711609252E+03 -0.93474098346E+03  0.99939459134E+03  0.91760546269E+02 0.  0.
          5    1    1    2  502    0 -0.37219812990E+02 -0.43845353539E+02 -0.56433383224E+03  0.56727231214E+03  0.41800000000E+01 0.  1.
         -5    1    1    2    0  502 -0.60881701799E+02 -0.28327073898E+03 -0.12486753287E+04  0.12818566386E+04  0.41800000000E+01 0.  1.
        -11    1    3    3    0    0  0.59179779812E+02  0.19371586199E+03 -0.67605735431E+03  0.70574898359E+03  0.00000000000E+00 0. -1.
         11    1    3    3    0    0  0.38921734976E+02  0.13340023053E+03 -0.25868362915E+03  0.29364560774E+03  0.00000000000E+00 0.  1.
</event>
<event>
 7    1  0.6610867E-006  0.9481609E+02  0.7561462E-02  0.1291591E+00
         -1   -1    0    0    0  501 -0.00000000000E+00  0.00000000000E+00  0.20242048698E+02  0.20242048698E+02  0.00000000000E+00 0.  1.
          1   -1    0    0  501    0  0.00000000000E+00 -0.00000000000E+00 -0.16840344928E+04  0.16840344928E+04  0.00000000000E+00 0. -1.
         23    2    1    2    0    0 -0.42135976420E+02 -0.14878699290E+02 -0.13339105779E+03  0.16812141215E+03  0.92058778623E+02 0.  0.
          5    1    1    2  502    0  0.40887357397E+02 -0.47704562883E+02 -0.51824072711E+03  0.52205212857E+03  0.41800000000E+01 0.  1.
         -5    1    1    2    0  502  0.12486190237E+01  0.62583262173E+02 -0.10121606592E+04  0.10141030007E+04  0.41800000000E+01 0.  1.
        -11    1    3    3    0    0 -0.52154589950E+02 -0.12409226962E+02 -0.14379783856E+03  0.15346631077E+03  0.00000000000E+00 0. -1.
         11    1    3    3    0    0  0.10018613530E+02 -0.24694723285E+01  0.10406780763E+02  0.14655101381E+02  0.00000000000E+00 0.  1.
</event>
<event>
 7    1  0.7097897E-006  0.8878419E+02  0.7561462E-02  0.1305823E+00
          2   -1    0    0  501    0  0.00000000000E+00  0.00000000000E+00  0.20489968424E+03  0.20489968424E+03  0.00000000000E+00 0. -1.
         -2   -1    0    0    0  501 -0.00000000000E+00 -0.00000000000E+00 -0.80934572815E+02  0.80934572815E+02  0.00000000000E+00 0.  1.
         23    2    1    2    0    0 -0.37634974808E+02 -0.56723760800E+02  0.45256030917E+02  0.12311763482E+03  0.92064473617E+02 0.  0.
          5    1    1    2  502    0  0.44977665236E+02  0.64588505039E+02 -0.42755796021E+01  0.78932999019E+02  0.41800000000E+01 0. -1.
         -5    1    1    2    0  502 -0.73426904283E+01 -0.78647442392E+01  0.82984660110E+02  0.83783623210E+02  0.41800000000E+01 0. -1.
        -11    1    3    3    0    0 -0.28940892405E+02  0.87784468888E+00  0.56778530031E+02  0.63734977344E+02  0.00000000000E+00 0. -1.
         11    1    3    3    0    0 -0.86940824033E+01 -0.57601605489E+02 -0.11522499114E+02  0.59382657481E+02  0.00000000000E+00 0.  1.
</event>
<event>
 7    1  0.6610867E-006  0.1237856E+03  0.7561462E-02  0.1236979E+00
          2   -1    0    0  501    0  0.00000000000E+00  0.00000000000E+00  0.45778577989E+03  0.45778577989E+03  0.00000000000E+00 0. -1.
         -2   -1    0    0    0  501 -0.00000000000E+00 -0.00000000000E+00 -0.40105243802E+02  0.40105243802E+02  0.00000000000E+00 0.  1.
         23    2    1    2    0    0 -0.47954804541E+02  0.44048981985E+02  0.97437081652E+02  0.14797248100E+03  0.90343202068E+02 0.  0.
          5    1    1    2  502    0  0.72476798423E+02 -0.69766048975E+02  0.19227416355E+03  0.21704150356E+03  0.41800000000E+01 0.  1.
         -5    1    1    2    0  502 -0.24521993882E+02  0.25717066990E+02  0.12796929089E+03  0.13287703913E+03  0.41800000000E+01 0.  1.
        -11    1    3    3    0    0  0.19308392743E+02  0.39164518699E+02  0.33425494708E+02  0.54990337803E+02  0.00000000000E+00 0.  1.
         11    1    3    3    0    0 -0.67263197283E+02  0.48844632857E+01  0.64011586944E+02  0.92982143197E+02  0.00000000000E+00 0. -1.
</event>
<event>
 7    1  0.6610867E-006  0.7386586E+02  0.7561462E-02  0.1347419E+00
         -1   -1    0    0    0  501 -0.00000000000E+00  0.00000000000E+00  0.39610040699E+02  0.39610040699E+02  0.00000000000E+00 0.  1.
          1   -1    0    0  501    0  0.00000000000E+00 -0.00000000000E+00 -0.40305143290E+03  0.40305143290E+03  0.00000000000E+00 0. -1.
         23    2    1    2    0    0  0.59450221064E+02 -0.32339647576E+02 -0.97744771299E+02  0.14129388228E+03  0.76352729243E+02 0.  0.
          5    1    1    2  502    0 -0.64662358477E+02  0.33980808468E+02 -0.27789347696E+03  0.28736418163E+03  0.41800000000E+01 0.  1.
         -5    1    1    2    0  502  0.52121374122E+01 -0.16411608917E+01  0.12196856053E+02  0.14003409694E+02  0.41800000000E+01 0.  1.
        -11    1    3    3    0    0  0.37506043993E+02 -0.20972759265E+02 -0.10668417220E+03  0.11501335820E+03  0.00000000000E+00 0. -1.
         11    1    3    3    0    0  0.21944177072E+02 -0.11366888311E+02  0.89394009003E+01  0.26280524075E+02  0.00000000000E+00 0.  1.
</event>
<event>
 7    1  0.6610867E-006  0.1977054E+03  0.7561462E-02  0.1151690E+00
         -1   -1    0    0    0  501 -0.00000000000E+00  0.00000000000E+00  0.43710492287E+02  0.43710492287E+02  0.00000000000E+00 0.  1.
          1   -1    0    0  501    0  0.00000000000E+00 -0.00000000000E+00 -0.10102825039E+04  0.10102825039E+04  0.00000000000E+00 0. -1.
         23    2    1    2    0    0 -0.12195210771E+03  0.11893956194E+03 -0.30839177145E+03  0.36271304096E+03  0.86234154566E+02 0.  0.
          5    1    1    2  502    0  0.13416149799E+03 -0.55911346151E+02 -0.49361304488E+03  0.51458400348E+03  0.41800000000E+01 0. -1.
         -5    1    1    2    0  502 -0.12209390275E+02 -0.63028215794E+02 -0.16456719531E+03  0.17669595176E+03  0.41800000000E+01 0. -1.
        -11    1    3    3    0    0 -0.46582881610E+02  0.96296670210E+02 -0.13457765801E+03  0.17191323273E+03  0.00000000000E+00 0.  1.
         11    1    3    3    0    0 -0.75369226105E+02  0.22642891735E+02 -0.17381411344E+03  0.19079980823E+03  0.00000000000E+00 0. -1.
</event>
<event>
 7    1  0.6610867E-006  0.1130520E+03  0.7561462E-02  0.1255020E+00
          4   -1    0    0  501    0  0.00000000000E+00  0.00000000000E+00  0.12811699704E+04  0.12811699704E+04  0.00000000000E+00 0. -1.
         -4   -1    0    0    0  501 -0.00000000000E+00 -0.00000000000E+00 -0.58678817867E+02  0.58678817867E+02  0.00000000000E+00 0.  1.
         23    2    1    2    0    0  0.14000061419E+02  0.83393433672E+02  0.15810908051E+02  0.12512574280E+03  0.90862534621E+02 0.  0.
          5    1    1    2  502    0 -0.56282425755E+02 -0.70122278744E+02  0.64025429728E+03  0.64655075826E+03  0.41800000000E+01 0. -1.
         -5    1    1    2    0  502  0.42282364337E+02 -0.13271154928E+02  0.56642594715E+03  0.56817228716E+03  0.41800000000E+01 0.  1.
        -11    1    3    3    0    0  0.23753323899E+02  0.75128305172E+02  0.46771171633E+02  0.91629826640E+02  0.00000000000E+00 0.  1.
         11    1    3    3    0    0 -0.97532624807E+01  0.82651285004E+01 -0.30960263582E+02  0.33495916157E+02  0.00000000000E+00 0. -1.
</event>
<event>
 7    1  0.6610867E-006  0.1231122E+03  0.7561462E-02  0.1238049E+00
         -1   -1    0    0    0  501 -0.00000000000E+00  0.00000000000E+00  0.25475964825E+03  0.25475964825E+03  0.00000000000E+00 0.  1.
          1   -1    0    0  501    0  0.00000000000E+00 -0.00000000000E+00 -0.75026059022E+02  0.75026059022E+02  0.00000000000E+00 0. -1.
         23    2    1    2    0    0  0.80919155059E+02 -0.22090549085E+02  0.10621026324E+03  0.16219091713E+03  0.89383284611E+02 0.  0.
          5    1    1    2  502    0 -0.77797582942E+01  0.56438630918E+02  0.64534172438E+02  0.86185703636E+02  0.41800000000E+01 0. -1.
         -5    1    1    2    0  502 -0.73139396765E+02 -0.34348081833E+02  0.89891535537E+01  0.81409086510E+02  0.41800000000E+01 0. -1.
        -11    1    3    3    0    0  0.48100870721E+02  0.22270866713E+02  0.14155476548E+02  0.54864039083E+02  0.00000000000E+00 0. -1.
         11    1    3    3    0    0  0.32818284338E+02 -0.44361415798E+02  0.92054786691E+02  0.10732687805E+03  0.00000000000E+00 0.  1.
</event>
<event>
 7    1  0.6610867E-006  0.1076603E+03  0.7561462E-02  0.1264965E+00
          1   -1    0    0  501    0  0.00000000000E+00  0.00000000000E+00  0.31430679450E+03  0.31430679450E+03  0.00000000000E+00 0. -1.
         -1   -1    0    0    0  501 -0.00000000000E+00 -0.00000000000E+00 -0.55406133667E+02  0.55406133667E+02  0.00000000000E+00 0.  1.
         23    2    1    2    0    0 -0.73566737472E+02 -0.48500968813E+00  0.11973601475E+03  0.16865047904E+03  0.93241464796E+02 0.  0.
          5    1    1    2  502    0  0.20659977769E+02  0.49122012512E+02  0.11203373762E+03  0.12413233890E+03  0.41800000000E+01 0. -1.
         -5    1    1    2    0  502  0.52906759703E+02 -0.48637002824E+02  0.27130908472E+02  0.76930110233E+02  0.41800000000E+01 0. -1.
        -11    1    3    3    0    0 -0.46733189138E+02 -0.25463129506E+02  0.12076967366E+03  0.13197604331E+03  0.00000000000E+00 0.  1.
         11    1    3    3    0    0 -0.26833548333E+02  0.24978119818E+02 -0.10336589124E+01  0.36674435736E+02  0.00000000000E+00 0. -1.
</event>
<event>
 7    1  0.6610867E-006  0.1173680E+03  0.7561462E-02  0.1247503E+00
          2   -1    0    0  501    0  0.00000000000E+00  0.00000000000E+00  0.14156775610E+03  0.14156775610E+03  0.00000000000E+00 0. -1.
         -2   -1    0    0    0  501 -0.00000000000E+00 -0.00000000000E+00 -0.24678245499E+03  0.24678245499E+03  0.00000000000E+00 0.  1.
         23    2    1    2    0    0  0.26877995165E+02 -0.55927196239E+02 -0.16604221607E+03  0.19928795337E+03  0.91079047734E+02 0.  0.
          5    1    1    2  502    0 -0.59722884400E+02 -0.17706345693E+02  0.84376472792E+02  0.10496284657E+03  0.41800000000E+01 0. -1.
         -5    1    1    2    0  502  0.32844889235E+02  0.73633541932E+02 -0.23548955608E+02  0.84099411154E+02  0.41800000000E+01 0.  1.
        -11    1    3    3    0    0  0.14799138479E+02  0.14139619912E+02 -0.20800594047E+01  0.20573526632E+02  0.00000000000E+00 0. -1.
         11    1    3    3    0    0  0.12078856686E+02 -0.70066816150E+02 -0.16396215667E+03  0.17871442674E+03  0.00000000000E+00 0.  1.
</event>
<event>
 7    1  0.6610867E-006  0.1254877E+03  0.7561462E-02  0.1234309E+00
          1   -1    0    0  501    0  0.00000000000E+00  0.00000000000E+00  0.69610774260E+02  0.69610774260E+02  0.00000000000E+00 0. -1.
         -1   -1    0    0    0  501 -0.00000000000E+00 -0.00000000000E+00 -0.29005214362E+03  0.29005214362E+03  0.00000000000E+00 0.  1.
         23    2    1    2    0    0  0.79354471917E+02 -0.36512023593E+02 -0.13605337040E+03  0.18531547807E+03  0.90559630824E+02 0.  0.
          5    1    1    2  502    0 -0.18518644406E+02  0.70875400628E+02 -0.13273725027E+02  0.74564916555E+02  0.41800000000E+01 0.  1.
         -5    1    1    2    0  502 -0.60835827511E+02 -0.34363377035E+02 -0.71114273927E+02  0.99782523251E+02  0.41800000000E+01 0.  1.
        -11    1    3    3    0    0  0.87594492010E+01  0.16931674471E+02 -0.75935707010E+02  0.78292024816E+02  0.00000000000E+00 0.  1.
         11    1    3    3    0    0  0.70595022716E+02 -0.53443698064E+02 -0.60117663393E+02  0.10702345326E+03  0.00000000000E+00 0. -1.
</event>
<event>
 7    1  0.6610867E-006  0.1463858E+03  0.7561462E-02  0.1204986E+00
         -2   -1    0    0    0  501 -0.00000000000E+00  0.00000000000E+00  0.26288065277E+02  0.26288065277E+02  0.00000000000E+00 0.  1.
          2   -1    0    0  501    0  0.00000000000E+00 -0.00000000000E+00 -0.90007261726E+03  0.90007261726E+03  0.00000000000E+00 0. -1.
         23    2    1    2    0    0 -0.40883250871E+01  0.46249811924E+02 -0.23045035424E+03  0.25132499735E+03  0.88888295178E+02 0.  0.
          5    1    1    2  502    0  0.90057082235E+02  0.21539437266E+02 -0.34445195869E+03  0.35670555036E+03  0.41800000000E+01 0. -1.
         -5    1    1    2    0  502 -0.85968757148E+02 -0.67789249190E+02 -0.29888223906E+03  0.31833013482E+03  0.41800000000E+01 0.  1.
        -11    1    3    3    0    0  0.44228907881E+01 -0.21645660360E+02 -0.11513877929E+03  0.11723922156E+03  0.00000000000E+00 0.  1.
         11    1    3    3    0    0 -0.85112158752E+01  0.67895472285E+02 -0.11531157494E+03  0.13408577579E+03  0.00000000000E+00 0. -1.
</event>
<event>
 7    1  0.6610867E-006  0.1329022E+03  0.7561462E-02  0.1223212E+00
         -2   -1    0    0    0  501 -0.00000000000E+00  0.00000000000E+00  0.10578344340E+02  0.10578344340E+02  0.00000000000E+00 0.  1.
          2   -1    0    0  501    0  0.00000000000E+00 -0.00000000000E+00 -0.18101821533E+04  0.18101821533E+04  0.00000000000E+00 0. -1.
         23    2    1    2    0    0 -0.27634654877E+02 -0.73629845798E+02 -0.58612573557E+03  0.59831971418E+03  0.90873946403E+02 0.  0.
          5    1    1    2  502    0 -0.45388371809E+02  0.54323081053E+02 -0.50982244929E+03  0.51473051554E+03  0.41800000000E+01 0. -1.
         -5    1    1    2    0  502  0.73023026686E+02  0.19306764745E+02 -0.70365562410E+03  0.70771026792E+03  0.41800000000E+01 0. -1.
        -11    1    3    3    0    0 -0.21617860694E+02  0.17563048215E+02 -0.10771049888E+03  0.11125351290E+03  0.00000000000E+00 0.  1.
         11    1    3    3    0    0 -0.60167941826E+01 -0.91192894014E+02 -0.47841523669E+03  0.48706620128E+03  0.00000000000E+00 0. -1.
</event>
<event>
 7    1  0.6610867E-006  0.1118065E+03  0.7561462E-02  0.1257261E+00
         -2   -1    0    0    0  501 -0.00000000000E+00  0.00000000000E+00  0.25021444194E+02  0.25021444194E+02  0.00000000000E+00 0.  1.
          2   -1    0    0  501    0  0.00000000000E+00 -0.00000000000E+00 -0.89237434231E+03  0.89237434231E+03  0.00000000000E+00 0. -1.
         23    2    1    2    0    0  0.48871145711E+02  0.87275548984E+02 -0.31892273553E+03  0.34605624914E+03  0.89653811976E+02 0.  0.
          5    1    1    2  502    0 -0.25701245566E+02 -0.62509378306E+02 -0.52627687555E+03  0.53061549029E+03  0.41800000000E+01 0. -1.
         -5    1    1    2    0  502 -0.23169900145E+02 -0.24766170678E+02 -0.22153287035E+02  0.40724047064E+02  0.41800000000E+01 0. -1.
        -11    1    3    3    0    0 -0.17971059095E+02  0.16981892784E+02 -0.14337932168E+03  0.14549561345E+03  0.00000000000E+00 0. -1.
         11    1    3    3    0    0  0.66842204806E+02  0.70293656200E+02 -0.17554341385E+03  0.20056063570E+03  0.00000000000E+00 0.  1.
</event>
<event>
 7    1  0.6610867E-006  0.1052475E+03  0.7561462E-02  0.1269633E+00
          2   -1    0    0  501    0  0.00000000000E+00  0.00000000000E+00  0.10308730174E+03  0.10308730174E+03  0.00000000000E+00 0. -1.
         -2   -1    0    0    0  501 -0.00000000000E+00 -0.00000000000E+00 -0.20089479996E+03  0.20089479996E+03  0.00000000000E+00 0.  1.
         23    2    1    2    0    0  0.66987223567E+02  0.11102032047E+02 -0.11305133420E+03  0.16083887635E+03  0.92076037839E+02 0.  0.
          5    1    1    2  502    0  0.49530039578E+01 -0.56357947023E+02  0.12016986255E+02  0.57988195347E+02  0.41800000000E+01 0. -1.
         -5    1    1    2    0  502 -0.71940227525E+02  0.45255914977E+02  0.32268497311E+01  0.85155030009E+02  0.41800000000E+01 0. -1.
        -11    1    3    3    0    0  0.52221106421E+02  0.12915862186E+02 -0.12855213999E+03  0.13935392405E+03  0.00000000000E+00 0.  1.
         11    1    3    3    0    0  0.14766117145E+02 -0.18138301393E+01  0.15500805788E+02  0.21484952301E+02  0.00000000000E+00 0. -1.
</event>
<event>
 7    1  0.6610867E-006  0.1695123E+03  0.7561462E-02  0.1178357E+00
         -1   -1    0    0    0  501 -0.00000000000E+00  0.00000000000E+00  0.45001918948E+03  0.45001918948E+03  0.00000000000E+00 0.  1.
          1   -1    0    0  501    0  0.00000000000E+00 -0.00000000000E+00 -0.74187295580E+02  0.74187295580E+02  0.00000000000E+00 0. -1.
         23    2    1    2    0    0 -0.13356662802E+03 -0.33919113635E+02  0.24934419838E+03  0.29918189716E+03  0.91360428716E+02 0.  0.
          5    1    1    2  502    0  0.12123519737E+03 -0.15868100370E+02  0.48533214637E+02  0.13161578558E+03  0.41800000000E+01 0.  1.
         -5    1    1    2    0  502  0.12331430648E+02  0.49787214005E+02  0.77954480883E+02  0.93408802315E+02  0.41800000000E+01 0.  1.
        -11    1    3    3    0    0 -0.53894243117E+02  0.31243723528E+02  0.88589975147E+02  0.10830024653E+03  0.00000000000E+00 0.  1.
         11    1    3    3    0    0 -0.79672384901E+02 -0.65162837164E+02  0.16075422323E+03  0.19088165064E+03  0.00000000000E+00 0. -1.
</event>
<event>
 7    1  0.6610867E-006  0.1537654E+03  0.7561462E-02  0.1195921E+00
         -1   -1    0    0    0  501 -0.00000000000E+00  0.00000000000E+00  0.22650245094E+02  0.22650245094E+02  0.00000000000E+00 0.  1.
          1   -1    0    0  501    0  0.00000000000E+00 -0.00000000000E+00 -0.18897919696E+04  0.18897919696E+04  0.00000000000E+00 0. -1.
         23    2    1    2    0    0  0.70196369735E+02  0.45016506893E+02 -0.28395316567E+03  0.31252909594E+03  0.10045406561E+03 0.  0.
          5    1    1    2  502    0 -0.26560306094E+02  0.58901787803E+02 -0.11645276528E+04  0.11663262824E+04  0.41800000000E+01 0. -1.
         -5    1    1    2    0  502 -0.43636063642E+02 -0.10391829470E+03 -0.41866090605E+03  0.43358683638E+03  0.41800000000E+01 0.  1.
        -11    1    3    3    0    0  0.70096454495E+02 -0.13580493199E+02 -0.14145559414E+03  0.15845386661E+03  0.00000000000E+00 0.  1.
         11    1    3    3    0    0  0.99915240695E-01  0.58597000093E+02 -0.14249757152E+03  0.15407522933E+03  0.00000000000E+00 0. -1.
</event>
<event>
 7    1  0.6610867E-006  0.1010925E+03  0.7561462E-02  0.1278015E+00
          1   -1    0    0  501    0  0.00000000000E+00  0.00000000000E+00  0.37666465404E+02  0.37666465404E+02  0.00000000000E+00 0. -1.
         -1   -1    0    0    0  501 -0.00000000000E+00 -0.00000000000E+00 -0.32601931908E+03  0.32601931908E+03  0.00000000000E+00 0.  1.
         23    2    1    2    0    0 -0.25649340464E+01  0.53762836115E+00 -0.16432715417E+03  0.18751193578E+03  0.90279812415E+02 0.  0.
          5    1    1    2  502    0 -0.27972111978E+02  0.54163850992E+02 -0.73499713982E+02  0.95581599475E+02  0.41800000000E+01 0. -1.
         -5    1    1    2    0  502  0.30537046024E+02 -0.54701479353E+02 -0.50525985523E+02  0.80592249233E+02  0.41800000000E+01 0. -1.
        -11    1    3    3    0    0 -0.36940591416E+02  0.16421781335E+02 -0.13090185004E+03  0.13700210414E+03  0.00000000000E+00 0.  1.
         11    1    3    3    0    0  0.34375657369E+02 -0.15884152974E+02 -0.33425304135E+02  0.50509831635E+02  0.00000000000E+00 0. -1.
</event>
<event>
 7    1  0.6610867E-006  0.1454542E+03  0.7561462E-02  0.1206173E+00
          1   -1    0    0  501    0  0.00000000000E+00  0.00000000000E+00  0.10606395241E+04  0.10606395241E+04  0.00000000000E+00 0. -1.
         -1   -1    0    0    0  501 -0.00000000000E+00 -0.00000000000E+00 -0.30311821796E+02  0.30311821796E+02  0.00000000000E+00 0.  1.
         23    2    1    2    0    0 -0.56871090879E+02 -0.12616714006E+03  0.38622044422E+03  0.42037396904E+03  0.91627365502E+02 0.  0.
          5    1    1    2  502    0 -0.61286666516E+01  0.39312173457E+01 -0.30690775702E+01  0.89390526275E+01  0.41800000000E+01 0.  1.
         -5    1    1    2    0  502  0.62999757531E+02  0.12223592271E+03  0.64717633568E+03  0.66163832425E+03  0.41800000000E+01 0.  1.
        -11    1    3    3    0    0 -0.36960014711E+02 -0.11757538703E+03  0.37730956731E+03  0.39692886504E+03  0.00000000000E+00 0. -1.
         11    1    3    3    0    0 -0.19911076168E+02 -0.85917530278E+01  0.89108769104E+01  0.23445104000E+02  0.00000000000E+00 0.  1.
</event>
<event>
 7    1  0.6610867E-006  0.9901086E+02  0.7561462E-02  0.1282390E+00
         -2   -1    0    0    0  501 -0.00000000000E+00  0.00000000000E+00  0.55311039431E+02  0.55311039431E+02  0.00000000000E+00 0.  1.
          2   -1    0    0  501    0  0.00000000000E+00 -0.00000000000E+00 -0.27896859864E+03  0.27896859864E+03  0.00000000000E+00 0. -1.
         23    2    1    2    0    0  0.34562811325E+02 -0.38139865409E+02 -0.46312427559E+02  0.11123617693E+03  0.87059800434E+02 0.  0.
          5    1    1    2  502    0  0.42034371252E+00  0.75867500018E+02 -0.14013597850E+03  0.15941022275E+03  0.41800000000E+01 0. -1.
         -5    1    1    2    0  502 -0.34983155038E+02 -0.37727634610E+02 -0.37209153151E+02  0.63633238389E+02  0.41800000000E+01 0. -1.
        -11    1    3    3    0    0  0.45070952290E+02 -0.19688131156E+02  0.10755563033E+02  0.50345758360E+02  0.00000000000E+00 0.  1.
         11    1    3    3    0    0 -0.10508140964E+02 -0.18451734253E+02 -0.57067990592E+02  0.60890418570E+02  0.00000000000E+00 0. -1.
</event>
<event>
 7    1  0.6610867E-006  0.1609061E+03  0.7561462E-02  0.1187678E+00
          2   -1    0    0  501    0  0.00000000000E+00  0.00000000000E+00  0.85183299967E+02  0.85183299967E+02  0.00000000000E+00 0. -1.
         -2   -1    0    0    0  501 -0.00000000000E+00 -0.00000000000E+00 -0.32908945556E+03  0.32908945556E+03  0.00000000000E+00 0.  1.
         23    2    1    2    0    0 -0.10255428951E+03  0.76255131963E+02 -0.15891199378E+03  0.22396102244E+03  0.92592064215E+02 0.  0.
          5    1    1    2  502    0  0.12003529166E+03 -0.44785598097E+02 -0.43841138099E+02  0.13547597141E+03  0.41800000000E+01 0. -1.
         -5    1    1    2    0  502 -0.17481002147E+02 -0.31469533866E+02 -0.41153023714E+02  0.54835761676E+02  0.41800000000E+01 0.  1.
        -11    1    3    3    0    0 -0.41936246142E+02  0.86291539489E+02 -0.88721882637E+02  0.13067689538E+03  0.00000000000E+00 0.  1.
         11    1    3    3    0    0 -0.60618043371E+02 -0.10036407526E+02 -0.70190111142E+02  0.93284127054E+02  0.00000000000E+00 0. -1.
</event>
<event>
 7    1  0.6610867E-006  0.1317769E+03  0.7561462E-02  0.1224843E+00
          2   -1    0    0  501    0  0.00000000000E+00  0.00000000000E+00  0.37095835169E+03  0.37095835169E+03  0.00000000000E+00 0. -1.
         -2   -1    0    0    0  501 -0.00000000000E+00 -0.00000000000E+00 -0.70903482039E+02  0.70903482039E+02  0.00000000000E+00 0.  1.
         23    2    1    2    0    0  0.90760945216E+02 -0.24555024337E+02  0.44100206115E+02  0.14186053709E+03  0.96638943528E+02 0.  0.
          5    1    1    2  502    0 -0.10626551892E+03 -0.20807394582E+02  0.17664833249E+03  0.20723757852E+03  0.41800000000E+01 0. -1.
         -5    1    1    2    0  502  0.15504573701E+02  0.45362418919E+02  0.79306331050E+02  0.92763718126E+02  0.41800000000E+01 0. -1.
        -11    1    3    3    0    0  0.46965764193E+02  0.13695007938E+02  0.63862240529E+02  0.80447013705E+02  0.00000000000E+00 0.  1.
         11    1    3    3    0    0  0.43795181023E+02 -0.38250032275E+02 -0.19762034414E+02  0.61413523380E+02  0.00000000000E+00 0. -1.
</event>
<event>
 7    1  0.6610867E-006  0.1564982E+03  0.7561462E-02  0.1192708E+00
         -2   -1    0    0    0  501 -0.00000000000E+00  0.00000000000E+00  0.55041326235E+02  0.55041326235E+02  0.00000000000E+00 0.  1.
          2   -1    0    0  501    0  0.00000000000E+00 -0.00000000000E+00 -0.79905004857E+03  0.79905004857E+03  0.00000000000E+00 0. -1.
         23    2    1    2    0    0 -0.13272872921E+03  0.74324695041E+01 -0.11404283973E+03  0.19821265528E+03  0.92791865276E+02 0.  0.
          5    1    1    2  502    0  0.15064492750E+03 -0.23417280215E+02 -0.47156935396E+03  0.49561819093E+03  0.41800000000E+01 0. -1.
         -5    1    1    2    0  502 -0.17916198291E+02  0.15984810711E+02 -0.15839652865E+03  0.16026052859E+03  0.41800000000E+01 0. -1.
        -11    1    3    3    0    0 -0.96835815935E+01  0.87645849580E+01  0.15009927585E+02  0.19896925091E+02  0.00000000000E+00 0.  1.
         11    1    3    3    0    0 -0.12304514761E+03 -0.13321154538E+01 -0.12905276731E+03  0.17831573019E+03  0.00000000000E+00 0. -1.
</event>
<event>
 7    1  0.6610867E-006  0.7823071E+02  0.7561462E-02  0.1334149E+00
         -3   -1    0    0    0  501 -0.00000000000E+00  0.00000000000E+00  0.74421780884E+02  0.74421780884E+02  0.00000000000E+00 0.  1.
          3   -1    0    0  501    0  0.00000000000E+00 -0.00000000000E+00 -0.40544214989E+03  0.40544214989E+03  0.00000000000E+00 0. -1.
         23    2    1    2    0    0 -0.44434425248E+02  0.35177742076E+02  0.53192914415E+01  0.10359699190E+03  0.86557207587E+02 0.  0.
          5    1    1    2  502    0  0.17851661890E+02  0.70562622310E+00 -0.33053119809E+03  0.33104006563E+03  0.41800000000E+01 0. -1.
         -5    1    1    2    0  502  0.26582763358E+02 -0.35883368299E+02 -0.58084623576E+01  0.45226873242E+02  0.41800000000E+01 0.  1.
        -11    1    3    3    0    0  0.10246444639E+02 -0.15583723070E+02  0.20225496010E+02  0.27512047203E+02  0.00000000000E+00 0. -1.
         11    1    3    3    0    0 -0.54680869887E+02  0.50761465146E+02 -0.14906204568E+02  0.76084944700E+02  0.00000000000E+00 0.  1.
</event>
<event>
 7    1  0.6610867E-006  0.7847756E+02  0.7561462E-02  0.1333428E+00
         -1   -1    0    0    0  501 -0.00000000000E+00  0.00000000000E+00  0.21328025708E+03  0.21328025708E+03  0.00000000000E+00 0.  1.
          1   -1    0    0  501    0  0.00000000000E+00 -0.00000000000E+00 -0.67299355355E+02  0.67299355355E+02  0.00000000000E+00 0. -1.
         23    2    1    2    0    0  0.45788376827E+02 -0.34177386728E+01  0.86780985040E+02  0.13476976402E+03  0.92323851404E+02 0.  0.
          5    1    1    2  502    0 -0.33924605346E+02 -0.29548710176E+02 -0.27022600706E+02  0.52646922701E+02  0.41800000000E+01 0. -1.
         -5    1    1    2    0  502 -0.11863771481E+02  0.32966448849E+02  0.86222517387E+02  0.93162925716E+02  0.41800000000E+01 0. -1.
        -11    1    3    3    0    0  0.26717812133E+02  0.28651932793E+02 -0.12099681370E+01  0.39194881820E+02  0.00000000000E+00 0. -1.
         11    1    3    3    0    0  0.19070564694E+02 -0.32069671466E+02  0.87990953177E+02  0.95574882196E+02  0.00000000000E+00 0.  1.
</event>
<event>
 7    1  0.6610867E-006  0.5152743E+02  0.7561462E-02  0.1437273E+00
          1   -1    0    0  501    0  0.00000000000E+00  0.00000000000E+00  0.85336276079E+03  0.85336276079E+03  0.00000000000E+00 0. -1.
         -1   -1    0    0    0  501 -0.00000000000E+00 -0.00000000000E+00 -0.14677644361E+02  0.14677644361E+02  0.00000000000E+00 0.  1.
         23    2    1    2    0    0  0.99802947587E+00 -0.52668254910E+01  0.25068851111E+03  0.26686116810E+03  0.91331363316E+02 0.  0.
          5    1    1    2  502    0 -0.57802021742E+01 -0.33517566581E+01 -0.41694732891E+01  0.89163847707E+01  0.41800000000E+01 0.  1.
         -5    1    1    2    0  502  0.47821726984E+01  0.86185821492E+01  0.59216607861E+03  0.59226285227E+03  0.41800000000E+01 0.  1.
        -11    1    3    3    0    0 -0.14608056081E+02 -0.42047446632E+02  0.79911240006E+02  0.91472341995E+02  0.00000000000E+00 0.  1.
         11    1    3    3    0    0  0.15606085557E+02  0.36780621141E+02  0.17077727110E+03  0.17538882611E+03  0.00000000000E+00 0. -1.
</event>
<event>
 7    1  0.6610867E-006  0.1033801E+03  0.7561462E-02  0.1273344E+00
         -1   -1    0    0    0  501 -0.00000000000E+00  0.00000000000E+00  0.39510091662E+02  0.39510091662E+02  0.00000000000E+00 0.  1.
          1   -1    0    0  501    0  0.00000000000E+00 -0.00000000000E+00 -0.32797080976E+03  0.32797080976E+03  0.00000000000E+00 0. -1.
         23    2    1    2    0    0  0.46738441539E+02 -0.91434981756E+01 -0.11069041440E+03  0.15195974564E+03  0.92581374899E+02 0.  0.
          5    1    1    2  502    0  0.10355735551E+02  0.38082018610E+02 -0.18434836524E+02  0.43758393456E+02  0.41800000000E+01 0. -1.
         -5    1    1    2    0  502 -0.57094177090E+02 -0.28938520434E+02 -0.15933546718E+03  0.17176276233E+03  0.41800000000E+01 0.  1.
        -11    1    3    3    0    0  0.66004256551E+02 -0.31735810453E+02 -0.67854224852E+02  0.99839468039E+02  0.00000000000E+00 0.  1.
         11    1    3    3    0    0 -0.19265815012E+02  0.22592312277E+02 -0.42836189549E+02  0.52120277601E+02  0.00000000000E+00 0. -1.
</event>
<event>
 7    1  0.6610867E-006  0.1536031E+03  0.7561462E-02  0.1196114E+00
          2   -1    0    0  501    0  0.00000000000E+00  0.00000000000E+00  0.19236758065E+04  0.19236758065E+04  0.00000000000E+00 0. -1.
         -2   -1    0    0    0  501 -0.00000000000E+00 -0.00000000000E+00 -0.16669939958E+02  0.16669939958E+02  0.00000000000E+00 0.  1.
         23    2    1    2    0    0 -0.68013064376E+02 -0.12287875680E+03  0.76730225768E+03  0.78522839100E+03  0.90032802880E+02 0.  0.
          5    1    1    2  502    0  0.38153968716E+02  0.78149282464E+02  0.26889021917E+03  0.28263484931E+03  0.41800000000E+01 0.  1.
         -5    1    1    2    0  502  0.29859095659E+02  0.44729474335E+02  0.87081338972E+03  0.87248250618E+03  0.41800000000E+01 0.  1.
        -11    1    3    3    0    0 -0.88941736858E+02 -0.85578148817E+02  0.53864850847E+03  0.55260878367E+03  0.00000000000E+00 0. -1.
         11    1    3    3    0    0  0.20928672483E+02 -0.37300607981E+02  0.22865374920E+03  0.23261960732E+03  0.00000000000E+00 0.  1.
</event>
<event>
 7    1  0.6610867E-006  0.1092588E+03  0.7561462E-02  0.1261949E+00
          3   -1    0    0  501    0  0.00000000000E+00  0.00000000000E+00  0.71159260727E+02  0.71159260727E+02  0.00000000000E+00 0. -1.
         -3   -1    0    0    0  501 -0.00000000000E+00 -0.00000000000E+00 -0.18837860747E+03  0.18837860747E+03  0.00000000000E+00 0.  1.
         23    2    1    2    0    0 -0.32291238604E+01 -0.18922165257E+02 -0.80921001113E+02  0.13021437895E+03  0.10019531170E+03 0.  0.
          5    1    1    2  502    0  0.58603599448E+02 -0.36043505110E+01  0.75246467055E+00  0.58867748505E+02  0.41800000000E+01 0. -1.
         -5    1    1    2    0  502 -0.55374475588E+02  0.22526515768E+02 -0.37050810303E+02  0.70455740742E+02  0.41800000000E+01 0.  1.
        -11    1    3    3    0    0 -0.17141020082E+01  0.40374845335E+02 -0.46610672884E+02  0.61689716389E+02  0.00000000000E+00 0.  1.
         11    1    3    3    0    0 -0.15150218522E+01 -0.59297010592E+02 -0.34310328229E+02  0.68524662564E+02  0.00000000000E+00 0. -1.
</event>
<event>
 7    1  0.6610867E-006  0.1420422E+03  0.7561462E-02  0.1210607E+00
          4   -1    0    0  501    0  0.00000000000E+00  0.00000000000E+00  0.31695656399E+03  0.31695656399E+03  0.00000000000E+00 0. -1.
         -4   -1    0    0    0  501 -0.00000000000E+00 -0.00000000000E+00 -0.26667607490E+03  0.26667607490E+03  0.00000000000E+00 0.  1.
         23    2    1    2    0    0  0.63885427418E+02 -0.10746493535E+03 -0.20836969653E+03  0.26184652508E+03  0.97547998965E+02 0.  0.
          5    1    1    2  502    0 -0.38801860039E+02  0.47381921182E+02  0.24824116492E+03  0.25571816352E+03  0.41800000000E+01 0. -1.
         -5    1    1    2    0  502 -0.25083567379E+02  0.60083014163E+02  0.10409020703E+02  0.66067950289E+02  0.41800000000E+01 0.  1.
        -11    1    3    3    0    0  0.88575169770E+02 -0.71498712737E+02 -0.13607617093E+03  0.17741012067E+03  0.00000000000E+00 0.  1.
         11    1    3    3    0    0 -0.24689742352E+02 -0.35966222608E+02 -0.72293525603E+02  0.84436404413E+02  0.00000000000E+00 0. -1.
</event>
<event>
 7    1  0.6610867E-006  0.1203388E+03  0.7561462E-02  0.1242539E+00
         -1   -1    0    0    0  501 -0.00000000000E+00  0.00000000000E+00  0.11326557764E+02  0.11326557764E+02  0.00000000000E+00 0.  1.
          1   -1    0    0  501    0  0.00000000000E+00 -0.00000000000E+00 -0.13240652719E+04  0.13240652719E+04  0.00000000000E+00 0. -1.
         23    2    1    2    0    0 -0.31623304410E+02 -0.33577112791E+02 -0.53448211741E+03  0.54579853086E+03  0.10048605167E+03 0.  0.
          5    1    1    2  502    0  0.24418506850E+02  0.79591561933E+02 -0.57605296782E+03  0.58205289651E+03  0.41800000000E+01 0.  1.
         -5    1    1    2    0  502  0.72047975600E+01 -0.46014449142E+02 -0.20220362896E+03  0.20754040234E+03  0.41800000000E+01 0.  1.
        -11    1    3    3    0    0  0.13423093925E+02  0.29868769629E+02 -0.16148926629E+03  0.16477592657E+03  0.00000000000E+00 0.  1.
         11    1    3    3    0    0 -0.45046398335E+02 -0.63445882420E+02 -0.37299285112E+03  0.38102260429E+03  0.00000000000E+00 0. -1.
</event>
<event>
 7    1  0.6610867E-006  0.1207197E+03  0.7561462E-02  0.1241915E+00
         -1   -1    0    0    0  501 -0.00000000000E+00  0.00000000000E+00  0.83207527287E+02  0.83207527287E+02  0.00000000000E+00 0.  1.
          1   -1    0    0  501    0  0.00000000000E+00 -0.00000000000E+00 -0.31058001281E+03  0.31058001281E+03  0.00000000000E+00 0. -1.
         23    2    1    2    0    0 -0.60599502004E+02 -0.18731406138E+02  0.15983815758E+02  0.11290850441E+03  0.92030879506E+02 0.  0.
          5    1    1    2  502    0  0.32907137409E+02 -0.49373557910E+02 -0.66032468492E+02  0.88872871048E+02  0.41800000000E+01 0.  1.
         -5    1    1    2    0  502  0.27692364595E+02  0.68104964048E+02 -0.17732383279E+03  0.19200616464E+03  0.41800000000E+01 0.  1.
        -11    1    3    3    0    0 -0.48627890222E+02  0.30667170903E+02  0.22351748403E+02  0.61682637227E+02  0.00000000000E+00 0. -1.
         11    1    3    3    0    0 -0.11971611782E+02 -0.49398577042E+02 -0.63679326445E+01  0.51225867182E+02  0.00000000000E+00 0.  1.
</event>
<event>
 7    1  0.6610867E-006  0.1111633E+03  0.7561462E-02  0.1258431E+00
          2   -1    0    0  501    0  0.00000000000E+00  0.00000000000E+00  0.92191517844E+03  0.92191517844E+03  0.00000000000E+00 0. -1.
         -2   -1    0    0    0  501 -0.00000000000E+00 -0.00000000000E+00 -0.22784982171E+02  0.22784982171E+02  0.00000000000E+00 0.  1.
         23    2    1    2    0    0  0.67510232102E+02 -0.65850264881E+01  0.18834603681E+03  0.21981159601E+03  0.90784988566E+02 0.  0.
          5    1    1    2  502    0  0.20069849926E+01 -0.31764467607E+02  0.47455833387E+03  0.47564282191E+03  0.41800000000E+01 0. -1.
         -5    1    1    2    0  502 -0.69517217095E+02  0.38349494095E+02  0.23622582559E+03  0.24924574269E+03  0.41800000000E+01 0. -1.
        -11    1    3    3    0    0  0.69686806074E+02  0.28703308715E+02  0.10473909991E+03  0.12903646741E+03  0.00000000000E+00 0.  1.
         11    1    3    3    0    0 -0.21765739719E+01 -0.35288335203E+02  0.83606936892E+02  0.90775128599E+02  0.00000000000E+00 0. -1.
</event>
<event>
 7    1  0.6610867E-006  0.6906120E+02  0.7561462E-02  0.1363315E+00
         -1   -1    0    0    0  501 -0.00000000000E+00  0.00000000000E+00  0.14717853003E+03  0.14717853003E+03  0.00000000000E+00 0.  1.
          1   -1    0    0  501    0  0.00000000000E+00 -0.00000000000E+00 -0.96057993606E+02  0.96057993606E+02  0.00000000000E+00 0. -1.
         23    2    1    2    0    0  0.36589299979E+02  0.61530397856E+00 -0.87698125867E+00  0.10291403538E+03  0.96184063704E+02 0.  0.
          5    1    1    2  502    0  0.34386791346E+01  0.34127405858E+02  0.74858466463E+02  0.82448570309E+02  0.41800000000E+01 0. -1.
         -5    1    1    2    0  502 -0.40027979114E+02 -0.34742709837E+02 -0.22860948782E+02  0.57873917942E+02  0.41800000000E+01 0. -1.
        -11    1    3    3    0    0  0.16373567664E+02 -0.16988777761E+02 -0.45273186972E+02  0.51052656605E+02  0.00000000000E+00 0. -1.
         11    1    3    3    0    0  0.20215732316E+02  0.17604081740E+02  0.44396205713E+02  0.51861378777E+02  0.00000000000E+00 0.  1.
</event>
<event>
 7    1  0.6610867E-006  0.1042471E+03  0.7561462E-02  0.1271610E+00
          2   -1    0    0  501    0  0.00000000000E+00  0.00000000000E+00  0.64953486527E+03  0.64953486527E+03  0.00000000000E+00 0. -1.
         -2   -1    0    0    0  501 -0.00000000000E+00 -0.00000000000E+00 -0.43547883386E+02  0.43547883386E+02  0.00000000000E+00 0.  1.
         23    2    1    2    0    0 -0.62207106736E+02  0.39508593000E+02  0.61677125914E+02  0.12974323876E+03  0.87169874924E+02 0.  0.
          5    1    1    2  502    0 -0.92819252632E+00  0.16472077726E+02  0.54114189679E+01  0.17859080078E+02  0.41800000000E+01 0. -1.
         -5    1    1    2    0  502  0.63135299263E+02 -0.55980670726E+02  0.53889843701E+03  0.54548042982E+03  0.41800000000E+01 0. -1.
        -11    1    3    3    0    0 -0.67452881513E+01  0.50079302147E+02  0.51911470806E+02  0.72444711449E+02  0.00000000000E+00 0. -1.
         11    1    3    3    0    0 -0.55461818585E+02 -0.10570709146E+02  0.97656551086E+01  0.57298527314E+02  0.00000000000E+00 0.  1.
</event>
<event>
 7    1  0.6610867E-006  0.7759664E+02  0.7561462E-02  0.1336014E+00
          2   -1    0    0  501    0  0.00000000000E+00  0.00000000000E+00  0.47864749337E+02  0.47864749337E+02  0.00000000000E+00 0. -1.
         -2   -1    0    0    0  501 -0.00000000000E+00 -0.00000000000E+00 -0.24290799095E+03  0.24290799095E+03  0.00000000000E+00 0.  1.
         23    2    1    2    0    0 -0.13359124291E+02 -0.75795443392E+01 -0.86334351853E+02  0.12433196465E+03  0.88141371846E+02 0.  0.
          5    1    1    2  502    0  0.40751437711E+02  0.28844896683E+02 -0.11974991296E+03  0.12980840418E+03  0.41800000000E+01 0.  1.
         -5    1    1    2    0  502 -0.27392313420E+02 -0.21265352344E+02  0.11041023205E+02  0.36632371453E+02  0.41800000000E+01 0.  1.
        -11    1    3    3    0    0  0.19330368365E+02 -0.26186667340E+02 -0.79762594059E+02  0.86147989521E+02  0.00000000000E+00 0.  1.
         11    1    3    3    0    0 -0.32689492656E+02  0.18607123001E+02 -0.65717577938E+01  0.38183975134E+02  0.00000000000E+00 0. -1.
</event>
<event>
 7    1  0.6610867E-006  0.7485753E+02  0.7561462E-02  0.1344313E+00
         -1   -1    0    0    0  501 -0.00000000000E+00  0.00000000000E+00  0.59962115044E+03  0.59962115044E+03  0.00000000000E+00 0.  1.
          1   -1    0    0  501    0  0.00000000000E+00 -0.00000000000E+00 -0.23627400258E+02  0.23627400258E+02  0.00000000000E+00 0. -1.
         23    2    1    2    0    0  0.45536358599E+02 -0.24883352036E+02  0.25266757799E+03  0.27270649739E+03  0.88516595009E+02 0.  0.
          5    1    1    2  502    0 -0.19656320855E+02 -0.22892477404E+02  0.27798943660E+03  0.27965342074E+03  0.41800000000E+01 0.  1.
         -5    1    1    2    0  502 -0.25880037745E+02  0.47775829440E+02  0.45336735596E+02  0.70888632564E+02  0.41800000000E+01 0.  1.
        -11    1    3    3    0    0  0.13410147444E+02  0.10451319179E+02  0.15321212439E+01  0.17070721207E+02  0.00000000000E+00 0. -1.
         11    1    3    3    0    0  0.32126211156E+02 -0.35334671214E+02  0.25113545674E+03  0.25563577619E+03  0.00000000000E+00 0.  1.
</event>
<event>
 7    1  0.6610867E-006  0.1206902E+03  0.7561462E-02  0.1241963E+00
         -1   -1    0    0    0  501 -0.00000000000E+00  0.00000000000E+00  0.11101470633E+02  0.11101470633E+02  0.00000000000E+00 0.  1.
          1   -1    0    0  501    0  0.00000000000E+00 -0.00000000000E+00 -0.21652671044E+04  0.21652671044E+04  0.00000000000E+00 0. -1.
         23    2    1    2    0    0 -0.48937632026E+02 -0.50369591876E+02 -0.39688353523E+03  0.41324092214E+03  0.91211466268E+02 0.  0.
          5    1    1    2  502    0  0.83965444415E+02  0.35157718440E+02 -0.15223929411E+04  0.15251177005E+04  0.41800000000E+01 0.  1.
         -5    1    1    2    0  502 -0.35027812390E+02  0.15211873436E+02 -0.23488915748E+03  0.23800995239E+03  0.41800000000E+01 0.  1.
        -11    1    3    3    0    0 -0.34159942596E+02 -0.75397049679E+02 -0.24510567748E+03  0.25870525683E+03  0.00000000000E+00 0.  1.
         11    1    3    3    0    0 -0.14777689430E+02  0.25027457803E+02 -0.15177785776E+03  0.15453566531E+03  0.00000000000E+00 0. -1.
</event>
<event>
 7    1  0.6610867E-006  0.6458392E+02  0.7561462E-02  0.1379543E+00
          2   -1    0    0  501    0  0.00000000000E+00  0.00000000000E+00  0.25201241687E+03  0.25201241687E+03  0.00000000000E+00 0.  1.
         -2   -1    0    0    0  501 -0.00000000000E+00 -0.00000000000E+00 -0.55773187640E+02  0.55773187640E+02  0.00000000000E+00 0. -1.
         23    2    1    2    0    0  0.20513877296E+02  0.34188714456E+02  0.73238537426E+02  0.12787937716E+03  0.96951350593E+02 0.  0.
          5    1    1    2  502    0 -0.23328981804E+02 -0.11145131484E+02  0.14518296420E+03  0.14752633948E+03  0.41800000000E+01 0. -1.
         -5    1    1    2    0  502  0.28151045072E+01 -0.23043582972E+02 -0.22182272393E+02  0.32379887863E+02  0.41800000000E+01 0. -1.
        -11    1    3    3    0    0  0.12233591654E+02  0.55339490503E+02  0.61002171262E+01  0.57002917670E+02  0.00000000000E+00 0. -1.
         11    1    3    3    0    0  0.82802856419E+01 -0.21150776048E+02  0.67138320300E+02  0.70876459494E+02  0.00000000000E+00 0.  1.
</event>
<event>
 7    1  0.6610867E-006  0.1151597E+03  0.7561462E-02  0.1251303E+00
          2   -1    0    0  501    0  0.00000000000E+00  0.00000000000E+00  0.14023193349E+03  0.14023193349E+03  0.00000000000E+00 0. -1.
         -2   -1    0    0    0  501 -0.00000000000E+00 -0.00000000000E+00 -0.12483693939E+03  0.12483693939E+03  0.00000000000E+00 0.  1.
         23    2    1    2    0    0 -0.50966095913E+02  0.44904961893E+02 -0.16760162177E+02  0.11912807728E+03  0.96418863424E+02 0.  0.
          5    1    1    2  502    0  0.74897110117E+02 -0.94654365709E+00  0.52696397283E+02  0.91678000280E+02  0.41800000000E+01 0. -1.
         -5    1    1    2    0  502 -0.23931014204E+02 -0.43958418236E+02 -0.20541241007E+02  0.54262795327E+02  0.41800000000E+01 0. -1.
        -11    1    3    3    0    0 -0.12623753616E+02 -0.23489343245E+02  0.19207025190E+02  0.32863630629E+02  0.00000000000E+00 0. -1.
         11    1    3    3    0    0 -0.38342342297E+02  0.68394305138E+02 -0.35967187367E+02  0.86264446647E+02  0.00000000000E+00 0.  1.
</event>
<event>
 7    1  0.6610867E-006  0.1046426E+03  0.7561462E-02  0.1270825E+00
         -1   -1    0    0    0  501 -0.00000000000E+00  0.00000000000E+00  0.52310529036E+02  0.52310529036E+02  0.00000000000E+00 0.  1.
          1   -1    0    0  501    0  0.00000000000E+00 -0.00000000000E+00 -0.24588257515E+03  0.24588257515E+03  0.00000000000E+00 0. -1.
         23    2    1    2    0    0  0.33888826976E+02 -0.19628355908E+01 -0.93588743637E+02  0.13449704455E+03  0.90433935776E+02 0.  0.
          5    1    1    2  502    0 -0.59808397665E+02  0.40864196976E+02 -0.28014266544E+02  0.77776593881E+02  0.41800000000E+01 0.  1.
         -5    1    1    2    0  502  0.25919570689E+02 -0.38901361386E+02 -0.71969035929E+02  0.85919465750E+02  0.41800000000E+01 0.  1.
        -11    1    3    3    0    0  0.53606866136E+02 -0.25272909100E+02 -0.36074672071E+02  0.69381539305E+02  0.00000000000E+00 0.  1.
         11    1    3    3    0    0 -0.19718039160E+02  0.23310073509E+02 -0.57514071566E+02  0.65115505246E+02  0.00000000000E+00 0. -1.
</event>
<event>
 7    1  0.6610867E-006  0.1338329E+03  0.7561462E-02  0.1221877E+00
          2   -1    0    0  501    0  0.00000000000E+00  0.00000000000E+00  0.54990778107E+03  0.54990778107E+03  0.00000000000E+00 0.  1.
         -2   -1    0    0    0  501 -0.00000000000E+00 -0.00000000000E+00 -0.49804998576E+02  0.49804998576E+02  0.00000000000E+00 0. -1.
         23    2    1    2    0    0 -0.44548776049E+02 -0.11180530554E+03  0.17445378926E+03  0.23068800181E+03  0.91092314722E+02 0.  0.
          5    1    1    2  502    0  0.42498655354E+02  0.41039217750E+02  0.32783311838E+02  0.67694689862E+02  0.41800000000E+01 0. -1.
         -5    1    1    2    0  502  0.20501206956E+01  0.70766087786E+02  0.29286568140E+03  0.30133008797E+03  0.41800000000E+01 0. -1.
        -11    1    3    3    0    0 -0.62292870428E+02 -0.88644804265E+02  0.88428354300E+02  0.13984947935E+03  0.00000000000E+00 0. -1.
         11    1    3    3    0    0  0.17744094379E+02 -0.23160501271E+02  0.86025434958E+02  0.90838522468E+02  0.00000000000E+00 0.  1.
</event>
<event>
 7    1  0.6610867E-006  0.1171534E+03  0.7561462E-02  0.1247868E+00
          2   -1    0    0  501    0  0.00000000000E+00  0.00000000000E+00  0.47402114105E+03  0.47402114105E+03  0.00000000000E+00 0. -1.
         -2   -1    0    0    0  501 -0.00000000000E+00 -0.00000000000E+00 -0.46235243879E+02  0.46235243879E+02  0.00000000000E+00 0.  1.
         23    2    1    2    0    0 -0.70097660957E+02  0.14099678871E+02  0.73578708366E+02  0.13786550511E+03  0.92090108910E+02 0.  0.
          5    1    1    2  502    0  0.47477259647E+01 -0.54887774939E+02  0.77824063569E+02  0.95442474874E+02  0.41800000000E+01 0.  1.
         -5    1    1    2    0  502  0.65349934992E+02  0.40788096069E+02  0.27638312524E+03  0.28694840495E+03  0.41800000000E+01 0.  1.
        -11    1    3    3    0    0 -0.40559987068E+02  0.44024765200E+02  0.86089099831E+01  0.60476489919E+02  0.00000000000E+00 0.  1.
         11    1    3    3    0    0 -0.29537673889E+02 -0.29925086329E+02  0.64969798382E+02  0.77389015192E+02  0.00000000000E+00 0. -1.
</event>
<event>
 7    1  0.6610867E-006  0.7395356E+02  0.7561462E-02  0.1347142E+00
          1   -1    0    0  501    0  0.00000000000E+00  0.00000000000E+00  0.33218909507E+03  0.33218909507E+03  0.00000000000E+00 0. -1.
         -1   -1    0    0    0  501 -0.00000000000E+00 -0.00000000000E+00 -0.44774552660E+02  0.44774552660E+02  0.00000000000E+00 0.  1.
         23    2    1    2    0    0  0.38532646078E+02 -0.14852266319E+02  0.69019319050E+02  0.12188181768E+03  0.91575960004E+02 0.  0.
          5    1    1    2  502    0 -0.20644264433E+02 -0.15183713075E+02 -0.70487101247E+01  0.26905157706E+02  0.41800000000E+01 0.  1.
         -5    1    1    2    0  502 -0.17888381645E+02  0.30035979394E+02  0.22544393348E+03  0.22817667234E+03  0.41800000000E+01 0.  1.
        -11    1    3    3    0    0  0.13610411162E+02  0.31383926054E+02 -0.11544855083E+01  0.34227575773E+02  0.00000000000E+00 0.  1.
         11    1    3    3    0    0  0.24922234917E+02 -0.46236192372E+02  0.70173804558E+02  0.87654241908E+02  0.00000000000E+00 0. -1.
</event>
<event>
 7    1  0.6610867E-006  0.1047486E+03  0.7561462E-02  0.1270616E+00
          1   -1    0    0  501    0  0.00000000000E+00  0.00000000000E+00  0.94387422819E+02  0.94387422819E+02  0.00000000000E+00 0. -1.
         -1   -1    0    0    0  501 -0.00000000000E+00 -0.00000000000E+00 -0.19666604944E+03  0.19666604944E+03  0.00000000000E+00 0.  1.
         23    2    1    2    0    0 -0.79611473605E+02  0.96413922256E+01 -0.68859346868E+02  0.13875928357E+03  0.89897641521E+02 0.  0.
          5    1    1    2  502    0  0.86804113965E+02 -0.19458571129E+02 -0.70154881983E+02  0.11337005803E+03  0.41800000000E+01 0. -1.
         -5    1    1    2    0  502 -0.71926403595E+01  0.98171789034E+01  0.36735602228E+02  0.38924130665E+02  0.41800000000E+01 0. -1.
        -11    1    3    3    0    0 -0.87909759677E+02 -0.78028478422E+01 -0.26411579620E+02  0.92122645527E+02  0.00000000000E+00 0. -1.
         11    1    3    3    0    0  0.82982860716E+01  0.17444240068E+02 -0.42447767247E+02  0.46636638039E+02  0.00000000000E+00 0.  1.
</event>
<event>
 7    1  0.6610867E-006  0.7910181E+02  0.7561462E-02  0.1331620E+00
         -2   -1    0    0    0  501 -0.00000000000E+00  0.00000000000E+00  0.31988531818E+02  0.31988531818E+02  0.00000000000E+00 0.  1.
          2   -1    0    0  501    0  0.00000000000E+00 -0.00000000000E+00 -0.48589293010E+03  0.48589293010E+03  0.00000000000E+00 0. -1.
         23    2    1    2    0    0 -0.17858432151E+02  0.53610641880E+02 -0.23209060266E+03  0.25703394911E+03  0.94907210622E+02 0.  0.
          5    1    1    2  502    0 -0.13315484190E+02 -0.38418347623E+02 -0.49323325797E+01  0.41171250381E+02  0.41800000000E+01 0. -1.
         -5    1    1    2    0  502  0.31173916341E+02 -0.15192294257E+02 -0.21688146304E+03  0.21967626243E+03  0.41800000000E+01 0. -1.
        -11    1    3    3    0    0  0.10411313656E+02  0.53114201881E+02 -0.21951510358E+03  0.22608935091E+03  0.00000000000E+00 0. -1.
         11    1    3    3    0    0 -0.28269745807E+02  0.49643999906E+00 -0.12575499082E+02  0.30944598201E+02  0.00000000000E+00 0.  1.
</event>
<event>
 7    1  0.6610867E-006  0.1288748E+03  0.7561462E-02  0.1229135E+00
         -1   -1    0    0    0  501 -0.00000000000E+00  0.00000000000E+00  0.18370794851E+03  0.18370794851E+03  0.00000000000E+00 0.  1.
          1   -1    0    0  501    0  0.00000000000E+00 -0.00000000000E+00 -0.11259439272E+03  0.11259439272E+03  0.00000000000E+00 0. -1.
         23    2    1    2    0    0  0.75219547887E+02  0.51708435366E+00  0.91413348146E+02  0.14893152410E+03  0.90365651062E+02 0.  0.
          5    1    1    2  502    0  0.32615850641E+02  0.50512850502E+01  0.10709500834E+02  0.34949606604E+02  0.41800000000E+01 0.  1.
         -5    1    1    2    0  502 -0.10783539853E+03 -0.55683694039E+01 -0.31009293189E+02  0.11242121053E+03  0.41800000000E+01 0.  1.
        -11    1    3    3    0    0  0.90577375066E+02  0.18837302508E+02  0.63660493802E+02  0.11230210733E+03  0.00000000000E+00 0.  1.
         11    1    3    3    0    0 -0.15357827179E+02 -0.18320218155E+02  0.27752854344E+02  0.36629416773E+02  0.00000000000E+00 0. -1.
</event>
<event>
 7    1  0.6610867E-006  0.2247123E+03  0.7561462E-02  0.1130418E+00
          2   -1    0    0  501    0  0.00000000000E+00  0.00000000000E+00  0.48209392897E+03  0.48209392897E+03  0.00000000000E+00 0. -1.
         -2   -1    0    0    0  501 -0.00000000000E+00 -0.00000000000E+00 -0.13377638461E+03  0.13377638461E+03  0.00000000000E+00 0.  1.
         23    2    1    2    0    0 -0.68602464540E+02 -0.20912125826E+03  0.91658176140E+02  0.25537228938E+03  0.91519321087E+02 0.  0.
          5    1    1    2  502    0  0.26988390065E+02  0.32620365403E+02  0.13636122837E+03  0.14284368533E+03  0.41800000000E+01 0. -1.
         -5    1    1    2    0  502  0.41614074475E+02  0.17650089286E+03  0.12029813985E+03  0.21765433886E+03  0.41800000000E+01 0. -1.
        -11    1    3    3    0    0 -0.26617640486E+02 -0.24562982902E+02  0.49710920221E+02  0.61506215160E+02  0.00000000000E+00 0. -1.
         11    1    3    3    0    0 -0.41984824054E+02 -0.18455827536E+03  0.41947255919E+02  0.19386607422E+03  0.00000000000E+00 0.  1.
</event>
<event>
 7    1  0.6610867E-006  0.9010026E+02  0.7561462E-02  0.1302609E+00
          1   -1    0    0  501    0  0.00000000000E+00  0.00000000000E+00  0.75040188141E+02  0.75040188141E+02  0.00000000000E+00 0. -1.
         -1   -1    0    0    0  501 -0.00000000000E+00 -0.00000000000E+00 -0.20301682604E+03  0.20301682604E+03  0.00000000000E+00 0.  1.
         23    2    1    2    0    0  0.36120759271E+02  0.98115552143E+01 -0.10694692580E+03  0.14580814939E+03  0.91768162366E+02 0.  0.
          5    1    1    2  502    0 -0.68216280741E+02 -0.31017331710E+02 -0.44245052853E+02  0.87124238455E+02  0.41800000000E+01 0. -1.
         -5    1    1    2    0  502  0.32095521470E+02  0.21205776496E+02  0.23215340758E+02  0.45124626334E+02  0.41800000000E+01 0. -1.
        -11    1    3    3    0    0  0.35240194506E+02  0.29978416257E+02 -0.11509002199E+03  0.12404148464E+03  0.00000000000E+00 0.  1.
         11    1    3    3    0    0  0.88056476481E+00 -0.20166861043E+02  0.81430961912E+01  0.21766664747E+02  0.00000000000E+00 0. -1.
</event>
<event>
 7    1  0.6610867E-006  0.1042046E+03  0.7561462E-02  0.1271695E+00
          1   -1    0    0  501    0  0.00000000000E+00  0.00000000000E+00  0.25535362395E+03  0.25535362395E+03  0.00000000000E+00 0. -1.
         -1   -1    0    0    0  501 -0.00000000000E+00 -0.00000000000E+00 -0.55191848743E+02  0.55191848743E+02  0.00000000000E+00 0.  1.
         23    2    1    2    0    0 -0.45069505646E+01 -0.48177080747E+02  0.53014510222E+02  0.11945819451E+03  0.95490199648E+02 0.  0.
          5    1    1    2  502    0 -0.49686892649E+02  0.43236370780E+02  0.94421595443E+02  0.11520017858E+03  0.41800000000E+01 0. -1.
         -5    1    1    2    0  502  0.54193843214E+02  0.49407099670E+01  0.52725669540E+02  0.75887099600E+02  0.41800000000E+01 0.  1.
        -11    1    3    3    0    0 -0.37953322931E+02 -0.35789133272E+02  0.63596528890E+02  0.82254697548E+02  0.00000000000E+00 0. -1.
         11    1    3    3    0    0  0.33446372366E+02 -0.12387947475E+02 -0.10582018668E+02  0.37203496962E+02  0.00000000000E+00 0.  1.
</event>
<event>
 7    1  0.6610867E-006  0.8266526E+02  0.7561462E-02  0.1321654E+00
         -1   -1    0    0    0  501 -0.00000000000E+00  0.00000000000E+00  0.18926883713E+02  0.18926883713E+02  0.00000000000E+00 0.  1.
          1   -1    0    0  501    0  0.00000000000E+00 -0.00000000000E+00 -0.74977486136E+03  0.74977486136E+03  0.00000000000E+00 0. -1.
         23    2    1    2    0    0  0.20395082201E+02  0.14052855293E+02 -0.16316283444E+03  0.18687044925E+03  0.87664201022E+02 0.  0.
          5    1    1    2  502    0 -0.53073498793E+02  0.23471422977E+02 -0.14547367089E+03  0.15667726476E+03  0.41800000000E+01 0.  1.
         -5    1    1    2    0  502  0.32678416593E+02 -0.37524278270E+02 -0.42221147232E+03  0.42515403107E+03  0.41800000000E+01 0.  1.
        -11    1    3    3    0    0  0.25624702985E+02 -0.13641986367E+02 -0.15476154044E+03  0.15746067317E+03  0.00000000000E+00 0.  1.
         11    1    3    3    0    0 -0.52296207842E+01  0.27694841660E+02 -0.84012939929E+01  0.29409776076E+02  0.00000000000E+00 0. -1.
</event>
<event>
 7    1  0.6610867E-006  0.1081220E+03  0.7561462E-02  0.1264088E+00
         -1   -1    0    0    0  501 -0.00000000000E+00  0.00000000000E+00  0.37382290975E+02  0.37382290975E+02  0.00000000000E+00 0.  1.
          1   -1    0    0  501    0  0.00000000000E+00 -0.00000000000E+00 -0.37349206720E+03  0.37349206720E+03  0.00000000000E+00 0. -1.
         23    2    1    2    0    0  0.33998063372E+02  0.33138971850E+02 -0.13363074006E+03  0.16818096673E+03  0.90407981470E+02 0.  0.
          5    1    1    2  502    0 -0.77844155551E+02 -0.41825594529E+02 -0.12482253058E+03  0.15299421379E+03  0.41800000000E+01 0. -1.
         -5    1    1    2    0  502  0.43846092179E+02  0.86866226796E+01 -0.77656505578E+02  0.89699177653E+02  0.41800000000E+01 0. -1.
        -11    1    3    3    0    0  0.42947001271E+02  0.48700227579E+02 -0.13537873171E+03  0.15014512341E+03  0.00000000000E+00 0. -1.
         11    1    3    3    0    0 -0.89489378997E+01 -0.15561255729E+02  0.17479916526E+01  0.18035843319E+02  0.00000000000E+00 0.  1.
</event>
<event>
 7    1  0.6610867E-006  0.1360789E+03  0.7561462E-02  0.1218705E+00
          1   -1    0    0  501    0  0.00000000000E+00  0.00000000000E+00  0.15605737062E+04  0.15605737062E+04  0.00000000000E+00 0. -1.
         -1   -1    0    0    0  501 -0.00000000000E+00 -0.00000000000E+00 -0.15090021693E+02  0.15090021693E+02  0.00000000000E+00 0.  1.
         23    2    1    2    0    0  0.96000089109E+02 -0.25230146498E+02  0.47132129829E+03  0.48969640446E+03  0.88352843319E+02 0.  0.
          5    1    1    2  502    0  0.14952779966E+02 -0.23083325626E+02  0.40376695055E+03  0.40472416324E+03  0.41800000000E+01 0.  1.
         -5    1    1    2    0  502 -0.11095286907E+03  0.48313472124E+02  0.67039543568E+03  0.68124316020E+03  0.41800000000E+01 0.  1.
        -11    1    3    3    0    0  0.54602389759E+02 -0.50811643736E+02  0.18852341759E+03  0.20274201115E+03  0.00000000000E+00 0.  1.
         11    1    3    3    0    0  0.41397699349E+02  0.25581497238E+02  0.28279788070E+03  0.28695439331E+03  0.00000000000E+00 0. -1.
</event>
<event>
 7    1  0.6610867E-006  0.9125065E+02  0.7561462E-02  0.1299851E+00
         -2   -1    0    0    0  501 -0.00000000000E+00  0.00000000000E+00  0.22536763076E+02  0.22536763076E+02  0.00000000000E+00 0.  1.
          2   -1    0    0  501    0  0.00000000000E+00 -0.00000000000E+00 -0.13609171548E+04  0.13609171548E+04  0.00000000000E+00 0. -1.
         23    2    1    2    0    0 -0.44360431100E+02  0.42435867564E+02 -0.14443573328E+03  0.18140510461E+03  0.90980658530E+02 0.  0.
          5    1    1    2  502    0 -0.79788004085E+01 -0.63165199444E+02 -0.32092912012E+03  0.32721014077E+03  0.41800000000E+01 0. -1.
         -5    1    1    2    0  502  0.52339231509E+02  0.20729331881E+02 -0.87301553829E+03  0.87483867247E+03  0.41800000000E+01 0. -1.
        -11    1    3    3    0    0 -0.25584562901E+02  0.31268002390E+02 -0.15277094309E+03  0.15802284292E+03  0.00000000000E+00 0. -1.
         11    1    3    3    0    0 -0.18775868200E+02  0.11167865174E+02  0.83352098078E+01  0.23382261690E+02  0.00000000000E+00 0.  1.
</event>
<event>
 7    1  0.6610867E-006  0.7569592E+02  0.7561462E-02  0.1341729E+00
         -3   -1    0    0    0  501 -0.00000000000E+00  0.00000000000E+00  0.96428698032E+02  0.96428698032E+02  0.00000000000E+00 0.  1.
          3   -1    0    0  501    0  0.00000000000E+00 -0.00000000000E+00 -0.13429446255E+03  0.13429446255E+03  0.00000000000E+00 0. -1.
         23    2    1    2    0    0 -0.22665559793E+02 -0.54715035099E+01  0.73732399029E+01  0.95584359061E+02  0.92403138903E+02 0.  0.
          5    1    1    2  502    0  0.10848974299E+02 -0.27744337917E+02  0.35742745934E+02  0.46716857949E+02  0.41800000000E+01 0. -1.
         -5    1    1    2    0  502  0.11816585494E+02  0.33215841427E+02 -0.80981750354E+02  0.88421943570E+02  0.41800000000E+01 0. -1.
        -11    1    3    3    0    0 -0.53298735805E+02 -0.11651766222E+02  0.24659475741E+02  0.59871601267E+02  0.00000000000E+00 0.  1.
         11    1    3    3    0    0  0.30633176012E+02  0.61802627121E+01 -0.17286235838E+02  0.35712757794E+02  0.00000000000E+00 0. -1.
</event>
<event>
 7    1  0.6610867E-006  0.1474484E+03  0.7561462E-02  0.1203644E+00
          2   -1    0    0  501    0  0.00000000000E+00  0.00000000000E+00  0.36717409027E+03  0.36717409027E+03  0.00000000000E+00 0. -1.
         -2   -1    0    0    0  501 -0.00000000000E+00 -0.00000000000E+00 -0.63062353064E+02  0.63062353064E+02  0.00000000000E+00 0.  1.
         23    2    1    2    0    0 -0.92103846582E+02  0.46951905932E+02  0.11539813866E+03  0.18138195778E+03  0.94313753896E+02 0.  0.
          5    1    1    2  502    0  0.11846619945E+03 -0.26371923005E+02  0.11258091346E+03  0.16559484658E+03  0.41800000000E+01 0. -1.
         -5    1    1    2    0  502 -0.26362352872E+02 -0.20579982926E+02  0.76132685076E+02  0.83259638980E+02  0.41800000000E+01 0. -1.
        -11    1    3    3    0    0 -0.60527924095E+02  0.75788609905E+02  0.75748849898E+02  0.12306677556E+03  0.00000000000E+00 0. -1.
         11    1    3    3    0    0 -0.31575922487E+02 -0.28836703973E+02  0.39649288764E+02  0.58315182213E+02  0.00000000000E+00 0.  1.
</event>
<event>
 7    1  0.6610867E-006  0.9158632E+02  0.7561462E-02  0.1299055E+00
         -1   -1    0    0    0  501 -0.00000000000E+00  0.00000000000E+00  0.22086101102E+02  0.22086101102E+02  0.00000000000E+00 0.  1.
          1   -1    0    0  501    0  0.00000000000E+00 -0.00000000000E+00 -0.82831666338E+03  0.82831666338E+03  0.00000000000E+00 0. -1.
         23    2    1    2    0    0  0.28209152710E+02 -0.64969504997E+00 -0.11796466117E+03  0.15266879055E+03  0.92714184038E+02 0.  0.
          5    1    1    2  502    0  0.36872541297E+02  0.25134466374E+02 -0.25729125429E+03  0.26116582402E+03  0.41800000000E+01 0. -1.
         -5    1    1    2    0  502 -0.65081694008E+02 -0.24484771324E+02 -0.43097464682E+03  0.43656814992E+03  0.41800000000E+01 0.  1.
        -11    1    3    3    0    0  0.11529749578E+02  0.30913217357E+02 -0.11164071695E+03  0.11641396744E+03  0.00000000000E+00 0. -1.
         11    1    3    3    0    0  0.16679403132E+02 -0.31562912407E+02 -0.63239442204E+01  0.36254823113E+02  0.00000000000E+00 0.  1.
</event>
<event>
 7    1  0.6610867E-006  0.1032303E+03  0.7561462E-02  0.1273646E+00
          1   -1    0    0  501    0  0.00000000000E+00  0.00000000000E+00  0.10257815946E+03  0.10257815946E+03  0.00000000000E+00 0. -1.
         -1   -1    0    0    0  501 -0.00000000000E+00 -0.00000000000E+00 -0.14729630634E+03  0.14729630634E+03  0.00000000000E+00 0.  1.
         23    2    1    2    0    0 -0.38940939425E+01  0.35596223774E+02 -0.66510117262E+02  0.11795041895E+03  0.90589461404E+02 0.  0.
          5    1    1    2  502    0  0.61259745037E+00  0.45277934469E+02 -0.67996793733E+01  0.45980155122E+02  0.41800000000E+01 0. -1.
         -5    1    1    2    0  502  0.32814964921E+01 -0.80874158243E+02  0.28591649751E+02  0.85943891733E+02  0.41800000000E+01 0. -1.
        -11    1    3    3    0    0  0.43802145902E+01  0.56907720351E+02 -0.11285819493E+02  0.58181136436E+02  0.00000000000E+00 0. -1.
         11    1    3    3    0    0 -0.82743085327E+01 -0.21311496577E+02 -0.55224297769E+02  0.59769282513E+02  0.00000000000E+00 0.  1.
</event>
<event>
 7    1  0.6610867E-006  0.1161295E+03  0.7561462E-02  0.1249622E+00
         -1   -1    0    0    0  501 -0.00000000000E+00  0.00000000000E+00  0.12450517287E+03  0.12450517287E+03  0.00000000000E+00 0.  1.
          1   -1    0    0  501    0  0.00000000000E+00 -0.00000000000E+00 -0.18592738464E+03  0.18592738464E+03  0.00000000000E+00 0. -1.
         23    2    1    2    0    0 -0.28523281839E+01 -0.94520499274E+02  0.22620666703E+02  0.13252178109E+03  0.90044807416E+02 0.  0.
          5    1    1    2  502    0 -0.29214365751E+02  0.25390370694E+02 -0.93237677850E+02  0.10103903731E+03  0.41800000000E+01 0. -1.
         -5    1    1    2    0  502  0.32066693935E+02  0.69130128580E+02  0.91947993707E+01  0.76871739104E+02  0.41800000000E+01 0. -1.
        -11    1    3    3    0    0  0.30351830709E+02 -0.68159900000E+02 -0.14691799407E+02  0.76045082453E+02  0.00000000000E+00 0.  1.
         11    1    3    3    0    0 -0.33204158893E+02 -0.26360599273E+02  0.37312466111E+02  0.56476698639E+02  0.00000000000E+00 0. -1.
</event>
<event>
 7    1  0.6610867E-006  0.1195866E+03  0.7561462E-02  0.1243781E+00
          1   -1    0    0  501    0  0.00000000000E+00  0.00000000000E+00  0.35640749967E+03  0.35640749967E+03  0.00000000000E+00 0. -1.
         -1   -1    0    0    0  501 -0.00000000000E+00 -0.00000000000E+00 -0.49947483458E+02  0.49947483458E+02  0.00000000000E+00 0.  1.
         23    2    1    2    0    0  0.52102558203E+02  0.51997610495E+02  0.11878248969E+03  0.16910221926E+03  0.95225273085E+02 0.  0.
          5    1    1    2  502    0 -0.58324300967E+02  0.25316745046E+02  0.58396769029E+02  0.86430993839E+02  0.41800000000E+01 0. -1.
         -5    1    1    2    0  502  0.62217427648E+01 -0.77314355540E+02  0.12928075749E+03  0.15082177002E+03  0.41800000000E+01 0. -1.
        -11    1    3    3    0    0  0.19355301045E+02 -0.14144115733E+02  0.84295038566E+02  0.87637533142E+02  0.00000000000E+00 0. -1.
         11    1    3    3    0    0  0.32747257158E+02  0.66141726228E+02  0.34487451126E+02  0.81464686122E+02  0.00000000000E+00 0.  1.
</event>
<event>
 7    1  0.6610867E-006  0.1777833E+03  0.7561462E-02  0.1169966E+00
         -2   -1    0    0    0  501 -0.00000000000E+00  0.00000000000E+00  0.99191070863E+02  0.99191070863E+02  0.00000000000E+00 0.  1.
          2   -1    0    0  501    0  0.00000000000E+00 -0.00000000000E+00 -0.42437858800E+03  0.42437858800E+03  0.00000000000E+00 0. -1.
         23    2    1    2    0    0  0.12289273284E+03  0.96845966431E+02 -0.60765074684E+02  0.19183441377E+03  0.92877785322E+02 0.  0.
          5    1    1    2  502    0  0.11825532360E+02 -0.10264448195E+02  0.61176822896E+01  0.17323410431E+02  0.41800000000E+01 0.  1.
         -5    1    1    2    0  502 -0.13471826520E+03 -0.86581518236E+02 -0.27054012475E+03  0.31441183466E+03  0.41800000000E+01 0.  1.
        -11    1    3    3    0    0  0.90316869375E+02  0.15632467933E+02 -0.14328459224E+02  0.92772925420E+02  0.00000000000E+00 0. -1.
         11    1    3    3    0    0  0.32575863468E+02  0.81213498498E+02 -0.46436615460E+02  0.99061488351E+02  0.00000000000E+00 0.  1.
</event>
<event>
 7    1  0.6610867E-006  0.5941162E+02  0.7561462E-02  0.1400318E+00
          2   -1    0    0  501    0  0.00000000000E+00  0.00000000000E+00  0.33937347985E+03  0.33937347985E+03  0.00000000000E+00 0. -1.
         -2   -1    0    0    0  501 -0.00000000000E+00 -0.00000000000E+00 -0.36494217754E+02  0.36494217754E+02  0.00000000000E+00 0.  1.
         23    2    1    2    0    0  0.17250357785E+02 -0.20989562425E+01  0.93112837552E+02  0.13101755228E+03  0.90518605968E+02 0.  0.
          5    1    1    2  502    0 -0.10703708190E+02  0.10381102769E+02 -0.13951930532E+02  0.20843834323E+02  0.41800000000E+01 0. -1.
         -5    1    1    2    0  502 -0.65466495951E+01 -0.82821465263E+01  0.22371835508E+03  0.22400631101E+03  0.41800000000E+01 0. -1.
        -11    1    3    3    0    0 -0.32119916781E+02 -0.21808396371E+02  0.35192785762E+02  0.52400642897E+02  0.00000000000E+00 0.  1.
         11    1    3    3    0    0  0.49370274567E+02  0.19709440129E+02  0.57920051789E+02  0.78616909379E+02  0.00000000000E+00 0. -1.
</event>
<event>
 7    1  0.6610867E-006  0.7360729E+02  0.7561462E-02  0.1348239E+00
          1   -1    0    0  501    0  0.00000000000E+00  0.00000000000E+00  0.33818743971E+03  0.33818743971E+03  0.00000000000E+00 0.  1.
         -1   -1    0    0    0  501 -0.00000000000E+00 -0.00000000000E+00 -0.35772825639E+02  0.35772825639E+02  0.00000000000E+00 0. -1.
         23    2    1    2    0    0 -0.74357754802E+01 -0.16817473744E+02  0.11216077920E+03  0.14553915726E+03  0.90903727787E+02 0.  0.
          5    1    1    2  502    0 -0.20055268350E+02 -0.20445360287E+02  0.17800149878E+03  0.18033921513E+03  0.41800000000E+01 0. -1.
         -5    1    1    2    0  502  0.27491043830E+02  0.37262834031E+02  0.12252336092E+02  0.48081892960E+02  0.41800000000E+01 0. -1.
        -11    1    3    3    0    0 -0.37293994220E+02 -0.18969677764E+02  0.10735444934E+03  0.11522008711E+03  0.00000000000E+00 0.  1.
         11    1    3    3    0    0  0.29858218739E+02  0.21522040194E+01  0.48063298596E+01  0.30319070156E+02  0.00000000000E+00 0. -1.
</event>
<event>
 7    1  0.6610867E-006  0.1223492E+03  0.7561462E-02  0.1239271E+00
         -2   -1    0    0    0  501 -0.00000000000E+00  0.00000000000E+00  0.77084247142E+03  0.77084247142E+03  0.00000000000E+00 0.  1.
          2   -1    0    0  501    0  0.00000000000E+00 -0.00000000000E+00 -0.22335385920E+02  0.22335385920E+02  0.00000000000E+00 0. -1.
         23    2    1    2    0    0  0.63398189040E+02  0.11697477509E+02  0.44178892536E+03  0.45571684502E+03  0.91346740020E+02 0.  0.
          5    1    1    2  502    0 -0.43407506289E+02  0.50975322821E+02  0.20969941685E+03  0.22016814703E+03  0.41800000000E+01 0. -1.
         -5    1    1    2    0  502 -0.19990682751E+02 -0.62672800330E+02  0.97018743291E+02  0.11729286529E+03  0.41800000000E+01 0. -1.
        -11    1    3    3    0    0 -0.19991095525E+02 -0.14038984933E+02  0.88632867701E+02  0.91937599681E+02  0.00000000000E+00 0. -1.
         11    1    3    3    0    0  0.83389284565E+02  0.25736462441E+02  0.35315605766E+03  0.36377924534E+03  0.00000000000E+00 0.  1.
</event>
<event>
 7    1  0.6610867E-006  0.1452445E+03  0.7561462E-02  0.1206441E+00
         -1   -1    0    0    0  501 -0.00000000000E+00  0.00000000000E+00  0.24759837085E+03  0.24759837085E+03  0.00000000000E+00 0.  1.
          1   -1    0    0  501    0  0.00000000000E+00 -0.00000000000E+00 -0.11898861708E+03  0.11898861708E+03  0.00000000000E+00 0. -1.
         23    2    1    2    0    0 -0.13305278349E+02  0.12207987941E+03  0.11539443837E+03  0.19079428350E+03  0.89476560170E+02 0.  0.
          5    1    1    2  502    0  0.44369545349E+02 -0.74363324677E+02 -0.42032232809E+02  0.96346985456E+02  0.41800000000E+01 0. -1.
         -5    1    1    2    0  502 -0.31064267000E+02 -0.47716554737E+02  0.55247548201E+02  0.79445718969E+02  0.41800000000E+01 0. -1.
        -11    1    3    3    0    0 -0.28510270123E+02  0.53753716795E+01  0.50177951733E+01  0.29443308096E+02  0.00000000000E+00 0.  1.
         11    1    3    3    0    0  0.15204991775E+02  0.11670450773E+03  0.11037664320E+03  0.16135097541E+03  0.00000000000E+00 0. -1.
</event>
<event>
 7    1  0.6610867E-006  0.6541657E+02  0.7561462E-02  0.1376411E+00
         -2   -1    0    0    0  501 -0.00000000000E+00  0.00000000000E+00  0.27887021262E+02  0.27887021262E+02  0.00000000000E+00 0.  1.
          2   -1    0    0  501    0  0.00000000000E+00 -0.00000000000E+00 -0.45530041270E+03  0.45530041270E+03  0.00000000000E+00 0. -1.
         23    2    1    2    0    0 -0.27766255165E+02 -0.18847380355E+02 -0.13733455994E+03  0.16550895524E+03  0.86059538924E+02 0.  0.
          5    1    1    2  502    0  0.99067696298E+01  0.28659612233E+02 -0.29476934524E+03  0.29635444446E+03  0.41800000000E+01 0. -1.
         -5    1    1    2    0  502  0.17859485535E+02 -0.98122318775E+01  0.46905137398E+01  0.21324034260E+02  0.41800000000E+01 0. -1.
        -11    1    3    3    0    0  0.29766175467E+01  0.25382469539E+02 -0.10350434982E+02  0.27572840192E+02  0.00000000000E+00 0.  1.
         11    1    3    3    0    0 -0.30742872712E+02 -0.44229849895E+02 -0.12698412496E+03  0.13793611505E+03  0.00000000000E+00 0. -1.
</event>
<event>
 7    1  0.6610867E-006  0.1092821E+03  0.7561462E-02  0.1261905E+00
         -1   -1    0    0    0  501 -0.00000000000E+00  0.00000000000E+00  0.37088024701E+02  0.37088024701E+02  0.00000000000E+00 0.  1.
          1   -1    0    0  501    0  0.00000000000E+00 -0.00000000000E+00 -0.77275523661E+03  0.77275523661E+03  0.00000000000E+00 0. -1.
         23    2    1    2    0    0  0.21220119721E+02  0.66833843719E+02 -0.81747993247E+02  0.14038479256E+03  0.90044985625E+02 0.  0.
          5    1    1    2  502    0  0.16805838412E+02  0.95377680848E+01 -0.41944049983E+03  0.41990619253E+03  0.41800000000E+01 0.  1.
         -5    1    1    2    0  502 -0.38025958133E+02 -0.76371611804E+02 -0.23447871883E+03  0.24955227622E+03  0.41800000000E+01 0.  1.
        -11    1    3    3    0    0  0.55702877123E+02  0.31444453132E+02 -0.38077282167E+02  0.74440872978E+02  0.00000000000E+00 0.  1.
         11    1    3    3    0    0 -0.34482757402E+02  0.35389390587E+02 -0.43670711080E+02  0.65943919586E+02  0.00000000000E+00 0. -1.
</event>
<event>
 7    1  0.6610867E-006  0.1118531E+03  0.7561462E-02  0.1257176E+00
         -2   -1    0    0    0  501 -0.00000000000E+00  0.00000000000E+00  0.10932916673E+02  0.10932916673E+02  0.00000000000E+00 0.  1.
          2   -1    0    0  501    0  0.00000000000E+00 -0.00000000000E+00 -0.14271620934E+04  0.14271620934E+04  0.00000000000E+00 0. -1.
         23    2    1    2    0    0 -0.11881518266E+02  0.40218401549E+02 -0.35952147366E+03  0.37318306338E+03  0.90836217840E+02 0.  0.
          5    1    1    2  502    0 -0.49126680690E+02  0.26389762676E+01 -0.25515194348E+03  0.25988532397E+03  0.41800000000E+01 0.  1.
         -5    1    1    2    0  502  0.61008198956E+02 -0.42857377817E+02 -0.80155575957E+03  0.80502662271E+03  0.41800000000E+01 0.  1.
        -11    1    3    3    0    0 -0.50863270801E+02  0.14263564486E+02 -0.20696293745E+03  0.21359817196E+03  0.00000000000E+00 0.  1.
         11    1    3    3    0    0  0.38981752535E+02  0.25954837063E+02 -0.15255853622E+03  0.15958489142E+03  0.00000000000E+00 0. -1.
</event>
<event>
 7    1  0.6610867E-006  0.1103397E+03  0.7561462E-02  0.1259942E+00
          1   -1    0    0  501    0  0.00000000000E+00  0.00000000000E+00  0.12037236087E+04  0.12037236087E+04  0.00000000000E+00 0. -1.
         -1   -1    0    0    0  501 -0.00000000000E+00 -0.00000000000E+00 -0.28924710075E+02  0.28924710075E+02  0.00000000000E+00 0.  1.
         23    2    1    2    0    0 -0.39425208313E+02 -0.91144226089E+02  0.17787992897E+03  0.22298582925E+03  0.90663079124E+02 0.  0.
          5    1    1    2  502    0  0.21718032340E+01  0.75698284010E+02  0.24090588835E+03  0.25256299486E+03  0.41800000000E+01 0.  1.
         -5    1    1    2    0  502  0.37253405079E+02  0.15445942079E+02  0.75601308129E+03  0.75709949465E+03  0.41800000000E+01 0.  1.
        -11    1    3    3    0    0 -0.18251418512E+02 -0.76246202567E+02  0.51085568692E+02  0.93575279920E+02  0.00000000000E+00 0.  1.
         11    1    3    3    0    0 -0.21173789802E+02 -0.14898023522E+02  0.12679436028E+03  0.12941054933E+03  0.00000000000E+00 0. -1.
</event>
<event>
 7    1  0.6610867E-006  0.1803584E+03  0.7561462E-02  0.1167457E+00
         -2   -1    0    0    0  501 -0.00000000000E+00  0.00000000000E+00  0.66979223734E+02  0.66979223734E+02  0.00000000000E+00 0.  1.
          2   -1    0    0  501    0  0.00000000000E+00 -0.00000000000E+00 -0.51002316421E+03  0.51002316421E+03  0.00000000000E+00 0. -1.
         23    2    1    2    0    0 -0.20619760569E+02  0.14493247933E+03 -0.16035355141E+03  0.23496015012E+03  0.89790938321E+02 0.  0.
          5    1    1    2  502    0  0.48785589538E+02 -0.71236937654E+01 -0.98697273239E+02  0.11040563801E+03  0.41800000000E+01 0. -1.
         -5    1    1    2    0  502 -0.28165828969E+02 -0.13780878557E+03 -0.18399311583E+03  0.23163659981E+03  0.41800000000E+01 0. -1.
        -11    1    3    3    0    0 -0.30612817907E+02  0.59620290509E+01 -0.40897968320E+02  0.51432812710E+02  0.00000000000E+00 0.  1.
         11    1    3    3    0    0  0.99930573375E+01  0.13897045028E+03 -0.11945558309E+03  0.18352733741E+03  0.00000000000E+00 0. -1.
</event>
<event>
 7    1  0.6610867E-006  0.9763403E+02  0.7561462E-02  0.1285351E+00
         -2   -1    0    0    0  501 -0.00000000000E+00  0.00000000000E+00  0.17534006289E+02  0.17534006289E+02  0.00000000000E+00 0.  1.
          2   -1    0    0  501    0  0.00000000000E+00 -0.00000000000E+00 -0.14213085347E+04  0.14213085347E+04  0.00000000000E+00 0. -1.
         23    2    1    2    0    0  0.73685187191E+02  0.16199554683E+02 -0.25878285448E+03  0.28456994532E+03  0.91211598064E+02 0.  0.
          5    1    1    2  502    0 -0.47346087241E+02  0.76039082943E+01 -0.12957192839E+03  0.13822383450E+03  0.41800000000E+01 0.  1.
         -5    1    1    2    0  502 -0.26339099950E+02 -0.23803462977E+02 -0.10154197455E+04  0.10160487611E+04  0.41800000000E+01 0.  1.
        -11    1    3    3    0    0  0.66720221891E+02 -0.23760082775E+02 -0.20706863038E+03  0.21884594405E+03  0.00000000000E+00 0. -1.
         11    1    3    3    0    0  0.69649653002E+01  0.39959637458E+02 -0.51714224104E+02  0.65724001263E+02  0.00000000000E+00 0.  1.
</event>
<event>
 6    1  0.6610867E-006  0.7379316E+02  0.7561462E-02  0.1347649E+00
         -2   -1    0    0    0  501 -0.00000000000E+00  0.00000000000E+00  0.34791685233E+02  0.34791685233E+02  0.00000000000E+00 0.  1.
          2   -1    0    0  501    0  0.00000000000E+00 -0.00000000000E+00 -0.22298219532E+03  0.22298219532E+03  0.00000000000E+00 0. -1.
          5    1    1    2  502    0 -0.28767159212E+02 -0.53510246675E+02 -0.10692227199E+03  0.12304771674E+03  0.41800000000E+01 0.  1.
         -5    1    1    2    0  502  0.15690323763E+02  0.54036827169E+02 -0.34152799436E+02  0.65954916872E+02  0.41800000000E+01 0.  1.
        -11    1    1    2    0    0  0.10596933315E+02 -0.13440951729E+02  0.26301909180E+01  0.17316815046E+02  0.00000000000E+00 0.  1.
         11    1    1    2    0    0  0.24799021331E+01  0.12914371235E+02 -0.49745629581E+02  0.51454431892E+02  0.00000000000E+00 0. -1.
</event>
<event>
 7    1  0.6610867E-006  0.1824295E+03  0.7561462E-02  0.1165472E+00
         -2   -1    0    0    0  501 -0.00000000000E+00  0.00000000000E+00  0.14537989936E+03  0.14537989936E+03  0.00000000000E+00 0. -1.
          2   -1    0    0  501    0  0.00000000000E+00 -0.00000000000E+00 -0.37384392029E+03  0.37384392029E+03  0.00000000000E+00 0.  1.
         23    2    1    2    0    0  0.14833486214E+03  0.74258799157E+02  0.26347207655E+02  0.19044956630E+03  0.89773389017E+02 0.  0.
          5    1    1    2  502    0 -0.92666762610E+02 -0.94478856315E+02 -0.10955586986E+03  0.17185268169E+03  0.41800000000E+01 0. -1.
         -5    1    1    2    0  502 -0.55668099525E+02  0.20220057159E+02 -0.14525535872E+03  0.15692157166E+03  0.41800000000E+01 0. -1.
        -11    1    3    3    0    0  0.63111065357E+02  0.59211272203E+02  0.51020155178E+02  0.10045913378E+03  0.00000000000E+00 0. -1.
         11    1    3    3    0    0  0.85223796779E+02  0.15047526953E+02 -0.24672947523E+02  0.89990432515E+02  0.00000000000E+00 0.  1.
</event>
<event>
 7    1  0.6610867E-006  0.9648167E+02  0.7561462E-02  0.1287873E+00
          2   -1    0    0  501    0  0.00000000000E+00  0.00000000000E+00  0.92389806640E+02  0.92389806640E+02  0.00000000000E+00 0. -1.
         -2   -1    0    0    0  501 -0.00000000000E+00 -0.00000000000E+00 -0.12734339771E+03  0.12734339771E+03  0.00000000000E+00 0.  1.
         23    2    1    2    0    0 -0.43490317885E+02  0.84258945946E+01 -0.27814688629E+02  0.86841270965E+02  0.69320602924E+02 0.  0.
          5    1    1    2  502    0 -0.40136692283E+01 -0.48267972404E+02  0.33142710500E+02  0.58837219172E+02  0.41800000000E+01 0. -1.
         -5    1    1    2    0  502  0.47503987113E+02  0.39842077809E+02 -0.40281612937E+02  0.74054714209E+02  0.41800000000E+01 0. -1.
        -11    1    3    3    0    0  0.15906346419E+02 -0.11422266579E+02 -0.52407696341E+01  0.20271795593E+02  0.00000000000E+00 0.  1.
         11    1    3    3    0    0 -0.59396664305E+02  0.19848161173E+02 -0.22573918995E+02  0.66569475372E+02  0.00000000000E+00 0. -1.
</event>
<event>
 7    1  0.6610867E-006  0.7885499E+02  0.7561462E-02  0.1332333E+00
         -2   -1    0    0    0  501 -0.00000000000E+00  0.00000000000E+00  0.11211695596E+03  0.11211695596E+03  0.00000000000E+00 0.  1.
          2   -1    0    0  501    0  0.00000000000E+00 -0.00000000000E+00 -0.13326389718E+03  0.13326389718E+03  0.00000000000E+00 0. -1.
         23    2    1    2    0    0 -0.14072524653E+02  0.33275709220E+02  0.32276105713E+02  0.10464401434E+03  0.92754050924E+02 0.  0.
          5    1    1    2  502    0  0.24618399437E+02  0.51388938331E+01  0.35211614948E+02  0.43471876518E+02  0.41800000000E+01 0. -1.
         -5    1    1    2    0  502 -0.10545874784E+02 -0.38414603053E+02 -0.88634661873E+02  0.97264962283E+02  0.41800000000E+01 0. -1.
        -11    1    3    3    0    0 -0.71274315604E+01 -0.28815019395E+02  0.29883300529E+02  0.42120271531E+02  0.00000000000E+00 0.  1.
         11    1    3    3    0    0 -0.69450930930E+01  0.62090728615E+02  0.23928051844E+01  0.62523742808E+02  0.00000000000E+00 0. -1.
</event>
<event>
 7    1  0.6610867E-006  0.1025244E+03  0.7561462E-02  0.1275075E+00
          1   -1    0    0  501    0  0.00000000000E+00  0.00000000000E+00  0.48544580469E+03  0.48544580469E+03  0.00000000000E+00 0. -1.
         -1   -1    0    0    0  501 -0.00000000000E+00 -0.00000000000E+00 -0.28955399845E+02  0.28955399845E+02  0.00000000000E+00 0.  1.
         23    2    1    2    0    0  0.33684160089E+02 -0.30102287911E+02  0.17005730012E+03  0.19859605643E+03  0.92087664357E+02 0.  0.
          5    1    1    2  502    0 -0.13168506763E+02  0.77124507789E+02  0.20505706817E+03  0.21951645240E+03  0.41800000000E+01 0. -1.
         -5    1    1    2    0  502 -0.20515653326E+02 -0.47022219878E+02  0.81376036556E+02  0.96288695698E+02  0.41800000000E+01 0. -1.
        -11    1    3    3    0    0  0.18066319969E+02 -0.48107981071E+02  0.16680323240E+03  0.17453964621E+03  0.00000000000E+00 0.  1.
         11    1    3    3    0    0  0.15617840120E+02  0.18005693160E+02  0.32540677278E+01  0.24056410226E+02  0.00000000000E+00 0. -1.
</event>
<event>
 7    1  0.6610867E-006  0.1169048E+03  0.7561462E-02  0.1248292E+00
          3   -1    0    0  501    0  0.00000000000E+00  0.00000000000E+00  0.68315325865E+03  0.68315325865E+03  0.00000000000E+00 0. -1.
         -3   -1    0    0    0  501 -0.00000000000E+00 -0.00000000000E+00 -0.29442539028E+02  0.29442539028E+02  0.00000000000E+00 0.  1.
         23    2    1    2    0    0 -0.27633087214E+02  0.81936613212E+02  0.21340150214E+03  0.24676654786E+03  0.88748701016E+02 0.  0.
          5    1    1    2  502    0 -0.15303293203E+02  0.61158249470E+01  0.25124649576E+01  0.17186592967E+02  0.41800000000E+01 0.  1.
         -5    1    1    2    0  502  0.42936380417E+02 -0.88052438159E+02  0.43779675252E+03  0.44864265685E+03  0.41800000000E+01 0.  1.
        -11    1    3    3    0    0  0.23391063263E+02  0.14216419148E+01  0.18689681053E+02  0.29974440514E+02  0.00000000000E+00 0.  1.
         11    1    3    3    0    0 -0.51024150477E+02  0.80514971297E+02  0.19471182109E+03  0.21679210735E+03  0.00000000000E+00 0. -1.
</event>
<event>
 7    1  0.6610867E-006  0.1035902E+03  0.7561462E-02  0.1272922E+00
          1   -1    0    0  501    0  0.00000000000E+00  0.00000000000E+00  0.53360663167E+03  0.53360663167E+03  0.00000000000E+00 0. -1.
         -1   -1    0    0    0  501 -0.00000000000E+00 -0.00000000000E+00 -0.28178104965E+02  0.28178104965E+02  0.00000000000E+00 0.  1.
         23    2    1    2    0    0 -0.49095329308E+02 -0.34989887651E+02  0.17901001053E+03  0.20705877711E+03  0.84818097780E+02 0.  0.
          5    1    1    2  502    0  0.88257498381E+02  0.30575297589E+02  0.17743586759E+03  0.20056219572E+03  0.41800000000E+01 0. -1.
         -5    1    1    2    0  502 -0.39162169074E+02  0.44145900623E+01  0.14898264858E+03  0.15416376380E+03  0.41800000000E+01 0. -1.
        -11    1    3    3    0    0 -0.22415277119E+02  0.77082440032E+01  0.28849267328E+01  0.23878535889E+02  0.00000000000E+00 0.  1.
         11    1    3    3    0    0 -0.26680052188E+02 -0.42698131654E+02  0.17612508380E+03  0.18318024122E+03  0.00000000000E+00 0. -1.
</event>
<event>
 7    1  0.6610867E-006  0.8833179E+02  0.7561462E-02  0.1306943E+00
         -2   -1    0    0    0  501 -0.00000000000E+00  0.00000000000E+00  0.15105850357E+02  0.15105850357E+02  0.00000000000E+00 0.  1.
          2   -1    0    0  501    0  0.00000000000E+00 -0.00000000000E+00 -0.92726232184E+03  0.92726232184E+03  0.00000000000E+00 0. -1.
         23    2    1    2    0    0  0.94280461086E+01  0.50576823260E+02 -0.30968445324E+03  0.32660900921E+03  0.90122589939E+02 0.  0.
          5    1    1    2  502    0  0.26378649683E+01 -0.70177332601E+02 -0.18970229893E+03  0.20232708905E+03  0.41800000000E+01 0. -1.
         -5    1    1    2    0  502 -0.12065911077E+02  0.19600509342E+02 -0.41276971931E+03  0.41343207393E+03  0.41800000000E+01 0.  1.
        -11    1    3    3    0    0 -0.73337003809E+01 -0.14214524044E+02 -0.85681318014E+01  0.18145212526E+02  0.00000000000E+00 0.  1.
         11    1    3    3    0    0  0.16761746489E+02  0.64791347303E+02 -0.30111632144E+03  0.30846379669E+03  0.00000000000E+00 0. -1.
</event>
<event>
 7    1  0.6610867E-006  0.1781620E+03  0.7561462E-02  0.1169594E+00
          3   -1    0    0  501    0  0.00000000000E+00  0.00000000000E+00  0.59346878888E+03  0.59346878888E+03  0.00000000000E+00 0. -1.
         -3   -1    0    0    0  501 -0.00000000000E+00 -0.00000000000E+00 -0.58978525127E+02  0.58978525127E+02  0.00000000000E+00 0.  1.
         23    2    1    2    0    0 -0.14666962168E+03  0.34570059471E+02  0.21942433199E+03  0.28147293420E+03  0.91503597098E+02 0.  0.
          5    1    1    2  502    0  0.16716673065E+03 -0.24313205079E+02  0.24901489454E+03  0.30093477346E+03  0.41800000000E+01 0.  1.
         -5    1    1    2    0  502 -0.20497108973E+02 -0.10256854392E+02  0.66051037222E+02  0.70039606340E+02  0.41800000000E+01 0.  1.
        -11    1    3    3    0    0 -0.65907222879E+02  0.48845078212E+02  0.58184843104E+02  0.10057375234E+03  0.00000000000E+00 0.  1.
         11    1    3    3    0    0 -0.80762398800E+02 -0.14275018741E+02  0.16123948889E+03  0.18089918186E+03  0.00000000000E+00 0. -1.
</event>
<event>
 7    1  0.6610867E-006  0.7170851E+02  0.7561462E-02  0.1354378E+00
         -2   -1    0    0    0  501 -0.00000000000E+00  0.00000000000E+00  0.41817633806E+02  0.41817633806E+02  0.00000000000E+00 0.  1.
          2   -1    0    0  501    0  0.00000000000E+00 -0.00000000000E+00 -0.45102455576E+03  0.45102455576E+03  0.00000000000E+00 0. -1.
         23    2    1    2    0    0  0.32750854381E+02 -0.47123381497E+02 -0.94700738260E+02  0.14954244411E+03  0.10050612527E+03 0.  0.
          5    1    1    2  502    0 -0.19850095101E+02  0.23778852038E+02 -0.31475294643E+03  0.31630104294E+03  0.41800000000E+01 0.  1.
         -5    1    1    2    0  502 -0.12900759280E+02  0.23344529459E+02  0.24676273924E+00  0.26998702516E+02  0.41800000000E+01 0.  1.
        -11    1    3    3    0    0  0.24459514994E+02  0.10736795871E+02  0.10894909668E+02  0.28848669224E+02  0.00000000000E+00 0.  1.
         11    1    3    3    0    0  0.82913393867E+01 -0.57860177368E+02 -0.10559564793E+03  0.12069377488E+03  0.00000000000E+00 0. -1.
</event>
<event>
 7    1  0.6610867E-006  0.8542662E+02  0.7561462E-02  0.1314321E+00
          2   -1    0    0  501    0  0.00000000000E+00  0.00000000000E+00  0.16475842524E+03  0.16475842524E+03  0.00000000000E+00 0. -1.
         -2   -1    0    0    0  501 -0.00000000000E+00 -0.00000000000E+00 -0.73749654348E+02  0.73749654348E+02  0.00000000000E+00 0.  1.
         23    2    1    2    0    0 -0.98537792802E+01  0.22290084066E+02  0.38821294603E+02  0.10079499219E+03  0.89769664825E+02 0.  0.
          5    1    1    2  502    0  0.65489469753E+02 -0.53339166169E+01  0.43113180791E+02  0.78699047471E+02  0.41800000000E+01 0.  1.
         -5    1    1    2    0  502 -0.55635690473E+02 -0.16956167449E+02  0.90742954949E+01  0.59014039920E+02  0.41800000000E+01 0.  1.
        -11    1    3    3    0    0  0.14347801384E+02  0.16406803735E+02 -0.24476067942E+02  0.32773777861E+02  0.00000000000E+00 0.  1.
         11    1    3    3    0    0 -0.24201580664E+02  0.58832803304E+01  0.63297362545E+02  0.68021214332E+02  0.00000000000E+00 0. -1.
</event>
<event>
 6    1  0.6610867E-006  0.1921174E+03  0.7561462E-02  0.1156565E+00
         -1   -1    0    0    0  501 -0.00000000000E+00  0.00000000000E+00  0.30790215531E+02  0.30790215531E+02  0.00000000000E+00 0.  1.
          1   -1    0    0  501    0  0.00000000000E+00 -0.00000000000E+00 -0.13426931249E+04  0.13426931249E+04  0.00000000000E+00 0. -1.
          5    1    1    2  502    0  0.15390578867E+02  0.12615619897E+02 -0.12487094070E+03  0.12651580144E+03  0.41800000000E+01 0. -1.
         -5    1    1    2    0  502 -0.13375140228E+03 -0.11275737620E+03 -0.55392330674E+03  0.58090633122E+03  0.41800000000E+01 0. -1.
        -11    1    1    2    0    0  0.64758897696E+02 -0.10842988732E+02 -0.36658842569E+03  0.37242228596E+03  0.00000000000E+00 0.  1.
         11    1    1    2    0    0  0.53601925718E+02  0.11098474504E+03 -0.26652023621E+03  0.29363892177E+03  0.00000000000E+00 0. -1.
</event>
<event>
 7    1  0.6610867E-006  0.8311952E+02  0.7561462E-02  0.1320425E+00
          1   -1    0    0  501    0  0.00000000000E+00  0.00000000000E+00  0.45023338580E+03  0.45023338580E+03  0.00000000000E+00 0. -1.
         -1   -1    0    0    0  501 -0.00000000000E+00 -0.00000000000E+00 -0.23709219144E+02  0.23709219144E+02  0.00000000000E+00 0.  1.
         23    2    1    2    0    0 -0.51789778286E+01 -0.30786373561E+02  0.15360647377E+03  0.17210463357E+03  0.71066402085E+02 0.  0.
          5    1    1    2  502    0  0.43230026043E+02  0.26273488585E+02  0.25377394680E+03  0.25880073383E+03  0.41800000000E+01 0.  1.
         -5    1    1    2    0  502 -0.38051048214E+02  0.45128849759E+01  0.19143746082E+02  0.43037237540E+02  0.41800000000E+01 0.  1.
        -11    1    3    3    0    0 -0.16408870224E+02  0.19455989517E+02  0.62041174924E+02  0.67058884095E+02  0.00000000000E+00 0.  1.
         11    1    3    3    0    0  0.11229892396E+02 -0.50242363078E+02  0.91565298844E+02  0.10504574948E+03  0.00000000000E+00 0. -1.
</event>
<event>
 7    1  0.6610867E-006  0.1161119E+03  0.7561462E-02  0.1249653E+00
          2   -1    0    0  501    0  0.00000000000E+00  0.00000000000E+00  0.90265810033E+03  0.90265810033E+03  0.00000000000E+00 0. -1.
         -2   -1    0    0    0  501 -0.00000000000E+00 -0.00000000000E+00 -0.17919778501E+02  0.17919778501E+02  0.00000000000E+00 0.  1.
         23    2    1    2    0    0 -0.29032462098E+02 -0.36451515567E+02  0.21867257220E+03  0.24126648249E+03  0.90665455905E+02 0.  0.
          5    1    1    2  502    0  0.22713317336E+02  0.82136117581E+02  0.37491982352E+03  0.38450563463E+03  0.41800000000E+01 0. -1.
         -5    1    1    2    0  502  0.63191447616E+01 -0.45684602013E+02  0.29114592611E+03  0.29480576172E+03  0.41800000000E+01 0. -1.
        -11    1    3    3    0    0 -0.60683081734E+02 -0.15481152922E+02  0.11647526459E+03  0.13224443189E+03  0.00000000000E+00 0. -1.
         11    1    3    3    0    0  0.31650619636E+02 -0.20970362645E+02  0.10219730762E+03  0.10902205060E+03  0.00000000000E+00 0.  1.
</event>
<event>
 7    1  0.6610867E-006  0.9819624E+02  0.7561462E-02  0.1284135E+00
          1   -1    0    0  501    0  0.00000000000E+00  0.00000000000E+00  0.86616286166E+03  0.86616286166E+03  0.00000000000E+00 0. -1.
         -1   -1    0    0    0  501 -0.00000000000E+00 -0.00000000000E+00 -0.19126922071E+02  0.19126922071E+02  0.00000000000E+00 0.  1.
         23    2    1    2    0    0 -0.41215557417E+02  0.49349581160E+02  0.24724837674E+03  0.26923215083E+03  0.84971100445E+02 0.  0.
          5    1    1    2  502    0 -0.98824624432E+01  0.25127831008E+02  0.36684835687E+02  0.45741890259E+02  0.41800000000E+01 0. -1.
         -5    1    1    2    0  502  0.51098019860E+02 -0.74477412169E+02  0.56310272716E+03  0.57031574263E+03  0.41800000000E+01 0. -1.
        -11    1    3    3    0    0 -0.35513503051E+02  0.73489633069E+01  0.27712759846E+02  0.45642230652E+02  0.00000000000E+00 0.  1.
         11    1    3    3    0    0 -0.57020543659E+01  0.42000617854E+02  0.21953561689E+03  0.22358992018E+03  0.00000000000E+00 0. -1.
</event>
<event>
 7    1  0.6610867E-006  0.7926961E+02  0.7561462E-02  0.1331137E+00
         -1   -1    0    0    0  501 -0.00000000000E+00  0.00000000000E+00  0.22762044599E+03  0.22762044599E+03  0.00000000000E+00 0.  1.
          1   -1    0    0  501    0  0.00000000000E+00 -0.00000000000E+00 -0.72433310341E+02  0.72433310341E+02  0.00000000000E+00 0. -1.
         23    2    1    2    0    0 -0.33644619174E+02 -0.18325326449E+02  0.13392342859E+03  0.16751225693E+03  0.93043503311E+02 0.  0.
          5    1    1    2  502    0 -0.21901495504E+02  0.15432680994E+02 -0.40867774845E+02  0.49045800725E+02  0.41800000000E+01 0. -1.
         -5    1    1    2    0  502  0.55546114678E+02  0.28926454549E+01  0.62131481914E+02  0.83495698682E+02  0.41800000000E+01 0. -1.
        -11    1    3    3    0    0  0.39778077341E+01 -0.34473864406E+02  0.11896565724E+03  0.12392375835E+03  0.00000000000E+00 0.  1.
         11    1    3    3    0    0 -0.37622426909E+02  0.16148537957E+02  0.14957771346E+02  0.43588498578E+02  0.00000000000E+00 0. -1.
</event>
<event>
 7    1  0.6610867E-006  0.2888937E+03  0.7561462E-02  0.1090928E+00
          1   -1    0    0  501    0  0.00000000000E+00  0.00000000000E+00  0.13147518965E+04  0.13147518965E+04  0.00000000000E+00 0. -1.
         -1   -1    0    0    0  501 -0.00000000000E+00 -0.00000000000E+00 -0.77257440275E+02  0.77257440275E+02  0.00000000000E+00 0.  1.
         23    2    1    2    0    0 -0.27909427709E+03  0.18407423483E+02  0.37541797123E+03  0.47710203732E+03  0.91952445048E+02 0.  0.
          5    1    1    2  502    0  0.20584949698E+03 -0.33450734111E+02  0.44887523810E+03  0.49497415973E+03  0.41800000000E+01 0.  1.
         -5    1    1    2    0  502  0.73244780111E+02  0.15043310628E+02  0.41320124692E+03  0.41993313976E+03  0.41800000000E+01 0.  1.
        -11    1    3    3    0    0 -0.30437697808E+02 -0.27997294777E+02  0.57647890005E+02  0.70947735585E+02  0.00000000000E+00 0.  1.
         11    1    3    3    0    0 -0.24865657928E+03  0.46404718260E+02  0.31777008123E+03  0.40615430174E+03  0.00000000000E+00 0. -1.
</event>
<event>
 7    1  0.6610867E-006  0.2450768E+03  0.7561462E-02  0.1116456E+00
         -1   -1    0    0    0  501 -0.00000000000E+00  0.00000000000E+00  0.79284973321E+02  0.79284973321E+02  0.00000000000E+00 0.  1.
          1   -1    0    0  501    0  0.00000000000E+00 -0.00000000000E+00 -0.10352761362E+04  0.10352761362E+04  0.00000000000E+00 0. -1.
         23    2    1    2    0    0  0.14661003187E+03  0.18603768981E+03 -0.23666761173E+03  0.34698165935E+03  0.90995549382E+02 0.  0.
          5    1    1    2  502    0 -0.11873369737E+03 -0.11949520878E+03 -0.31884983455E+03  0.36063760925E+03  0.41800000000E+01 0.  1.
         -5    1    1    2    0  502 -0.27876334494E+02 -0.66542481031E+02 -0.40047371661E+03  0.40694184094E+03  0.41800000000E+01 0.  1.
        -11    1    3    3    0    0  0.19878007230E+02  0.85024357991E+02 -0.11467810860E+03  0.14413655059E+03  0.00000000000E+00 0.  1.
         11    1    3    3    0    0  0.12673202464E+03  0.10101333182E+03 -0.12198950313E+03  0.20284510876E+03  0.00000000000E+00 0. -1.
</event>
<event>
 7    1  0.6610867E-006  0.1935137E+03  0.7561462E-02  0.1155330E+00
          2   -1    0    0  501    0  0.00000000000E+00  0.00000000000E+00  0.10050985822E+04  0.10050985822E+04  0.00000000000E+00 0. -1.
         -2   -1    0    0    0  501 -0.00000000000E+00 -0.00000000000E+00 -0.39885290753E+02  0.39885290753E+02  0.00000000000E+00 0.  1.
         23    2    1    2    0    0 -0.67480630356E+02  0.15359906594E+03  0.43074855090E+03  0.47101058150E+03  0.90334629346E+02 0.  0.
          5    1    1    2  502    0  0.85362821808E+02 -0.50691777254E+02  0.19624931661E+03  0.21997212164E+03  0.41800000000E+01 0.  1.
         -5    1    1    2    0  502 -0.17882191453E+02 -0.10290728869E+03  0.33821542398E+03  0.35400116985E+03  0.41800000000E+01 0.  1.
        -11    1    3    3    0    0 -0.19468694253E+02  0.12651127609E+03  0.23442112454E+03  0.26709061508E+03  0.00000000000E+00 0. -1.
         11    1    3    3    0    0 -0.48011936103E+02  0.27087789859E+02  0.19632742636E+03  0.20391996643E+03  0.00000000000E+00 0.  1.
</event>
<event>
 7    1  0.6610867E-006  0.1715102E+03  0.7561462E-02  0.1176282E+00
          2   -1    0    0  501    0  0.00000000000E+00  0.00000000000E+00  0.82841749362E+03  0.82841749362E+03  0.00000000000E+00 0. -1.
         -2   -1    0    0    0  501 -0.00000000000E+00 -0.00000000000E+00 -0.48768572573E+02  0.48768572573E+02  0.00000000000E+00 0.  1.
         23    2    1    2    0    0  0.11432484028E+03  0.96120370490E+02  0.20524480825E+03  0.27064101049E+03  0.93871350902E+02 0.  0.
          5    1    1    2  502    0 -0.14035577985E+03 -0.72264551322E+02  0.43863216848E+03  0.46619476825E+03  0.41800000000E+01 0. -1.
         -5    1    1    2    0  502  0.26030939575E+02 -0.23855819169E+02  0.13577194432E+03  0.14035028746E+03  0.41800000000E+01 0. -1.
        -11    1    3    3    0    0  0.80327112345E+02  0.71834600718E+02  0.20173484960E+03  0.22871293007E+03  0.00000000000E+00 0. -1.
         11    1    3    3    0    0  0.33997727935E+02  0.24285769773E+02  0.35099586456E+01  0.41928080422E+02  0.00000000000E+00 0.  1.
</event>
<event>
 7    1  0.6610867E-006  0.1111062E+03  0.7561462E-02  0.1258535E+00
          1   -1    0    0  501    0  0.00000000000E+00  0.00000000000E+00  0.87191246984E+03  0.87191246984E+03  0.00000000000E+00 0. -1.
         -1   -1    0    0    0  501 -0.00000000000E+00 -0.00000000000E+00 -0.17865591767E+02  0.17865591767E+02  0.00000000000E+00 0.  1.
         23    2    1    2    0    0 -0.41507975123E+02  0.26212775774E+02  0.24924354555E+03  0.27022565613E+03  0.92138692313E+02 0.  0.
          5    1    1    2  502    0  0.81761217136E+01 -0.74381615109E+02  0.30717789489E+03  0.31618855947E+03  0.41800000000E+01 0.  1.
         -5    1    1    2    0  502  0.33331853409E+02  0.48168839334E+02  0.29762543764E+03  0.30336384600E+03  0.41800000000E+01 0.  1.
        -11    1    3    3    0    0 -0.12180245580E+02 -0.25967933723E+02  0.24736241718E+02  0.37875765584E+02  0.00000000000E+00 0.  1.
         11    1    3    3    0    0 -0.29327729542E+02  0.52180709498E+02  0.22450730383E+03  0.23234989055E+03  0.00000000000E+00 0. -1.
</event>
<event>
 7    1  0.6610867E-006  0.9963212E+02  0.7561462E-02  0.1281071E+00
         -2   -1    0    0    0  501 -0.00000000000E+00  0.00000000000E+00  0.16777442892E+02  0.16777442892E+02  0.00000000000E+00 0. -1.
          2   -1    0    0  501    0  0.00000000000E+00 -0.00000000000E+00 -0.77166984377E+03  0.77166984377E+03  0.00000000000E+00 0.  1.
         23    2    1    2    0    0  0.19370016900E+02  0.33556282645E+02 -0.30550235491E+03  0.32036654382E+03  0.88327865845E+02 0.  0.
          5    1    1    2  502    0  0.50922886244E+02  0.68837598615E+00 -0.21368752973E+03  0.21971219121E+03  0.41800000000E+01 0.  1.
         -5    1    1    2    0  502 -0.70292903144E+02 -0.34244658631E+02 -0.23570251623E+03  0.24836855162E+03  0.41800000000E+01 0.  1.
        -11    1    3    3    0    0  0.25939929434E+02  0.47683690826E+02 -0.29830570558E+03  0.30320440019E+03  0.00000000000E+00 0.  1.
         11    1    3    3    0    0 -0.65699125338E+01 -0.14127408181E+02 -0.71966493300E+01  0.17162143636E+02  0.00000000000E+00 0. -1.
</event>
<event>
 7    1  0.6610867E-006  0.1242609E+03  0.7561462E-02  0.1236229E+00
          2   -1    0    0  501    0  0.00000000000E+00  0.00000000000E+00  0.10091920180E+04  0.10091920180E+04  0.00000000000E+00 0. -1.
         -2   -1    0    0    0  501 -0.00000000000E+00 -0.00000000000E+00 -0.16556166771E+02  0.16556166771E+02  0.00000000000E+00 0.  1.
         23    2    1    2    0    0 -0.60687698147E+02  0.20852593781E+02  0.33902801330E+03  0.35719104377E+03  0.92345116665E+02 0.  0.
          5    1    1    2  502    0  0.75737094930E+02 -0.58210405246E+02  0.37380432024E+03  0.38583895741E+03  0.41800000000E+01 0.  1.
         -5    1    1    2    0  502 -0.15049396783E+02  0.37357811464E+02  0.27980351765E+03  0.28271818355E+03  0.41800000000E+01 0.  1.
        -11    1    3    3    0    0  0.21523764494E+02  0.21190189234E+02  0.95123149122E+02  0.99803356941E+02  0.00000000000E+00 0.  1.
         11    1    3    3    0    0 -0.82211462642E+02 -0.33759545259E+00  0.24390486418E+03  0.25738768682E+03  0.00000000000E+00 0. -1.
</event>
<event>
 7    1  0.6610867E-006  0.1229949E+03  0.7561462E-02  0.1238237E+00
         -2   -1    0    0    0  501 -0.00000000000E+00  0.00000000000E+00  0.16343014870E+02  0.16343014870E+02  0.00000000000E+00 0. -1.
          2   -1    0    0  501    0  0.00000000000E+00 -0.00000000000E+00 -0.22380314623E+04  0.22380314623E+04  0.00000000000E+00 0.  1.
         23    2    1    2    0    0 -0.65927421994E+02  0.17183314677E+02 -0.21922630779E+03  0.24685257590E+03  0.90743203196E+02 0.  0.
          5    1    1    2  502    0  0.76167315056E+02  0.38237481378E+02 -0.11128845931E+04  0.11161510448E+04  0.41800000000E+01 0. -1.
         -5    1    1    2    0  502 -0.10239893062E+02 -0.55420796055E+02 -0.88957754655E+03  0.89137085647E+03  0.41800000000E+01 0. -1.
        -11    1    3    3    0    0  0.14462469189E+02 -0.11827367710E+02 -0.10788906971E+02  0.21574293862E+02  0.00000000000E+00 0. -1.
         11    1    3    3    0    0 -0.80389891183E+02  0.29010682388E+02 -0.20843740082E+03  0.22527828204E+03  0.00000000000E+00 0.  1.
</event>
<event>
 7    1  0.6610867E-006  0.1503926E+03  0.7561462E-02  0.1199991E+00
          2   -1    0    0  501    0  0.00000000000E+00  0.00000000000E+00  0.11184976491E+04  0.11184976491E+04  0.00000000000E+00 0. -1.
         -2   -1    0    0    0  501 -0.00000000000E+00 -0.00000000000E+00 -0.20983448604E+02  0.20983448604E+02  0.00000000000E+00 0.  1.
         23    2    1    2    0    0  0.21110556711E+02 -0.10327767954E+03  0.53791803818E+03  0.55646722853E+03  0.95854191012E+02 0.  0.
          5    1    1    2  502    0  0.40792889135E+02 -0.21672086932E+01  0.15239229961E+03  0.15782788720E+03  0.41800000000E+01 0.  1.
         -5    1    1    2    0  502 -0.61903445846E+02  0.10544488824E+03  0.40720386269E+03  0.42518598196E+03  0.41800000000E+01 0.  1.
        -11    1    3    3    0    0 -0.30585091859E+02 -0.68651691102E+02  0.21902718113E+03  0.23156296900E+03  0.00000000000E+00 0.  1.
         11    1    3    3    0    0  0.51695648571E+02 -0.34625988442E+02  0.31889085705E+03  0.32490425954E+03  0.00000000000E+00 0. -1.
</event>
<event>
 7    1  0.6610867E-006  0.1208330E+03  0.7561462E-02  0.1241729E+00
         -1   -1    0    0    0  501 -0.00000000000E+00  0.00000000000E+00  0.73473153549E+03  0.73473153549E+03  0.00000000000E+00 0.  1.
          1   -1    0    0  501    0  0.00000000000E+00 -0.00000000000E+00 -0.31639817193E+02  0.31639817193E+02  0.00000000000E+00 0. -1.
         23    2    1    2    0    0  0.76065155625E+02  0.69269414657E+02  0.25853320083E+03  0.29322877395E+03  0.92517772523E+02 0.  0.
          5    1    1    2  502    0 -0.35860905990E+02 -0.17895108874E+02  0.37695708461E+03  0.37910467623E+03  0.41800000000E+01 0. -1.
         -5    1    1    2    0  502 -0.40204249635E+02 -0.51374305783E+02  0.67601432852E+02  0.94037902502E+02  0.41800000000E+01 0. -1.
        -11    1    3    3    0    0 -0.20249638852E+02  0.16864758867E+02  0.31244891014E+02  0.40874333997E+02  0.00000000000E+00 0.  1.
         11    1    3    3    0    0  0.96314794477E+02  0.52404655790E+02  0.22728830982E+03  0.25235443995E+03  0.00000000000E+00 0. -1.
</event>
<event>
 7    1  0.6610867E-006  0.3014106E+03  0.7561462E-02  0.1084538E+00
         -1   -1    0    0    0  501 -0.00000000000E+00  0.00000000000E+00  0.41354644420E+03  0.41354644420E+03  0.00000000000E+00 0.  1.
          1   -1    0    0  501    0  0.00000000000E+00 -0.00000000000E+00 -0.30043033121E+03  0.30043033121E+03  0.00000000000E+00 0. -1.
         23    2    1    2    0    0  0.26753949099E+03 -0.79949573326E+02  0.23155337663E+03  0.37485406246E+03  0.94494912016E+02 0.  0.
          5    1    1    2  502    0 -0.26677031001E+02 -0.37384582482E+02 -0.36825068767E+02  0.59015498643E+02  0.41800000000E+01 0. -1.
         -5    1    1    2    0  502 -0.24086245999E+03  0.11733415581E+03 -0.81612194872E+02  0.28010721430E+03  0.41800000000E+01 0.  1.
        -11    1    3    3    0    0  0.67733464256E+02 -0.55277853284E+02  0.37157960125E+02  0.94995669609E+02  0.00000000000E+00 0. -1.
         11    1    3    3    0    0  0.19980602674E+03 -0.24671720043E+02  0.19439541651E+03  0.27985839285E+03  0.00000000000E+00 0.  1.
</event>
<event>
 7    1  0.6610867E-006  0.1550177E+03  0.7561462E-02  0.1194439E+00
         -2   -1    0    0    0  501 -0.00000000000E+00  0.00000000000E+00  0.15399844215E+03  0.15399844215E+03  0.00000000000E+00 0.  1.
          2   -1    0    0  501    0  0.00000000000E+00 -0.00000000000E+00 -0.16473512591E+03  0.16473512591E+03  0.00000000000E+00 0. -1.
         23    2    1    2    0    0 -0.68350452074E+02 -0.81998146706E+02  0.15134180492E+02  0.14104792513E+03  0.90939504082E+02 0.  0.
          5    1    1    2  502    0 -0.19514170951E+02  0.82212754607E+02 -0.29635642400E+02  0.89640858923E+02  0.41800000000E+01 0. -1.
         -5    1    1    2    0  502  0.87864623025E+02 -0.21460790112E+00  0.37647781547E+01  0.88044784005E+02  0.41800000000E+01 0.  1.
        -11    1    3    3    0    0 -0.17079542013E+02 -0.84431951139E+02  0.22902725250E+02  0.89134729216E+02  0.00000000000E+00 0.  1.
         11    1    3    3    0    0 -0.51270910061E+02  0.24338044332E+01 -0.77685447574E+01  0.51913195915E+02  0.00000000000E+00 0. -1.
</event>
<event>
 7    1  0.6610867E-006  0.1579494E+03  0.7561462E-02  0.1191032E+00
         -2   -1    0    0    0  501 -0.00000000000E+00  0.00000000000E+00  0.63662142685E+02  0.63662142685E+02  0.00000000000E+00 0.  1.
          2   -1    0    0  501    0  0.00000000000E+00 -0.00000000000E+00 -0.73475371464E+03  0.73475371464E+03  0.00000000000E+00 0. -1.
         23    2    1    2    0    0 -0.90686683715E+02  0.12119956665E+03 -0.12026169206E+03  0.21363005623E+03  0.90892886340E+02 0.  0.
          5    1    1    2  502    0  0.21371678043E+02 -0.56987470775E+02 -0.62340352409E+02  0.87224494187E+02  0.41800000000E+01 0.  1.
         -5    1    1    2    0  502  0.69315005672E+02 -0.64212095878E+02 -0.48848952749E+03  0.49756130691E+03  0.41800000000E+01 0.  1.
        -11    1    3    3    0    0 -0.54529807130E+02  0.10947266275E+03 -0.46863057474E+02  0.13097293579E+03  0.00000000000E+00 0.  1.
         11    1    3    3    0    0 -0.36156876585E+02  0.11726903904E+02 -0.73398634583E+02  0.82657120433E+02  0.00000000000E+00 0. -1.
</event>
<event>
 7    1  0.6610867E-006  0.9977015E+02  0.7561462E-02  0.1280780E+00
          2   -1    0    0  501    0  0.00000000000E+00  0.00000000000E+00  0.22307719837E+03  0.22307719837E+03  0.00000000000E+00 0.  1.
         -2   -1    0    0    0  501 -0.00000000000E+00 -0.00000000000E+00 -0.70001023734E+02  0.70001023734E+02  0.00000000000E+00 0. -1.
         23    2    1    2    0    0  0.21812711460E+01  0.27236845585E+01 -0.70754805982E+01  0.89835348984E+02  0.89488273534E+02 0.  0.
          5    1    1    2  502    0 -0.10281273624E+02 -0.56284802794E+02  0.36013209437E+02  0.67735568698E+02  0.41800000000E+01 0.  1.
         -5    1    1    2    0  502  0.81000024778E+01  0.53561118236E+02  0.12413844580E+03  0.13550730443E+03  0.41800000000E+01 0.  1.
        -11    1    3    3    0    0 -0.80968843162E+01 -0.41579598699E+02 -0.12161847247E+02  0.44071908196E+02  0.00000000000E+00 0.  1.
         11    1    3    3    0    0  0.10278155462E+02  0.44303283257E+02  0.50863666490E+01  0.45763440788E+02  0.00000000000E+00 0. -1.
</event>
<event>
 7    1  0.6610867E-006  0.1032364E+03  0.7561462E-02  0.1273634E+00
         -1   -1    0    0    0  501 -0.00000000000E+00  0.00000000000E+00  0.22912862009E+02  0.22912862009E+02  0.00000000000E+00 0.  1.
          1   -1    0    0  501    0  0.00000000000E+00 -0.00000000000E+00 -0.68276655969E+03  0.68276655969E+03  0.00000000000E+00 0. -1.
         23    2    1    2    0    0  0.51212887580E+02 -0.40375314873E+02 -0.23398734103E+03  0.26007663967E+03  0.92934691229E+02 0.  0.
          5    1    1    2  502    0 -0.64609767387E+02  0.19156855828E+02 -0.41021405313E+03  0.41573362740E+03  0.41800000000E+01 0. -1.
         -5    1    1    2    0  502  0.13396879807E+02  0.21218459046E+02 -0.15652303525E+02  0.29869154633E+02  0.41800000000E+01 0.  1.
        -11    1    3    3    0    0 -0.27256304718E+02 -0.14595734921E+02 -0.65894763973E+02  0.72787784304E+02  0.00000000000E+00 0. -1.
         11    1    3    3    0    0  0.78469192298E+02 -0.25779579952E+02 -0.16809257706E+03  0.18728885537E+03  0.00000000000E+00 0.  1.
</event>
<event>
 7    1  0.6610867E-006  0.1365453E+03  0.7561462E-02  0.1218055E+00
         -1   -1    0    0    0  501 -0.00000000000E+00  0.00000000000E+00  0.83887823757E+02  0.83887823757E+02  0.00000000000E+00 0.  1.
          1   -1    0    0  501    0  0.00000000000E+00 -0.00000000000E+00 -0.28471115958E+03  0.28471115958E+03  0.00000000000E+00 0. -1.
         23    2    1    2    0    0  0.67985201019E+02 -0.82427158092E+02 -0.12187342616E+03  0.18612432394E+03  0.91503595626E+02 0.  0.
          5    1    1    2  502    0 -0.10178522339E+02  0.10256321297E+03 -0.50077369196E+02  0.11466486069E+03  0.41800000000E+01 0. -1.
         -5    1    1    2    0  502 -0.57806678679E+02 -0.20136054881E+02 -0.28872540470E+02  0.67809798697E+02  0.41800000000E+01 0. -1.
        -11    1    3    3    0    0  0.51213110819E+02 -0.47556953779E+02 -0.12906019876E+03  0.14676846213E+03  0.00000000000E+00 0. -1.
         11    1    3    3    0    0  0.16772090200E+02 -0.34870204313E+02  0.71867726060E+01  0.39355861812E+02  0.00000000000E+00 0.  1.
</event>
<event>
 7    1  0.6610867E-006  0.1625393E+03  0.7561462E-02  0.1185859E+00
         -2   -1    0    0    0  501 -0.00000000000E+00  0.00000000000E+00  0.37122197645E+02  0.37122197645E+02  0.00000000000E+00 0.  1.
          2   -1    0    0  501    0  0.00000000000E+00 -0.00000000000E+00 -0.93830073638E+03  0.93830073638E+03  0.00000000000E+00 0. -1.
         23    2    1    2    0    0 -0.10316646051E+03  0.99991053477E+02 -0.30079283280E+03  0.34554055263E+03  0.90996790590E+02 0.  0.
          5    1    1    2  502    0  0.11666391377E+03 -0.88745382088E+02 -0.35861612592E+03  0.38743929820E+03  0.41800000000E+01 0. -1.
         -5    1    1    2    0  502 -0.13497453255E+02 -0.11245671390E+02 -0.24176958001E+03  0.24244308319E+03  0.41800000000E+01 0. -1.
        -11    1    3    3    0    0  0.48614450911E+01  0.32802483135E+02 -0.24070309167E+02  0.40975801781E+02  0.00000000000E+00 0. -1.
         11    1    3    3    0    0 -0.10802790561E+03  0.67188570342E+02 -0.27672252363E+03  0.30456475085E+03  0.00000000000E+00 0.  1.
</event>
<event>
 7    1  0.6610867E-006  0.3033319E+03  0.7561462E-02  0.1083587E+00
          1   -1    0    0  501    0  0.00000000000E+00  0.00000000000E+00  0.14819986707E+04  0.14819986707E+04  0.00000000000E+00 0. -1.
         -1   -1    0    0    0  501 -0.00000000000E+00 -0.00000000000E+00 -0.92853374645E+02  0.92853374645E+02  0.00000000000E+00 0.  1.
         23    2    1    2    0    0 -0.69183308065E+02 -0.11794258881E+03  0.18736738457E+03  0.24997063540E+03  0.93177236434E+02 0.  0.
          5    1    1    2  502    0 -0.90936800482E+02  0.23902484588E+03  0.10279760905E+04  0.10593180324E+04  0.41800000000E+01 0. -1.
         -5    1    1    2    0  502  0.16012010855E+03 -0.12108225707E+03  0.17380182096E+03  0.26556337757E+03  0.41800000000E+01 0.  1.
        -11    1    3    3    0    0 -0.77653849281E+01 -0.74421959869E+02  0.40856179698E+02  0.85253485168E+02  0.00000000000E+00 0.  1.
         11    1    3    3    0    0 -0.61417923137E+02 -0.43520628944E+02  0.14651120488E+03  0.16471715023E+03  0.00000000000E+00 0. -1.
</event>
<event>
 7    1  0.6610867E-006  0.1562286E+03  0.7561462E-02  0.1193022E+00
         -1   -1    0    0    0  501 -0.00000000000E+00  0.00000000000E+00  0.21879239172E+02  0.21879239172E+02  0.00000000000E+00 0.  1.
          1   -1    0    0  501    0  0.00000000000E+00 -0.00000000000E+00 -0.15240057429E+04  0.15240057429E+04  0.00000000000E+00 0. -1.
         23    2    1    2    0    0  0.13371415227E+03  0.35699458951E+02 -0.47754373553E+03  0.50445748619E+03  0.85296014841E+02 0.  0.
          5    1    1    2  502    0 -0.51459101450E+02 -0.59774156029E+02 -0.25184389485E+03  0.26393902445E+03  0.41800000000E+01 0.  1.
         -5    1    1    2    0  502 -0.82255050824E+02  0.24074697079E+02 -0.77273887332E+03  0.77748847140E+03  0.41800000000E+01 0.  1.
        -11    1    3    3    0    0  0.96003230311E+02  0.38932823383E+00 -0.19642360741E+03  0.21862983638E+03  0.00000000000E+00 0.  1.
         11    1    3    3    0    0  0.37710921963E+02  0.35310130717E+02 -0.28112012812E+03  0.28582764982E+03  0.00000000000E+00 0. -1.
</event>
<event>
 7    1  0.6610867E-006  0.2245598E+03  0.7561462E-02  0.1130528E+00
         -2   -1    0    0    0  501 -0.00000000000E+00  0.00000000000E+00  0.21568946234E+03  0.21568946234E+03  0.00000000000E+00 0. -1.
          2   -1    0    0  501    0  0.00000000000E+00 -0.00000000000E+00 -0.27055846580E+03  0.27055846580E+03  0.00000000000E+00 0.  1.
         23    2    1    2    0    0 -0.14955222732E+03  0.13110997657E+03  0.57338318132E+02  0.22587470156E+03  0.90421255384E+02 0.  0.
          5    1    1    2  502    0 -0.18960844771E+02 -0.24304409073E+02  0.65521050929E+00  0.31114620930E+02  0.41800000000E+01 0.  1.
         -5    1    1    2    0  502  0.16851307209E+03 -0.10680556750E+03 -0.11286253210E+03  0.22925860565E+03  0.41800000000E+01 0.  1.
        -11    1    3    3    0    0 -0.30033912690E+02  0.85349061387E+02  0.25150074256E+02  0.93909660984E+02  0.00000000000E+00 0. -1.
         11    1    3    3    0    0 -0.11951831463E+03  0.45760915187E+02  0.32188243876E+02  0.13196504057E+03  0.00000000000E+00 0.  1.
</event>
<event>
 7    1  0.6610867E-006  0.7874829E+02  0.7561462E-02  0.1332642E+00
          2   -1    0    0  501    0  0.00000000000E+00  0.00000000000E+00  0.47564766226E+02  0.47564766226E+02  0.00000000000E+00 0. -1.
         -2   -1    0    0    0  501 -0.00000000000E+00 -0.00000000000E+00 -0.26561702894E+03  0.26561702894E+03  0.00000000000E+00 0.  1.
         23    2    1    2    0    0 -0.15243791326E+02  0.21645103888E+02 -0.95539436725E+02  0.13610256884E+03  0.93248279223E+02 0.  0.
          5    1    1    2  502    0  0.59041813489E+02 -0.28927751997E+02 -0.26118550843E+02  0.70868904844E+02  0.41800000000E+01 0.  1.
         -5    1    1    2    0  502 -0.43798022163E+02  0.72826481090E+01 -0.96394275150E+02  0.10621032149E+03  0.41800000000E+01 0.  1.
        -11    1    3    3    0    0 -0.22496514901E+02 -0.17136696838E+01  0.12181203548E+02  0.25640038345E+02  0.00000000000E+00 0. -1.
         11    1    3    3    0    0  0.72527235744E+01  0.23358773572E+02 -0.10772064027E+03  0.11046253049E+03  0.00000000000E+00 0.  1.
</event>
<event>
 7    1  0.6610867E-006  0.2518561E+03  0.7561462E-02  0.1112137E+00
         -2   -1    0    0    0  501 -0.00000000000E+00  0.00000000000E+00  0.24204283180E+03  0.24204283180E+03  0.00000000000E+00 0.  1.
          2   -1    0    0  501    0  0.00000000000E+00 -0.00000000000E+00 -0.50374999226E+03  0.50374999226E+03  0.00000000000E+00 0. -1.
         23    2    1    2    0    0  0.23717057585E+03 -0.43813248817E+02  0.11353173033E+03  0.28252054246E+03  0.93589103526E+02 0.  0.
          5    1    1    2  502    0 -0.31478480079E+02 -0.29481286320E+02 -0.23629607214E+02  0.49354550837E+02  0.41800000000E+01 0. -1.
         -5    1    1    2    0  502 -0.20569209577E+03  0.73294535137E+02 -0.35160928358E+03  0.41391773077E+03  0.41800000000E+01 0. -1.
        -11    1    3    3    0    0  0.19786122725E+03 -0.29007603836E+02  0.12875599887E+03  0.23784157242E+03  0.00000000000E+00 0.  1.
         11    1    3    3    0    0  0.39309348603E+02 -0.14805644981E+02 -0.15224268540E+02  0.44678970036E+02  0.00000000000E+00 0. -1.
</event>
<event>
 7    1  0.6610867E-006  0.2997923E+03  0.7561462E-02  0.1085344E+00
         -1   -1    0    0    0  501 -0.00000000000E+00  0.00000000000E+00  0.21907235500E+03  0.21907235500E+03  0.00000000000E+00 0.  1.
          1   -1    0    0  501    0  0.00000000000E+00 -0.00000000000E+00 -0.46181266713E+03  0.46181266713E+03  0.00000000000E+00 0. -1.
         23    2    1    2    0    0  0.17721439858E+03 -0.23903155714E+03 -0.89498102519E+02  0.32357316738E+03  0.90269905936E+02 0.  0.
          5    1    1    2  502    0 -0.41963754471E+02  0.84322623156E+02 -0.11421968108E+03  0.14810425183E+03  0.41800000000E+01 0. -1.
         -5    1    1    2    0  502 -0.13525064411E+03  0.15470893399E+03 -0.39022528533E+02  0.20920760292E+03  0.41800000000E+01 0. -1.
        -11    1    3    3    0    0  0.14938118469E+03 -0.22047870773E+03 -0.48564205703E+02  0.27071032669E+03  0.00000000000E+00 0.  1.
         11    1    3    3    0    0  0.27833213888E+02 -0.18552849412E+02 -0.40933896816E+02  0.52862840684E+02  0.00000000000E+00 0. -1.
</event>
<event>
 7    1  0.6610867E-006  0.9077450E+02  0.7561462E-02  0.1300987E+00
         -1   -1    0    0    0  501 -0.00000000000E+00  0.00000000000E+00  0.32711041925E+03  0.32711041925E+03  0.00000000000E+00 0.  1.
          1   -1    0    0  501    0  0.00000000000E+00 -0.00000000000E+00 -0.42429180648E+02  0.42429180648E+02  0.00000000000E+00 0. -1.
         23    2    1    2    0    0 -0.44168353905E+02  0.13715679376E+02  0.14481254003E+03  0.17627810184E+03  0.89243117890E+02 0.  0.
          5    1    1    2  502    0  0.46521543088E+02 -0.53635250730E+02  0.31710525219E+02  0.77871842805E+02  0.41800000000E+01 0. -1.
         -5    1    1    2    0  502 -0.23531891828E+01  0.39919571354E+02  0.10815817336E+03  0.11538965526E+03  0.41800000000E+01 0. -1.
        -11    1    3    3    0    0 -0.51268951509E+02 -0.37095348575E+01  0.14846384047E+03  0.15711071881E+03  0.00000000000E+00 0.  1.
         11    1    3    3    0    0  0.71005976035E+01  0.17425214233E+02 -0.36513004381E+01  0.19167383032E+02  0.00000000000E+00 0. -1.
</event>
<event>
 7    1  0.6610867E-006  0.8241737E+02  0.7561462E-02  0.1322328E+00
          2   -1    0    0  501    0  0.00000000000E+00  0.00000000000E+00  0.10006939490E+04  0.10006939490E+04  0.00000000000E+00 0. -1.
         -2   -1    0    0    0  501 -0.00000000000E+00 -0.00000000000E+00 -0.15132822715E+02  0.15132822715E+02  0.00000000000E+00 0.  1.
         23    2    1    2    0    0 -0.38794493055E+02  0.42523737583E+02  0.41698476989E+03  0.43081414766E+03  0.91712870198E+02 0.  0.
          5    1    1    2  502    0  0.20263646722E+02 -0.40505715181E+02  0.56287442843E+02  0.72367651355E+02  0.41800000000E+01 0.  1.
         -5    1    1    2    0  502  0.18530846333E+02 -0.20180224019E+01  0.51228891352E+03  0.51264497267E+03  0.41800000000E+01 0.  1.
        -11    1    3    3    0    0 -0.24561960352E+02  0.67317778187E+02  0.35997136683E+03  0.36703454618E+03  0.00000000000E+00 0. -1.
         11    1    3    3    0    0 -0.14232532703E+02 -0.24794040603E+02  0.57013403062E+02  0.63779601482E+02  0.00000000000E+00 0.  1.
</event>
<event>
 7    1  0.6610867E-006  0.1645908E+03  0.7561462E-02  0.1183609E+00
          3   -1    0    0  501    0  0.00000000000E+00  0.00000000000E+00  0.82846061881E+03  0.82846061881E+03  0.00000000000E+00 0. -1.
         -3   -1    0    0    0  501 -0.00000000000E+00 -0.00000000000E+00 -0.35343887093E+02  0.35343887093E+02  0.00000000000E+00 0.  1.
         23    2    1    2    0    0 -0.11586658130E+03 -0.64433232020E+02  0.33645454516E+03  0.37210890453E+03  0.87673655232E+02 0.  0.
          5    1    1    2  502    0  0.27816569979E+02 -0.30993174580E+02  0.52347183890E+02  0.67022671517E+02  0.41800000000E+01 0. -1.
         -5    1    1    2    0  502  0.88050011322E+02  0.95426406600E+02  0.40431500267E+03  0.42467292986E+03  0.41800000000E+01 0. -1.
        -11    1    3    3    0    0 -0.29216501344E+01 -0.42205071310E+02  0.69039745677E+02  0.80970924207E+02  0.00000000000E+00 0.  1.
         11    1    3    3    0    0 -0.11294493117E+03 -0.22228160710E+02  0.26741479948E+03  0.29113798032E+03  0.00000000000E+00 0. -1.
</event>
<event>
 7    1  0.6610867E-006  0.9758021E+02  0.7561462E-02  0.1285468E+00
          2   -1    0    0  501    0  0.00000000000E+00  0.00000000000E+00  0.62693231307E+03  0.62693231307E+03  0.00000000000E+00 0. -1.
         -2   -1    0    0    0  501 -0.00000000000E+00 -0.00000000000E+00 -0.34701884017E+02  0.34701884017E+02  0.00000000000E+00 0.  1.
         23    2    1    2    0    0  0.78064645844E+02  0.52075686840E+01  0.12442534897E+03  0.17122102366E+03  0.87828035232E+02 0.  0.
          5    1    1    2  502    0 -0.15059609791E+02  0.26661742763E+02  0.36094378552E+03  0.36226444634E+03  0.41800000000E+01 0. -1.
         -5    1    1    2    0  502 -0.63005036053E+02 -0.31869311447E+02  0.10686129456E+03  0.12814872709E+03  0.41800000000E+01 0.  1.
        -11    1    3    3    0    0  0.23672352352E+02  0.26120345178E+02  0.16172728865E+01  0.35288358841E+02  0.00000000000E+00 0. -1.
         11    1    3    3    0    0  0.54392293492E+02 -0.20912776494E+02  0.12280807608E+03  0.13593266481E+03  0.00000000000E+00 0.  1.
</event>
<event>
 7    1  0.6610867E-006  0.9113911E+02  0.7561462E-02  0.1300116E+00
         -3   -1    0    0    0  501 -0.00000000000E+00  0.00000000000E+00  0.14142655854E+03  0.14142655854E+03  0.00000000000E+00 0.  1.
          3   -1    0    0  501    0  0.00000000000E+00 -0.00000000000E+00 -0.10597633780E+03  0.10597633780E+03  0.00000000000E+00 0. -1.
         23    2    1    2    0    0 -0.11543146881E+02 -0.45076416695E+02  0.49734536483E+02  0.11317541300E+03  0.90388176255E+02 0.  0.
          5    1    1    2  502    0 -0.14399347460E+02  0.65845122802E+02  0.33887216802E+02  0.75556186158E+02  0.41800000000E+01 0. -1.
         -5    1    1    2    0  502  0.25942494341E+02 -0.20768706107E+02 -0.48171532538E+02  0.58671297182E+02  0.41800000000E+01 0. -1.
        -11    1    3    3    0    0 -0.39258800964E+02 -0.20900169028E+02  0.60283188322E+02  0.74914172977E+02  0.00000000000E+00 0.  1.
         11    1    3    3    0    0  0.27715654083E+02 -0.24176247667E+02 -0.10548651839E+02  0.38261240023E+02  0.00000000000E+00 0. -1.
</event>
<event>
 7    1  0.6610867E-006  0.1151541E+03  0.7561462E-02  0.1251312E+00
          2   -1    0    0  501    0  0.00000000000E+00  0.00000000000E+00  0.64775677799E+02  0.64775677799E+02  0.00000000000E+00 0. -1.
         -2   -1    0    0    0  501 -0.00000000000E+00 -0.00000000000E+00 -0.21157879887E+03  0.21157879887E+03  0.00000000000E+00 0.  1.
         23    2    1    2    0    0 -0.15518188125E+02  0.69271634903E+02 -0.48714636615E+02  0.10225905179E+03  0.55176301859E+02 0.  0.
          5    1    1    2  502    0 -0.53677373254E+02 -0.34426364596E+02 -0.28886016457E+02  0.70130658956E+02  0.41800000000E+01 0.  1.
         -5    1    1    2    0  502  0.69195561379E+02 -0.34845270306E+02 -0.69202467999E+02  0.10396476593E+03  0.41800000000E+01 0.  1.
        -11    1    3    3    0    0  0.19216836616E+02  0.14988825808E+02 -0.20751119615E+02  0.32008759331E+02  0.00000000000E+00 0.  1.
         11    1    3    3    0    0 -0.34735024741E+02  0.54282809095E+02 -0.27963516999E+02  0.70250292454E+02  0.00000000000E+00 0. -1.
</event>
<event>
 7    1  0.6610867E-006  0.1079866E+03  0.7561462E-02  0.1264344E+00
         -2   -1    0    0    0  501 -0.00000000000E+00  0.00000000000E+00  0.15184068885E+02  0.15184068885E+02  0.00000000000E+00 0.  1.
          2   -1    0    0  501    0  0.00000000000E+00 -0.00000000000E+00 -0.12142804578E+04  0.12142804578E+04  0.00000000000E+00 0. -1.
         23    2    1    2    0    0 -0.43800871376E+02 -0.28716794422E+02 -0.25470110173E+03  0.27538192648E+03  0.90660816194E+02 0.  0.
          5    1    1    2  502    0  0.51980115331E+02 -0.26259286170E+02 -0.22231000258E+03  0.22984928137E+03  0.41800000000E+01 0.  1.
         -5    1    1    2    0  502 -0.81792439552E+01  0.54976080592E+02 -0.72208528461E+03  0.72423331884E+03  0.41800000000E+01 0.  1.
        -11    1    3    3    0    0 -0.70734938011E+02 -0.19370127101E+02 -0.15153992928E+03  0.16835374497E+03  0.00000000000E+00 0.  1.
         11    1    3    3    0    0  0.26934066635E+02 -0.93466673211E+01 -0.10316117245E+03  0.10702818151E+03  0.00000000000E+00 0. -1.
</event>
<event>
 7    1  0.6610867E-006  0.3288487E+02  0.7561462E-02  0.1568228E+00
         -2   -1    0    0    0  501 -0.00000000000E+00  0.00000000000E+00  0.57994871381E+02  0.57994871381E+02  0.00000000000E+00 0.  1.
          2   -1    0    0  501    0  0.00000000000E+00 -0.00000000000E+00 -0.27579804632E+03  0.27579804632E+03  0.00000000000E+00 0. -1.
         23    2    1    2    0    0  0.64372166612E+01 -0.72829426209E+00 -0.18716541318E+02  0.98563398290E+02  0.96552920166E+02 0.  0.
          5    1    1    2  502    0 -0.67797947003E+01 -0.46571907830E+01  0.16836333226E+02  0.19198686379E+02  0.41800000000E+01 0.  1.
         -5    1    1    2    0  502  0.34257803908E+00  0.53854850451E+01 -0.21592296684E+03  0.21603083303E+03  0.41800000000E+01 0.  1.
        -11    1    3    3    0    0 -0.11809545554E-01  0.24082308112E+02 -0.51555877647E+02  0.56903130172E+02  0.00000000000E+00 0. -1.
         11    1    3    3    0    0  0.64490262068E+01 -0.24810602374E+02  0.32839336328E+02  0.41660268118E+02  0.00000000000E+00 0.  1.
</event>
<event>
 7    1  0.6610867E-006  0.9023997E+02  0.7561462E-02  0.1302272E+00
         -3   -1    0    0    0  501 -0.00000000000E+00  0.00000000000E+00  0.35815762655E+02  0.35815762655E+02  0.00000000000E+00 0.  1.
          3   -1    0    0  501    0  0.00000000000E+00 -0.00000000000E+00 -0.36345421433E+03  0.36345421433E+03  0.00000000000E+00 0. -1.
         23    2    1    2    0    0  0.32051087361E+02 -0.79398645699E+01 -0.11198297258E+03  0.14779984112E+03  0.90632738208E+02 0.  0.
          5    1    1    2  502    0 -0.51533914036E+02  0.43721053035E+02 -0.59844893268E+02  0.90366799349E+02  0.41800000000E+01 0. -1.
         -5    1    1    2    0  502  0.19482826675E+02 -0.35781188465E+02 -0.15581058582E+03  0.16110333652E+03  0.41800000000E+01 0. -1.
        -11    1    3    3    0    0  0.51494366298E+02 -0.92819156718E+01 -0.11657264613E+03  0.12777717146E+03  0.00000000000E+00 0. -1.
         11    1    3    3    0    0 -0.19443278937E+02  0.13420511020E+01  0.45896735505E+01  0.20022669659E+02  0.00000000000E+00 0.  1.
</event>
<event>
 7    1  0.6610867E-006  0.9746635E+02  0.7561462E-02  0.1285716E+00
         -2   -1    0    0    0  501 -0.00000000000E+00  0.00000000000E+00  0.84790912098E+02  0.84790912098E+02  0.00000000000E+00 0.  1.
          2   -1    0    0  501    0  0.00000000000E+00 -0.00000000000E+00 -0.17547296187E+03  0.17547296187E+03  0.00000000000E+00 0. -1.
         23    2    1    2    0    0 -0.12738423206E+02 -0.30417123141E+02  0.95967445266E+01  0.96583877063E+02  0.90271141552E+02 0.  0.
          5    1    1    2  502    0  0.51536439078E+02  0.30057976565E+02 -0.41726603557E+01  0.59953064996E+02  0.41800000000E+01 0.  1.
         -5    1    1    2    0  502 -0.38798015872E+02  0.35914657668E+00 -0.96106133947E+02  0.10372693191E+03  0.41800000000E+01 0.  1.
        -11    1    3    3    0    0  0.42017525313E+01  0.31566036795E+02  0.27123586747E+01  0.31959760526E+02  0.00000000000E+00 0.  1.
         11    1    3    3    0    0 -0.16940175737E+02 -0.61983159936E+02  0.68843858519E+01  0.64624116537E+02  0.00000000000E+00 0. -1.
</event>
<event>
 7    1  0.6610867E-006  0.1379220E+03  0.7561462E-02  0.1216153E+00
         -2   -1    0    0    0  501 -0.00000000000E+00  0.00000000000E+00  0.20979995969E+02  0.20979995969E+02  0.00000000000E+00 0.  1.
          2   -1    0    0  501    0  0.00000000000E+00 -0.00000000000E+00 -0.10178458743E+04  0.10178458743E+04  0.00000000000E+00 0. -1.
         23    2    1    2    0    0 -0.95582335469E+02  0.26885050523E+02 -0.44852413555E+03  0.46770060726E+03  0.87813262494E+02 0.  0.
          5    1    1    2  502    0 -0.26308589521E+02 -0.99960573426E+01 -0.47487918877E+02  0.55359171636E+02  0.41800000000E+01 0. -1.
         -5    1    1    2    0  502  0.12189092499E+03 -0.16888993181E+02 -0.50085382390E+03  0.51576609137E+03  0.41800000000E+01 0. -1.
        -11    1    3    3    0    0 -0.80343679844E+02 -0.13164001498E+02 -0.36329555313E+03  0.37230640171E+03  0.00000000000E+00 0. -1.
         11    1    3    3    0    0 -0.15238655625E+02  0.40049052021E+02 -0.85228582414E+02  0.95394205555E+02  0.00000000000E+00 0.  1.
</event>
<event>
 7    1  0.6610867E-006  0.1117803E+03  0.7561462E-02  0.1257308E+00
         -1   -1    0    0    0  501 -0.00000000000E+00  0.00000000000E+00  0.27841431489E+02  0.27841431489E+02  0.00000000000E+00 0.  1.
          1   -1    0    0  501    0  0.00000000000E+00 -0.00000000000E+00 -0.70513455966E+03  0.70513455966E+03  0.00000000000E+00 0. -1.
         23    2    1    2    0    0  0.79554803247E+02  0.10526436294E+01 -0.21988803300E+03  0.25214732709E+03  0.94326309804E+02 0.  0.
          5    1    1    2  502    0  0.97831150191E+01  0.20586376647E+02 -0.28020719360E+03  0.28116374587E+03  0.41800000000E+01 0.  1.
         -5    1    1    2    0  502 -0.89337918267E+02 -0.21639020276E+02 -0.17719790156E+03  0.19966491819E+03  0.41800000000E+01 0.  1.
        -11    1    3    3    0    0  0.35605767198E+02 -0.36186935568E+02 -0.44389314413E+02  0.67436460447E+02  0.00000000000E+00 0.  1.
         11    1    3    3    0    0  0.43949036049E+02  0.37239579197E+02 -0.17549871859E+03  0.18471086664E+03  0.00000000000E+00 0. -1.
</event>
<event>
 7    1  0.6610867E-006  0.1725129E+03  0.7561462E-02  0.1175252E+00
          1   -1    0    0  501    0  0.00000000000E+00  0.00000000000E+00  0.45452149839E+03  0.45452149839E+03  0.00000000000E+00 0. -1.
         -1   -1    0    0    0  501 -0.00000000000E+00 -0.00000000000E+00 -0.74848963363E+02  0.74848963363E+02  0.00000000000E+00 0.  1.
         23    2    1    2    0    0 -0.12369726167E+03 -0.69559618639E+02  0.12230182754E+03  0.20995333379E+03  0.94779281817E+02 0.  0.
          5    1    1    2  502    0  0.71085018519E+02  0.10271602109E+03  0.14979045218E+03  0.19508539876E+03  0.41800000000E+01 0.  1.
         -5    1    1    2    0  502  0.52612243146E+02 -0.33156402455E+02  0.10758025532E+03  0.12433172920E+03  0.41800000000E+01 0.  1.
        -11    1    3    3    0    0 -0.85954150993E+02 -0.81171091064E+02  0.12280147802E+03  0.17046133022E+03  0.00000000000E+00 0. -1.
         11    1    3    3    0    0 -0.37743110673E+02  0.11611472425E+02 -0.49965048282E+00  0.39492003567E+02  0.00000000000E+00 0.  1.
</event>
<event>
 7    1  0.6610867E-006  0.1558413E+03  0.7561462E-02  0.1193474E+00
          1   -1    0    0  501    0  0.00000000000E+00  0.00000000000E+00  0.10861604681E+03  0.10861604681E+03  0.00000000000E+00 0. -1.
         -1   -1    0    0    0  501 -0.00000000000E+00 -0.00000000000E+00 -0.46515043131E+03  0.46515043131E+03  0.00000000000E+00 0.  1.
         23    2    1    2    0    0  0.12119669116E+02  0.10884225943E+03 -0.37514926850E+03  0.40295450100E+03  0.98192832773E+02 0.  0.
          5    1    1    2  502    0 -0.66415287711E+02 -0.83802207162E+02  0.26807319157E+02  0.11031729297E+03  0.41800000000E+01 0. -1.
         -5    1    1    2    0  502  0.54295618595E+02 -0.25040052268E+02 -0.81924351588E+01  0.60494684147E+02  0.41800000000E+01 0.  1.
        -11    1    3    3    0    0 -0.24453717906E+01 -0.17442269870E+02 -0.26186785244E+02  0.31558839377E+02  0.00000000000E+00 0. -1.
         11    1    3    3    0    0  0.14565040906E+02  0.12628452930E+03 -0.34896248325E+03  0.37139566163E+03  0.00000000000E+00 0.  1.
</event>
<event>
 7    1  0.6610867E-006  0.1177729E+03  0.7561462E-02  0.1246817E+00
         -1   -1    0    0    0  501 -0.00000000000E+00  0.00000000000E+00  0.14934634947E+03  0.14934634947E+03  0.00000000000E+00 0.  1.
          1   -1    0    0  501    0  0.00000000000E+00 -0.00000000000E+00 -0.24663735232E+03  0.24663735232E+03  0.00000000000E+00 0. -1.
         23    2    1    2    0    0  0.70003376162E+02  0.17842855294E+02  0.99515104318E+02  0.15185325450E+03  0.89091608783E+02 0.  0.
          5    1    1    2  502    0 -0.96096484376E+02 -0.44979603467E+02 -0.15272483550E+03  0.18601087822E+03  0.41800000000E+01 0.  1.
         -5    1    1    2    0  502  0.26093108214E+02  0.27136748173E+02 -0.44081271667E+02  0.58119569075E+02  0.41800000000E+01 0.  1.
        -11    1    3    3    0    0  0.46577116238E+02 -0.16927428706E+02  0.98096018755E+02  0.10990356907E+03  0.00000000000E+00 0.  1.
         11    1    3    3    0    0  0.23426259924E+02  0.34770283999E+02  0.14190855628E+01  0.41949685425E+02  0.00000000000E+00 0. -1.
</event>
<event>
 7    1  0.6610867E-006  0.1121296E+03  0.7561462E-02  0.1256676E+00
          2   -1    0    0  501    0  0.00000000000E+00  0.00000000000E+00  0.70244147855E+02  0.70244147855E+02  0.00000000000E+00 0.  1.
         -2   -1    0    0    0  501 -0.00000000000E+00 -0.00000000000E+00 -0.31606642471E+03  0.31606642471E+03  0.00000000000E+00 0. -1.
         23    2    1    2    0    0  0.46732924454E+02  0.45008281246E+02 -0.21361050511E+03  0.24176045608E+03  0.92784474039E+02 0.  0.
          5    1    1    2  502    0  0.15642877396E+02  0.32601501263E+02 -0.25936260326E+02  0.44695855485E+02  0.41800000000E+01 0. -1.
         -5    1    1    2    0  502 -0.62375801850E+02 -0.77609782508E+02 -0.62755114256E+01  0.99854261006E+02  0.41800000000E+01 0. -1.
        -11    1    3    3    0    0  0.57135889575E+02  0.19036570361E+02 -0.20315406734E+03  0.21189260480E+03  0.00000000000E+00 0. -1.
         11    1    3    3    0    0 -0.10402965121E+02  0.25971710884E+02 -0.10456437763E+02  0.29867851283E+02  0.00000000000E+00 0.  1.
</event>
<event>
 7    1  0.6610867E-006  0.1085100E+03  0.7561462E-02  0.1263354E+00
         -1   -1    0    0    0  501 -0.00000000000E+00  0.00000000000E+00  0.35683642558E+02  0.35683642558E+02  0.00000000000E+00 0.  1.
          1   -1    0    0  501    0  0.00000000000E+00 -0.00000000000E+00 -0.61946288518E+03  0.61946288518E+03  0.00000000000E+00 0. -1.
         23    2    1    2    0    0 -0.86605498210E+00 -0.48835622893E+02 -0.12950097647E+03  0.18143583337E+03  0.11731492065E+03 0.  0.
          5    1    1    2  502    0 -0.34253259334E+02  0.52429739789E+01 -0.30866112139E+02  0.46593602884E+02  0.41800000000E+01 0.  1.
         -5    1    1    2    0  502  0.35119314316E+02  0.43592648914E+02 -0.42341215401E+03  0.42711709149E+03  0.41800000000E+01 0.  1.
        -11    1    3    3    0    0 -0.56726444473E+02 -0.91518562052E+01 -0.47323232249E+02  0.74438795564E+02  0.00000000000E+00 0.  1.
         11    1    3    3    0    0  0.55860389491E+02 -0.39683766688E+02 -0.82177744225E+02  0.10699703780E+03  0.00000000000E+00 0. -1.
</event>
<event>
 7    1  0.6610867E-006  0.1025450E+03  0.7561462E-02  0.1275033E+00
         -1   -1    0    0    0  501 -0.00000000000E+00  0.00000000000E+00  0.67430194982E+02  0.67430194982E+02  0.00000000000E+00 0.  1.
          1   -1    0    0  501    0  0.00000000000E+00 -0.00000000000E+00 -0.20645123462E+03  0.20645123462E+03  0.00000000000E+00 0. -1.
         23    2    1    2    0    0 -0.20523027789E+02  0.29507195531E+02 -0.11330627431E+02  0.10080090750E+03  0.93491018695E+02 0.  0.
          5    1    1    2  502    0 -0.23608113779E+02 -0.53245544043E+02 -0.99669042584E+02  0.11551545977E+03  0.41800000000E+01 0. -1.
         -5    1    1    2    0  502  0.44131141568E+02  0.23738348512E+02 -0.28021369627E+02  0.57565062338E+02  0.41800000000E+01 0.  1.
        -11    1    3    3    0    0 -0.52097332187E+02  0.37074545302E+02  0.55926958121E+01  0.64186697819E+02  0.00000000000E+00 0.  1.
         11    1    3    3    0    0  0.31574304399E+02 -0.75673497712E+01 -0.16923323243E+02  0.36614209679E+02  0.00000000000E+00 0. -1.
</event>
<event>
 7    1  0.6610867E-006  0.1072683E+03  0.7561462E-02  0.1265714E+00
         -2   -1    0    0    0  501 -0.00000000000E+00  0.00000000000E+00  0.42557193931E+02  0.42557193931E+02  0.00000000000E+00 0.  1.
          2   -1    0    0  501    0  0.00000000000E+00 -0.00000000000E+00 -0.29770462134E+03  0.29770462134E+03  0.00000000000E+00 0. -1.
         23    2    1    2    0    0  0.17151823616E+02  0.26997623473E+02 -0.11794054762E+03  0.15185164063E+03  0.90143725577E+02 0.  0.
          5    1    1    2  502    0 -0.70364773397E+02 -0.37224636841E+01 -0.68712916314E+02  0.98508859193E+02  0.41800000000E+01 0.  1.
         -5    1    1    2    0  502  0.53212949782E+02 -0.23275159789E+02 -0.68493963471E+02  0.89901315450E+02  0.41800000000E+01 0.  1.
        -11    1    3    3    0    0  0.33590271285E+02 -0.17789451571E+02 -0.20096200107E+02  0.42995676189E+02  0.00000000000E+00 0.  1.
         11    1    3    3    0    0 -0.16438447669E+02  0.44787075044E+02 -0.97844347517E+02  0.10885596444E+03  0.00000000000E+00 0. -1.
</event>
<event>
 7    1  0.6610867E-006  0.8999948E+02  0.7561462E-02  0.1302853E+00
         -1   -1    0    0    0  501 -0.00000000000E+00  0.00000000000E+00  0.47867193158E+02  0.47867193158E+02  0.00000000000E+00 0.  1.
          1   -1    0    0  501    0  0.00000000000E+00 -0.00000000000E+00 -0.31246632654E+03  0.31246632654E+03  0.00000000000E+00 0. -1.
         23    2    1    2    0    0  0.54730851425E+02 -0.93807992855E+01 -0.10745817521E+03  0.15194954735E+03  0.91967059473E+02 0.  0.
          5    1    1    2  502    0 -0.62735147340E+02  0.26989070283E+02 -0.17102926204E+03  0.18420800607E+03  0.41800000000E+01 0.  1.
         -5    1    1    2    0  502  0.80042959153E+01 -0.17608270998E+02  0.13888303872E+02  0.24175966270E+02  0.41800000000E+01 0.  1.
        -11    1    3    3    0    0 -0.28228845369E+01 -0.30389211607E+02 -0.27631962640E+01  0.30644870905E+02  0.00000000000E+00 0.  1.
         11    1    3    3    0    0  0.57553735962E+02  0.21008412322E+02 -0.10469497894E+03  0.12130467645E+03  0.00000000000E+00 0. -1.
</event>
<event>
 7    1  0.6610867E-006  0.1248648E+03  0.7561462E-02  0.1235281E+00
          2   -1    0    0  501    0  0.00000000000E+00  0.00000000000E+00  0.51230676261E+03  0.51230676261E+03  0.00000000000E+00 0. -1.
         -2   -1    0    0    0  501 -0.00000000000E+00 -0.00000000000E+00 -0.48691351831E+02  0.48691351831E+02  0.00000000000E+00 0.  1.
         23    2    1    2    0    0  0.69020204512E+02  0.44134728440E+02  0.71519963477E+02  0.14551818350E+03  0.96689056614E+02 0.  0.
          5    1    1    2  502    0 -0.54488222779E+02  0.26476878861E+02  0.12773951046E+03  0.14143849006E+03  0.41800000000E+01 0. -1.
         -5    1    1    2    0  502 -0.14531981733E+02 -0.70611607301E+02  0.26435593684E+03  0.27404144089E+03  0.41800000000E+01 0.  1.
        -11    1    3    3    0    0  0.54252454717E+02 -0.14638292542E+02  0.63879605910E+01  0.56554526714E+02  0.00000000000E+00 0.  1.
         11    1    3    3    0    0  0.14767749795E+02  0.58773020982E+02  0.65132002886E+02  0.88963656789E+02  0.00000000000E+00 0. -1.
</event>
<event>
 7    1  0.6610867E-006  0.9413598E+02  0.7561462E-02  0.1293134E+00
          2   -1    0    0  501    0  0.00000000000E+00  0.00000000000E+00  0.12646900393E+03  0.12646900393E+03  0.00000000000E+00 0. -1.
         -2   -1    0    0    0  501 -0.00000000000E+00 -0.00000000000E+00 -0.17506710848E+03  0.17506710848E+03  0.00000000000E+00 0.  1.
         23    2    1    2    0    0 -0.51782037185E+02 -0.48518122326E+02 -0.97600652812E+02  0.14960877259E+03  0.88439300294E+02 0.  0.
          5    1    1    2  502    0  0.26447803519E+02  0.36988091254E+01 -0.40439566469E+02  0.48641529953E+02  0.41800000000E+01 0.  1.
         -5    1    1    2    0  502  0.25334233666E+02  0.44819313200E+02  0.89442114736E+02  0.10328580987E+03  0.41800000000E+01 0.  1.
        -11    1    3    3    0    0 -0.67576849729E+01  0.23611553174E+02 -0.74028250798E+01  0.25650995471E+02  0.00000000000E+00 0. -1.
         11    1    3    3    0    0 -0.45024352212E+02 -0.72129675500E+02 -0.90197827733E+02  0.12395777712E+03  0.00000000000E+00 0.  1.
</event>
<event>
 7    1  0.6610867E-006  0.1127288E+03  0.7561462E-02  0.1255598E+00
          4   -1    0    0  501    0  0.00000000000E+00  0.00000000000E+00  0.39553903239E+03  0.39553903239E+03  0.00000000000E+00 0. -1.
         -4   -1    0    0    0  501 -0.00000000000E+00 -0.00000000000E+00 -0.45430198119E+02  0.45430198119E+02  0.00000000000E+00 0.  1.
         23    2    1    2    0    0  0.53232002098E+02 -0.32467773438E+02  0.89716571976E+02  0.14543656237E+03  0.95994416652E+02 0.  0.
          5    1    1    2  502    0 -0.85516995045E+02  0.61155683230E+00  0.11633772724E+03  0.14444884777E+03  0.41800000000E+01 0.  1.
         -5    1    1    2    0  502  0.32284992947E+02  0.31856216606E+02  0.14405453505E+03  0.15108382036E+03  0.41800000000E+01 0.  1.
        -11    1    3    3    0    0 -0.13138955872E+02 -0.24024460592E+02 -0.65956732837E+01  0.28165755346E+02  0.00000000000E+00 0.  1.
         11    1    3    3    0    0  0.66370957970E+02 -0.84433128460E+01  0.96312245259E+02  0.11727080703E+03  0.00000000000E+00 0. -1.
</event>
<event>
 7    1  0.6610867E-006  0.1101388E+03  0.7561462E-02  0.1260313E+00
          1   -1    0    0  501    0  0.00000000000E+00  0.00000000000E+00  0.26121257008E+03  0.26121257008E+03  0.00000000000E+00 0. -1.
         -1   -1    0    0    0  501 -0.00000000000E+00 -0.00000000000E+00 -0.67169618956E+02  0.67169618956E+02  0.00000000000E+00 0.  1.
         23    2    1    2    0    0  0.32795567204E+02 -0.57124533461E+02  0.40571693713E+02  0.11972101789E+03  0.91369022340E+02 0.  0.
          5    1    1    2  502    0 -0.12760139238E+02  0.86180431447E+02  0.52932709153E+02  0.10202564391E+03  0.41800000000E+01 0. -1.
         -5    1    1    2    0  502 -0.20035427965E+02 -0.29055897987E+02  0.10053854825E+03  0.10663552722E+03  0.41800000000E+01 0. -1.
        -11    1    3    3    0    0  0.47943530175E+02 -0.11305063793E+02  0.50397949088E+02  0.70472262808E+02  0.00000000000E+00 0.  1.
         11    1    3    3    0    0 -0.15147962971E+02 -0.45819469667E+02 -0.98262553751E+01  0.49248755085E+02  0.00000000000E+00 0. -1.
</event>
<event>
 7    1  0.6610867E-006  0.1186693E+03  0.7561462E-02  0.1245309E+00
         -1   -1    0    0    0  501 -0.00000000000E+00  0.00000000000E+00  0.65218510827E+02  0.65218510827E+02  0.00000000000E+00 0.  1.
          1   -1    0    0  501    0  0.00000000000E+00 -0.00000000000E+00 -0.30697201958E+03  0.30697201958E+03  0.00000000000E+00 0. -1.
         23    2    1    2    0    0  0.81909161137E+02 -0.23373421804E+02 -0.68501491739E+02  0.14215232951E+03  0.90881257089E+02 0.  0.
          5    1    1    2  502    0  0.23968674730E+02 -0.24079772383E+02 -0.28972845556E+02  0.44846750004E+02  0.41800000000E+01 0.  1.
         -5    1    1    2    0  502 -0.10587783587E+03  0.47453194188E+02 -0.14427917146E+03  0.18519145089E+03  0.41800000000E+01 0.  1.
        -11    1    3    3    0    0  0.16980483928E+02 -0.12703904526E+02 -0.73176052289E+02  0.76187011053E+02  0.00000000000E+00 0. -1.
         11    1    3    3    0    0  0.64928677209E+02 -0.10669517278E+02  0.46745605492E+01  0.65965318459E+02  0.00000000000E+00 0.  1.
</event>
<event>
 7    1  0.6610867E-006  0.2195853E+03  0.7561462E-02  0.1134193E+00
          2   -1    0    0  501    0  0.00000000000E+00  0.00000000000E+00  0.73398738530E+03  0.73398738530E+03  0.00000000000E+00 0. -1.
         -2   -1    0    0    0  501 -0.00000000000E+00 -0.00000000000E+00 -0.92036128537E+02  0.92036128537E+02  0.00000000000E+00 0.  1.
         23    2    1    2    0    0 -0.18671333373E+03  0.11004634876E+03  0.16499407322E+03  0.28740581538E+03  0.91689643083E+02 0.  0.
          5    1    1    2  502    0  0.76098650892E+02 -0.66704779342E+02  0.35143336792E+03  0.36573681349E+03  0.41800000000E+01 0. -1.
         -5    1    1    2    0  502  0.11061468284E+03 -0.43341569420E+02  0.12552381562E+03  0.17288088496E+03  0.41800000000E+01 0. -1.
        -11    1    3    3    0    0 -0.13395049878E+03  0.94760322017E+02  0.16468510691E+03  0.23247244824E+03  0.00000000000E+00 0. -1.
         11    1    3    3    0    0 -0.52762834949E+02  0.15286026745E+02  0.30896631287E+00  0.54933367143E+02  0.00000000000E+00 0.  1.
</event>
<event>
 7    1  0.6610867E-006  0.1277234E+03  0.7561462E-02  0.1230873E+00
          2   -1    0    0  501    0  0.00000000000E+00  0.00000000000E+00  0.29904949923E+03  0.29904949923E+03  0.00000000000E+00 0.  1.
         -2   -1    0    0    0  501 -0.00000000000E+00 -0.00000000000E+00 -0.63298454895E+02  0.63298454895E+02  0.00000000000E+00 0. -1.
         23    2    1    2    0    0 -0.53888605587E+02  0.40102248348E+02  0.41171762780E+02  0.12147211760E+03  0.92456417678E+02 0.  0.
          5    1    1    2  502    0  0.68872502804E+02 -0.76103058618E+02  0.13815664192E+03  0.17216221212E+03  0.41800000000E+01 0. -1.
         -5    1    1    2    0  502 -0.14983897217E+02  0.36000810270E+02  0.56422639632E+02  0.68713624406E+02  0.41800000000E+01 0. -1.
        -11    1    3    3    0    0 -0.41349721323E+02  0.69877643926E+02  0.22934197505E+02  0.84372163593E+02  0.00000000000E+00 0. -1.
         11    1    3    3    0    0 -0.12538884264E+02 -0.29775395578E+02  0.18237565275E+02  0.37099954011E+02  0.00000000000E+00 0.  1.
</event>
<event>
 6    1  0.6610867E-006  0.8652528E+02  0.7561462E-02  0.1311491E+00
          1   -1    0    0  501    0  0.00000000000E+00  0.00000000000E+00  0.51544385952E+02  0.51544385952E+02  0.00000000000E+00 0. -1.
         -1   -1    0    0    0  501 -0.00000000000E+00 -0.00000000000E+00 -0.16538492206E+03  0.16538492206E+03  0.00000000000E+00 0.  1.
          5    1    1    2  502    0  0.33502836419E+02  0.44632723561E+02 -0.61804586474E+01  0.56304445026E+02  0.41800000000E+01 0.  1.
         -5    1    1    2    0  502  0.97087670860E+01 -0.66588561533E+02 -0.73449682960E+02  0.99702683075E+02  0.41800000000E+01 0.  1.
        -11    1    1    2    0    0 -0.24288881087E+02  0.62695666752E+01 -0.22494808901E+02  0.33693821960E+02  0.00000000000E+00 0. -1.
         11    1    1    2    0    0 -0.18922722418E+02  0.15686271298E+02 -0.11715585604E+02  0.27228357956E+02  0.00000000000E+00 0.  1.
</event>
<event>
 7    1  0.6610867E-006  0.1959118E+03  0.7561462E-02  0.1153235E+00
          1   -1    0    0  501    0  0.00000000000E+00  0.00000000000E+00  0.10623276325E+04  0.10623276325E+04  0.00000000000E+00 0. -1.
         -1   -1    0    0    0  501 -0.00000000000E+00 -0.00000000000E+00 -0.50238580779E+02  0.50238580779E+02  0.00000000000E+00 0.  1.
         23    2    1    2    0    0  0.13560051239E+03  0.13606148795E+03  0.33018950190E+03  0.39317984425E+03  0.93086278761E+02 0.  0.
          5    1    1    2  502    0 -0.56850976610E+02 -0.67225899023E+02  0.51419302869E+03  0.52169272392E+03  0.41800000000E+01 0.  1.
         -5    1    1    2    0  502 -0.78749535777E+02 -0.68835588930E+02  0.16770652117E+03  0.19769364514E+03  0.41800000000E+01 0.  1.
        -11    1    3    3    0    0  0.63165676385E+02  0.28427722868E+02  0.18969248840E+03  0.20194375023E+03  0.00000000000E+00 0. -1.
         11    1    3    3    0    0  0.72434836002E+02  0.10763376508E+03  0.14049701349E+03  0.19123609401E+03  0.00000000000E+00 0.  1.
</event>
<event>
 7    1  0.6610867E-006  0.1621277E+03  0.7561462E-02  0.1186315E+00
          1   -1    0    0  501    0  0.00000000000E+00  0.00000000000E+00  0.44229863115E+03  0.44229863115E+03  0.00000000000E+00 0. -1.
         -1   -1    0    0    0  501 -0.00000000000E+00 -0.00000000000E+00 -0.90653505981E+02  0.90653505981E+02  0.00000000000E+00 0.  1.
         23    2    1    2    0    0  0.25081155816E+02 -0.12227121597E+03  0.18012169521E+02  0.15541001484E+03  0.90821362190E+02 0.  0.
          5    1    1    2  502    0 -0.22205143894E+02 -0.22472203740E+02  0.58489188955E+02  0.66607251714E+02  0.41800000000E+01 0.  1.
         -5    1    1    2    0  502 -0.28760119226E+01  0.14474341971E+03  0.27514376669E+03  0.31093487058E+03  0.41800000000E+01 0.  1.
        -11    1    3    3    0    0  0.53561691299E+02 -0.87712756294E+02  0.33389699651E+02  0.10806134570E+03  0.00000000000E+00 0. -1.
         11    1    3    3    0    0 -0.28480535483E+02 -0.34558459672E+02 -0.15377530130E+02  0.47348669138E+02  0.00000000000E+00 0.  1.
</event>
<event>
 7    1  0.6610867E-006  0.1413807E+03  0.7561462E-02  0.1211483E+00
          2   -1    0    0  501    0  0.00000000000E+00  0.00000000000E+00  0.28600059467E+03  0.28600059467E+03  0.00000000000E+00 0. -1.
         -2   -1    0    0    0  501 -0.00000000000E+00 -0.00000000000E+00 -0.87234484479E+02  0.87234484479E+02  0.00000000000E+00 0.  1.
         23    2    1    2    0    0 -0.29739303179E+02  0.11106156867E+03  0.77795277865E+02  0.16468140735E+03  0.88593241728E+02 0.  0.
          5    1    1    2  502    0 -0.27274578360E+02  0.10736569139E+02  0.32662451996E+01  0.29787871681E+02  0.41800000000E+01 0. -1.
         -5    1    1    2    0  502  0.57013881538E+02 -0.12179813781E+03  0.11770458712E+03  0.17876580012E+03  0.41800000000E+01 0. -1.
        -11    1    3    3    0    0 -0.16866037905E+02  0.10063968011E+03  0.95976552871E+02  0.14008678434E+03  0.00000000000E+00 0. -1.
         11    1    3    3    0    0 -0.12873265274E+02  0.10421888563E+02 -0.18181275006E+02  0.24594623007E+02  0.00000000000E+00 0.  1.
</event>
<event>
 7    1  0.6610867E-006  0.9776264E+02  0.7561462E-02  0.1285072E+00
          2   -1    0    0  501    0  0.00000000000E+00  0.00000000000E+00  0.30926922669E+03  0.30926922669E+03  0.00000000000E+00 0. -1.
         -2   -1    0    0    0  501 -0.00000000000E+00 -0.00000000000E+00 -0.40369424911E+02  0.40369424911E+02  0.00000000000E+00 0.  1.
         23    2    1    2    0    0 -0.13423039295E+02  0.32299489523E+02  0.96883245625E+02  0.13409043962E+03  0.85851311626E+02 0.  0.
          5    1    1    2  502    0 -0.26390087783E+02  0.37426578108E+02  0.39860320828E+02  0.60856413455E+02  0.41800000000E+01 0.  1.
         -5    1    1    2    0  502  0.39813127078E+02 -0.69726067631E+02  0.13215623533E+03  0.15469179853E+03  0.41800000000E+01 0.  1.
        -11    1    3    3    0    0  0.14173651067E+02  0.38351338961E+02  0.97611332594E+02  0.10582858704E+03  0.00000000000E+00 0. -1.
         11    1    3    3    0    0 -0.27596690362E+02 -0.60518494381E+01 -0.72808696927E+00  0.28261852579E+02  0.00000000000E+00 0.  1.
</event>
<event>
 7    1  0.6610867E-006  0.8784626E+02  0.7561462E-02  0.1308153E+00
          2   -1    0    0  501    0  0.00000000000E+00  0.00000000000E+00  0.34463641179E+03  0.34463641179E+03  0.00000000000E+00 0. -1.
         -2   -1    0    0    0  501 -0.00000000000E+00 -0.00000000000E+00 -0.41114475853E+02  0.41114475853E+02  0.00000000000E+00 0.  1.
         23    2    1    2    0    0 -0.18760877573E+01  0.20713202124E+02  0.61260932099E+02  0.11231300025E+03  0.91808233707E+02 0.  0.
          5    1    1    2  502    0  0.12425258901E+02  0.47357714643E+02  0.54424736288E+02  0.73325742512E+02  0.41800000000E+01 0. -1.
         -5    1    1    2    0  502 -0.10549171144E+02 -0.68070916767E+02  0.18783626755E+03  0.20011214488E+03  0.41800000000E+01 0. -1.
        -11    1    3    3    0    0 -0.85528803440E+01 -0.17113724566E+02 -0.16704897365E+02  0.25398522136E+02  0.00000000000E+00 0.  1.
         11    1    3    3    0    0  0.66767925867E+01  0.37826926690E+02  0.77965829464E+02  0.86914478116E+02  0.00000000000E+00 0. -1.
</event>
<event>
 7    1  0.6610867E-006  0.1343931E+03  0.7561462E-02  0.1221079E+00
          1   -1    0    0  501    0  0.00000000000E+00  0.00000000000E+00  0.36435372109E+02  0.36435372109E+02  0.00000000000E+00 0. -1.
         -1   -1    0    0    0  501 -0.00000000000E+00 -0.00000000000E+00 -0.79704673931E+03  0.79704673931E+03  0.00000000000E+00 0.  1.
         23    2    1    2    0    0  0.74540468874E+02  0.69285959498E+02 -0.55805455923E+03  0.57457158898E+03  0.91382679425E+02 0.  0.
          5    1    1    2  502    0 -0.42759600271E+02  0.12059949203E+02 -0.15089419960E+03  0.15735424260E+03  0.41800000000E+01 0.  1.
         -5    1    1    2    0  502 -0.31780868603E+02 -0.81345908701E+02 -0.51662608364E+02  0.10155627984E+03  0.41800000000E+01 0.  1.
        -11    1    3    3    0    0  0.47430168442E+02  0.90585758388E+02 -0.42380768502E+03  0.43596829516E+03  0.00000000000E+00 0.  1.
         11    1    3    3    0    0  0.27110300432E+02 -0.21299798890E+02 -0.13424687421E+03  0.13860329382E+03  0.00000000000E+00 0. -1.
</event>
<event>
 7    1  0.6610867E-006  0.5513226E+02  0.7561462E-02  0.1419474E+00
          1   -1    0    0  501    0  0.00000000000E+00  0.00000000000E+00  0.39365255740E+03  0.39365255740E+03  0.00000000000E+00 0. -1.
         -1   -1    0    0    0  501 -0.00000000000E+00 -0.00000000000E+00 -0.22252862260E+02  0.22252862260E+02  0.00000000000E+00 0.  1.
         23    2    1    2    0    0  0.12038910252E+01  0.16198428587E+02  0.10547723809E+03  0.12159598953E+03  0.58277769983E+02 0.  0.
          5    1    1    2  502    0 -0.17387651475E+02 -0.25842655484E+02  0.27220634106E+03  0.27401448462E+03  0.41800000000E+01 0.  1.
         -5    1    1    2    0  502  0.16183760449E+02  0.96442268968E+01 -0.62838840120E+01  0.20294945504E+02  0.41800000000E+01 0.  1.
        -11    1    3    3    0    0 -0.30339106964E+01  0.37600394117E+02  0.76786614999E+02  0.85552197487E+02  0.00000000000E+00 0.  1.
         11    1    3    3    0    0  0.42378017216E+01 -0.21401965530E+02  0.28690623087E+02  0.36043792047E+02  0.00000000000E+00 0. -1.
</event>
<event>
 7    1  0.6610867E-006  0.1164367E+03  0.7561462E-02  0.1249094E+00
          2   -1    0    0  501    0  0.00000000000E+00  0.00000000000E+00  0.46649490935E+03  0.46649490935E+03  0.00000000000E+00 0. -1.
         -2   -1    0    0    0  501 -0.00000000000E+00 -0.00000000000E+00 -0.39429798472E+02  0.39429798472E+02  0.00000000000E+00 0.  1.
         23    2    1    2    0    0  0.33111358733E+02  0.74032893612E+02  0.16865434309E+03  0.20759444816E+03  0.89855083592E+02 0.  0.
          5    1    1    2  502    0 -0.65209405921E+01  0.20639861098E+02  0.25369738533E+00  0.22046843191E+02  0.41800000000E+01 0.  1.
         -5    1    1    2    0  502 -0.26590418141E+02 -0.94672754710E+02  0.25815707040E+03  0.27628341647E+03  0.41800000000E+01 0.  1.
        -11    1    3    3    0    0 -0.86449897570E+00 -0.16077252876E+02  0.35971528037E+01  0.16497421823E+02  0.00000000000E+00 0.  1.
         11    1    3    3    0    0  0.33975857708E+02  0.90110146488E+02  0.16505719029E+03  0.19109702633E+03  0.00000000000E+00 0. -1.
</event>
<event>
 6    1  0.6610867E-006  0.1071621E+03  0.7561462E-02  0.1265917E+00
          2   -1    0    0  501    0  0.00000000000E+00  0.00000000000E+00  0.19671309512E+03  0.19671309512E+03  0.00000000000E+00 0. -1.
         -2   -1    0    0    0  501 -0.00000000000E+00 -0.00000000000E+00 -0.61964342639E+02  0.61964342639E+02  0.00000000000E+00 0.  1.
          5    1    1    2  502    0 -0.70351323364E+02 -0.40482073266E+02  0.77906139251E+02  0.11258306217E+03  0.41800000000E+01 0. -1.
         -5    1    1    2    0  502  0.88463640561E+02  0.24491744032E+02  0.28831644685E+02  0.96303672632E+02  0.41800000000E+01 0.  1.
        -11    1    1    2    0    0  0.99023106678E+01  0.36992870620E+01  0.70234671582E+01  0.12691318775E+02  0.00000000000E+00 0. -1.
         11    1    1    2    0    0 -0.28014627865E+02  0.12291042172E+02  0.20987501384E+02  0.37099384179E+02  0.00000000000E+00 0.  1.
</event>
<event>
 7    1  0.6610867E-006  0.1862511E+03  0.7561462E-02  0.1161887E+00
         -1   -1    0    0    0  501 -0.00000000000E+00  0.00000000000E+00  0.99586009502E+02  0.99586009502E+02  0.00000000000E+00 0.  1.
          1   -1    0    0  501    0  0.00000000000E+00 -0.00000000000E+00 -0.43175287861E+03  0.43175287861E+03  0.00000000000E+00 0. -1.
         23    2    1    2    0    0  0.75876492651E+02 -0.43741376505E+01 -0.55455714570E+02  0.13156035753E+03  0.91958774339E+02 0.  0.
          5    1    1    2  502    0 -0.16966837302E+03 -0.27011037021E+02 -0.10447278187E+03  0.20111933641E+03  0.41800000000E+01 0. -1.
         -5    1    1    2    0  502  0.93791880368E+02  0.31385174672E+02 -0.17223837267E+03  0.19865919418E+03  0.41800000000E+01 0.  1.
        -11    1    3    3    0    0  0.42506220262E+02 -0.35981988871E+02  0.46610666235E+01  0.55885667448E+02  0.00000000000E+00 0.  1.
         11    1    3    3    0    0  0.33370272389E+02  0.31607851220E+02 -0.60116781194E+02  0.75674690083E+02  0.00000000000E+00 0. -1.
</event>
<event>
 6    1  0.6610867E-006  0.9877286E+02  0.7561462E-02  0.1282898E+00
          2   -1    0    0  501    0  0.00000000000E+00  0.00000000000E+00  0.19565301373E+03  0.19565301373E+03  0.00000000000E+00 0. -1.
         -2   -1    0    0    0  501 -0.00000000000E+00 -0.00000000000E+00 -0.61395558600E+02  0.61395558600E+02  0.00000000000E+00 0.  1.
          5    1    1    2  502    0  0.44266641022E+02  0.58371524814E+02  0.10594298239E+03  0.12887264385E+03  0.41800000000E+01 0. -1.
         -5    1    1    2    0  502 -0.27042435967E+02 -0.70749947000E+02  0.24495324228E+02  0.79714124549E+02  0.41800000000E+01 0.  1.
        -11    1    1    2    0    0 -0.26537966895E+02  0.22328706113E+02  0.27377239589E+01  0.34789796436E+02  0.00000000000E+00 0.  1.
         11    1    1    2    0    0  0.93137618394E+01 -0.99502839269E+01  0.10814245571E+01  0.13672007493E+02  0.00000000000E+00 0. -1.
</event>
<event>
 7    1  0.7766347E-006  0.3006181E+03  0.7561462E-02  0.1084932E+00
          1   -1    0    0  501    0  0.00000000000E+00  0.00000000000E+00  0.50668771422E+03  0.50668771422E+03  0.00000000000E+00 0. -1.
         -1   -1    0    0    0  501 -0.00000000000E+00 -0.00000000000E+00 -0.20404937618E+03  0.20404937618E+03  0.00000000000E+00 0.  1.
         23    2    1    2    0    0 -0.28131392961E+03  0.54144226589E+02  0.41360908915E+02  0.30332777624E+03  0.90707721740E+02 0.  0.
          5    1    1    2  502    0  0.44396025346E+02  0.33049464796E+02  0.76573987511E+02  0.94574426528E+02  0.41800000000E+01 0.  1.
         -5    1    1    2    0  502  0.23691790427E+03 -0.87193691385E+02  0.18470344161E+03  0.31283488764E+03  0.41800000000E+01 0.  1.
        -11    1    3    3    0    0 -0.10596986567E+03 -0.10215189909E+02 -0.16625556357E+02  0.10775143460E+03  0.00000000000E+00 0.  1.
         11    1    3    3    0    0 -0.17534406395E+03  0.64359416498E+02  0.57986465271E+02  0.19557634164E+03  0.00000000000E+00 0. -1.
</event>
<event>
 7    1  0.6610867E-006  0.1588521E+03  0.7561462E-02  0.1189999E+00
         -2   -1    0    0    0  501 -0.00000000000E+00  0.00000000000E+00  0.13863685102E+02  0.13863685102E+02  0.00000000000E+00 0. -1.
          2   -1    0    0  501    0  0.00000000000E+00 -0.00000000000E+00 -0.19911448327E+04  0.19911448327E+04  0.00000000000E+00 0.  1.
         23    2    1    2    0    0 -0.10296251264E+03  0.57674112415E+02 -0.67704048889E+03  0.69344427855E+03  0.92485466995E+02 0.  0.
          5    1    1    2  502    0  0.22595604760E+02  0.39531987136E+02 -0.36036287714E+03  0.36325227458E+03  0.41800000000E+01 0. -1.
         -5    1    1    2    0  502  0.80366907877E+02 -0.97206099550E+02 -0.93987778159E+03  0.94831196470E+03  0.41800000000E+01 0. -1.
        -11    1    3    3    0    0 -0.92452698297E+02  0.55597601465E+01 -0.50332536701E+03  0.51177615950E+03  0.00000000000E+00 0.  1.
         11    1    3    3    0    0 -0.10509814340E+02  0.52114352268E+02 -0.17371512189E+03  0.18166811906E+03  0.00000000000E+00 0. -1.
</event>
<event>
 7    1  0.6610867E-006  0.9039090E+02  0.7561462E-02  0.1301908E+00
          4   -1    0    0  501    0  0.00000000000E+00  0.00000000000E+00  0.48355223570E+03  0.48355223570E+03  0.00000000000E+00 0. -1.
         -4   -1    0    0    0  501 -0.00000000000E+00 -0.00000000000E+00 -0.24072543151E+02  0.24072543151E+02  0.00000000000E+00 0.  1.
         23    2    1    2    0    0  0.45178736173E+01 -0.10897558154E+02  0.19453914317E+03  0.21440153638E+03  0.89349720886E+02 0.  0.
          5    1    1    2  502    0 -0.13395536280E+02 -0.44565559814E+02  0.40529545824E+02  0.61851806752E+02  0.41800000000E+01 0.  1.
         -5    1    1    2    0  502  0.88776626622E+01  0.55463117968E+02  0.22441100355E+03  0.23137143571E+03  0.41800000000E+01 0.  1.
        -11    1    3    3    0    0 -0.34500921224E+02  0.63389281070E+01  0.36161418611E+02  0.50379993756E+02  0.00000000000E+00 0.  1.
         11    1    3    3    0    0  0.39018794841E+02 -0.17236486261E+02  0.15837772456E+03  0.16402154263E+03  0.00000000000E+00 0. -1.
</event>
<event>
 7    1  0.6610867E-006  0.8000152E+02  0.7561462E-02  0.1329047E+00
         -1   -1    0    0    0  501 -0.00000000000E+00  0.00000000000E+00  0.18211153701E+03  0.18211153701E+03  0.00000000000E+00 0.  1.
          1   -1    0    0  501    0  0.00000000000E+00 -0.00000000000E+00 -0.16237689497E+03  0.16237689497E+03  0.00000000000E+00 0. -1.
         23    2    1    2    0    0 -0.25026553577E+02 -0.62635613776E+02  0.12394610046E+03  0.16825870457E+03  0.91645007219E+02 0.  0.
          5    1    1    2  502    0 -0.84336498662E+01 -0.48106188177E+01 -0.10015870810E+03  0.10071498256E+03  0.41800000000E+01 0. -1.
         -5    1    1    2    0  502  0.33460203443E+02  0.67446232594E+02 -0.40527503248E+01  0.75514744857E+02  0.41800000000E+01 0. -1.
        -11    1    3    3    0    0  0.68191361062E+01 -0.17547723848E+02  0.10962665457E+03  0.11123141023E+03  0.00000000000E+00 0.  1.
         11    1    3    3    0    0 -0.31845689683E+02 -0.45087889928E+02  0.14319445891E+02  0.57027294343E+02  0.00000000000E+00 0. -1.
</event>
<event>
 7    1  0.6610867E-006  0.1264156E+03  0.7561462E-02  0.1232873E+00
         -4   -1    0    0    0  501 -0.00000000000E+00  0.00000000000E+00  0.66198352309E+02  0.66198352309E+02  0.00000000000E+00 0.  1.
          4   -1    0    0  501    0  0.00000000000E+00 -0.00000000000E+00 -0.50764668538E+03  0.50764668538E+03  0.00000000000E+00 0. -1.
         23    2    1    2    0    0  0.10862958116E+03 -0.24428599614E+01 -0.52610631114E+02  0.15117505532E+03  0.90992666603E+02 0.  0.
          5    1    1    2  502    0 -0.44459450169E+02  0.14909638383E+02 -0.33382954816E+03  0.33713288130E+03  0.41800000000E+01 0.  1.
         -5    1    1    2    0  502 -0.64170130995E+02 -0.12466778422E+02 -0.55008153794E+02  0.85537101073E+02  0.41800000000E+01 0.  1.
        -11    1    3    3    0    0  0.98252783068E+02  0.32742901789E+02 -0.48183023883E+02  0.11422482562E+03  0.00000000000E+00 0. -1.
         11    1    3    3    0    0  0.10376798096E+02 -0.35185761750E+02 -0.44276072307E+01  0.36950229694E+02  0.00000000000E+00 0.  1.
</event>
<event>
 7    1  0.6610867E-006  0.1296669E+03  0.7561462E-02  0.1227951E+00
          1   -1    0    0  501    0  0.00000000000E+00  0.00000000000E+00  0.16457984875E+03  0.16457984875E+03  0.00000000000E+00 0. -1.
         -1   -1    0    0    0  501 -0.00000000000E+00 -0.00000000000E+00 -0.15595708470E+03  0.15595708470E+03  0.00000000000E+00 0.  1.
         23    2    1    2    0    0 -0.82598758775E+01  0.10924521087E+03 -0.38201232729E+02  0.14778608424E+03  0.91534970721E+02 0.  0.
          5    1    1    2  502    0  0.37033426827E+02 -0.72515344108E+00 -0.19724430266E+02  0.42172575205E+02  0.41800000000E+01 0. -1.
         -5    1    1    2    0  502 -0.28773550950E+02 -0.10852005743E+03  0.66548427050E+02  0.13057827400E+03  0.41800000000E+01 0. -1.
        -11    1    3    3    0    0  0.58318592321E+00  0.24151198914E+02 -0.55475340248E+02  0.60507304439E+02  0.00000000000E+00 0.  1.
         11    1    3    3    0    0 -0.88430618007E+01  0.85094011957E+02  0.17274107518E+02  0.87278779801E+02  0.00000000000E+00 0. -1.
</event>
<event>
 7    1  0.6610867E-006  0.9786678E+02  0.7561462E-02  0.1284847E+00
         -2   -1    0    0    0  501 -0.00000000000E+00  0.00000000000E+00  0.22922528984E+03  0.22922528984E+03  0.00000000000E+00 0.  1.
          2   -1    0    0  501    0  0.00000000000E+00 -0.00000000000E+00 -0.59291265536E+02  0.59291265536E+02  0.00000000000E+00 0. -1.
         23    2    1    2    0    0 -0.62058964999E+00 -0.38738893237E+02  0.10246864717E+03  0.14120499452E+03  0.89095116834E+02 0.  0.
          5    1    1    2  502    0 -0.34470136310E+02  0.50804987125E+02  0.85899721401E+02  0.10566726811E+03  0.41800000000E+01 0. -1.
         -5    1    1    2    0  502  0.35090725960E+02 -0.12066093888E+02 -0.18434344261E+02  0.41644292748E+02  0.41800000000E+01 0. -1.
        -11    1    3    3    0    0 -0.84295256175E+01  0.28214745323E+02  0.26173434730E+02  0.39397683198E+02  0.00000000000E+00 0.  1.
         11    1    3    3    0    0  0.78089359675E+01 -0.66953638560E+02  0.76295212438E+02  0.10180731132E+03  0.00000000000E+00 0. -1.
</event>
<event>
 7    1  0.6610867E-006  0.2485882E+03  0.7561462E-02  0.1114200E+00
          2   -1    0    0  501    0  0.00000000000E+00  0.00000000000E+00  0.14031099333E+04  0.14031099333E+04  0.00000000000E+00 0. -1.
         -2   -1    0    0    0  501 -0.00000000000E+00 -0.00000000000E+00 -0.55386895142E+02  0.55386895142E+02  0.00000000000E+00 0.  1.
         23    2    1    2    0    0  0.21497039156E+03  0.81125294766E+02  0.35955290681E+03  0.43628272380E+03  0.90943606667E+02 0.  0.
          5    1    1    2  502    0 -0.61496220002E+02  0.31588089685E+02  0.32117516361E+03  0.32855829103E+03  0.41800000000E+01 0.  1.
         -5    1    1    2    0  502 -0.15347417156E+03 -0.11271338445E+03  0.66699496771E+03  0.69365581358E+03  0.41800000000E+01 0.  1.
        -11    1    3    3    0    0  0.89859953887E+02  0.29137339470E+01  0.19821114287E+03  0.21764870391E+03  0.00000000000E+00 0. -1.
         11    1    3    3    0    0  0.12511043767E+03  0.78211560819E+02  0.16134176394E+03  0.21863401989E+03  0.00000000000E+00 0.  1.
</event>
<event>
 7    1  0.6610867E-006  0.1376969E+03  0.7561462E-02  0.1216462E+00
         -2   -1    0    0    0  501 -0.00000000000E+00  0.00000000000E+00  0.48389961729E+02  0.48389961729E+02  0.00000000000E+00 0.  1.
          2   -1    0    0  501    0  0.00000000000E+00 -0.00000000000E+00 -0.63418471159E+03  0.63418471159E+03  0.00000000000E+00 0. -1.
         23    2    1    2    0    0 -0.54257289744E+02 -0.11918935774E+03 -0.21070974165E+03  0.26606222137E+03  0.96127799962E+02 0.  0.
          5    1    1    2  502    0  0.73161002139E+01  0.59360371473E+02 -0.38120087523E+02  0.71047818380E+02  0.41800000000E+01 0. -1.
         -5    1    1    2    0  502  0.46941189530E+02  0.59828986267E+02 -0.33696492068E+03  0.34546463356E+03  0.41800000000E+01 0. -1.
        -11    1    3    3    0    0  0.53449887672E+01 -0.38996404178E+02 -0.81442544370E+01  0.40194742493E+02  0.00000000000E+00 0.  1.
         11    1    3    3    0    0 -0.59602278511E+02 -0.80192953563E+02 -0.20256548721E+03  0.22586747888E+03  0.00000000000E+00 0. -1.
</event>
<event>
 7    1  0.6610867E-006  0.1441940E+03  0.7561462E-02  0.1207795E+00
         -1   -1    0    0    0  501 -0.00000000000E+00  0.00000000000E+00  0.41967531368E+03  0.41967531368E+03  0.00000000000E+00 0.  1.
          1   -1    0    0  501    0  0.00000000000E+00 -0.00000000000E+00 -0.11191549206E+03  0.11191549206E+03  0.00000000000E+00 0. -1.
         23    2    1    2    0    0  0.41605068099E+02 -0.11825451844E+03  0.31805809458E+03  0.35422409015E+03  0.92728861180E+02 0.  0.
          5    1    1    2  502    0 -0.40791545291E+02  0.52327493923E+02 -0.63961734357E+02  0.92253415381E+02  0.41800000000E+01 0.  1.
         -5    1    1    2    0  502 -0.81352280848E+00  0.65927024520E+02  0.53663461408E+02  0.85113300204E+02  0.41800000000E+01 0.  1.
        -11    1    3    3    0    0  0.39391263528E+00  0.15693875253E+02  0.35705123062E+02  0.39003957498E+02  0.00000000000E+00 0.  1.
         11    1    3    3    0    0  0.41211155464E+02 -0.13394839370E+03  0.28235297151E+03  0.31522013266E+03  0.00000000000E+00 0. -1.
</event>
<event>
 7    1  0.6610867E-006  0.9477699E+02  0.7561462E-02  0.1291679E+00
          1   -1    0    0  501    0  0.00000000000E+00  0.00000000000E+00  0.14090772427E+04  0.14090772427E+04  0.00000000000E+00 0. -1.
         -1   -1    0    0    0  501 -0.00000000000E+00 -0.00000000000E+00 -0.98893895088E+01  0.98893895088E+01  0.00000000000E+00 0.  1.
         23    2    1    2    0    0  0.10920882924E+01 -0.44983889039E+02  0.50538159487E+03  0.51532867811E+03  0.90157346470E+02 0.  0.
          5    1    1    2  502    0 -0.37262652158E+01 -0.21961088114E+02  0.31953025173E+02  0.39174515457E+02  0.41800000000E+01 0.  1.
         -5    1    1    2    0  502  0.26341769234E+01  0.66944977154E+02  0.86185323317E+03  0.86446343866E+03  0.41800000000E+01 0.  1.
        -11    1    3    3    0    0  0.38455291257E+02 -0.48884052670E+02  0.27874506139E+03  0.28559984117E+03  0.00000000000E+00 0.  1.
         11    1    3    3    0    0 -0.37363202964E+02  0.39001636309E+01  0.22663653348E+03  0.22972883694E+03  0.00000000000E+00 0. -1.
</event>
<event>
 7    1  0.6610867E-006  0.2339581E+03  0.7561462E-02  0.1123884E+00
          1   -1    0    0  501    0  0.00000000000E+00  0.00000000000E+00  0.11818044082E+04  0.11818044082E+04  0.00000000000E+00 0. -1.
         -1   -1    0    0    0  501 -0.00000000000E+00 -0.00000000000E+00 -0.49768292419E+02  0.49768292419E+02  0.00000000000E+00 0.  1.
         23    2    1    2    0    0 -0.80808191837E+02  0.52024884624E+02  0.23478719357E+03  0.26988675689E+03  0.92072160805E+02 0.  0.
          5    1    1    2  502    0  0.17405762924E+02  0.13884434845E+03  0.29080297511E+03  0.32274534298E+03  0.41800000000E+01 0. -1.
         -5    1    1    2    0  502  0.63402428913E+02 -0.19086923308E+03  0.60644594714E+03  0.63894060078E+03  0.41800000000E+01 0.  1.
        -11    1    3    3    0    0 -0.88863910593E+02  0.16568761367E+02  0.20038867711E+03  0.21983389268E+03  0.00000000000E+00 0.  1.
         11    1    3    3    0    0  0.80557187561E+01  0.35456123257E+02  0.34398516460E+02  0.50052864211E+02  0.00000000000E+00 0. -1.
</event>
<event>
 7    1  0.6610867E-006  0.3380144E+03  0.7561462E-02  0.1067645E+00
          1   -1    0    0  501    0  0.00000000000E+00  0.00000000000E+00  0.26879938753E+03  0.26879938753E+03  0.00000000000E+00 0. -1.
         -1   -1    0    0    0  501 -0.00000000000E+00 -0.00000000000E+00 -0.43863638190E+03  0.43863638190E+03  0.00000000000E+00 0.  1.
         23    2    1    2    0    0  0.30424996489E+03 -0.10733568483E+03 -0.21220202144E+02  0.33084252449E+03  0.70124807744E+02 0.  0.
          5    1    1    2  502    0 -0.20096080305E+03  0.13106636047E+03 -0.10212846295E+03  0.26078982065E+03  0.41800000000E+01 0. -1.
         -5    1    1    2    0  502 -0.10328916183E+03 -0.23730675646E+02 -0.46488329279E+02  0.11580342429E+03  0.41800000000E+01 0. -1.
        -11    1    3    3    0    0  0.68975831271E+02 -0.56829313530E+02 -0.12352080962E+01  0.89379874216E+02  0.00000000000E+00 0. -1.
         11    1    3    3    0    0  0.23527413361E+03 -0.50506371296E+02 -0.19984994048E+02  0.24146265027E+03  0.00000000000E+00 0.  1.
</event>
<event>
 7    1  0.6610867E-006  0.1183196E+03  0.7561462E-02  0.1245895E+00
          1   -1    0    0  501    0  0.00000000000E+00  0.00000000000E+00  0.94039799564E+02  0.94039799564E+02  0.00000000000E+00 0. -1.
         -1   -1    0    0    0  501 -0.00000000000E+00 -0.00000000000E+00 -0.20754473042E+03  0.20754473042E+03  0.00000000000E+00 0.  1.
         23    2    1    2    0    0 -0.82443337256E+01  0.48266440048E+02 -0.13132786160E+03  0.16738556718E+03  0.91505751707E+02 0.  0.
          5    1    1    2  502    0  0.61478559380E+02 -0.50297801338E+02  0.92326644108E+01  0.80076192311E+02  0.41800000000E+01 0. -1.
         -5    1    1    2    0  502 -0.53234225654E+02  0.20313612902E+01  0.85902663333E+01  0.54122770489E+02  0.41800000000E+01 0.  1.
        -11    1    3    3    0    0  0.27748311941E+02 -0.14498403922E+02 -0.35987728117E+02  0.47699990638E+02  0.00000000000E+00 0. -1.
         11    1    3    3    0    0 -0.35992645666E+02  0.62764843969E+02 -0.95340133479E+02  0.11968557654E+03  0.00000000000E+00 0.  1.
</event>
<event>
 7    1  0.6610867E-006  0.1065491E+03  0.7561462E-02  0.1267097E+00
         -2   -1    0    0    0  501 -0.00000000000E+00  0.00000000000E+00  0.21229830754E+03  0.21229830754E+03  0.00000000000E+00 0.  1.
          2   -1    0    0  501    0  0.00000000000E+00 -0.00000000000E+00 -0.78224987900E+02  0.78224987900E+02  0.00000000000E+00 0. -1.
         23    2    1    2    0    0 -0.25530229908E+02 -0.53276638820E+02  0.10031153565E+03  0.14812361454E+03  0.91586069451E+02 0.  0.
          5    1    1    2  502    0  0.42326825900E+02  0.70121309379E+02 -0.19165522735E+02  0.84222015421E+02  0.41800000000E+01 0. -1.
         -5    1    1    2    0  502 -0.16796595993E+02 -0.16844670559E+02  0.52927306729E+02  0.58177665481E+02  0.41800000000E+01 0. -1.
        -11    1    3    3    0    0  0.33579211262E+02 -0.20562255010E+02  0.23606349397E+02  0.45908926059E+02  0.00000000000E+00 0. -1.
         11    1    3    3    0    0 -0.59109441170E+02 -0.32714383810E+02  0.76705186249E+02  0.10221468848E+03  0.00000000000E+00 0.  1.
</event>
<event>
 7    1  0.6610867E-006  0.1057076E+03  0.7561462E-02  0.1268732E+00
          4   -1    0    0  501    0  0.00000000000E+00  0.00000000000E+00  0.68191656146E+03  0.68191656146E+03  0.00000000000E+00 0.  1.
         -4   -1    0    0    0  501 -0.00000000000E+00 -0.00000000000E+00 -0.23015762476E+02  0.23015762476E+02  0.00000000000E+00 0. -1.
         23    2    1    2    0    0 -0.18690435919E+02  0.24527193399E+02  0.15271635448E+03  0.18261035668E+03  0.95254090887E+02 0.  0.
          5    1    1    2  502    0  0.18400130604E+02 -0.66743734688E+02  0.17204305375E+03  0.18549818239E+03  0.41800000000E+01 0.  1.
         -5    1    1    2    0  502  0.29030531500E+00  0.42216541290E+02  0.33414139075E+03  0.33682378486E+03  0.41800000000E+01 0.  1.
        -11    1    3    3    0    0  0.38082182598E+02  0.77345303297E+00  0.49792793841E+02  0.62691093303E+02  0.00000000000E+00 0.  1.
         11    1    3    3    0    0 -0.56772618517E+02  0.23753740366E+02  0.10292356064E+03  0.11991926338E+03  0.00000000000E+00 0. -1.
</event>
<event>
 7    1  0.6610867E-006  0.1543634E+03  0.7561462E-02  0.1195212E+00
          1   -1    0    0  501    0  0.00000000000E+00  0.00000000000E+00  0.52239977153E+02  0.52239977153E+02  0.00000000000E+00 0. -1.
         -1   -1    0    0    0  501 -0.00000000000E+00 -0.00000000000E+00 -0.48576062346E+03  0.48576062346E+03  0.00000000000E+00 0.  1.
         23    2    1    2    0    0 -0.61108693471E+01  0.11788330630E+03 -0.20274039216E+03  0.25017787585E+03  0.86899288403E+02 0.  0.
          5    1    1    2  502    0  0.42196653410E+02 -0.23703261816E+01 -0.10482370572E+03  0.11310021081E+03  0.41800000000E+01 0.  1.
         -5    1    1    2    0  502 -0.36085784063E+02 -0.11551298012E+03 -0.12595654843E+03  0.17472251395E+03  0.41800000000E+01 0.  1.
        -11    1    3    3    0    0  0.29806393361E+02  0.99642407786E+01 -0.30663156559E+02  0.43908271996E+02  0.00000000000E+00 0. -1.
         11    1    3    3    0    0 -0.35917262708E+02  0.10791906552E+03 -0.17207723560E+03  0.20626960386E+03  0.00000000000E+00 0.  1.
</event>
<event>
 7    1  0.6610867E-006  0.1030022E+03  0.7561462E-02  0.1274107E+00
         -1   -1    0    0    0  501 -0.00000000000E+00  0.00000000000E+00  0.16880404147E+02  0.16880404147E+02  0.00000000000E+00 0.  1.
          1   -1    0    0  501    0  0.00000000000E+00 -0.00000000000E+00 -0.85823288128E+03  0.85823288128E+03  0.00000000000E+00 0. -1.
         23    2    1    2    0    0  0.18794858951E+02  0.41317510892E+02 -0.27662260418E+03  0.29491740463E+03  0.91628745384E+02 0.  0.
          5    1    1    2  502    0 -0.58447598513E+02 -0.29256790656E+02 -0.49233063074E+03  0.49666790105E+03  0.41800000000E+01 0.  1.
         -5    1    1    2    0  502  0.39652739562E+02 -0.12060720237E+02 -0.72399242214E+02  0.83527979746E+02  0.41800000000E+01 0.  1.
        -11    1    3    3    0    0 -0.93594519651E+00  0.66698446563E+02 -0.14799466002E+03  0.16233292384E+03  0.00000000000E+00 0.  1.
         11    1    3    3    0    0  0.19730804148E+02 -0.25380935671E+02 -0.12862794416E+03  0.13258448079E+03  0.00000000000E+00 0. -1.
</event>
<event>
 7    1  0.6610867E-006  0.9089693E+02  0.7561462E-02  0.1300694E+00
         -1   -1    0    0    0  501 -0.00000000000E+00  0.00000000000E+00  0.42876408729E+02  0.42876408729E+02  0.00000000000E+00 0.  1.
          1   -1    0    0  501    0  0.00000000000E+00 -0.00000000000E+00 -0.32692014159E+03  0.32692014159E+03  0.00000000000E+00 0. -1.
         23    2    1    2    0    0  0.15442949609E+02 -0.41017414635E+02 -0.89360625851E+02  0.13427621738E+03  0.90132503048E+02 0.  0.
          5    1    1    2  502    0 -0.72582266743E+01  0.72673734362E+02 -0.53735981474E+02  0.90769937895E+02  0.41800000000E+01 0.  1.
         -5    1    1    2    0  502 -0.81847229350E+01 -0.31656319727E+02 -0.14094712553E+03  0.14475039504E+03  0.41800000000E+01 0.  1.
        -11    1    3    3    0    0  0.38841139717E+02 -0.17843073472E+02 -0.41755250608E+01  0.42946995412E+02  0.00000000000E+00 0.  1.
         11    1    3    3    0    0 -0.23398190108E+02 -0.23174341164E+02 -0.85185100791E+02  0.91329221969E+02  0.00000000000E+00 0. -1.
</event>
<event>
 7    1  0.6610867E-006  0.1298995E+03  0.7561462E-02  0.1227605E+00
         -1   -1    0    0    0  501 -0.00000000000E+00  0.00000000000E+00  0.40685939716E+02  0.40685939716E+02  0.00000000000E+00 0.  1.
          1   -1    0    0  501    0  0.00000000000E+00 -0.00000000000E+00 -0.49854332431E+03  0.49854332431E+03  0.00000000000E+00 0. -1.
         23    2    1    2    0    0  0.88807737648E+02 -0.22829759224E+02 -0.22464213186E+03  0.25914940536E+03  0.91029197085E+02 0.  0.
          5    1    1    2  502    0  0.12113050834E+02 -0.19457008699E+02 -0.12125503945E+03  0.12347290464E+03  0.41800000000E+01 0.  1.
         -5    1    1    2    0  502 -0.10092078848E+03  0.42286767923E+02 -0.11196021328E+03  0.15660695402E+03  0.41800000000E+01 0.  1.
        -11    1    3    3    0    0  0.19593936415E+02 -0.49180176153E+02 -0.70749590090E+02  0.88363547736E+02  0.00000000000E+00 0.  1.
         11    1    3    3    0    0  0.69213801233E+02  0.26350416929E+02 -0.15389254177E+03  0.17078585763E+03  0.00000000000E+00 0. -1.
</event>
<event>
 7    1  0.6610867E-006  0.1239196E+03  0.7561462E-02  0.1236768E+00
         -1   -1    0    0    0  501 -0.00000000000E+00  0.00000000000E+00  0.10711150425E+03  0.10711150425E+03  0.00000000000E+00 0.  1.
          1   -1    0    0  501    0  0.00000000000E+00 -0.00000000000E+00 -0.21532678472E+03  0.21532678472E+03  0.00000000000E+00 0. -1.
         23    2    1    2    0    0 -0.32425973776E+02 -0.92257162861E+02 -0.64167724715E+01  0.13382983749E+03  0.91139577353E+02 0.  0.
          5    1    1    2  502    0  0.73513235994E+02  0.56510474051E+02 -0.28299832862E+02  0.97035985509E+02  0.41800000000E+01 0.  1.
         -5    1    1    2    0  502 -0.41087262218E+02  0.35746688810E+02 -0.73498675132E+02  0.91572465968E+02  0.41800000000E+01 0.  1.
        -11    1    3    3    0    0 -0.25395458245E+02 -0.38094244768E+02  0.41032726702E+02  0.61479959699E+02  0.00000000000E+00 0.  1.
         11    1    3    3    0    0 -0.70305155306E+01 -0.54162918093E+02 -0.47449499174E+02  0.72349877794E+02  0.00000000000E+00 0. -1.
</event>
<event>
 7    1  0.6610867E-006  0.1297079E+03  0.7561462E-02  0.1227890E+00
          2   -1    0    0  501    0  0.00000000000E+00  0.00000000000E+00  0.40957659446E+03  0.40957659446E+03  0.00000000000E+00 0. -1.
         -2   -1    0    0    0  501 -0.00000000000E+00 -0.00000000000E+00 -0.57400146033E+02  0.57400146033E+02  0.00000000000E+00 0.  1.
         23    2    1    2    0    0 -0.19671627246E+02 -0.10047941728E+03  0.10964956330E+03  0.17551450455E+03  0.91100100766E+02 0.  0.
          5    1    1    2  502    0  0.39481353384E+02  0.31346100891E+02  0.14937398997E+02  0.52744228072E+02  0.41800000000E+01 0. -1.
         -5    1    1    2    0  502 -0.19809726138E+02  0.69133316391E+02  0.22758948613E+03  0.23871800787E+03  0.41800000000E+01 0. -1.
        -11    1    3    3    0    0  0.12854666215E+02  0.13276149742E+02  0.18623726538E+02  0.26236268516E+02  0.00000000000E+00 0.  1.
         11    1    3    3    0    0 -0.32526293462E+02 -0.11375556702E+03  0.91025836761E+02  0.14927823603E+03  0.00000000000E+00 0. -1.
</event>
<event>
 7    1  0.6610867E-006  0.1023131E+03  0.7561462E-02  0.1275506E+00
          2   -1    0    0  501    0  0.00000000000E+00  0.00000000000E+00  0.73226854733E+02  0.73226854733E+02  0.00000000000E+00 0. -1.
         -2   -1    0    0    0  501 -0.00000000000E+00 -0.00000000000E+00 -0.17526105801E+03  0.17526105801E+03  0.00000000000E+00 0.  1.
         23    2    1    2    0    0 -0.20056734851E+02 -0.16401354951E+02 -0.66927995399E+02  0.11600612048E+03  0.91141573193E+02 0.  0.
          5    1    1    2  502    0  0.43022930559E+02 -0.44136166146E+02 -0.25746933735E+02  0.66927951655E+02  0.41800000000E+01 0. -1.
         -5    1    1    2    0  502 -0.22966195707E+02  0.60537521098E+02 -0.93592741442E+01  0.65553840608E+02  0.41800000000E+01 0. -1.
        -11    1    3    3    0    0  0.14259929941E+02  0.22156844315E+02  0.56468107952E+01  0.26947315712E+02  0.00000000000E+00 0. -1.
         11    1    3    3    0    0 -0.34316664792E+02 -0.38558199266E+02 -0.72574806194E+02  0.89058804771E+02  0.00000000000E+00 0.  1.
</event>
<event>
 7    1  0.6610867E-006  0.1990176E+03  0.7561462E-02  0.1150571E+00
          1   -1    0    0  501    0  0.00000000000E+00  0.00000000000E+00  0.44567126196E+03  0.44567126196E+03  0.00000000000E+00 0. -1.
         -1   -1    0    0    0  501 -0.00000000000E+00 -0.00000000000E+00 -0.99804209200E+02  0.99804209200E+02  0.00000000000E+00 0.  1.
         23    2    1    2    0    0 -0.31837943176E+02 -0.17396103517E+03  0.21067650778E+03  0.29013304475E+03  0.92284865175E+02 0.  0.
          5    1    1    2  502    0  0.63762960224E+02  0.88127399798E+02  0.24427841194E+02  0.11156319069E+03  0.41800000000E+01 0. -1.
         -5    1    1    2    0  502 -0.31925017049E+02  0.85833635371E+02  0.11076270378E+03  0.14377923572E+03  0.41800000000E+01 0. -1.
        -11    1    3    3    0    0  0.25543174361E+02 -0.17794020458E+02  0.19657664071E+02  0.36817179104E+02  0.00000000000E+00 0.  1.
         11    1    3    3    0    0 -0.57381117537E+02 -0.15616701471E+03  0.19101884371E+03  0.25331586564E+03  0.00000000000E+00 0. -1.
</event>
<event>
 7    1  0.6610867E-006  0.1465452E+03  0.7561462E-02  0.1204784E+00
          1   -1    0    0  501    0  0.00000000000E+00  0.00000000000E+00  0.11369794428E+04  0.11369794428E+04  0.00000000000E+00 0. -1.
         -1   -1    0    0    0  501 -0.00000000000E+00 -0.00000000000E+00 -0.33064467380E+02  0.33064467380E+02  0.00000000000E+00 0.  1.
         23    2    1    2    0    0  0.91818438601E+02  0.91592553966E+02  0.24438419033E+03  0.29182908871E+03  0.92848063667E+02 0.  0.
          5    1    1    2  502    0 -0.78956666921E+02 -0.11309162262E+03  0.52871898725E+03  0.54642941927E+03  0.41800000000E+01 0. -1.
         -5    1    1    2    0  502 -0.12861771680E+02  0.21499068657E+02  0.33081179783E+03  0.33178540219E+03  0.41800000000E+01 0. -1.
        -11    1    3    3    0    0  0.47367232909E+02  0.48378784659E+02  0.40878210964E+02  0.79089757176E+02  0.00000000000E+00 0.  1.
         11    1    3    3    0    0  0.44451205692E+02  0.43213769306E+02  0.20350597936E+03  0.21273933153E+03  0.00000000000E+00 0. -1.
</event>
<event>
 7    1  0.6610867E-006  0.1144501E+03  0.7561462E-02  0.1252544E+00
         -2   -1    0    0    0  501 -0.00000000000E+00  0.00000000000E+00  0.80148662685E+02  0.80148662685E+02  0.00000000000E+00 0.  1.
          2   -1    0    0  501    0  0.00000000000E+00 -0.00000000000E+00 -0.26092987272E+03  0.26092987272E+03  0.00000000000E+00 0. -1.
         23    2    1    2    0    0  0.62266575864E+02  0.45332719455E+02 -0.17239019847E+02  0.12124654436E+03  0.92039984743E+02 0.  0.
          5    1    1    2  502    0  0.30376185517E+02  0.82765522110E+01 -0.72872754178E+02  0.79492922103E+02  0.41800000000E+01 0. -1.
         -5    1    1    2    0  502 -0.92642761380E+02 -0.53609271666E+02 -0.90669436013E+02  0.14033906894E+03  0.41800000000E+01 0. -1.
        -11    1    3    3    0    0  0.49148613193E+02  0.71700213440E+01 -0.49091955066E+02  0.69835631572E+02  0.00000000000E+00 0. -1.
         11    1    3    3    0    0  0.13117962670E+02  0.38162698111E+02  0.31852935220E+02  0.51410912789E+02  0.00000000000E+00 0.  1.
</event>
<event>
 7    1  0.6610867E-006  0.9542749E+02  0.7561462E-02  0.1290216E+00
          1   -1    0    0  501    0  0.00000000000E+00  0.00000000000E+00  0.69492347616E+02  0.69492347616E+02  0.00000000000E+00 0. -1.
         -1   -1    0    0    0  501 -0.00000000000E+00 -0.00000000000E+00 -0.24665734784E+03  0.24665734784E+03  0.00000000000E+00 0.  1.
         23    2    1    2    0    0 -0.16601918033E+02  0.39099680360E+02 -0.14819977680E+03  0.18090191224E+03  0.94646285301E+02 0.  0.
          5    1    1    2  502    0 -0.13070566536E+02  0.20253105070E+02 -0.57809147321E+02  0.62772588672E+02  0.41800000000E+01 0.  1.
         -5    1    1    2    0  502  0.29672484569E+02 -0.59352785431E+02  0.28843923897E+02  0.72475194547E+02  0.41800000000E+01 0.  1.
        -11    1    3    3    0    0 -0.96503971969E+01 -0.29455351597E+02 -0.25330700609E+02  0.40029892544E+02  0.00000000000E+00 0.  1.
         11    1    3    3    0    0 -0.69515208359E+01  0.68555031957E+02 -0.12286907620E+03  0.14087201970E+03  0.00000000000E+00 0. -1.
</event>
<event>
 7    1  0.6610867E-006  0.2072548E+03  0.7561462E-02  0.1143758E+00
         -1   -1    0    0    0  501 -0.00000000000E+00  0.00000000000E+00  0.83447515941E+02  0.83447515941E+02  0.00000000000E+00 0.  1.
          1   -1    0    0  501    0  0.00000000000E+00 -0.00000000000E+00 -0.57948575820E+03  0.57948575820E+03  0.00000000000E+00 0. -1.
         23    2    1    2    0    0  0.15266906787E+03 -0.10913180467E+03 -0.19062213068E+03  0.28326544568E+03  0.93192923231E+02 0.  0.
          5    1    1    2  502    0 -0.16265196530E+03  0.94062757056E+02 -0.20729177632E+03  0.27980496245E+03  0.41800000000E+01 0. -1.
         -5    1    1    2    0  502  0.99828974332E+01  0.15069047616E+02 -0.98124335254E+02  0.99862866002E+02  0.41800000000E+01 0. -1.
        -11    1    3    3    0    0  0.15183551955E+03 -0.67138956544E+02 -0.13763113668E+03  0.21564784781E+03  0.00000000000E+00 0.  1.
         11    1    3    3    0    0  0.83354831466E+00 -0.41992848128E+02 -0.52990994000E+02  0.67617597871E+02  0.00000000000E+00 0. -1.
</event>
<event>
 7    1  0.6610867E-006  0.1434588E+03  0.7561462E-02  0.1208749E+00
          2   -1    0    0  501    0  0.00000000000E+00  0.00000000000E+00  0.30150299895E+03  0.30150299895E+03  0.00000000000E+00 0. -1.
         -2   -1    0    0    0  501 -0.00000000000E+00 -0.00000000000E+00 -0.80416602428E+02  0.80416602428E+02  0.00000000000E+00 0.  1.
         23    2    1    2    0    0 -0.76550080907E+02 -0.66939112998E+02  0.49251645501E+02  0.14630215890E+03  0.92939966534E+02 0.  0.
          5    1    1    2  502    0  0.40167858890E+02 -0.32292758931E+02  0.81496039684E+02  0.96516092188E+02  0.41800000000E+01 0. -1.
         -5    1    1    2    0  502  0.36382222017E+02  0.99231871929E+02  0.90338711339E+02  0.13910135029E+03  0.41800000000E+01 0. -1.
        -11    1    3    3    0    0 -0.73923262487E+02 -0.12547772483E+02  0.52840915717E+02  0.91729263078E+02  0.00000000000E+00 0. -1.
         11    1    3    3    0    0 -0.26268184196E+01 -0.54391340515E+02 -0.35892702157E+01  0.54572895825E+02  0.00000000000E+00 0.  1.
</event>
<event>
 7    1  0.6610867E-006  0.1018794E+03  0.7561462E-02  0.1276393E+00
         -1   -1    0    0    0  501 -0.00000000000E+00  0.00000000000E+00  0.44019258893E+02  0.44019258893E+02  0.00000000000E+00 0.  1.
          1   -1    0    0  501    0  0.00000000000E+00 -0.00000000000E+00 -0.45825025802E+03  0.45825025802E+03  0.00000000000E+00 0. -1.
         23    2    1    2    0    0  0.76833327038E-01  0.82871113740E+02 -0.12013055408E+03  0.17210193970E+03  0.91214583423E+02 0.  0.
          5    1    1    2  502    0  0.17274935033E+02 -0.87719107590E+01 -0.22921627790E+03  0.23007160679E+03  0.41800000000E+01 0.  1.
         -5    1    1    2    0  502 -0.17351768360E+02 -0.74099202981E+02 -0.64884167144E+02  0.10009597042E+03  0.41800000000E+01 0.  1.
        -11    1    3    3    0    0  0.23555753815E+02  0.80784440143E+02 -0.49468667263E+02  0.97612234621E+02  0.00000000000E+00 0.  1.
         11    1    3    3    0    0 -0.23478920488E+02  0.20866735973E+01 -0.70661886822E+02  0.74489705082E+02  0.00000000000E+00 0. -1.
</event>
<event>
 7    1  0.6610867E-006  0.1098209E+03  0.7561462E-02  0.1260902E+00
         -1   -1    0    0    0  501 -0.00000000000E+00  0.00000000000E+00  0.57950264968E+02  0.57950264968E+02  0.00000000000E+00 0.  1.
          1   -1    0    0  501    0  0.00000000000E+00 -0.00000000000E+00 -0.25580438859E+03  0.25580438859E+03  0.00000000000E+00 0. -1.
         23    2    1    2    0    0  0.33435341179E+02 -0.41019409710E+02 -0.58341807249E+02  0.11904975865E+03  0.89266816615E+02 0.  0.
          5    1    1    2  502    0  0.27385841871E+02 -0.28956390511E+02 -0.61808182658E+02  0.73662614194E+02  0.41800000000E+01 0.  1.
         -5    1    1    2    0  502 -0.60821183051E+02  0.69975800220E+02 -0.77704133716E+02  0.12104228072E+03  0.41800000000E+01 0.  1.
        -11    1    3    3    0    0  0.18824762852E+02 -0.59956165800E+02 -0.68593033758E+02  0.93027510952E+02  0.00000000000E+00 0. -1.
         11    1    3    3    0    0  0.14610578327E+02  0.18936756090E+02  0.10251226508E+02  0.26022247697E+02  0.00000000000E+00 0.  1.
</event>
<event>
 7    1  0.6610867E-006  0.1278755E+03  0.7561462E-02  0.1230643E+00
         -1   -1    0    0    0  501 -0.00000000000E+00  0.00000000000E+00  0.41547326030E+02  0.41547326030E+02  0.00000000000E+00 0.  1.
          1   -1    0    0  501    0  0.00000000000E+00 -0.00000000000E+00 -0.56220504404E+03  0.56220504404E+03  0.00000000000E+00 0. -1.
         23    2    1    2    0    0 -0.82463346367E+02 -0.38244993856E+02 -0.12604931605E+03  0.17992970904E+03  0.90682892927E+02 0.  0.
          5    1    1    2  502    0  0.35276207408E+02  0.82312435469E+02 -0.24161874579E+03  0.25771464560E+03  0.41800000000E+01 0. -1.
         -5    1    1    2    0  502  0.47187138959E+02 -0.44067441613E+02 -0.15298965617E+03  0.16610801542E+03  0.41800000000E+01 0. -1.
        -11    1    3    3    0    0 -0.60484897480E+02 -0.38808280765E+01 -0.16179119951E+02  0.62731551648E+02  0.00000000000E+00 0.  1.
         11    1    3    3    0    0 -0.21978448887E+02 -0.34364165780E+02 -0.10987019610E+03  0.11719815740E+03  0.00000000000E+00 0. -1.
</event>
<event>
 7    1  0.6610867E-006  0.8363408E+02  0.7561462E-02  0.1319044E+00
          1   -1    0    0  501    0  0.00000000000E+00  0.00000000000E+00  0.14546804971E+03  0.14546804971E+03  0.00000000000E+00 0. -1.
         -1   -1    0    0    0  501 -0.00000000000E+00 -0.00000000000E+00 -0.83675620196E+02  0.83675620196E+02  0.00000000000E+00 0.  1.
         23    2    1    2    0    0 -0.83908670239E+01  0.30016452896E+02  0.21495922382E+02  0.94074923312E+02  0.86119814347E+02 0.  0.
          5    1    1    2  502    0  0.46787838293E+02  0.14446239578E+02  0.55610393712E+02  0.74214445621E+02  0.41800000000E+01 0.  1.
         -5    1    1    2    0  502 -0.38396971269E+02 -0.44462692474E+02 -0.15313886580E+02  0.60854300973E+02  0.41800000000E+01 0.  1.
        -11    1    3    3    0    0 -0.12244690098E+02 -0.11934839818E+02 -0.25664113779E+02  0.30838605240E+02  0.00000000000E+00 0.  1.
         11    1    3    3    0    0  0.38538230737E+01  0.41951292715E+02  0.47160036160E+02  0.63236318073E+02  0.00000000000E+00 0. -1.
</event>
<event>
 7    1  0.6610867E-006  0.1361536E+03  0.7561462E-02  0.1218600E+00
          1   -1    0    0  501    0  0.00000000000E+00  0.00000000000E+00  0.16593661149E+03  0.16593661149E+03  0.00000000000E+00 0. -1.
         -1   -1    0    0    0  501 -0.00000000000E+00 -0.00000000000E+00 -0.12794634172E+03  0.12794634172E+03  0.00000000000E+00 0.  1.
         23    2    1    2    0    0  0.84011731799E+02 -0.49170796057E+02 -0.20872576001E+02  0.12479168343E+03  0.75243348933E+02 0.  0.
          5    1    1    2  502    0 -0.55166239573E+02 -0.33940116759E+02  0.33694052449E+01  0.64992851960E+02  0.41800000000E+01 0. -1.
         -5    1    1    2    0  502 -0.28845492227E+02  0.83110912817E+02  0.55493440534E+02  0.10409841782E+03  0.41800000000E+01 0. -1.
        -11    1    3    3    0    0  0.17859931085E+02 -0.50080808952E+02  0.57453850645E+01  0.53479659808E+02  0.00000000000E+00 0. -1.
         11    1    3    3    0    0  0.66151800715E+02  0.91001289468E+00 -0.26617961065E+02  0.71312023618E+02  0.00000000000E+00 0.  1.
</event>
<event>
 7    1  0.6610867E-006  0.1022235E+03  0.7561462E-02  0.1275689E+00
         -2   -1    0    0    0  501 -0.00000000000E+00  0.00000000000E+00  0.20745550889E+02  0.20745550889E+02  0.00000000000E+00 0.  1.
          2   -1    0    0  501    0  0.00000000000E+00 -0.00000000000E+00 -0.74664758987E+03  0.74664758987E+03  0.00000000000E+00 0. -1.
         23    2    1    2    0    0  0.45800482113E+00  0.37246092545E+02 -0.17164165073E+03  0.19797267983E+03  0.91350120487E+02 0.  0.
          5    1    1    2  502    0  0.43301950540E+02 -0.64490465814E+02 -0.29743354409E+03  0.30743822900E+03  0.41800000000E+01 0. -1.
         -5    1    1    2    0  502 -0.43759955361E+02  0.27244373269E+02 -0.25682684416E+03  0.26198223193E+03  0.41800000000E+01 0. -1.
        -11    1    3    3    0    0  0.32709278789E+02  0.20441433357E+02 -0.22915861966E+02  0.44865196380E+02  0.00000000000E+00 0.  1.
         11    1    3    3    0    0 -0.32251273968E+02  0.16804659189E+02 -0.14872578877E+03  0.15310748345E+03  0.00000000000E+00 0. -1.
</event>
<event>
 7    1  0.6610867E-006  0.1125901E+03  0.7561462E-02  0.1255847E+00
          2   -1    0    0  501    0  0.00000000000E+00  0.00000000000E+00  0.53245035316E+03  0.53245035316E+03  0.00000000000E+00 0.  1.
         -2   -1    0    0    0  501 -0.00000000000E+00 -0.00000000000E+00 -0.34777481688E+02  0.34777481688E+02  0.00000000000E+00 0. -1.
         23    2    1    2    0    0  0.45617718259E+02  0.25577029624E+02  0.91380294596E+02  0.13890869062E+03  0.90609632078E+02 0.  0.
          5    1    1    2  502    0  0.22174495361E+02 -0.55561864910E+02  0.21219246973E+03  0.22050384507E+03  0.41800000000E+01 0.  1.
         -5    1    1    2    0  502 -0.67792213620E+02  0.29984835287E+02  0.19410010715E+03  0.20781529917E+03  0.41800000000E+01 0.  1.
        -11    1    3    3    0    0 -0.19479066536E+02 -0.32911757245E+01  0.56021526880E+02  0.59402671192E+02  0.00000000000E+00 0.  1.
         11    1    3    3    0    0  0.65096784795E+02  0.28868205348E+02  0.35358767716E+02  0.79506019426E+02  0.00000000000E+00 0. -1.
</event>
<event>
 7    1  0.6610867E-006  0.1664698E+03  0.7561462E-02  0.1181580E+00
         -2   -1    0    0    0  501 -0.00000000000E+00  0.00000000000E+00  0.12418869187E+03  0.12418869187E+03  0.00000000000E+00 0.  1.
          2   -1    0    0  501    0  0.00000000000E+00 -0.00000000000E+00 -0.27120347251E+03  0.27120347251E+03  0.00000000000E+00 0. -1.
         23    2    1    2    0    0  0.71757062964E+02  0.12587341101E+03 -0.39278798640E+02  0.17573928198E+03  0.91368919901E+02 0.  0.
          5    1    1    2  502    0 -0.47832447917E+00 -0.11052340617E+03 -0.33619909752E+02  0.11560027179E+03  0.41800000000E+01 0.  1.
         -5    1    1    2    0  502 -0.71278738485E+02 -0.15350004843E+02 -0.74116072246E+02  0.10405261061E+03  0.41800000000E+01 0.  1.
        -11    1    3    3    0    0  0.13866765548E+02  0.60116612649E+02 -0.59625473362E+02  0.85799133893E+02  0.00000000000E+00 0. -1.
         11    1    3    3    0    0  0.57890297417E+02  0.65756798365E+02  0.20346674722E+02  0.89940148090E+02  0.00000000000E+00 0.  1.
</event>
<event>
 7    1  0.6610867E-006  0.8525397E+02  0.7561462E-02  0.1314770E+00
         -2   -1    0    0    0  501 -0.00000000000E+00  0.00000000000E+00  0.45816615270E+03  0.45816615270E+03  0.00000000000E+00 0.  1.
          2   -1    0    0  501    0  0.00000000000E+00 -0.00000000000E+00 -0.53965497363E+02  0.53965497363E+02  0.00000000000E+00 0. -1.
         23    2    1    2    0    0  0.38303205623E+02 -0.40357460110E+01  0.37082244836E+03  0.38168555699E+03  0.81799470665E+02 0.  0.
          5    1    1    2  502    0 -0.15240195823E+02 -0.32818485003E+02 -0.34211818087E+02  0.49972366598E+02  0.41800000000E+01 0. -1.
         -5    1    1    2    0  502 -0.23063009800E+02  0.36854231014E+02  0.67590025064E+02  0.80473726475E+02  0.41800000000E+01 0.  1.
        -11    1    3    3    0    0  0.56073599036E+02  0.20852525226E+02  0.24317457337E+03  0.25042553674E+03  0.00000000000E+00 0.  1.
         11    1    3    3    0    0 -0.17770393413E+02 -0.24888271237E+02  0.12764787499E+03  0.13126002025E+03  0.00000000000E+00 0. -1.
</event>
<event>
 7    1  0.6610867E-006  0.6713496E+02  0.7561462E-02  0.1370116E+00
          2   -1    0    0  501    0  0.00000000000E+00  0.00000000000E+00  0.90486141909E+03  0.90486141909E+03  0.00000000000E+00 0.  1.
         -2   -1    0    0    0  501 -0.00000000000E+00 -0.00000000000E+00 -0.24708917564E+02  0.24708917564E+02  0.00000000000E+00 0. -1.
         23    2    1    2    0    0  0.39496961809E+02 -0.49894006909E+02  0.15277206825E+03  0.18877397220E+03  0.90812366038E+02 0.  0.
          5    1    1    2  502    0 -0.35903687414E+02  0.39150584401E+02  0.72675436116E+03  0.72870516459E+03  0.41800000000E+01 0. -1.
         -5    1    1    2    0  502 -0.35932743944E+01  0.10743422508E+02  0.62607212173E+00  0.12091199873E+02  0.41800000000E+01 0. -1.
        -11    1    3    3    0    0  0.26388848680E+02 -0.12335721331E+02 -0.17804524328E+01  0.29184094406E+02  0.00000000000E+00 0. -1.
         11    1    3    3    0    0  0.13108113128E+02 -0.37558285577E+02  0.15455252068E+03  0.15958987779E+03  0.00000000000E+00 0.  1.
</event>
<event>
 7    1  0.6610867E-006  0.9206607E+02  0.7561462E-02  0.1297924E+00
         -2   -1    0    0    0  501 -0.00000000000E+00  0.00000000000E+00  0.18703521894E+02  0.18703521894E+02  0.00000000000E+00 0.  1.
          2   -1    0    0  501    0  0.00000000000E+00 -0.00000000000E+00 -0.78840340602E+03  0.78840340602E+03  0.00000000000E+00 0. -1.
         23    2    1    2    0    0 -0.28844338728E+02 -0.20612564383E+02 -0.18795102502E+03  0.21100624433E+03  0.89113263069E+02 0.  0.
          5    1    1    2  502    0  0.57810845312E+02 -0.17265167843E+01 -0.12416832625E+03  0.13704130888E+03  0.41800000000E+01 0. -1.
         -5    1    1    2    0  502 -0.28966506584E+02  0.22339081168E+02 -0.45758053286E+03  0.45905937471E+03  0.41800000000E+01 0. -1.
        -11    1    3    3    0    0  0.24474004293E+02 -0.26036201788E+02 -0.11540818209E+03  0.12081353063E+03  0.00000000000E+00 0.  1.
         11    1    3    3    0    0 -0.53318343021E+02  0.54236374048E+01 -0.72542842931E+02  0.90192713707E+02  0.00000000000E+00 0. -1.
</event>
<event>
 7    1  0.6610867E-006  0.1056946E+03  0.7561462E-02  0.1268757E+00
         -1   -1    0    0    0  501 -0.00000000000E+00  0.00000000000E+00  0.65251401159E+02  0.65251401159E+02  0.00000000000E+00 0.  1.
          1   -1    0    0  501    0  0.00000000000E+00 -0.00000000000E+00 -0.20728638329E+03  0.20728638329E+03  0.00000000000E+00 0. -1.
         23    2    1    2    0    0 -0.15604777366E+02  0.39957186362E+02 -0.68789563802E+02  0.12136946605E+03  0.90324179386E+02 0.  0.
          5    1    1    2  502    0  0.66330215694E+02 -0.43776821097E+02 -0.32935538313E+02  0.86129725782E+02  0.41800000000E+01 0. -1.
         -5    1    1    2    0  502 -0.50725438329E+02  0.38196347349E+01 -0.40309880017E+02  0.65038592621E+02  0.41800000000E+01 0. -1.
        -11    1    3    3    0    0  0.64084633196E+01  0.54179411904E+02 -0.76581582053E+02  0.94027739450E+02  0.00000000000E+00 0. -1.
         11    1    3    3    0    0 -0.22013240685E+02 -0.14222225542E+02  0.77920182514E+01  0.27341726596E+02  0.00000000000E+00 0.  1.
</event>
<event>
 7    1  0.6610867E-006  0.1310648E+03  0.7561462E-02  0.1225884E+00
          2   -1    0    0  501    0  0.00000000000E+00  0.00000000000E+00  0.88020881759E+03  0.88020881759E+03  0.00000000000E+00 0. -1.
         -2   -1    0    0    0  501 -0.00000000000E+00 -0.00000000000E+00 -0.23656221586E+02  0.23656221586E+02  0.00000000000E+00 0.  1.
         23    2    1    2    0    0  0.82773725014E+02  0.35985180426E+02  0.43248145227E+03  0.45261118916E+03  0.98337476241E+02 0.  0.
          5    1    1    2  502    0  0.74558246038E+00 -0.64788370436E+02  0.15611475235E+03  0.16907802086E+03  0.41800000000E+01 0.  1.
         -5    1    1    2    0  502 -0.83519307474E+02  0.28803190010E+02  0.26795639139E+03  0.28217582916E+03  0.41800000000E+01 0.  1.
        -11    1    3    3    0    0  0.26673517589E+02 -0.16967434380E+02  0.32806141073E+02  0.45558898824E+02  0.00000000000E+00 0.  1.
         11    1    3    3    0    0  0.56100207425E+02  0.52952614806E+02  0.39967531119E+03  0.40705229033E+03  0.00000000000E+00 0. -1.
</event>
<event>
 7    1  0.6610867E-006  0.2215800E+03  0.7561462E-02  0.1132711E+00
          2   -1    0    0  501    0  0.00000000000E+00  0.00000000000E+00  0.14283900911E+04  0.14283900911E+04  0.00000000000E+00 0. -1.
         -2   -1    0    0    0  501 -0.00000000000E+00 -0.00000000000E+00 -0.40495953076E+02  0.40495953076E+02  0.00000000000E+00 0.  1.
         23    2    1    2    0    0 -0.18332089654E+03  0.69605223462E+02  0.40954940744E+03  0.46327339530E+03  0.91869926587E+02 0.  0.
          5    1    1    2  502    0  0.14526619605E+03 -0.10117693090E+03  0.84449568598E+03  0.86286121428E+03  0.41800000000E+01 0.  1.
         -5    1    1    2    0  502  0.38054700491E+02  0.31571707442E+02  0.13384904458E+03  0.14275143458E+03  0.41800000000E+01 0.  1.
        -11    1    3    3    0    0 -0.85244842198E+02 -0.15456882464E+02  0.15759421548E+03  0.17983752414E+03  0.00000000000E+00 0. -1.
         11    1    3    3    0    0 -0.98076054343E+02  0.85062105926E+02  0.25195519196E+03  0.28343587115E+03  0.00000000000E+00 0.  1.
</event>
<event>
 7    1  0.6610867E-006  0.1017491E+03  0.7561462E-02  0.1276660E+00
          3   -1    0    0  501    0  0.00000000000E+00  0.00000000000E+00  0.53349543327E+02  0.53349543327E+02  0.00000000000E+00 0. -1.
         -3   -1    0    0    0  501 -0.00000000000E+00 -0.00000000000E+00 -0.34595884794E+03  0.34595884794E+03  0.00000000000E+00 0.  1.
         23    2    1    2    0    0  0.32547555280E+02 -0.71611671995E+02 -0.15981527873E+03  0.20063983032E+03  0.92346322476E+02 0.  0.
          5    1    1    2  502    0 -0.33082298169E+02  0.47886485921E+02 -0.15517358003E+03  0.16578258752E+03  0.41800000000E+01 0.  1.
         -5    1    1    2    0  502  0.53474288842E+00  0.23725186074E+02  0.22379554147E+02  0.32885973424E+02  0.41800000000E+01 0.  1.
        -11    1    3    3    0    0 -0.22635744078E+02 -0.60718917367E+02 -0.79005610466E+02  0.10218145782E+03  0.00000000000E+00 0. -1.
         11    1    3    3    0    0  0.55183299358E+02 -0.10892754628E+02 -0.80809668261E+02  0.98458372502E+02  0.00000000000E+00 0.  1.
</event>
<event>
 7    1  0.6610867E-006  0.1007218E+03  0.7561462E-02  0.1278785E+00
         -1   -1    0    0    0  501 -0.00000000000E+00  0.00000000000E+00  0.15501563141E+03  0.15501563141E+03  0.00000000000E+00 0.  1.
          1   -1    0    0  501    0  0.00000000000E+00 -0.00000000000E+00 -0.27962460720E+03  0.27962460720E+03  0.00000000000E+00 0. -1.
         23    2    1    2    0    0  0.41521806628E+02 -0.66133304077E+02  0.10920644671E+03  0.16180517429E+03  0.90317174950E+02 0.  0.
          5    1    1    2  502    0 -0.47764445579E+02  0.71040863987E+02 -0.24438008441E+03  0.25897363702E+03  0.41800000000E+01 0. -1.
         -5    1    1    2    0  502  0.62426389509E+01 -0.49075599092E+01  0.10564661905E+02  0.13861427289E+02  0.41800000000E+01 0.  1.
        -11    1    3    3    0    0  0.31985269779E+02  0.72217671914E+01  0.71755337179E+02  0.78892584049E+02  0.00000000000E+00 0.  1.
         11    1    3    3    0    0  0.95365368492E+01 -0.73355071269E+02  0.37451109534E+02  0.82912590246E+02  0.00000000000E+00 0. -1.
</event>
<event>
 7    1  0.6610867E-006  0.1267609E+03  0.7561462E-02  0.1232343E+00
         -1   -1    0    0    0  501 -0.00000000000E+00  0.00000000000E+00  0.47623941224E+02  0.47623941224E+02  0.00000000000E+00 0. -1.
          1   -1    0    0  501    0  0.00000000000E+00 -0.00000000000E+00 -0.49959117753E+03  0.49959117753E+03  0.00000000000E+00 0.  1.
         23    2    1    2    0    0 -0.47860600662E+02 -0.78373319874E+02 -0.10405829000E+03  0.16626661473E+03  0.91561154935E+02 0.  0.
          5    1    1    2  502    0  0.88461156260E+02  0.40336312794E+02 -0.24979793467E+03  0.26808370869E+03  0.41800000000E+01 0.  1.
         -5    1    1    2    0  502 -0.40600555598E+02  0.38037007081E+02 -0.98111011636E+02  0.11286479534E+03  0.41800000000E+01 0.  1.
        -11    1    3    3    0    0  0.67307240597E+01 -0.16964825711E+02 -0.77941677113E+02  0.80050065515E+02  0.00000000000E+00 0.  1.
         11    1    3    3    0    0 -0.54591324722E+02 -0.61408494163E+02 -0.26116612887E+02  0.86216549217E+02  0.00000000000E+00 0. -1.
</event>
<event>
 7    1  0.6610867E-006  0.1603621E+03  0.7561462E-02  0.1188288E+00
         -2   -1    0    0    0  501 -0.00000000000E+00  0.00000000000E+00  0.33455076779E+02  0.33455076779E+02  0.00000000000E+00 0.  1.
          2   -1    0    0  501    0  0.00000000000E+00 -0.00000000000E+00 -0.10680929044E+04  0.10680929044E+04  0.00000000000E+00 0. -1.
         23    2    1    2    0    0  0.30022741072E+02 -0.13454941449E+03 -0.28554562624E+03  0.32967256472E+03  0.90237383299E+02 0.  0.
          5    1    1    2  502    0  0.31967332990E+02  0.22696016376E+02 -0.65811803171E+02  0.76718220616E+02  0.41800000000E+01 0.  1.
         -5    1    1    2    0  502 -0.61990074063E+02  0.11185339811E+03 -0.68328039818E+03  0.69515719582E+03  0.41800000000E+01 0.  1.
        -11    1    3    3    0    0  0.48323670536E+02 -0.62464510830E+02 -0.86211638159E+02  0.11691637525E+03  0.00000000000E+00 0.  1.
         11    1    3    3    0    0 -0.18300929463E+02 -0.72084903657E+02 -0.19933398808E+03  0.21275618947E+03  0.00000000000E+00 0. -1.
</event>
<event>
 7    1  0.6610867E-006  0.1193328E+03  0.7561462E-02  0.1244202E+00
          1   -1    0    0  501    0  0.00000000000E+00  0.00000000000E+00  0.36556073071E+03  0.36556073071E+03  0.00000000000E+00 0. -1.
         -1   -1    0    0    0  501 -0.00000000000E+00 -0.00000000000E+00 -0.13612450281E+03  0.13612450281E+03  0.00000000000E+00 0.  1.
         23    2    1    2    0    0 -0.10740142664E+03 -0.19493198270E+02 -0.70152883669E+02  0.15886027800E+03  0.91652111914E+02 0.  0.
          5    1    1    2  502    0  0.71564636078E+02  0.56509427580E+00  0.29288842658E+03  0.30153427548E+03  0.41800000000E+01 0. -1.
         -5    1    1    2    0  502  0.35836790558E+02  0.18928103994E+02  0.67006849862E+01  0.41290680033E+02  0.41800000000E+01 0.  1.
        -11    1    3    3    0    0 -0.65033488013E+02 -0.42823563031E+02 -0.54217515175E+01  0.78055156802E+02  0.00000000000E+00 0.  1.
         11    1    3    3    0    0 -0.42367938623E+02  0.23330364761E+02 -0.64731132151E+02  0.80805121203E+02  0.00000000000E+00 0. -1.
</event>
<event>
 7    1  0.6610867E-006  0.1042218E+03  0.7561462E-02  0.1271661E+00
         -1   -1    0    0    0  501 -0.00000000000E+00  0.00000000000E+00  0.11417187333E+03  0.11417187333E+03  0.00000000000E+00 0.  1.
          1   -1    0    0  501    0  0.00000000000E+00 -0.00000000000E+00 -0.14661044958E+03  0.14661044958E+03  0.00000000000E+00 0. -1.
         23    2    1    2    0    0  0.65659463685E+02  0.27817767815E+02 -0.20573531658E+02  0.11630467411E+03  0.89546153678E+02 0.  0.
          5    1    1    2  502    0 -0.38750347785E+02  0.44168158696E+02  0.18495648099E+02  0.61741210668E+02  0.41800000000E+01 0.  1.
         -5    1    1    2    0  502 -0.26909115899E+02 -0.71985926511E+02 -0.30360692692E+02  0.82736438133E+02  0.41800000000E+01 0.  1.
        -11    1    3    3    0    0  0.46250837681E+02  0.12675048508E+02  0.32410464585E+02  0.57881215049E+02  0.00000000000E+00 0.  1.
         11    1    3    3    0    0  0.19408626004E+02  0.15142719307E+02 -0.52983996243E+02  0.58423459066E+02  0.00000000000E+00 0. -1.
</event>
<event>
 7    1  0.6610867E-006  0.1252641E+03  0.7561462E-02  0.1234657E+00
         -2   -1    0    0    0  501 -0.00000000000E+00  0.00000000000E+00  0.98034523728E+02  0.98034523728E+02  0.00000000000E+00 0.  1.
          2   -1    0    0  501    0  0.00000000000E+00 -0.00000000000E+00 -0.19690176844E+03  0.19690176844E+03  0.00000000000E+00 0. -1.
         23    2    1    2    0    0  0.63707721270E+02  0.50847205053E+02 -0.13799663455E+02  0.12310086828E+03  0.91210092908E+02 0.  0.
          5    1    1    2  502    0 -0.33601616043E+02 -0.89939396605E+02 -0.37463412260E+02  0.10314622301E+03  0.41800000000E+01 0. -1.
         -5    1    1    2    0  502 -0.30106105227E+02  0.39092191552E+02 -0.47604168999E+02  0.68689200886E+02  0.41800000000E+01 0. -1.
        -11    1    3    3    0    0  0.22128949038E+02  0.58576266712E+02  0.23331623948E+02  0.66822407046E+02  0.00000000000E+00 0.  1.
         11    1    3    3    0    0  0.41578772232E+02 -0.77290616589E+01 -0.37131287403E+02  0.56278461232E+02  0.00000000000E+00 0. -1.
</event>
<event>
 7    1  0.6610867E-006  0.9646151E+02  0.7561462E-02  0.1287918E+00
          1   -1    0    0  501    0  0.00000000000E+00  0.00000000000E+00  0.71483200768E+03  0.71483200768E+03  0.00000000000E+00 0. -1.
         -1   -1    0    0    0  501 -0.00000000000E+00 -0.00000000000E+00 -0.22186297703E+02  0.22186297703E+02  0.00000000000E+00 0.  1.
         23    2    1    2    0    0  0.83215126401E+01 -0.26763212181E+02  0.12181502525E+03  0.15197059008E+03  0.86432880159E+02 0.  0.
          5    1    1    2  502    0 -0.55083511484E+02  0.68596084130E+01  0.45623630884E+03  0.45961972257E+03  0.41800000000E+01 0. -1.
         -5    1    1    2    0  502  0.46761998844E+02  0.19903603768E+02  0.11459437588E+03  0.12542799274E+03  0.41800000000E+01 0. -1.
        -11    1    3    3    0    0 -0.21929273590E+02 -0.45619959799E+02  0.46890593386E+02  0.68998561727E+02  0.00000000000E+00 0. -1.
         11    1    3    3    0    0  0.30250786230E+02  0.18856747618E+02  0.74924431868E+02  0.82972028353E+02  0.00000000000E+00 0.  1.
</event>
<event>
 7    1  0.6610867E-006  0.1295260E+03  0.7561462E-02  0.1228161E+00
          1   -1    0    0  501    0  0.00000000000E+00  0.00000000000E+00  0.21052324440E+03  0.21052324440E+03  0.00000000000E+00 0. -1.
         -1   -1    0    0    0  501 -0.00000000000E+00 -0.00000000000E+00 -0.11934754956E+03  0.11934754956E+03  0.00000000000E+00 0.  1.
         23    2    1    2    0    0 -0.60989475111E+02  0.78996761949E+02 -0.18496897008E+02  0.13586926104E+03  0.90322291955E+02 0.  0.
          5    1    1    2  502    0  0.71105112086E+02 -0.83352269007E+01  0.98176265640E+02  0.12157904633E+03  0.41800000000E+01 0.  1.
         -5    1    1    2    0  502 -0.10115636975E+02 -0.70661535049E+02  0.11496326204E+02  0.72422486584E+02  0.41800000000E+01 0.  1.
        -11    1    3    3    0    0 -0.29650294291E+02  0.79121273997E+02 -0.44182400777E+02  0.95348835802E+02  0.00000000000E+00 0.  1.
         11    1    3    3    0    0 -0.31339180820E+02 -0.12451204743E+00  0.25685503768E+02  0.40520425239E+02  0.00000000000E+00 0. -1.
</event>
<event>
 7    1  0.6610867E-006  0.1100215E+03  0.7561462E-02  0.1260530E+00
          2   -1    0    0  501    0  0.00000000000E+00  0.00000000000E+00  0.13328123711E+04  0.13328123711E+04  0.00000000000E+00 0. -1.
         -2   -1    0    0    0  501 -0.00000000000E+00 -0.00000000000E+00 -0.10785831051E+02  0.10785831051E+02  0.00000000000E+00 0.  1.
         23    2    1    2    0    0  0.59793291894E+02 -0.15005488603E+01  0.27159274560E+03  0.28405263068E+03  0.57842788074E+02 0.  0.
          5    1    1    2  502    0 -0.92725377836E+02 -0.23057707500E+02  0.65192359759E+03  0.65890174007E+03  0.41800000000E+01 0.  1.
         -5    1    1    2    0  502  0.32932085942E+02  0.24558256360E+02  0.39851019686E+03  0.40064383140E+03  0.41800000000E+01 0.  1.
        -11    1    3    3    0    0  0.57879823522E+02 -0.22443893791E+02  0.20866453887E+03  0.21770322029E+03  0.00000000000E+00 0.  1.
         11    1    3    3    0    0  0.19134683717E+01  0.20943344930E+02  0.62928206723E+02  0.66349410393E+02  0.00000000000E+00 0. -1.
</event>
<event>
 7    1  0.6610867E-006  0.1198049E+03  0.7561462E-02  0.1243419E+00
         -2   -1    0    0    0  501 -0.00000000000E+00  0.00000000000E+00  0.18827373545E+02  0.18827373545E+02  0.00000000000E+00 0.  1.
          2   -1    0    0  501    0  0.00000000000E+00 -0.00000000000E+00 -0.13002282890E+04  0.13002282890E+04  0.00000000000E+00 0. -1.
         23    2    1    2    0    0  0.24953092010E+02 -0.92459119198E+02 -0.34983781331E+03  0.37426507688E+03  0.92284920919E+02 0.  0.
          5    1    1    2  502    0 -0.36612455079E+02 -0.11582987919E+02 -0.46526768633E+03  0.46686842881E+03  0.41800000000E+01 0. -1.
         -5    1    1    2    0  502  0.11659363069E+02  0.10404210712E+03 -0.46629541584E+03  0.47792215688E+03  0.41800000000E+01 0. -1.
        -11    1    3    3    0    0  0.16906394902E+02 -0.76335477286E+02 -0.34738985151E+03  0.35607954197E+03  0.00000000000E+00 0. -1.
         11    1    3    3    0    0  0.80466971080E+01 -0.16123641912E+02 -0.24479617983E+01  0.18185534906E+02  0.00000000000E+00 0.  1.
</event>
<event>
 7    1  0.6610867E-006  0.8644651E+02  0.7561462E-02  0.1311693E+00
         -2   -1    0    0    0  501 -0.00000000000E+00  0.00000000000E+00  0.20164005431E+03  0.20164005431E+03  0.00000000000E+00 0.  1.
          2   -1    0    0  501    0  0.00000000000E+00 -0.00000000000E+00 -0.70499309072E+02  0.70499309072E+02  0.00000000000E+00 0. -1.
         23    2    1    2    0    0  0.44547744112E+02 -0.18089490763E+02  0.71862529137E+02  0.12560226826E+03  0.91104201427E+02 0.  0.
          5    1    1    2  502    0 -0.37281123559E+02 -0.19253967194E+02 -0.28420533924E+02  0.50850728363E+02  0.41800000000E+01 0.  1.
         -5    1    1    2    0  502 -0.72666205530E+01  0.37343457957E+02  0.87698750021E+02  0.95686366749E+02  0.41800000000E+01 0.  1.
        -11    1    3    3    0    0  0.35005824491E+02  0.28348451209E+02  0.75009696038E+01  0.45665161548E+02  0.00000000000E+00 0. -1.
         11    1    3    3    0    0  0.95419196206E+01 -0.46437941972E+02  0.64361559533E+02  0.79937106716E+02  0.00000000000E+00 0.  1.
</event>
<event>
 7    1  0.6610867E-006  0.1371773E+03  0.7561462E-02  0.1217178E+00
         -2   -1    0    0    0  501 -0.00000000000E+00  0.00000000000E+00  0.30338699700E+02  0.30338699700E+02  0.00000000000E+00 0.  1.
          2   -1    0    0  501    0  0.00000000000E+00 -0.00000000000E+00 -0.63901656853E+03  0.63901656853E+03  0.00000000000E+00 0. -1.
         23    2    1    2    0    0 -0.83615870291E+02  0.20286332391E+02 -0.28603775007E+03  0.31277513046E+03  0.92776822131E+02 0.  0.
          5    1    1    2  502    0  0.85147017210E+02 -0.64575681437E+02 -0.21611515653E+03  0.24112914892E+03  0.41800000000E+01 0.  1.
         -5    1    1    2    0  502 -0.15311469185E+01  0.44289349046E+02 -0.10652496223E+03  0.11545098886E+03  0.41800000000E+01 0.  1.
        -11    1    3    3    0    0 -0.54289832221E+02 -0.31947795004E+02 -0.10919294378E+03  0.12606009067E+03  0.00000000000E+00 0. -1.
         11    1    3    3    0    0 -0.29326038071E+02  0.52234127395E+02 -0.17684480629E+03  0.18671503979E+03  0.00000000000E+00 0.  1.
</event>
<event>
 6    1  0.6610867E-006  0.1083136E+03  0.7561462E-02  0.1263725E+00
          2   -1    0    0  501    0  0.00000000000E+00  0.00000000000E+00  0.19536384736E+03  0.19536384736E+03  0.00000000000E+00 0. -1.
         -2   -1    0    0    0  501 -0.00000000000E+00 -0.00000000000E+00 -0.15166073366E+03  0.15166073366E+03  0.00000000000E+00 0.  1.
          5    1    1    2  502    0  0.19585301902E+02 -0.30983540209E+02  0.11202652408E+03  0.11794481045E+03  0.41800000000E+01 0. -1.
         -5    1    1    2    0  502 -0.25231050259E+02  0.99704482281E+02  0.25694407153E+02  0.10609083204E+03  0.41800000000E+01 0.  1.
        -11    1    1    2    0    0  0.17726969704E+02 -0.58006164610E+02 -0.85215578347E+02  0.10459758783E+03  0.00000000000E+00 0. -1.
         11    1    1    2    0    0 -0.12081221347E+02 -0.10714777462E+02 -0.88022391894E+01  0.18391350686E+02  0.00000000000E+00 0.  1.
</event>
<event>
 7    1  0.6610867E-006  0.1823112E+03  0.7561462E-02  0.1165585E+00
         -1   -1    0    0    0  501 -0.00000000000E+00  0.00000000000E+00  0.41303926268E+03  0.41303926268E+03  0.00000000000E+00 0.  1.
          1   -1    0    0  501    0  0.00000000000E+00 -0.00000000000E+00 -0.95989878617E+02  0.95989878617E+02  0.00000000000E+00 0. -1.
         23    2    1    2    0    0  0.15828145507E+03  0.21139357270E+02  0.21271902416E+03  0.28092364303E+03  0.90381516514E+02 0.  0.
          5    1    1    2  502    0 -0.10877145284E+03 -0.55438553976E+02  0.11384957282E+03  0.16698460962E+03  0.41800000000E+01 0.  1.
         -5    1    1    2    0  502 -0.49510002230E+02  0.34299196706E+02 -0.95192129096E+01  0.61120888655E+02  0.41800000000E+01 0.  1.
        -11    1    3    3    0    0  0.14550238022E+03 -0.12566511255E+02  0.18349037755E+03  0.23451562529E+03  0.00000000000E+00 0. -1.
         11    1    3    3    0    0  0.12779074850E+02  0.33705868525E+02  0.29228646611E+02  0.46408017731E+02  0.00000000000E+00 0.  1.
</event>
<event>
 7    1  0.6610867E-006  0.2130779E+03  0.7561462E-02  0.1139152E+00
          2   -1    0    0  501    0  0.00000000000E+00  0.00000000000E+00  0.50644115298E+03  0.50644115298E+03  0.00000000000E+00 0. -1.
         -2   -1    0    0    0  501 -0.00000000000E+00 -0.00000000000E+00 -0.97116890384E+02  0.97116890384E+02  0.00000000000E+00 0.  1.
         23    2    1    2    0    0  0.98535227673E+01  0.18815770052E+03  0.13897587309E+03  0.25108638785E+03  0.90717521383E+02 0.  0.
          5    1    1    2  502    0 -0.39852441391E+02 -0.48664749144E+01  0.49915431831E+02  0.64194410954E+02  0.41800000000E+01 0.  1.
         -5    1    1    2    0  502  0.29998918624E+02 -0.18329122561E+03  0.22043295768E+03  0.28827724456E+03  0.41800000000E+01 0.  1.
        -11    1    3    3    0    0 -0.25227836607E+02  0.36625926606E+02  0.31435529931E+01  0.44584573174E+02  0.00000000000E+00 0.  1.
         11    1    3    3    0    0  0.35081359374E+02  0.15153177391E+03  0.13583232010E+03  0.20650181468E+03  0.00000000000E+00 0. -1.
</event>
<event>
 7    1  0.6610867E-006  0.5610628E+02  0.7561462E-02  0.1414938E+00
         -2   -1    0    0    0  501 -0.00000000000E+00  0.00000000000E+00  0.18725740393E+02  0.18725740393E+02  0.00000000000E+00 0.  1.
          2   -1    0    0  501    0  0.00000000000E+00 -0.00000000000E+00 -0.77150419280E+03  0.77150419280E+03  0.00000000000E+00 0. -1.
         23    2    1    2    0    0  0.39957927108E+01  0.14642042689E+02 -0.16469942771E+03  0.18879915382E+03  0.91043194263E+02 0.  0.
          5    1    1    2  502    0 -0.12335392028E+02 -0.96321935255E+01 -0.59037404795E+03  0.59059624952E+03  0.41800000000E+01 0. -1.
         -5    1    1    2    0  502  0.83395993169E+01 -0.50098491633E+01  0.22950232575E+01  0.10834529854E+02  0.41800000000E+01 0. -1.
        -11    1    3    3    0    0 -0.22611149028E+02 -0.27490106440E+02 -0.35272376974E+02  0.50110982726E+02  0.00000000000E+00 0.  1.
         11    1    3    3    0    0  0.26606941739E+02  0.42132149128E+02 -0.12942705074E+03  0.13868817109E+03  0.00000000000E+00 0. -1.
</event>
<event>
 7    1  0.6610867E-006  0.9791574E+02  0.7561462E-02  0.1284741E+00
          1   -1    0    0  501    0  0.00000000000E+00  0.00000000000E+00  0.24459910674E+03  0.24459910674E+03  0.00000000000E+00 0. -1.
         -1   -1    0    0    0  501 -0.00000000000E+00 -0.00000000000E+00 -0.54884248648E+02  0.54884248648E+02  0.00000000000E+00 0.  1.
         23    2    1    2    0    0 -0.27451199220E+02 -0.30565816304E+02  0.92373378248E+02  0.13573840574E+03  0.90577239522E+02 0.  0.
          5    1    1    2  502    0  0.70636715103E+02 -0.27640838840E+01  0.29812062135E+02  0.76833697874E+02  0.41800000000E+01 0.  1.
         -5    1    1    2    0  502 -0.43185515883E+02  0.33329900189E+02  0.67529417712E+02  0.86911251775E+02  0.41800000000E+01 0.  1.
        -11    1    3    3    0    0 -0.17776035925E+02  0.15285816459E+02 -0.81566127968E+01  0.24822851777E+02  0.00000000000E+00 0.  1.
         11    1    3    3    0    0 -0.96751632950E+01 -0.45851632763E+02  0.10052999104E+03  0.11091555396E+03  0.00000000000E+00 0. -1.
</event>
<event>
 7    1  0.6610867E-006  0.1259174E+03  0.7561462E-02  0.1233642E+00
          2   -1    0    0  501    0  0.00000000000E+00  0.00000000000E+00  0.12917221378E+04  0.12917221378E+04  0.00000000000E+00 0. -1.
         -2   -1    0    0    0  501 -0.00000000000E+00 -0.00000000000E+00 -0.17010475129E+02  0.17010475129E+02  0.00000000000E+00 0.  1.
         23    2    1    2    0    0  0.63206443814E+02  0.45508383540E+02  0.28695459649E+03  0.31156102795E+03  0.93065923843E+02 0.  0.
          5    1    1    2  502    0  0.19931265440E+01 -0.62762929963E+02  0.62616939628E+03  0.62932403670E+03  0.41800000000E+01 0. -1.
         -5    1    1    2    0  502 -0.65199570358E+02  0.17254546423E+02  0.36158766986E+03  0.36784754824E+03  0.41800000000E+01 0.  1.
        -11    1    3    3    0    0 -0.14565536100E+02 -0.16392406837E+02  0.49311223223E+02  0.53967236167E+02  0.00000000000E+00 0. -1.
         11    1    3    3    0    0  0.77771979915E+02  0.61900790376E+02  0.23764337327E+03  0.25759379179E+03  0.00000000000E+00 0.  1.
</event>
<event>
 7    1  0.6610867E-006  0.9790533E+02  0.7561462E-02  0.1284763E+00
          2   -1    0    0  501    0  0.00000000000E+00  0.00000000000E+00  0.13755143909E+03  0.13755143909E+03  0.00000000000E+00 0. -1.
         -2   -1    0    0    0  501 -0.00000000000E+00 -0.00000000000E+00 -0.11061101578E+03  0.11061101578E+03  0.00000000000E+00 0.  1.
         23    2    1    2    0    0 -0.26386743256E+02 -0.39981671339E+02 -0.22638723500E+02  0.10535416340E+03  0.91061482978E+02 0.  0.
          5    1    1    2  502    0 -0.28089793400E+02 -0.12246597749E+02  0.59024625366E+02  0.66636284780E+02  0.41800000000E+01 0. -1.
         -5    1    1    2    0  502  0.54476536656E+02  0.52228269088E+02 -0.94454785600E+01  0.76172006691E+02  0.41800000000E+01 0. -1.
        -11    1    3    3    0    0  0.25259822565E+02 -0.24962874601E+02 -0.35326912137E+02  0.50091860272E+02  0.00000000000E+00 0.  1.
         11    1    3    3    0    0 -0.51646565821E+02 -0.15018796738E+02  0.12688188637E+02  0.55262303132E+02  0.00000000000E+00 0. -1.
</event>
<event>
 7    1  0.6610867E-006  0.1016512E+03  0.7561462E-02  0.1276862E+00
         -1   -1    0    0    0  501 -0.00000000000E+00  0.00000000000E+00  0.11738789580E+03  0.11738789580E+03  0.00000000000E+00 0.  1.
          1   -1    0    0  501    0  0.00000000000E+00 -0.00000000000E+00 -0.12228556886E+03  0.12228556886E+03  0.00000000000E+00 0. -1.
         23    2    1    2    0    0  0.35079907219E+01 -0.89027947446E+01  0.55532889202E+02  0.10924655480E+03  0.93591357498E+02 0.  0.
          5    1    1    2  502    0 -0.18084889396E+02  0.57216916540E+02 -0.51119484165E+02  0.78939931746E+02  0.41800000000E+01 0. -1.
         -5    1    1    2    0  502  0.14576898675E+02 -0.48314121795E+02 -0.93110780936E+01  0.51486978112E+02  0.41800000000E+01 0.  1.
        -11    1    3    3    0    0  0.34548702394E+02  0.27870601072E+02  0.16761253769E+02  0.47448107119E+02  0.00000000000E+00 0. -1.
         11    1    3    3    0    0 -0.31040711672E+02 -0.36773395817E+02  0.38771635433E+02  0.61798447676E+02  0.00000000000E+00 0.  1.
</event>
<event>
 7    1  0.6610867E-006  0.1582955E+03  0.7561462E-02  0.1190635E+00
          2   -1    0    0  501    0  0.00000000000E+00  0.00000000000E+00  0.40872908777E+03  0.40872908777E+03  0.00000000000E+00 0. -1.
         -2   -1    0    0    0  501 -0.00000000000E+00 -0.00000000000E+00 -0.69816326665E+02  0.69816326665E+02  0.00000000000E+00 0.  1.
         23    2    1    2    0    0 -0.74733112948E+02  0.10215783596E+03  0.19154261822E+03  0.24748809102E+03  0.92414928354E+02 0.  0.
          5    1    1    2  502    0 -0.72111971927E+01  0.16230424275E+02 -0.73457303910E+01  0.19668761833E+02  0.41800000000E+01 0. -1.
         -5    1    1    2    0  502  0.81944310140E+02 -0.11838826023E+03  0.15471587328E+03  0.21138856159E+03  0.41800000000E+01 0. -1.
        -11    1    3    3    0    0 -0.70370199267E+01 -0.16362903113E+02  0.38510168960E+02  0.42429911160E+02  0.00000000000E+00 0. -1.
         11    1    3    3    0    0 -0.67696093021E+02  0.11852073907E+03  0.15303244926E+03  0.20505817986E+03  0.00000000000E+00 0.  1.
</event>
<event>
 7    1  0.6610867E-006  0.9297751E+02  0.7561462E-02  0.1295797E+00
         -2   -1    0    0    0  501 -0.00000000000E+00  0.00000000000E+00  0.25148936360E+03  0.25148936360E+03  0.00000000000E+00 0.  1.
          2   -1    0    0  501    0  0.00000000000E+00 -0.00000000000E+00 -0.58501127073E+02  0.58501127073E+02  0.00000000000E+00 0. -1.
         23    2    1    2    0    0  0.98679098557E+01 -0.55272818626E+02  0.87552647606E+02  0.13702621386E+03  0.89209063760E+02 0.  0.
          5    1    1    2  502    0  0.60099897750E+01  0.69616095445E+02  0.12526303206E+03  0.14349501846E+03  0.41800000000E+01 0. -1.
         -5    1    1    2    0  502 -0.15877899631E+02 -0.14343276819E+02 -0.19827443140E+02  0.29469258356E+02  0.41800000000E+01 0. -1.
        -11    1    3    3    0    0  0.40666830947E+02 -0.14759498082E+02  0.71668497726E+02  0.83713842877E+02  0.00000000000E+00 0.  1.
         11    1    3    3    0    0 -0.30798921091E+02 -0.40513320544E+02  0.15884149879E+02  0.53312370978E+02  0.00000000000E+00 0. -1.
</event>
<event>
 7    1  0.6610867E-006  0.9524308E+02  0.7561462E-02  0.1290630E+00
          3   -1    0    0  501    0  0.00000000000E+00  0.00000000000E+00  0.27484211374E+03  0.27484211374E+03  0.00000000000E+00 0. -1.
         -3   -1    0    0    0  501 -0.00000000000E+00 -0.00000000000E+00 -0.42983532862E+02  0.42983532862E+02  0.00000000000E+00 0.  1.
         23    2    1    2    0    0 -0.17467780699E+02 -0.26194095478E+02  0.43547417742E+02  0.89572727213E+02  0.71663392802E+02 0.  0.
          5    1    1    2  502    0  0.75003277182E+01 -0.44614382027E+02  0.29869397920E+02  0.54372339766E+02  0.41800000000E+01 0.  1.
         -5    1    1    2    0  502  0.99674529812E+01  0.70808477505E+02  0.15844176521E+03  0.17388057962E+03  0.41800000000E+01 0.  1.
        -11    1    3    3    0    0 -0.13377338280E+02 -0.48723548555E+02  0.14461967612E+02  0.52555550330E+02  0.00000000000E+00 0.  1.
         11    1    3    3    0    0 -0.40904424197E+01  0.22529453077E+02  0.29085450130E+02  0.37017176883E+02  0.00000000000E+00 0. -1.
</event>
<event>
 7    1  0.6610867E-006  0.1094437E+03  0.7561462E-02  0.1261604E+00
         -2   -1    0    0    0  501 -0.00000000000E+00  0.00000000000E+00  0.24149540997E+03  0.24149540997E+03  0.00000000000E+00 0.  1.
          2   -1    0    0  501    0  0.00000000000E+00 -0.00000000000E+00 -0.67330098688E+02  0.67330098688E+02  0.00000000000E+00 0. -1.
         23    2    1    2    0    0  0.73032402641E+01 -0.25592773711E+02  0.15164229391E+03  0.17896913236E+03  0.91248219987E+02 0.  0.
          5    1    1    2  502    0  0.21891295230E+02  0.70624862719E+02  0.13149576827E+02  0.75216246993E+02  0.41800000000E+01 0.  1.
         -5    1    1    2    0  502 -0.29194535494E+02 -0.45032089008E+02  0.93734405488E+01  0.54640129309E+02  0.41800000000E+01 0.  1.
        -11    1    3    3    0    0  0.26932568033E+02  0.24990571131E+02  0.37040049794E+02  0.52171420865E+02  0.00000000000E+00 0.  1.
         11    1    3    3    0    0 -0.19629327769E+02 -0.50583344841E+02  0.11460224412E+03  0.12679771149E+03  0.00000000000E+00 0. -1.
</event>
<event>
 7    1  0.6610867E-006  0.9719720E+02  0.7561462E-02  0.1286303E+00
         -2   -1    0    0    0  501 -0.00000000000E+00  0.00000000000E+00  0.88054057267E+02  0.88054057267E+02  0.00000000000E+00 0.  1.
          2   -1    0    0  501    0  0.00000000000E+00 -0.00000000000E+00 -0.17966751157E+03  0.17966751157E+03  0.00000000000E+00 0. -1.
         23    2    1    2    0    0  0.35023088239E+02 -0.22213402834E+02  0.10575186109E+02  0.10095692086E+03  0.91435295882E+02 0.  0.
          5    1    1    2  502    0  0.45870899134E+02 -0.50089749236E+01 -0.36243116956E+02  0.58824018427E+02  0.41800000000E+01 0.  1.
         -5    1    1    2    0  502 -0.80893987373E+02  0.27222377758E+02 -0.65945523460E+02  0.10794062955E+03  0.41800000000E+01 0.  1.
        -11    1    3    3    0    0  0.39064871063E+01 -0.30225126748E+02  0.44690058755E+02  0.54092700801E+02  0.00000000000E+00 0.  1.
         11    1    3    3    0    0  0.31116601132E+02  0.80117239134E+01 -0.34114872646E+02  0.46864220059E+02  0.00000000000E+00 0. -1.
</event>
<event>
 7    1  0.6610867E-006  0.9863335E+02  0.7561462E-02  0.1283196E+00
          2   -1    0    0  501    0  0.00000000000E+00  0.00000000000E+00  0.35121117225E+03  0.35121117225E+03  0.00000000000E+00 0. -1.
         -2   -1    0    0    0  501 -0.00000000000E+00 -0.00000000000E+00 -0.54630065613E+02  0.54630065613E+02  0.00000000000E+00 0.  1.
         23    2    1    2    0    0 -0.48369941693E+02  0.28575216436E+01  0.32051313436E+02  0.10924151746E+03  0.92512732932E+02 0.  0.
          5    1    1    2  502    0 -0.15054578718E+02 -0.24194881505E+02  0.58724474997E+01  0.29393718224E+02  0.41800000000E+01 0. -1.
         -5    1    1    2    0  502  0.63424520411E+02  0.21337359862E+02  0.25865734570E+03  0.26720600217E+03  0.41800000000E+01 0. -1.
        -11    1    3    3    0    0 -0.10132393400E+02 -0.41578059220E+02  0.26548728955E+02  0.50361050561E+02  0.00000000000E+00 0. -1.
         11    1    3    3    0    0 -0.38237548293E+02  0.44435580864E+02  0.55025844817E+01  0.58880466898E+02  0.00000000000E+00 0.  1.
</event>
<event>
 7    1  0.6610867E-006  0.9448546E+02  0.7561462E-02  0.1292339E+00
         -3   -1    0    0    0  501 -0.00000000000E+00  0.00000000000E+00  0.29413854701E+02  0.29413854701E+02  0.00000000000E+00 0.  1.
          3   -1    0    0  501    0  0.00000000000E+00 -0.00000000000E+00 -0.41035090878E+03  0.41035090878E+03  0.00000000000E+00 0. -1.
         23    2    1    2    0    0 -0.26603758880E+01  0.15196418242E+02 -0.16008176805E+03  0.18547623938E+03  0.92397262873E+02 0.  0.
          5    1    1    2  502    0 -0.43359466202E+02 -0.31856666325E+02 -0.40801146667E+02  0.67654242055E+02  0.41800000000E+01 0.  1.
         -5    1    1    2    0  502  0.46019842090E+02  0.16660248083E+02 -0.18005413936E+03  0.18663428204E+03  0.41800000000E+01 0.  1.
        -11    1    3    3    0    0 -0.97751197400E+01 -0.34409058316E+02 -0.10540081181E+03  0.11130528914E+03  0.00000000000E+00 0. -1.
         11    1    3    3    0    0  0.71147438520E+01  0.49605476558E+02 -0.54680956236E+02  0.74170950240E+02  0.00000000000E+00 0.  1.
</event>
<event>
 7    1  0.6610867E-006  0.1774410E+03  0.7561462E-02  0.1170303E+00
         -1   -1    0    0    0  501 -0.00000000000E+00  0.00000000000E+00  0.98554173050E+02  0.98554173050E+02  0.00000000000E+00 0.  1.
          1   -1    0    0  501    0  0.00000000000E+00 -0.00000000000E+00 -0.37017296607E+03  0.37017296607E+03  0.00000000000E+00 0. -1.
         23    2    1    2    0    0 -0.59166540798E+02 -0.13167127371E+03 -0.54918577368E+02  0.17986038671E+03  0.92172147081E+02 0.  0.
          5    1    1    2  502    0 -0.15357123830E+02  0.10685964162E+03 -0.94475390369E+02  0.14351967128E+03  0.41800000000E+01 0.  1.
         -5    1    1    2    0  502  0.74523664628E+02  0.24811632086E+02 -0.12222482529E+03  0.14534708113E+03  0.41800000000E+01 0.  1.
        -11    1    3    3    0    0 -0.80678648331E+02 -0.11710822481E+03 -0.58236731443E+02  0.15367139456E+03  0.00000000000E+00 0.  1.
         11    1    3    3    0    0  0.21512107533E+02 -0.14563048894E+02  0.33181540745E+01  0.26188992155E+02  0.00000000000E+00 0. -1.
</event>
<event>
 7    1  0.6610867E-006  0.1240189E+03  0.7561462E-02  0.1236611E+00
          2   -1    0    0  501    0  0.00000000000E+00  0.00000000000E+00  0.12901766412E+03  0.12901766412E+03  0.00000000000E+00 0.  1.
         -2   -1    0    0    0  501 -0.00000000000E+00 -0.00000000000E+00 -0.23165914158E+03  0.23165914158E+03  0.00000000000E+00 0. -1.
         23    2    1    2    0    0 -0.25448186977E+02 -0.29102577917E+02 -0.81173138244E+02  0.10773692134E+03  0.59359881958E+02 0.  0.
          5    1    1    2  502    0 -0.62555022547E+02 -0.32832544281E+02  0.78715403499E+02  0.10585222699E+03  0.41800000000E+01 0.  1.
         -5    1    1    2    0  502  0.88003209524E+02  0.61935122198E+02 -0.10018374271E+03  0.14708765737E+03  0.41800000000E+01 0. -1.
        -11    1    3    3    0    0  0.65788260554E-01 -0.41294880480E+02 -0.37943042392E+02  0.56079817653E+02  0.00000000000E+00 0.  1.
         11    1    3    3    0    0 -0.25513975238E+02  0.12192302564E+02 -0.43230095851E+02  0.51657103689E+02  0.00000000000E+00 0. -1.
</event>
<event>
 7    1  0.6610867E-006  0.9864559E+02  0.7561462E-02  0.1283170E+00
         -1   -1    0    0    0  501 -0.00000000000E+00  0.00000000000E+00  0.61778787745E+02  0.61778787745E+02  0.00000000000E+00 0.  1.
          1   -1    0    0  501    0  0.00000000000E+00 -0.00000000000E+00 -0.20343307160E+03  0.20343307160E+03  0.00000000000E+00 0. -1.
         23    2    1    2    0    0 -0.27282679847E+02  0.85136923691E+01 -0.50750651519E+02  0.10795859819E+03  0.90898859820E+02 0.  0.
          5    1    1    2  502    0 -0.24089245752E+02 -0.47032093513E+02 -0.10101259672E+02  0.53961258585E+02  0.41800000000E+01 0. -1.
         -5    1    1    2    0  502  0.51371925599E+02  0.38518401144E+02 -0.80802372669E+02  0.10329200257E+03  0.41800000000E+01 0. -1.
        -11    1    3    3    0    0 -0.39348941988E+02  0.33831447912E+02 -0.22612279556E+01  0.51942461006E+02  0.00000000000E+00 0.  1.
         11    1    3    3    0    0  0.12066262141E+02 -0.25317755543E+02 -0.48489423563E+02  0.56016137186E+02  0.00000000000E+00 0. -1.
</event>
<event>
 7    1  0.6610867E-006  0.9190779E+02  0.7561462E-02  0.1298296E+00
         -1   -1    0    0    0  501 -0.00000000000E+00  0.00000000000E+00  0.43405711127E+02  0.43405711127E+02  0.00000000000E+00 0.  1.
          1   -1    0    0  501    0  0.00000000000E+00 -0.00000000000E+00 -0.27263889008E+03  0.27263889008E+03  0.00000000000E+00 0. -1.
         23    2    1    2    0    0 -0.62280202731E+01 -0.13350667623E+02 -0.72463571458E+02  0.11494232382E+03  0.87998523016E+02 0.  0.
          5    1    1    2  502    0 -0.29325928834E+02 -0.45231372220E+02 -0.92032865073E+02  0.10673990720E+03  0.41800000000E+01 0. -1.
         -5    1    1    2    0  502  0.35553949107E+02  0.58582039843E+02 -0.64736742422E+02  0.94362370195E+02  0.41800000000E+01 0. -1.
        -11    1    3    3    0    0 -0.26977795780E+01 -0.37042086114E+02 -0.81323657863E+02  0.89403196177E+02  0.00000000000E+00 0. -1.
         11    1    3    3    0    0 -0.35302406951E+01  0.23691418490E+02  0.88600864049E+01  0.25539127639E+02  0.00000000000E+00 0.  1.
</event>
<event>
 7    1  0.6610867E-006  0.1288912E+03  0.7561462E-02  0.1229110E+00
         -1   -1    0    0    0  501 -0.00000000000E+00  0.00000000000E+00  0.52863471019E+02  0.52863471019E+02  0.00000000000E+00 0.  1.
          1   -1    0    0  501    0  0.00000000000E+00 -0.00000000000E+00 -0.37406377008E+03  0.37406377008E+03  0.00000000000E+00 0. -1.
         23    2    1    2    0    0 -0.12823551462E+02 -0.72477122820E+02 -0.68594204321E+02  0.13559428852E+03  0.90902526963E+02 0.  0.
          5    1    1    2  502    0 -0.48440883859E+02 -0.15489257413E+01 -0.94047425933E+02  0.10588346955E+03  0.41800000000E+01 0.  1.
         -5    1    1    2    0  502  0.61264435321E+02  0.74026048562E+02 -0.15855866881E+03  0.18544948303E+03  0.41800000000E+01 0.  1.
        -11    1    3    3    0    0  0.34435001944E+02 -0.12580366317E+02 -0.39627880101E+02  0.53985218874E+02  0.00000000000E+00 0.  1.
         11    1    3    3    0    0 -0.47258553406E+02 -0.59896756503E+02 -0.28966324220E+02  0.81609069646E+02  0.00000000000E+00 0. -1.
</event>
<event>
 7    1  0.6610867E-006  0.1471269E+03  0.7561462E-02  0.1204048E+00
         -1   -1    0    0    0  501 -0.00000000000E+00  0.00000000000E+00  0.19402365239E+03  0.19402365239E+03  0.00000000000E+00 0.  1.
          1   -1    0    0  501    0  0.00000000000E+00 -0.00000000000E+00 -0.12398460817E+03  0.12398460817E+03  0.00000000000E+00 0. -1.
         23    2    1    2    0    0 -0.90441296827E+02  0.57861211658E+02  0.62648407724E+02  0.15299892399E+03  0.89198092834E+02 0.  0.
          5    1    1    2  502    0 -0.46071166217E+01 -0.65414882960E+02  0.20127513242E+02  0.68723515812E+02  0.41800000000E+01 0. -1.
         -5    1    1    2    0  502  0.95048413449E+02  0.75536713021E+01 -0.12736876751E+02  0.96285820756E+02  0.41800000000E+01 0. -1.
        -11    1    3    3    0    0 -0.62490592594E+02  0.77046201516E+02  0.24936259337E+02  0.10228884768E+03  0.00000000000E+00 0. -1.
         11    1    3    3    0    0 -0.27950704233E+02 -0.19184989858E+02  0.37712148387E+02  0.50710076306E+02  0.00000000000E+00 0.  1.
</event>
<event>
 7    1  0.6610867E-006  0.2125071E+03  0.7561462E-02  0.1139596E+00
          1   -1    0    0  501    0  0.00000000000E+00  0.00000000000E+00  0.10511414637E+04  0.10511414637E+04  0.00000000000E+00 0. -1.
         -1   -1    0    0    0  501 -0.00000000000E+00 -0.00000000000E+00 -0.46886994444E+02  0.46886994444E+02  0.00000000000E+00 0.  1.
         23    2    1    2    0    0  0.88947133571E+02  0.80801275918E+02  0.22134204067E+03  0.26763145684E+03  0.90519936798E+02 0.  0.
          5    1    1    2  502    0 -0.12075722021E+03  0.56946068360E+02  0.42726934232E+03  0.44766251152E+03  0.41800000000E+01 0. -1.
         -5    1    1    2    0  502  0.31810086636E+02 -0.13774734428E+03  0.35564308627E+03  0.38273448980E+03  0.41800000000E+01 0.  1.
        -11    1    3    3    0    0  0.32142470048E+02  0.87108733856E+02  0.14682623560E+03  0.17372107919E+03  0.00000000000E+00 0. -1.
         11    1    3    3    0    0  0.56804663523E+02 -0.63074579372E+01  0.74515805069E+02  0.93910377641E+02  0.00000000000E+00 0.  1.
</event>
<event>
 7    1  0.6610867E-006  0.7153793E+02  0.7561462E-02  0.1354940E+00
         -2   -1    0    0    0  501 -0.00000000000E+00  0.00000000000E+00  0.11041293828E+03  0.11041293828E+03  0.00000000000E+00 0.  1.
          2   -1    0    0  501    0  0.00000000000E+00 -0.00000000000E+00 -0.13223675946E+03  0.13223675946E+03  0.00000000000E+00 0. -1.
         23    2    1    2    0    0 -0.16947883732E+02 -0.15360310614E+02  0.37299285672E+02  0.10241477327E+03  0.92597943643E+02 0.  0.
          5    1    1    2  502    0  0.34825933079E+02 -0.82483517044E+01  0.29584176236E+02  0.46621634508E+02  0.41800000000E+01 0. -1.
         -5    1    1    2    0  502 -0.17878049346E+02  0.23608662319E+02 -0.88707283086E+02  0.93613289961E+02  0.41800000000E+01 0. -1.
        -11    1    3    3    0    0  0.27095437587E+02 -0.18768044752E+02 -0.13035324876E+02  0.35444631984E+02  0.00000000000E+00 0. -1.
         11    1    3    3    0    0 -0.44043321319E+02  0.34077341378E+01  0.50334610548E+02  0.66970141286E+02  0.00000000000E+00 0.  1.
</event>
<event>
 7    1  0.6610867E-006  0.1093203E+03  0.7561462E-02  0.1261834E+00
         -2   -1    0    0    0  501 -0.00000000000E+00  0.00000000000E+00  0.20422355216E+02  0.20422355216E+02  0.00000000000E+00 0.  1.
          2   -1    0    0  501    0  0.00000000000E+00 -0.00000000000E+00 -0.11246452667E+04  0.11246452667E+04  0.00000000000E+00 0. -1.
         23    2    1    2    0    0  0.38684050730E+02 -0.88027757854E+02 -0.33782510997E+03  0.36259775629E+03  0.90033249441E+02 0.  0.
          5    1    1    2  502    0 -0.20826545942E+02  0.20819580033E+02 -0.61603274338E+03  0.61675036542E+03  0.41800000000E+01 0. -1.
         -5    1    1    2    0  502 -0.17857504788E+02  0.67208177821E+02 -0.15036505817E+03  0.16571950025E+03  0.41800000000E+01 0. -1.
        -11    1    3    3    0    0  0.59550229607E+02 -0.65619583037E+02 -0.16703060006E+03  0.18908035561E+03  0.00000000000E+00 0.  1.
         11    1    3    3    0    0 -0.20866178877E+02 -0.22408174816E+02 -0.17079450992E+03  0.17351740067E+03  0.00000000000E+00 0. -1.
</event>
<event>
 7    1  0.6610867E-006  0.3426642E+03  0.7561462E-02  0.1065667E+00
         -2   -1    0    0    0  501 -0.00000000000E+00  0.00000000000E+00  0.59426169265E+03  0.59426169265E+03  0.00000000000E+00 0.  1.
          2   -1    0    0  501    0  0.00000000000E+00 -0.00000000000E+00 -0.11842890538E+04  0.11842890538E+04  0.00000000000E+00 0. -1.
         23    2    1    2    0    0 -0.32482173330E+03  0.10046858232E+03  0.51115253363E+03  0.62067048465E+03  0.91388420600E+02 0.  0.
          5    1    1    2  502    0  0.30565525423E+03 -0.85615458747E+02 -0.10790865837E+04  0.11248113036E+04  0.41800000000E+01 0. -1.
         -5    1    1    2    0  502  0.19166479075E+02 -0.14853123576E+02 -0.22093311037E+02  0.33068958143E+02  0.41800000000E+01 0.  1.
        -11    1    3    3    0    0 -0.24341185520E+03  0.53268018347E+02  0.30344016121E+03  0.39263563830E+03  0.00000000000E+00 0.  1.
         11    1    3    3    0    0 -0.81409878104E+02  0.47200563976E+02  0.20771237242E+03  0.22803484635E+03  0.00000000000E+00 0. -1.
</event>
<event>
 7    1  0.6610867E-006  0.1154712E+03  0.7561462E-02  0.1250761E+00
         -2   -1    0    0    0  501 -0.00000000000E+00  0.00000000000E+00  0.52905549360E+03  0.52905549360E+03  0.00000000000E+00 0.  1.
          2   -1    0    0  501    0  0.00000000000E+00 -0.00000000000E+00 -0.34479201465E+02  0.34479201465E+02  0.00000000000E+00 0. -1.
         23    2    1    2    0    0 -0.13671321405E+02  0.50834155254E+02  0.34533944371E+03  0.36182007940E+03  0.94251907716E+02 0.  0.
          5    1    1    2  502    0  0.57226404941E+02  0.17416443320E+01  0.31316849295E+02  0.65391988785E+02  0.41800000000E+01 0.  1.
         -5    1    1    2    0  502 -0.43555083536E+02 -0.52575799586E+02  0.11791999914E+03  0.13632262689E+03  0.41800000000E+01 0.  1.
        -11    1    3    3    0    0 -0.21386649570E+01  0.76744810483E+02  0.21136595911E+03  0.22487754111E+03  0.00000000000E+00 0. -1.
         11    1    3    3    0    0 -0.11532656448E+02 -0.25910655229E+02  0.13397348459E+03  0.13694253829E+03  0.00000000000E+00 0.  1.
</event>
<event>
 7    1  0.6610867E-006  0.1510680E+03  0.7561462E-02  0.1199167E+00
         -1   -1    0    0    0  501 -0.00000000000E+00  0.00000000000E+00  0.32353904571E+03  0.32353904571E+03  0.00000000000E+00 0.  1.
          1   -1    0    0  501    0  0.00000000000E+00 -0.00000000000E+00 -0.11002334193E+03  0.11002334193E+03  0.00000000000E+00 0. -1.
         23    2    1    2    0    0 -0.15618675212E+02 -0.10941619676E+03  0.22160970388E+03  0.26638911410E+03  0.98165432444E+02 0.  0.
          5    1    1    2  502    0  0.66479596308E+02  0.33926098383E+02 -0.13199333202E+02  0.75909233125E+02  0.41800000000E+01 0. -1.
         -5    1    1    2    0  502 -0.50860921095E+02  0.75490098374E+02  0.51053331043E+01  0.91264040417E+02  0.41800000000E+01 0. -1.
        -11    1    3    3    0    0 -0.32393317558E+02 -0.78645985387E+01  0.10828146831E+03  0.11329631641E+03  0.00000000000E+00 0.  1.
         11    1    3    3    0    0  0.16774642345E+02 -0.10155159822E+03  0.11332823558E+03  0.15309279769E+03  0.00000000000E+00 0. -1.
</event>
<event>
 7    1  0.6610867E-006  0.1046189E+03  0.7561462E-02  0.1270872E+00
         -1   -1    0    0    0  501 -0.00000000000E+00  0.00000000000E+00  0.20362687936E+02  0.20362687936E+02  0.00000000000E+00 0.  1.
          1   -1    0    0  501    0  0.00000000000E+00 -0.00000000000E+00 -0.69024443180E+03  0.69024443180E+03  0.00000000000E+00 0. -1.
         23    2    1    2    0    0 -0.35942994117E+02 -0.29996310677E+02 -0.23582895726E+03  0.25646751416E+03  0.89267078232E+02 0.  0.
          5    1    1    2  502    0  0.64069252373E+02 -0.22722326782E+02 -0.16507641058E+03  0.17857454176E+03  0.41800000000E+01 0.  1.
         -5    1    1    2    0  502 -0.28126258256E+02  0.52718637459E+02 -0.26897637602E+03  0.27556506381E+03  0.41800000000E+01 0.  1.
        -11    1    3    3    0    0  0.19486411319E+02 -0.12310958927E+02 -0.13631216688E+02  0.26778536259E+02  0.00000000000E+00 0.  1.
         11    1    3    3    0    0 -0.55429405435E+02 -0.17685351750E+02 -0.22219774057E+03  0.22968897790E+03  0.00000000000E+00 0. -1.
</event>
<event>
 7    1  0.6610867E-006  0.1234388E+03  0.7561462E-02  0.1237530E+00
         -4   -1    0    0    0  501 -0.00000000000E+00  0.00000000000E+00  0.36666676808E+03  0.36666676808E+03  0.00000000000E+00 0.  1.
          4   -1    0    0  501    0  0.00000000000E+00 -0.00000000000E+00 -0.44451479415E+02  0.44451479415E+02  0.00000000000E+00 0. -1.
         23    2    1    2    0    0  0.35752928058E+01  0.67321266826E+02  0.14309434459E+03  0.18247503208E+03  0.90973678568E+02 0.  0.
          5    1    1    2  502    0 -0.48435812591E+02  0.46258288467E+01  0.30768742422E+02  0.57720136383E+02  0.41800000000E+01 0.  1.
         -5    1    1    2    0  502  0.44860519786E+02 -0.71947095673E+02  0.14835220165E+03  0.17092307903E+03  0.41800000000E+01 0.  1.
        -11    1    3    3    0    0  0.17508283255E+02  0.87164666711E+02  0.11516207207E+03  0.14548718827E+03  0.00000000000E+00 0.  1.
         11    1    3    3    0    0 -0.13932990449E+02 -0.19843399885E+02  0.27932272520E+02  0.36987843814E+02  0.00000000000E+00 0. -1.
</event>
<event>
 7    1  0.6610867E-006  0.9752811E+02  0.7561462E-02  0.1285582E+00
         -2   -1    0    0    0  501 -0.00000000000E+00  0.00000000000E+00  0.36224273114E+03  0.36224273114E+03  0.00000000000E+00 0.  1.
          2   -1    0    0  501    0  0.00000000000E+00 -0.00000000000E+00 -0.35037651653E+02  0.35037651653E+02  0.00000000000E+00 0. -1.
         23    2    1    2    0    0 -0.46495282380E+01 -0.20466689367E+02  0.18545070753E+03  0.20706306647E+03  0.89680795527E+02 0.  0.
          5    1    1    2  502    0 -0.48788705913E+02  0.75258691828E+01  0.14643285701E+02  0.51661153178E+02  0.41800000000E+01 0. -1.
         -5    1    1    2    0  502  0.53438234151E+02  0.12940820184E+02  0.12711108625E+03  0.13855616314E+03  0.41800000000E+01 0. -1.
        -11    1    3    3    0    0  0.70315490604E+01 -0.54210133465E+02  0.91896840772E+02  0.10692619228E+03  0.00000000000E+00 0. -1.
         11    1    3    3    0    0 -0.11681077298E+02  0.33743444098E+02  0.93553866759E+02  0.10013687419E+03  0.00000000000E+00 0.  1.
</event>
<event>
 7    1  0.6610867E-006  0.8589905E+02  0.7561462E-02  0.1313098E+00
         -1   -1    0    0    0  501 -0.00000000000E+00  0.00000000000E+00  0.17363985732E+03  0.17363985732E+03  0.00000000000E+00 0.  1.
          1   -1    0    0  501    0  0.00000000000E+00 -0.00000000000E+00 -0.79517484585E+02  0.79517484585E+02  0.00000000000E+00 0. -1.
         23    2    1    2    0    0 -0.23212174059E+02  0.28677625784E+02  0.71255408671E+02  0.12074978578E+03  0.90232844662E+02 0.  0.
          5    1    1    2  502    0 -0.14854120309E+02  0.27439570962E+02  0.50136330803E+02  0.59200498402E+02  0.41800000000E+01 0.  1.
         -5    1    1    2    0  502  0.38066294368E+02 -0.56117196746E+02 -0.27269366742E+02  0.73207057720E+02  0.41800000000E+01 0.  1.
        -11    1    3    3    0    0  0.29250418244E+01 -0.18346791206E+02  0.63782489123E+02  0.66433173459E+02  0.00000000000E+00 0.  1.
         11    1    3    3    0    0 -0.26137215884E+02  0.47024416990E+02  0.74729195489E+01  0.54316612321E+02  0.00000000000E+00 0. -1.
</event>
<event>
 7    1  0.6610867E-006  0.2090993E+03  0.7561462E-02  0.1142281E+00
         -2   -1    0    0    0  501 -0.00000000000E+00  0.00000000000E+00  0.55530997519E+02  0.55530997519E+02  0.00000000000E+00 0.  1.
          2   -1    0    0  501    0  0.00000000000E+00 -0.00000000000E+00 -0.83414931403E+03  0.83414931403E+03  0.00000000000E+00 0. -1.
         23    2    1    2    0    0  0.40708095643E+02 -0.18104839267E+03 -0.37109655267E+03  0.42475287242E+03  0.90921293938E+02 0.  0.
          5    1    1    2  502    0 -0.74224206806E+02  0.14196927443E+03 -0.36274838418E+03  0.39657076340E+03  0.41800000000E+01 0. -1.
         -5    1    1    2    0  502  0.33516111163E+02  0.39079118240E+02 -0.44773379666E+02  0.68356675728E+02  0.41800000000E+01 0. -1.
        -11    1    3    3    0    0  0.65303695803E+02 -0.85267486726E+02 -0.18074014209E+03  0.21024299261E+03  0.00000000000E+00 0. -1.
         11    1    3    3    0    0 -0.24595600160E+02 -0.95780905944E+02 -0.19035641057E+03  0.21450987981E+03  0.00000000000E+00 0.  1.
</event>
<event>
 7    1  0.6610867E-006  0.1196747E+03  0.7561462E-02  0.1243635E+00
         -2   -1    0    0    0  501 -0.00000000000E+00  0.00000000000E+00  0.11650722738E+02  0.11650722738E+02  0.00000000000E+00 0. -1.
          2   -1    0    0  501    0  0.00000000000E+00 -0.00000000000E+00 -0.19228265882E+04  0.19228265882E+04  0.00000000000E+00 0.  1.
         23    2    1    2    0    0 -0.12027097806E+02  0.41230917790E+02 -0.31324286398E+03  0.33108031402E+03  0.98226487440E+02 0.  0.
          5    1    1    2  502    0 -0.54086346272E+02 -0.43666888948E-01 -0.64899475840E+03  0.65125801614E+03  0.41800000000E+01 0. -1.
         -5    1    1    2    0  502  0.66113444077E+02 -0.41187250901E+02 -0.94893824308E+03  0.95213898077E+03  0.41800000000E+01 0. -1.
        -11    1    3    3    0    0  0.37825534504E+02  0.42927459299E+02 -0.17478541617E+03  0.18391160792E+03  0.00000000000E+00 0. -1.
         11    1    3    3    0    0 -0.49852632309E+02 -0.16965415086E+01 -0.13845744781E+03  0.14716870610E+03  0.00000000000E+00 0.  1.
</event>
<event>
 7    1  0.6610867E-006  0.2886755E+03  0.7561462E-02  0.1091043E+00
          2   -1    0    0  501    0  0.00000000000E+00  0.00000000000E+00  0.11196195970E+04  0.11196195970E+04  0.00000000000E+00 0. -1.
         -2   -1    0    0    0  501 -0.00000000000E+00 -0.00000000000E+00 -0.79569613074E+02  0.79569613074E+02  0.00000000000E+00 0.  1.
         23    2    1    2    0    0  0.47626953677E+01  0.27794736981E+03  0.48468229731E+03  0.56566344731E+03  0.88208744735E+02 0.  0.
          5    1    1    2  502    0  0.67760292160E+01  0.89640802154E+01  0.57819911392E+02  0.59049842162E+02  0.41800000000E+01 0.  1.
         -5    1    1    2    0  502 -0.11538724584E+02 -0.28691145003E+03  0.49754777524E+03  0.57447592062E+03  0.41800000000E+01 0.  1.
        -11    1    3    3    0    0  0.29513870661E+01  0.18469883954E+02  0.35775592779E+01  0.19043272546E+02  0.00000000000E+00 0.  1.
         11    1    3    3    0    0  0.18113083016E+01  0.25947748586E+03  0.48110473803E+03  0.54662017477E+03  0.00000000000E+00 0. -1.
</event>
<event>
 7    1  0.6610867E-006  0.1220653E+03  0.7561462E-02  0.1239728E+00
          1   -1    0    0  501    0  0.00000000000E+00  0.00000000000E+00  0.72563104364E+03  0.72563104364E+03  0.00000000000E+00 0. -1.
         -1   -1    0    0    0  501 -0.00000000000E+00 -0.00000000000E+00 -0.21686708386E+02  0.21686708386E+02  0.00000000000E+00 0.  1.
         23    2    1    2    0    0  0.54258787218E+02 -0.21081587056E+02  0.32907652687E+03  0.34786605192E+03  0.96596999103E+02 0.  0.
          5    1    1    2  502    0 -0.68246990038E+02 -0.32940669368E+02  0.15513718395E+03  0.17270714401E+03  0.41800000000E+01 0.  1.
         -5    1    1    2    0  502  0.13988202820E+02  0.54022256424E+02  0.21973062443E+03  0.22674455610E+03  0.41800000000E+01 0.  1.
        -11    1    3    3    0    0  0.69159320953E+02  0.17139487463E+02  0.19258478230E+03  0.20534281599E+03  0.00000000000E+00 0.  1.
         11    1    3    3    0    0 -0.14900533735E+02 -0.38221074520E+02  0.13649174457E+03  0.14252323593E+03  0.00000000000E+00 0. -1.
</event>
<event>
 7    1  0.6610867E-006  0.1242204E+03  0.7561462E-02  0.1236293E+00
         -1   -1    0    0    0  501 -0.00000000000E+00  0.00000000000E+00  0.59432040130E+02  0.59432040130E+02  0.00000000000E+00 0.  1.
          1   -1    0    0  501    0  0.00000000000E+00 -0.00000000000E+00 -0.49530675595E+03  0.49530675595E+03  0.00000000000E+00 0. -1.
         23    2    1    2    0    0 -0.45226513251E+02 -0.37589205589E+02 -0.43304194034E+02  0.11703646551E+03  0.91454333746E+02 0.  0.
          5    1    1    2  502    0  0.47739776959E+02  0.10823506101E+03 -0.28834820043E+03  0.31169868756E+03  0.41800000000E+01 0. -1.
         -5    1    1    2    0  502 -0.25132637074E+01 -0.70645855420E+02 -0.10422232136E+03  0.12600364301E+03  0.41800000000E+01 0.  1.
        -11    1    3    3    0    0 -0.13769939769E+02 -0.15974106818E+02  0.28656462936E+02  0.35580559269E+02  0.00000000000E+00 0.  1.
         11    1    3    3    0    0 -0.31456573482E+02 -0.21615098771E+02 -0.71960656971E+02  0.81455906242E+02  0.00000000000E+00 0. -1.
</event>
<event>
 6    1  0.5341551E-005  0.6303254E+02  0.7561462E-02  0.1385529E+00
         -2   -1    0    0    0  501 -0.00000000000E+00  0.00000000000E+00  0.15676850480E+02  0.15676850480E+02  0.00000000000E+00 0. -1.
          2   -1    0    0  501    0  0.00000000000E+00 -0.00000000000E+00 -0.13807876544E+04  0.13807876544E+04  0.00000000000E+00 0.  1.
          5    1    1    2  502    0  0.49785341810E+02  0.24147919670E+01 -0.12684791355E+04  0.12694649270E+04  0.41800000000E+01 0.  1.
         -5    1    1    2    0  502 -0.63467902858E+01 -0.24867696237E+02 -0.58663194376E+02  0.64167958028E+02  0.41800000000E+01 0. -1.
        -11    1    1    2    0    0 -0.14663891413E+02  0.21355478193E+01 -0.10462620741E+02  0.18139920304E+02  0.00000000000E+00 0.  1.
         11    1    1    2    0    0 -0.28774660112E+02  0.20317356450E+02 -0.27505853360E+02  0.44691699528E+02  0.00000000000E+00 0. -1.
</event>
<event>
 7    1  0.6610867E-006  0.1645869E+03  0.7561462E-02  0.1183613E+00
          1   -1    0    0  501    0  0.00000000000E+00  0.00000000000E+00  0.99456832429E+02  0.99456832429E+02  0.00000000000E+00 0. -1.
         -1   -1    0    0    0  501 -0.00000000000E+00 -0.00000000000E+00 -0.29645757363E+03  0.29645757363E+03  0.00000000000E+00 0.  1.
         23    2    1    2    0    0  0.52141987991E+02 -0.11962460613E+03 -0.12231730398E+03  0.20032671928E+03  0.90224377535E+02 0.  0.
          5    1    1    2  502    0 -0.85473628057E+02  0.42403843180E+02 -0.29151828109E+02  0.99855538113E+02  0.41800000000E+01 0. -1.
         -5    1    1    2    0  502  0.33331640066E+02  0.77220762948E+02 -0.45531609106E+02  0.95732148662E+02  0.41800000000E+01 0. -1.
        -11    1    3    3    0    0  0.62482909125E+02 -0.52704263264E+02 -0.99718967586E+02  0.12894078407E+03  0.00000000000E+00 0.  1.
         11    1    3    3    0    0 -0.10340921134E+02 -0.66920342864E+02 -0.22598336399E+02  0.71385935218E+02  0.00000000000E+00 0. -1.
</event>
<event>
 7    1  0.6610867E-006  0.9392475E+02  0.7561462E-02  0.1293616E+00
         -2   -1    0    0    0  501 -0.00000000000E+00  0.00000000000E+00  0.21883321082E+03  0.21883321082E+03  0.00000000000E+00 0.  1.
          2   -1    0    0  501    0  0.00000000000E+00 -0.00000000000E+00 -0.14343445918E+03  0.14343445918E+03  0.00000000000E+00 0. -1.
         23    2    1    2    0    0  0.24636623732E+02 -0.45329012041E+02  0.16805305883E+03  0.19826406286E+03  0.91679471419E+02 0.  0.
          5    1    1    2  502    0 -0.47844237137E+02  0.53831308260E+02 -0.44186801452E+01  0.72276399401E+02  0.41800000000E+01 0.  1.
         -5    1    1    2    0  502  0.23207613405E+02 -0.85022962189E+01 -0.88235627039E+02  0.91727207741E+02  0.41800000000E+01 0.  1.
        -11    1    3    3    0    0 -0.15524903521E+02  0.12708390048E+02  0.93396264888E+02  0.95526897269E+02  0.00000000000E+00 0.  1.
         11    1    3    3    0    0  0.40161527253E+02 -0.58037402089E+02  0.74656793938E+02  0.10273716559E+03  0.00000000000E+00 0. -1.
</event>
<event>
 6    1  0.6610867E-006  0.1218251E+03  0.7561462E-02  0.1240116E+00
         -2   -1    0    0    0  501 -0.00000000000E+00  0.00000000000E+00  0.21271220689E+02  0.21271220689E+02  0.00000000000E+00 0.  1.
          2   -1    0    0  501    0  0.00000000000E+00 -0.00000000000E+00 -0.18303203939E+04  0.18303203939E+04  0.00000000000E+00 0. -1.
          5    1    1    2  502    0  0.21059375155E+02 -0.26809592151E+01 -0.39228185327E+02  0.44799640047E+02  0.41800000000E+01 0.  1.
         -5    1    1    2    0  502 -0.27461454955E+02  0.43728274617E+02 -0.12677848183E+04  0.12688428238E+04  0.41800000000E+01 0.  1.
        -11    1    1    2    0    0  0.85782197451E+02 -0.22713732683E+02 -0.38663606428E+03  0.39668872589E+03  0.00000000000E+00 0.  1.
         11    1    1    2    0    0 -0.79380117651E+02 -0.18333582719E+02 -0.11540010531E+03  0.14126042489E+03  0.00000000000E+00 0. -1.
</event>
<event>
 7    1  0.6610867E-006  0.1133217E+03  0.7561462E-02  0.1254539E+00
          1   -1    0    0  501    0  0.00000000000E+00  0.00000000000E+00  0.47280119606E+03  0.47280119606E+03  0.00000000000E+00 0. -1.
         -1   -1    0    0    0  501 -0.00000000000E+00 -0.00000000000E+00 -0.30544521776E+02  0.30544521776E+02  0.00000000000E+00 0.  1.
         23    2    1    2    0    0 -0.22918684141E+02  0.28112292244E+02  0.14825804426E+03  0.18179211078E+03  0.98754021670E+02 0.  0.
          5    1    1    2  502    0 -0.28861066223E+02  0.35192129686E+02  0.13793066493E+03  0.14530584250E+03  0.41800000000E+01 0.  1.
         -5    1    1    2    0  502  0.51779750365E+02 -0.63304421930E+02  0.15606796509E+03  0.17624776456E+03  0.41800000000E+01 0.  1.
        -11    1    3    3    0    0  0.75629961759E+01 -0.31338607817E+02  0.80130559451E+02  0.86372529250E+02  0.00000000000E+00 0.  1.
         11    1    3    3    0    0 -0.30481680317E+02  0.59450900060E+02  0.68127484806E+02  0.95419581528E+02  0.00000000000E+00 0. -1.
</event>
<event>
 7    1  0.6610867E-006  0.8594696E+02  0.7561462E-02  0.1312975E+00
          2   -1    0    0  501    0  0.00000000000E+00  0.00000000000E+00  0.32782825918E+03  0.32782825918E+03  0.00000000000E+00 0. -1.
         -2   -1    0    0    0  501 -0.00000000000E+00 -0.00000000000E+00 -0.36390700500E+02  0.36390700500E+02  0.00000000000E+00 0.  1.
         23    2    1    2    0    0  0.10781539895E+01  0.73369789935E+01  0.99644752424E+02  0.13511872779E+03  0.90956034637E+02 0.  0.
          5    1    1    2  502    0 -0.21124819286E+02  0.54543540665E+02  0.73374993782E+02  0.93928791809E+02  0.41800000000E+01 0. -1.
         -5    1    1    2    0  502  0.20046665296E+02 -0.61880519658E+02  0.11841781247E+03  0.13517144008E+03  0.41800000000E+01 0. -1.
        -11    1    3    3    0    0  0.12034403840E+02  0.24737745776E+02  0.10907939576E+03  0.11249487776E+03  0.00000000000E+00 0. -1.
         11    1    3    3    0    0 -0.10956249851E+02 -0.17400766782E+02 -0.94346433370E+01  0.22623850032E+02  0.00000000000E+00 0.  1.
</event>
<event>
 7    1  0.6610867E-006  0.1413626E+03  0.7561462E-02  0.1211507E+00
         -1   -1    0    0    0  501 -0.00000000000E+00  0.00000000000E+00  0.66024055568E+02  0.66024055568E+02  0.00000000000E+00 0.  1.
          1   -1    0    0  501    0  0.00000000000E+00 -0.00000000000E+00 -0.34938144311E+03  0.34938144311E+03  0.00000000000E+00 0. -1.
         23    2    1    2    0    0 -0.86325018030E+02 -0.62018581563E+02 -0.12956821138E+03  0.19046850072E+03  0.90509751792E+02 0.  0.
          5    1    1    2  502    0  0.10578858986E+02 -0.32088211227E+02 -0.69521859151E+01  0.34747242281E+02  0.41800000000E+01 0.  1.
         -5    1    1    2    0  502  0.75746159045E+02  0.94106792790E+02 -0.14683699025E+03  0.19018975568E+03  0.41800000000E+01 0.  1.
        -11    1    3    3    0    0 -0.15204205163E+02 -0.54156581914E+02 -0.20189353005E+02  0.59763811742E+02  0.00000000000E+00 0.  1.
         11    1    3    3    0    0 -0.71120812868E+02 -0.78619996491E+01 -0.10937885837E+03  0.13070468898E+03  0.00000000000E+00 0. -1.
</event>
<event>
 7    1  0.6610867E-006  0.1683662E+03  0.7561462E-02  0.1179562E+00
         -1   -1    0    0    0  501 -0.00000000000E+00  0.00000000000E+00  0.27287614789E+02  0.27287614789E+02  0.00000000000E+00 0.  1.
          1   -1    0    0  501    0  0.00000000000E+00 -0.00000000000E+00 -0.13068626999E+04  0.13068626999E+04  0.00000000000E+00 0. -1.
         23    2    1    2    0    0 -0.48445173883E+01 -0.13641356849E+03 -0.34338182564E+03  0.37982476832E+03  0.87884272945E+02 0.  0.
          5    1    1    2  502    0  0.53466088149E+02  0.10473423232E+03 -0.46953041716E+03  0.48404975678E+03  0.41800000000E+01 0.  1.
         -5    1    1    2    0  502 -0.48621570761E+02  0.31679336164E+02 -0.46666284234E+03  0.47027578963E+03  0.41800000000E+01 0.  1.
        -11    1    3    3    0    0  0.37664461628E+02 -0.37155930993E+02 -0.13788095696E+03  0.14768321899E+03  0.00000000000E+00 0.  1.
         11    1    3    3    0    0 -0.42508979016E+02 -0.99257637492E+02 -0.20550086868E+03  0.23214154933E+03  0.00000000000E+00 0. -1.
</event>
<event>
 7    1  0.6610867E-006  0.6656843E+02  0.7561462E-02  0.1372167E+00
          3   -1    0    0  501    0  0.00000000000E+00  0.00000000000E+00  0.61606372419E+03  0.61606372419E+03  0.00000000000E+00 0. -1.
         -3   -1    0    0    0  501 -0.00000000000E+00 -0.00000000000E+00 -0.20781555878E+02  0.20781555878E+02  0.00000000000E+00 0.  1.
         23    2    1    2    0    0  0.34405832538E+02 -0.36833209568E+01  0.22169514601E+03  0.24135564974E+03  0.88918410533E+02 0.  0.
          5    1    1    2  502    0 -0.35261318801E+01 -0.32476571058E+01 -0.93039707187E+01  0.11270188723E+02  0.41800000000E+01 0. -1.
         -5    1    1    2    0  502 -0.30879700658E+02  0.69309780626E+01  0.38289099302E+03  0.38421944160E+03  0.41800000000E+01 0. -1.
        -11    1    3    3    0    0 -0.29856413838E+02  0.40421467941E+01  0.58722615760E+02  0.66000681813E+02  0.00000000000E+00 0.  1.
         11    1    3    3    0    0  0.64262246377E+02 -0.77254677509E+01  0.16297253025E+03  0.17535496793E+03  0.00000000000E+00 0. -1.
</event>
<event>
 7    1  0.6610867E-006  0.9755334E+02  0.7561462E-02  0.1285527E+00
         -2   -1    0    0    0  501 -0.00000000000E+00  0.00000000000E+00  0.50433504911E+02  0.50433504911E+02  0.00000000000E+00 0.  1.
          2   -1    0    0  501    0  0.00000000000E+00 -0.00000000000E+00 -0.24312087879E+03  0.24312087879E+03  0.00000000000E+00 0. -1.
         23    2    1    2    0    0  0.27412503416E+02  0.12126769509E+02 -0.75355741422E+02  0.11944921987E+03  0.87699056328E+02 0.  0.
          5    1    1    2  502    0  0.27486329294E+02  0.31862992629E+02 -0.88267148586E+02  0.97873952188E+02  0.41800000000E+01 0.  1.
         -5    1    1    2    0  502 -0.54898832710E+02 -0.43989762138E+02 -0.29064483875E+02  0.76231211645E+02  0.41800000000E+01 0.  1.
        -11    1    3    3    0    0 -0.24926249790E+02 -0.81383837397E+01 -0.52817013737E+02  0.58967687410E+02  0.00000000000E+00 0. -1.
         11    1    3    3    0    0  0.52338753206E+02  0.20265153249E+02 -0.22538727685E+02  0.60481532463E+02  0.00000000000E+00 0.  1.
</event>
<event>
 7    1  0.1713509E-005  0.2557451E+03  0.7561462E-02  0.1109727E+00
          2   -1    0    0  501    0  0.00000000000E+00  0.00000000000E+00  0.13248340200E+04  0.13248340200E+04  0.00000000000E+00 0. -1.
         -2   -1    0    0    0  501 -0.00000000000E+00 -0.00000000000E+00 -0.54182926056E+02  0.54182926056E+02  0.00000000000E+00 0.  1.
         23    2    1    2    0    0  0.34068068576E+02 -0.23779494768E+03  0.49464082649E+03  0.55710055604E+03  0.89355536303E+02 0.  0.
          5    1    1    2  502    0  0.32822594107E+02  0.32259246733E+02  0.72825917315E+02  0.86250033719E+02  0.41800000000E+01 0. -1.
         -5    1    1    2    0  502 -0.66890662683E+02  0.20553570094E+03  0.70318435016E+03  0.73566635632E+03  0.41800000000E+01 0. -1.
        -11    1    3    3    0    0 -0.15869584160E+02 -0.12145965105E+03  0.30906823886E+03  0.33245671419E+03  0.00000000000E+00 0.  1.
         11    1    3    3    0    0  0.49937652736E+02 -0.11633529663E+03  0.18557258763E+03  0.22464384185E+03  0.00000000000E+00 0. -1.
</event>
<event>
 7    1  0.6610867E-006  0.1038070E+03  0.7561462E-02  0.1272488E+00
          2   -1    0    0  501    0  0.00000000000E+00  0.00000000000E+00  0.75931078840E+03  0.75931078840E+03  0.00000000000E+00 0. -1.
         -2   -1    0    0    0  501 -0.00000000000E+00 -0.00000000000E+00 -0.19497817623E+02  0.19497817623E+02  0.00000000000E+00 0.  1.
         23    2    1    2    0    0  0.81404958522E+01 -0.20440470994E+02  0.14198235076E+03  0.16874392710E+03  0.88495448919E+02 0.  0.
          5    1    1    2  502    0  0.35649016288E+02  0.52324347045E+02  0.24536856348E+03  0.25344011916E+03  0.41800000000E+01 0. -1.
         -5    1    1    2    0  502 -0.43789512140E+02 -0.31883876051E+02  0.35246205654E+03  0.35662455976E+03  0.41800000000E+01 0.  1.
        -11    1    3    3    0    0 -0.39668111024E+02 -0.94027428713E+01  0.50190580036E+02  0.64661154723E+02  0.00000000000E+00 0.  1.
         11    1    3    3    0    0  0.47808606876E+02 -0.11037728123E+02  0.91791770720E+02  0.10408277238E+03  0.00000000000E+00 0. -1.
</event>
<event>
 7    1  0.6610867E-006  0.2549282E+03  0.7561462E-02  0.1110229E+00
         -1   -1    0    0    0  501 -0.00000000000E+00  0.00000000000E+00  0.11337621116E+03  0.11337621116E+03  0.00000000000E+00 0.  1.
          1   -1    0    0  501    0  0.00000000000E+00 -0.00000000000E+00 -0.29798713052E+04  0.29798713052E+04  0.00000000000E+00 0. -1.
         23    2    1    2    0    0  0.23478241899E+02 -0.20559996926E+03 -0.16125215016E+02  0.22610853326E+03  0.89679825215E+02 0.  0.
          5    1    1    2  502    0  0.90034750544E+02  0.10392205304E+03 -0.18627073781E+04  0.18677800454E+04  0.41800000000E+01 0. -1.
         -5    1    1    2    0  502 -0.11351299244E+03  0.10167791623E+03 -0.98766250094E+03  0.99935893766E+03  0.41800000000E+01 0.  1.
        -11    1    3    3    0    0  0.31200285227E+02 -0.27540613823E+02  0.16775541389E+02  0.44870502525E+02  0.00000000000E+00 0. -1.
         11    1    3    3    0    0 -0.77220433276E+01 -0.17805935544E+03 -0.32900756405E+02  0.18123803074E+03  0.00000000000E+00 0.  1.
</event>
<event>
 7    1  0.6610867E-006  0.7008682E+02  0.7561462E-02  0.1359798E+00
          3   -1    0    0  501    0  0.00000000000E+00  0.00000000000E+00  0.22118017938E+02  0.22118017938E+02  0.00000000000E+00 0. -1.
         -3   -1    0    0    0  501 -0.00000000000E+00 -0.00000000000E+00 -0.60875248673E+03  0.60875248673E+03  0.00000000000E+00 0.  1.
         23    2    1    2    0    0 -0.16978586009E+02 -0.29292493514E+02 -0.33436437210E+03  0.34726286205E+03  0.87439347410E+02 0.  0.
          5    1    1    2  502    0  0.24781262753E+02  0.33391891675E+02 -0.26460303320E+03  0.26788312188E+03  0.41800000000E+01 0.  1.
         -5    1    1    2    0  502 -0.78026767436E+01 -0.40993981609E+01  0.12332936498E+02  0.15724520734E+02  0.41800000000E+01 0.  1.
        -11    1    3    3    0    0 -0.34638316450E+02 -0.50368713081E+02 -0.17094117517E+03  0.18154257239E+03  0.00000000000E+00 0. -1.
         11    1    3    3    0    0  0.17659730441E+02  0.21076219567E+02 -0.16342319693E+03  0.16572028966E+03  0.00000000000E+00 0.  1.
</event>
<event>
 7    1  0.6610867E-006  0.7275213E+02  0.7561462E-02  0.1350977E+00
         -2   -1    0    0    0  501 -0.00000000000E+00  0.00000000000E+00  0.78896588523E+02  0.78896588523E+02  0.00000000000E+00 0. -1.
          2   -1    0    0  501    0  0.00000000000E+00 -0.00000000000E+00 -0.18577308723E+03  0.18577308723E+03  0.00000000000E+00 0.  1.
         23    2    1    2    0    0  0.50488669490E+02  0.51241815554E+01 -0.18283010276E+02  0.10320510624E+03  0.87986717778E+02 0.  0.
          5    1    1    2  502    0 -0.59345000940E+02 -0.21880333093E+02  0.71350790718E+01  0.63788399150E+02  0.41800000000E+01 0.  1.
         -5    1    1    2    0  502  0.88563314495E+01  0.16756151538E+02 -0.95728567507E+02  0.97676170369E+02  0.41800000000E+01 0.  1.
        -11    1    3    3    0    0  0.13933936107E+02 -0.15414201383E+02  0.31738149145E+02  0.37934974507E+02  0.00000000000E+00 0. -1.
         11    1    3    3    0    0  0.36554733384E+02  0.20538382938E+02 -0.50021159421E+02  0.65270131732E+02  0.00000000000E+00 0.  1.
</event>
<event>
 7    1  0.6610867E-006  0.1379477E+03  0.7561462E-02  0.1216117E+00
         -4   -1    0    0    0  501 -0.00000000000E+00  0.00000000000E+00  0.10512357647E+04  0.10512357647E+04  0.00000000000E+00 0.  1.
          4   -1    0    0  501    0  0.00000000000E+00 -0.00000000000E+00 -0.20549579895E+02  0.20549579895E+02  0.00000000000E+00 0. -1.
         23    2    1    2    0    0  0.88233770793E+02  0.52093398302E+02  0.41751652985E+03  0.43765445923E+03  0.81990563641E+02 0.  0.
          5    1    1    2  502    0  0.22818551590E+02 -0.15811918258E+02  0.27288327121E+03  0.27432363216E+03  0.41800000000E+01 0. -1.
         -5    1    1    2    0  502 -0.11105232238E+03 -0.36281480044E+02  0.34028638376E+03  0.35980725322E+03  0.41800000000E+01 0. -1.
        -11    1    3    3    0    0  0.38338298766E+01 -0.19726587808E+02  0.75687035483E+02  0.78309411045E+02  0.00000000000E+00 0. -1.
         11    1    3    3    0    0  0.84399940916E+02  0.71819986111E+02  0.34182949437E+03  0.35934504818E+03  0.00000000000E+00 0.  1.
</event>
<event>
 7    1  0.6610867E-006  0.1490082E+03  0.7561462E-02  0.1201697E+00
         -3   -1    0    0    0  501 -0.00000000000E+00  0.00000000000E+00  0.62271481818E+02  0.62271481818E+02  0.00000000000E+00 0.  1.
          3   -1    0    0  501    0  0.00000000000E+00 -0.00000000000E+00 -0.41487898012E+03  0.41487898012E+03  0.00000000000E+00 0. -1.
         23    2    1    2    0    0 -0.13177526741E+02  0.10470343782E+03 -0.84561976568E+02  0.16309345400E+03  0.91171759639E+02 0.  0.
          5    1    1    2  502    0  0.48036698612E+02  0.23132795827E+01 -0.55832129923E+02  0.73807687999E+02  0.41800000000E+01 0.  1.
         -5    1    1    2    0  502 -0.34859171871E+02 -0.10701671740E+03 -0.21221339181E+03  0.24024931994E+03  0.41800000000E+01 0.  1.
        -11    1    3    3    0    0  0.36287580849E+01 -0.15409527446E+02 -0.11033819816E+01  0.15869432036E+02  0.00000000000E+00 0.  1.
         11    1    3    3    0    0 -0.16806284826E+02  0.12011296526E+03 -0.83458594586E+02  0.14722402197E+03  0.00000000000E+00 0. -1.
</event>
<event>
 7    1  0.6610867E-006  0.1280361E+03  0.7561462E-02  0.1230399E+00
         -1   -1    0    0    0  501 -0.00000000000E+00  0.00000000000E+00  0.16558249211E+02  0.16558249211E+02  0.00000000000E+00 0.  1.
          1   -1    0    0  501    0  0.00000000000E+00 -0.00000000000E+00 -0.11008718363E+04  0.11008718363E+04  0.00000000000E+00 0. -1.
         23    2    1    2    0    0 -0.77202464676E+02  0.15764766123E+01 -0.44822010440E+03  0.46457084193E+03  0.94668365120E+02 0.  0.
          5    1    1    2  502    0  0.39111955903E+02 -0.60801245338E+02 -0.39806694388E+03  0.40460017393E+03  0.41800000000E+01 0. -1.
         -5    1    1    2    0  502  0.38090508773E+02  0.59224768726E+02 -0.23802653882E+03  0.24825906967E+03  0.41800000000E+01 0. -1.
        -11    1    3    3    0    0  0.15940040350E+02 -0.10656258804E+02 -0.27722154214E+02  0.33706951394E+02  0.00000000000E+00 0.  1.
         11    1    3    3    0    0 -0.93142505026E+02  0.12232735416E+02 -0.42049795018E+03  0.43086389054E+03  0.00000000000E+00 0. -1.
</event>
<event>
 7    1  0.6610867E-006  0.1315547E+03  0.7561462E-02  0.1225167E+00
          1   -1    0    0  501    0  0.00000000000E+00  0.00000000000E+00  0.53439437780E+02  0.53439437780E+02  0.00000000000E+00 0. -1.
         -1   -1    0    0    0  501 -0.00000000000E+00 -0.00000000000E+00 -0.43003114616E+03  0.43003114616E+03  0.00000000000E+00 0.  1.
         23    2    1    2    0    0  0.97177926496E+02 -0.84592009435E+01 -0.23469310244E+03  0.27063734341E+03  0.92997913074E+02 0.  0.
          5    1    1    2  502    0 -0.77764688850E+02  0.47342334262E+02 -0.14251942900E+03  0.16916826974E+03  0.41800000000E+01 0.  1.
         -5    1    1    2    0  502 -0.19413237645E+02 -0.38883133318E+02  0.62082306121E+00  0.43664970787E+02  0.41800000000E+01 0.  1.
        -11    1    3    3    0    0  0.97865799486E+02  0.19962439990E+02 -0.21167751533E+03  0.23405893321E+03  0.00000000000E+00 0.  1.
         11    1    3    3    0    0 -0.68787299028E+00 -0.28421640934E+02 -0.23015587109E+02  0.36578410197E+02  0.00000000000E+00 0. -1.
</event>
<event>
 7    1  0.6610867E-006  0.1118785E+03  0.7561462E-02  0.1257130E+00
         -2   -1    0    0    0  501 -0.00000000000E+00  0.00000000000E+00  0.34699929810E+02  0.34699929810E+02  0.00000000000E+00 0.  1.
          2   -1    0    0  501    0  0.00000000000E+00 -0.00000000000E+00 -0.46219739757E+03  0.46219739757E+03  0.00000000000E+00 0. -1.
         23    2    1    2    0    0  0.13086117106E+02 -0.65996009283E+02 -0.17503323839E+03  0.20722212271E+03  0.88191008018E+02 0.  0.
          5    1    1    2  502    0 -0.56448290070E+02  0.70666876137E+02 -0.12115092185E+03  0.15124561184E+03  0.41800000000E+01 0.  1.
         -5    1    1    2    0  502  0.43362172964E+02 -0.46708668542E+01 -0.13131330752E+03  0.13842959284E+03  0.41800000000E+01 0.  1.
        -11    1    3    3    0    0 -0.15555837216E+02 -0.57442008386E+02 -0.47245836081E+02  0.75985113186E+02  0.00000000000E+00 0.  1.
         11    1    3    3    0    0  0.28641954322E+02 -0.85540008963E+01 -0.12778740231E+03  0.13123700952E+03  0.00000000000E+00 0. -1.
</event>
<event>
 7    1  0.6610867E-006  0.7128482E+02  0.7561462E-02  0.1355778E+00
         -2   -1    0    0    0  501 -0.00000000000E+00  0.00000000000E+00  0.42916832989E+03  0.42916832989E+03  0.00000000000E+00 0. -1.
          2   -1    0    0  501    0  0.00000000000E+00 -0.00000000000E+00 -0.31862585546E+02  0.31862585546E+02  0.00000000000E+00 0.  1.
         23    2    1    2    0    0 -0.21224688522E+02  0.14812324750E+02  0.22664075412E+03  0.24785730825E+03  0.96939782621E+02 0.  0.
          5    1    1    2  502    0  0.28219793204E+02 -0.41511416947E+01 -0.11116721389E+02  0.30897291148E+02  0.41800000000E+01 0.  1.
         -5    1    1    2    0  502 -0.69951046811E+01 -0.10661183055E+02  0.18178171161E+03  0.18227631604E+03  0.41800000000E+01 0.  1.
        -11    1    3    3    0    0  0.18622049900E+02  0.46061890011E+02  0.11422308931E+03  0.12456079875E+03  0.00000000000E+00 0.  1.
         11    1    3    3    0    0 -0.39846738423E+02 -0.31249565261E+02  0.11241766481E+03  0.12329650950E+03  0.00000000000E+00 0. -1.
</event>
<event>
 7    1  0.6610867E-006  0.1010247E+03  0.7561462E-02  0.1278156E+00
         -3   -1    0    0    0  501 -0.00000000000E+00  0.00000000000E+00  0.28649994027E+03  0.28649994027E+03  0.00000000000E+00 0.  1.
          3   -1    0    0  501    0  0.00000000000E+00 -0.00000000000E+00 -0.49399666499E+02  0.49399666499E+02  0.00000000000E+00 0. -1.
         23    2    1    2    0    0 -0.26178885474E+02 -0.22720421230E+02  0.14651976280E+03  0.17760149062E+03  0.94194994529E+02 0.  0.
          5    1    1    2  502    0  0.76374887466E+02  0.10151570437E+02  0.62362402571E+02  0.99210480657E+02  0.41800000000E+01 0. -1.
         -5    1    1    2    0  502 -0.50196001992E+02  0.12568850793E+02  0.28218108399E+02  0.59087635490E+02  0.41800000000E+01 0. -1.
        -11    1    3    3    0    0  0.50011901261E+01 -0.37947599252E+02  0.14228025515E+02  0.40834653197E+02  0.00000000000E+00 0. -1.
         11    1    3    3    0    0 -0.31180075600E+02  0.15227178022E+02  0.13229173729E+03  0.13676683743E+03  0.00000000000E+00 0.  1.
</event>
<event>
 7    1  0.6610867E-006  0.1041746E+03  0.7561462E-02  0.1271754E+00
         -3   -1    0    0    0  501 -0.00000000000E+00  0.00000000000E+00  0.23483912645E+02  0.23483912645E+02  0.00000000000E+00 0.  1.
          3   -1    0    0  501    0  0.00000000000E+00 -0.00000000000E+00 -0.55718945559E+03  0.55718945559E+03  0.00000000000E+00 0. -1.
         23    2    1    2    0    0  0.29159857586E+01 -0.33177833887E+02 -0.21710794981E+03  0.23863454127E+03  0.93280816800E+02 0.  0.
          5    1    1    2  502    0  0.52023348019E+02  0.93795109232E+01 -0.67634691571E+02  0.85943748278E+02  0.41800000000E+01 0. -1.
         -5    1    1    2    0  502 -0.54939333777E+02  0.23798322964E+02 -0.24896290157E+03  0.25609507869E+03  0.41800000000E+01 0. -1.
        -11    1    3    3    0    0  0.30053102476E+02  0.19654748719E+02 -0.52218372148E+02  0.63373941848E+02  0.00000000000E+00 0.  1.
         11    1    3    3    0    0 -0.27137116717E+02 -0.52832582606E+02 -0.16488957766E+03  0.17526059942E+03  0.00000000000E+00 0. -1.
</event>
<event>
 7    1  0.6610867E-006  0.9987705E+02  0.7561462E-02  0.1280555E+00
         -2   -1    0    0    0  501 -0.00000000000E+00  0.00000000000E+00  0.30018407564E+03  0.30018407564E+03  0.00000000000E+00 0. -1.
          2   -1    0    0  501    0  0.00000000000E+00 -0.00000000000E+00 -0.59955470071E+02  0.59955470071E+02  0.00000000000E+00 0.  1.
         23    2    1    2    0    0  0.61058440853E+02 -0.11696721487E+01  0.17442587540E+03  0.20616839788E+03  0.91386656276E+02 0.  0.
          5    1    1    2  502    0  0.25588330987E+02 -0.19918184804E+02 -0.12715504442E+02  0.35080667351E+02  0.41800000000E+01 0.  1.
         -5    1    1    2    0  502 -0.86646771840E+02  0.21087856953E+02  0.78518234614E+02  0.11889048048E+03  0.41800000000E+01 0.  1.
        -11    1    3    3    0    0  0.50851692907E+02 -0.21364571582E+02  0.17504776789E+03  0.18353217874E+03  0.00000000000E+00 0. -1.
         11    1    3    3    0    0  0.10206747946E+02  0.20194899434E+02 -0.62189249263E+00  0.22636219142E+02  0.00000000000E+00 0.  1.
</event>
<event>
 7    1  0.6610867E-006  0.1075647E+03  0.7561462E-02  0.1265147E+00
         -1   -1    0    0    0  501 -0.00000000000E+00  0.00000000000E+00  0.35095952884E+02  0.35095952884E+02  0.00000000000E+00 0.  1.
          1   -1    0    0  501    0  0.00000000000E+00 -0.00000000000E+00 -0.87156718307E+03  0.87156718307E+03  0.00000000000E+00 0. -1.
         23    2    1    2    0    0  0.51180519511E+02  0.65548710657E+02 -0.14588395465E+03  0.19992856473E+03  0.10850448711E+03 0.  0.
          5    1    1    2  502    0 -0.75314286402E+02 -0.73171286955E+02 -0.35656789745E+03  0.37173164630E+03  0.41800000000E+01 0.  1.
         -5    1    1    2    0  502  0.24133766891E+02  0.76225762985E+01 -0.33401937809E+03  0.33500292493E+03  0.41800000000E+01 0.  1.
        -11    1    3    3    0    0  0.34275045469E+02  0.32337640355E+02 -0.15462927017E+03  0.16164997036E+03  0.00000000000E+00 0. -1.
         11    1    3    3    0    0  0.16905474042E+02  0.33211070301E+02  0.87453155133E+01  0.38278594365E+02  0.00000000000E+00 0.  1.
</event>
<event>
 7    1  0.6610867E-006  0.9457908E+02  0.7561462E-02  0.1292127E+00
          2   -1    0    0  501    0  0.00000000000E+00  0.00000000000E+00  0.53800486210E+03  0.53800486210E+03  0.00000000000E+00 0. -1.
         -2   -1    0    0    0  501 -0.00000000000E+00 -0.00000000000E+00 -0.22033858071E+02  0.22033858071E+02  0.00000000000E+00 0.  1.
         23    2    1    2    0    0  0.67330008681E+01  0.33731525952E+01  0.20624300155E+03  0.22591977469E+03  0.91906786728E+02 0.  0.
          5    1    1    2  502    0  0.43028616358E+02 -0.23263328398E+02  0.24552611804E+03  0.25038608450E+03  0.41800000000E+01 0. -1.
         -5    1    1    2    0  502 -0.49761617227E+02  0.19890175803E+02  0.64201884441E+02  0.83732860982E+02  0.41800000000E+01 0. -1.
        -11    1    3    3    0    0 -0.19251494894E+02 -0.35014369263E+02  0.13609196089E+03  0.14183669458E+03  0.00000000000E+00 0. -1.
         11    1    3    3    0    0  0.25984495762E+02  0.38387521858E+02  0.70151040660E+02  0.84083080106E+02  0.00000000000E+00 0.  1.
</event>
<event>
 7    1  0.6610867E-006  0.1374496E+03  0.7561462E-02  0.1216802E+00
         -1   -1    0    0    0  501 -0.00000000000E+00  0.00000000000E+00  0.24126984341E+02  0.24126984341E+02  0.00000000000E+00 0.  1.
          1   -1    0    0  501    0  0.00000000000E+00 -0.00000000000E+00 -0.81104039795E+03  0.81104039795E+03  0.00000000000E+00 0. -1.
         23    2    1    2    0    0 -0.51779116984E+02 -0.68913313239E+02 -0.30343067730E+03  0.32837841011E+03  0.91280242130E+02 0.  0.
          5    1    1    2  502    0  0.85222545044E+01 -0.36428962608E+02 -0.13477511579E+03  0.13993392146E+03  0.41800000000E+01 0. -1.
         -5    1    1    2    0  502  0.43256862479E+02  0.10534227585E+03 -0.34870762051E+03  0.36685505072E+03  0.41800000000E+01 0. -1.
        -11    1    3    3    0    0  0.92534620105E+00  0.19955775889E+02 -0.75936041147E+02  0.78519880298E+02  0.00000000000E+00 0.  1.
         11    1    3    3    0    0 -0.52704463185E+02 -0.88869089128E+02 -0.22749463615E+03  0.24985852981E+03  0.00000000000E+00 0. -1.
</event>
<event>
 7    1  0.6610867E-006  0.9485549E+02  0.7561462E-02  0.1291502E+00
         -2   -1    0    0    0  501 -0.00000000000E+00  0.00000000000E+00  0.95674637560E+02  0.95674637560E+02  0.00000000000E+00 0.  1.
          2   -1    0    0  501    0  0.00000000000E+00 -0.00000000000E+00 -0.12746220437E+03  0.12746220437E+03  0.00000000000E+00 0. -1.
         23    2    1    2    0    0 -0.29516456318E+02  0.72232330829E+01 -0.75748999527E+01  0.92152376199E+02  0.86667670097E+02 0.  0.
          5    1    1    2  502    0 -0.35994668941E+02 -0.61073228064E+01 -0.48616165957E+02  0.60941936106E+02  0.41800000000E+01 0.  1.
         -5    1    1    2    0  502  0.65511125259E+02 -0.11159102765E+01  0.24403499097E+02  0.70042529627E+02  0.41800000000E+01 0.  1.
        -11    1    3    3    0    0 -0.54666491607E+02 -0.11614700444E+02  0.90308010637E+01  0.56611676700E+02  0.00000000000E+00 0.  1.
         11    1    3    3    0    0  0.25150035289E+02  0.18837933527E+02 -0.16605701016E+02  0.35540699498E+02  0.00000000000E+00 0. -1.
</event>
<event>
 7    1  0.6610867E-006  0.1497902E+03  0.7561462E-02  0.1200731E+00
         -1   -1    0    0    0  501 -0.00000000000E+00  0.00000000000E+00  0.23520537282E+03  0.23520537282E+03  0.00000000000E+00 0.  1.
          1   -1    0    0  501    0  0.00000000000E+00 -0.00000000000E+00 -0.11953141128E+03  0.11953141128E+03  0.00000000000E+00 0. -1.
         23    2    1    2    0    0 -0.95108756677E+02  0.84096213263E+02  0.69019688904E+02  0.16793088659E+03  0.85552419790E+02 0.  0.
          5    1    1    2  502    0  0.92616774627E+02 -0.20198243249E+02  0.70732541559E+02  0.11834864092E+03  0.41800000000E+01 0. -1.
         -5    1    1    2    0  502  0.24919820497E+01 -0.63897970015E+02 -0.24078268924E+02  0.68457256598E+02  0.41800000000E+01 0.  1.
        -11    1    3    3    0    0 -0.66565159934E+02  0.18521320052E+02  0.67209344301E+02  0.96390122808E+02  0.00000000000E+00 0.  1.
         11    1    3    3    0    0 -0.28543596742E+02  0.65574893211E+02  0.18103446038E+01  0.71540763780E+02  0.00000000000E+00 0. -1.
</event>
<event>
 7    1  0.6610867E-006  0.9562445E+02  0.7561462E-02  0.1289776E+00
          2   -1    0    0  501    0  0.00000000000E+00  0.00000000000E+00  0.21066079659E+04  0.21066079659E+04  0.00000000000E+00 0.  1.
         -2   -1    0    0    0  501 -0.00000000000E+00 -0.00000000000E+00 -0.18608602114E+02  0.18608602114E+02  0.00000000000E+00 0. -1.
         23    2    1    2    0    0 -0.38878699304E+02  0.79350751655E+02  0.24610532493E+03  0.27696636368E+03  0.91293157465E+02 0.  0.
          5    1    1    2  502    0  0.22434664969E+02 -0.18334767632E+02  0.79495378817E+02  0.84714022155E+02  0.41800000000E+01 0.  1.
         -5    1    1    2    0  502  0.16444034335E+02 -0.61015984024E+02  0.17623986600E+04  0.17635361822E+04  0.41800000000E+01 0.  1.
        -11    1    3    3    0    0 -0.18129603223E+02  0.16316333855E+01  0.16351167046E+00  0.18203611636E+02  0.00000000000E+00 0. -1.
         11    1    3    3    0    0 -0.20749096082E+02  0.77719118270E+02  0.24594181326E+03  0.25876275204E+03  0.00000000000E+00 0.  1.
</event>
<event>
 7    1  0.6610867E-006  0.1135226E+03  0.7561462E-02  0.1254182E+00
         -1   -1    0    0    0  501 -0.00000000000E+00  0.00000000000E+00  0.50996097964E+03  0.50996097964E+03  0.00000000000E+00 0.  1.
          1   -1    0    0  501    0  0.00000000000E+00 -0.00000000000E+00 -0.38153593768E+02  0.38153593768E+02  0.00000000000E+00 0. -1.
         23    2    1    2    0    0  0.66187255293E+02 -0.42901742242E+02  0.28756541664E+03  0.31186403931E+03  0.91345486558E+02 0.  0.
          5    1    1    2  502    0  0.11157498227E+02 -0.95120781235E+01 -0.11643527514E+02  0.19183678737E+02  0.41800000000E+01 0. -1.
         -5    1    1    2    0  502 -0.77344753520E+02  0.52413820366E+02  0.19588549675E+03  0.21706685536E+03  0.41800000000E+01 0. -1.
        -11    1    3    3    0    0 -0.91546840633E+01 -0.41938655395E+02  0.76046391055E+02  0.87325326505E+02  0.00000000000E+00 0. -1.
         11    1    3    3    0    0  0.75341939356E+02 -0.96308684724E+00  0.21151902559E+03  0.22453871280E+03  0.00000000000E+00 0.  1.
</event>
<event>
 7    1  0.6610867E-006  0.1186432E+03  0.7561462E-02  0.1245352E+00
          2   -1    0    0  501    0  0.00000000000E+00  0.00000000000E+00  0.87447133634E+03  0.87447133634E+03  0.00000000000E+00 0. -1.
         -2   -1    0    0    0  501 -0.00000000000E+00 -0.00000000000E+00 -0.16762441669E+02  0.16762441669E+02  0.00000000000E+00 0.  1.
         23    2    1    2    0    0 -0.19735118448E+02 -0.52106579716E+02  0.36155147257E+03  0.37652614056E+03  0.89150976754E+02 0.  0.
          5    1    1    2  502    0  0.64409547710E+02  0.59341026702E+02  0.37980033591E+03  0.38978932110E+03  0.41800000000E+01 0. -1.
         -5    1    1    2    0  502 -0.44674429262E+02 -0.72344469863E+01  0.11635708618E+03  0.12491831634E+03  0.41800000000E+01 0. -1.
        -11    1    3    3    0    0 -0.30261292175E+02  0.16692400266E+02  0.97008034581E+02  0.10298029328E+03  0.00000000000E+00 0.  1.
         11    1    3    3    0    0  0.10526173728E+02 -0.68798979982E+02  0.26454343799E+03  0.27354584728E+03  0.00000000000E+00 0. -1.
</event>
<event>
 7    1  0.6610867E-006  0.1181324E+03  0.7561462E-02  0.1246210E+00
         -2   -1    0    0    0  501 -0.00000000000E+00  0.00000000000E+00  0.70260267677E+02  0.70260267677E+02  0.00000000000E+00 0.  1.
          2   -1    0    0  501    0  0.00000000000E+00 -0.00000000000E+00 -0.25659054908E+03  0.25659054908E+03  0.00000000000E+00 0. -1.
         23    2    1    2    0    0 -0.26776768794E+02 -0.63611306430E+02 -0.37825095921E+02  0.12078024671E+03  0.91617337125E+02 0.  0.
          5    1    1    2  502    0  0.70684206674E+02  0.30473134075E+02 -0.12330846699E+03  0.14542117935E+03  0.41800000000E+01 0.  1.
         -5    1    1    2    0  502 -0.43907437880E+02  0.33138172355E+02 -0.25196718493E+02  0.60649390690E+02  0.41800000000E+01 0.  1.
        -11    1    3    3    0    0  0.22833884673E+02  0.63066431671E+00  0.11732248303E+02  0.25679362862E+02  0.00000000000E+00 0.  1.
         11    1    3    3    0    0 -0.49610653467E+02 -0.64241970746E+02 -0.49557344223E+02  0.95100883851E+02  0.00000000000E+00 0. -1.
</event>
<event>
 7    1  0.6610867E-006  0.9382735E+02  0.7561462E-02  0.1293839E+00
         -2   -1    0    0    0  501 -0.00000000000E+00  0.00000000000E+00  0.15688934076E+03  0.15688934076E+03  0.00000000000E+00 0.  1.
          2   -1    0    0  501    0  0.00000000000E+00 -0.00000000000E+00 -0.12507349127E+03  0.12507349127E+03  0.00000000000E+00 0. -1.
         23    2    1    2    0    0  0.85699056205E+02 -0.28316522271E+01  0.31552973135E+02  0.13030798420E+03  0.92909817266E+02 0.  0.
          5    1    1    2  502    0 -0.59835753787E+02 -0.22198874698E+02 -0.55816177078E+02  0.84888311874E+02  0.41800000000E+01 0.  1.
         -5    1    1    2    0  502 -0.25863302417E+02  0.25030526925E+02  0.56079053429E+02  0.66766535956E+02  0.41800000000E+01 0.  1.
        -11    1    3    3    0    0  0.49937810397E+02 -0.10154222556E+02  0.63763545788E+02  0.81625259046E+02  0.00000000000E+00 0.  1.
         11    1    3    3    0    0  0.35761245808E+02  0.73225703291E+01 -0.32210572653E+02  0.48682725156E+02  0.00000000000E+00 0. -1.
</event>
<event>
 7    1  0.6610867E-006  0.1127870E+03  0.7561462E-02  0.1255494E+00
         -4   -1    0    0    0  501 -0.00000000000E+00  0.00000000000E+00  0.82232029265E+02  0.82232029265E+02  0.00000000000E+00 0.  1.
          4   -1    0    0  501    0  0.00000000000E+00 -0.00000000000E+00 -0.23024387880E+03  0.23024387880E+03  0.00000000000E+00 0. -1.
         23    2    1    2    0    0 -0.71483366204E+02  0.19798992306E+02 -0.21198038867E+02  0.11952288901E+03  0.91293441198E+02 0.  0.
          5    1    1    2  502    0  0.89142302311E+02  0.12291224251E+02 -0.12746185051E+03  0.15608145306E+03  0.41800000000E+01 0. -1.
         -5    1    1    2    0  502 -0.17658936107E+02 -0.32090216557E+02  0.64803984080E+00  0.36871565992E+02  0.41800000000E+01 0. -1.
        -11    1    3    3    0    0 -0.34576058799E+02  0.42888834242E+02  0.20939054117E+02  0.58935557451E+02  0.00000000000E+00 0.  1.
         11    1    3    3    0    0 -0.36907307405E+02 -0.23089841937E+02 -0.42137092984E+02  0.60587331562E+02  0.00000000000E+00 0. -1.
</event>
<event>
 7    1  0.6610867E-006  0.1224349E+03  0.7561462E-02  0.1239133E+00
          2   -1    0    0  501    0  0.00000000000E+00  0.00000000000E+00  0.13401746777E+04  0.13401746777E+04  0.00000000000E+00 0. -1.
         -2   -1    0    0    0  501 -0.00000000000E+00 -0.00000000000E+00 -0.18119182193E+02  0.18119182193E+02  0.00000000000E+00 0.  1.
         23    2    1    2    0    0  0.15199143590E+02  0.88793187883E+02  0.33705986245E+03  0.36130872292E+03  0.93911651079E+02 0.  0.
          5    1    1    2  502    0 -0.40282959041E+02 -0.68949414636E+01  0.10391445413E+03  0.11174051720E+03  0.41800000000E+01 0. -1.
         -5    1    1    2    0  502  0.25083815452E+02 -0.81898246420E+02  0.88108117893E+03  0.88524461977E+03  0.41800000000E+01 0. -1.
        -11    1    3    3    0    0  0.46473723906E+02  0.51866622571E+02  0.26854483864E+03  0.27742797968E+03  0.00000000000E+00 0.  1.
         11    1    3    3    0    0 -0.31274580316E+02  0.36926565312E+02  0.68515023812E+02  0.83880743247E+02  0.00000000000E+00 0. -1.
</event>
<event>
 7    1  0.6610867E-006  0.1700484E+03  0.7561462E-02  0.1177797E+00
         -2   -1    0    0    0  501 -0.00000000000E+00  0.00000000000E+00  0.68616316756E+02  0.68616316756E+02  0.00000000000E+00 0. -1.
          2   -1    0    0  501    0  0.00000000000E+00 -0.00000000000E+00 -0.56028455561E+03  0.56028455561E+03  0.00000000000E+00 0.  1.
         23    2    1    2    0    0 -0.13491445712E+03 -0.41118580650E+02 -0.96822178050E+02  0.19135693672E+03  0.85733859430E+02 0.  0.
          5    1    1    2  502    0  0.15358145498E+01  0.52053020472E+02 -0.14430006505E+03  0.15346614232E+03  0.41800000000E+01 0.  1.
         -5    1    1    2    0  502  0.13337864257E+03 -0.10934439822E+02 -0.25054599576E+03  0.28407779332E+03  0.41800000000E+01 0.  1.
        -11    1    3    3    0    0 -0.67213964515E+02 -0.52531081451E+02 -0.18660106349E+02  0.87323714495E+02  0.00000000000E+00 0.  1.
         11    1    3    3    0    0 -0.67700492610E+02  0.11412500800E+02 -0.78162071701E+02  0.10403322223E+03  0.00000000000E+00 0. -1.
</event>
<event>
 7    1  0.6610867E-006  0.1554232E+03  0.7561462E-02  0.1193963E+00
          1   -1    0    0  501    0  0.00000000000E+00  0.00000000000E+00  0.17987944166E+04  0.17987944166E+04  0.00000000000E+00 0. -1.
         -1   -1    0    0    0  501 -0.00000000000E+00 -0.00000000000E+00 -0.16989229664E+02  0.16989229664E+02  0.00000000000E+00 0.  1.
         23    2    1    2    0    0 -0.15877616528E+02  0.11033731065E+03  0.54181870111E+03  0.56268647243E+03  0.10306376939E+03 0.  0.
          5    1    1    2  502    0  0.65618291715E+02 -0.61238465960E+02  0.97096742902E+03  0.97511595748E+03  0.41800000000E+01 0. -1.
         -5    1    1    2    0  502 -0.49740675187E+02 -0.49098844685E+02  0.26901905682E+03  0.27798121636E+03  0.41800000000E+01 0.  1.
        -11    1    3    3    0    0  0.29229656948E+02 -0.26204213017E+01  0.13060638689E+03  0.13386286919E+03  0.00000000000E+00 0. -1.
         11    1    3    3    0    0 -0.45107273476E+02  0.11295773195E+03  0.41121231422E+03  0.42882360324E+03  0.00000000000E+00 0.  1.
</event>
<event>
 7    1  0.6610867E-006  0.7735460E+02  0.7561462E-02  0.1336731E+00
         -3   -1    0    0    0  501 -0.00000000000E+00  0.00000000000E+00  0.23409301418E+03  0.23409301418E+03  0.00000000000E+00 0.  1.
          3   -1    0    0  501    0  0.00000000000E+00 -0.00000000000E+00 -0.15499537730E+03  0.15499537730E+03  0.00000000000E+00 0. -1.
         23    2    1    2    0    0 -0.11243667150E+02  0.50163539135E+02  0.19311706446E+03  0.22221515173E+03  0.97172899307E+02 0.  0.
          5    1    1    2  502    0 -0.16697915139E+02 -0.10515475394E+02 -0.11639599464E+03  0.11813084086E+03  0.41800000000E+01 0. -1.
         -5    1    1    2    0  502  0.27941582288E+02 -0.39648063741E+02  0.23765670551E+01  0.48742398897E+02  0.41800000000E+01 0.  1.
        -11    1    3    3    0    0  0.27317227825E+02  0.35047404431E+02  0.29259398266E+02  0.53203983688E+02  0.00000000000E+00 0. -1.
         11    1    3    3    0    0 -0.38560894974E+02  0.15116134704E+02  0.16385766620E+03  0.16901116804E+03  0.00000000000E+00 0.  1.
</event>
<event>
 7    1  0.6610867E-006  0.1236274E+03  0.7561462E-02  0.1237230E+00
          2   -1    0    0  501    0  0.00000000000E+00  0.00000000000E+00  0.32154615688E+03  0.32154615688E+03  0.00000000000E+00 0. -1.
         -2   -1    0    0    0  501 -0.00000000000E+00 -0.00000000000E+00 -0.74500910258E+02  0.74500910258E+02  0.00000000000E+00 0.  1.
         23    2    1    2    0    0  0.13290630524E+02 -0.84781815715E+02  0.28297376083E+02  0.12984846378E+03  0.93248511608E+02 0.  0.
          5    1    1    2  502    0 -0.55193633674E+02  0.50368867072E+02  0.52861400759E+02  0.91625106048E+02  0.41800000000E+01 0. -1.
         -5    1    1    2    0  502  0.41903003150E+02  0.34412948643E+02  0.16588646978E+03  0.17457349731E+03  0.41800000000E+01 0. -1.
        -11    1    3    3    0    0 -0.15974728741E+02 -0.87215101130E+02 -0.57229937162E+00  0.88667882291E+02  0.00000000000E+00 0.  1.
         11    1    3    3    0    0  0.29265359265E+02  0.24332854153E+01  0.28869675455E+02  0.41180581488E+02  0.00000000000E+00 0. -1.
</event>
<event>
 7    1  0.6610867E-006  0.1173035E+03  0.7561462E-02  0.1247613E+00
          2   -1    0    0  501    0  0.00000000000E+00  0.00000000000E+00  0.10514309772E+03  0.10514309772E+03  0.00000000000E+00 0.  1.
         -2   -1    0    0    0  501 -0.00000000000E+00 -0.00000000000E+00 -0.14530285631E+03  0.14530285631E+03  0.00000000000E+00 0. -1.
         23    2    1    2    0    0 -0.38887722015E+02 -0.92857570146E+01 -0.56236469621E+02  0.11814113236E+03  0.95897374486E+02 0.  0.
          5    1    1    2  502    0 -0.29301745653E+02  0.44903501541E+02  0.95123874302E+00  0.53789348426E+02  0.41800000000E+01 0. -1.
         -5    1    1    2    0  502  0.68189467668E+02 -0.35617744526E+02  0.15125472285E+02  0.78515473238E+02  0.41800000000E+01 0. -1.
        -11    1    3    3    0    0 -0.45862544511E+01  0.41907995732E+02 -0.25606775761E+02  0.49325660675E+02  0.00000000000E+00 0.  1.
         11    1    3    3    0    0 -0.34301467564E+02 -0.51193752747E+02 -0.30629693860E+02  0.68815471686E+02  0.00000000000E+00 0. -1.
</event>
<event>
 7    1  0.6610867E-006  0.1420215E+03  0.7561462E-02  0.1210634E+00
          2   -1    0    0  501    0  0.00000000000E+00  0.00000000000E+00  0.49666816539E+02  0.49666816539E+02  0.00000000000E+00 0. -1.
         -2   -1    0    0    0  501 -0.00000000000E+00 -0.00000000000E+00 -0.49213950157E+03  0.49213950157E+03  0.00000000000E+00 0.  1.
         23    2    1    2    0    0 -0.96915358310E+02 -0.56842940777E+02 -0.23049055266E+03  0.27123884485E+03  0.88435906164E+02 0.  0.
          5    1    1    2  502    0  0.69432723578E+02  0.95511912288E+02 -0.17032228279E+03  0.20729346567E+03  0.41800000000E+01 0. -1.
         -5    1    1    2    0  502  0.27482634732E+02 -0.38668971511E+02 -0.41659849577E+02  0.63274007589E+02  0.41800000000E+01 0. -1.
        -11    1    3    3    0    0 -0.41099852241E+02 -0.38200363092E+01 -0.17630280547E+02  0.44884488677E+02  0.00000000000E+00 0. -1.
         11    1    3    3    0    0 -0.55815506069E+02 -0.53022904468E+02 -0.21286027211E+03  0.22635435617E+03  0.00000000000E+00 0.  1.
</event>
<event>
 7    1  0.6610867E-006  0.1177482E+03  0.7561462E-02  0.1246859E+00
          2   -1    0    0  501    0  0.00000000000E+00  0.00000000000E+00  0.13907679307E+03  0.13907679307E+03  0.00000000000E+00 0. -1.
         -2   -1    0    0    0  501 -0.00000000000E+00 -0.00000000000E+00 -0.12576920859E+03  0.12576920859E+03  0.00000000000E+00 0.  1.
         23    2    1    2    0    0 -0.31452627002E+02 -0.24256160046E+02 -0.41119143682E+02  0.10629841679E+03  0.89615514227E+02 0.  0.
          5    1    1    2  502    0  0.81432788789E+02  0.37085048788E+02  0.57902004281E+02  0.10666168212E+03  0.41800000000E+01 0. -1.
         -5    1    1    2    0  502 -0.49980161787E+02 -0.12828888741E+02 -0.34752761214E+01  0.51885902736E+02  0.41800000000E+01 0.  1.
        -11    1    3    3    0    0 -0.16148762821E+02  0.32002831164E+02 -0.16355762717E+01  0.35883685052E+02  0.00000000000E+00 0.  1.
         11    1    3    3    0    0 -0.15303864180E+02 -0.56258991210E+02 -0.39483567410E+02  0.70414731742E+02  0.00000000000E+00 0. -1.
</event>
<event>
 7    1  0.6610867E-006  0.1527622E+03  0.7561462E-02  0.1197119E+00
          2   -1    0    0  501    0  0.00000000000E+00  0.00000000000E+00  0.32674006761E+02  0.32674006761E+02  0.00000000000E+00 0. -1.
         -2   -1    0    0    0  501 -0.00000000000E+00 -0.00000000000E+00 -0.74540034998E+03  0.74540034998E+03  0.00000000000E+00 0.  1.
         23    2    1    2    0    0  0.40464089510E+02 -0.10197061604E+03 -0.37813984902E+03  0.40440199152E+03  0.92281505477E+02 0.  0.
          5    1    1    2  502    0 -0.18730236800E+02  0.12950748662E+03 -0.26941341949E+03  0.29953977008E+03  0.41800000000E+01 0. -1.
         -5    1    1    2    0  502 -0.21733852710E+02 -0.27536870574E+02 -0.65173074712E+02  0.74132595139E+02  0.41800000000E+01 0. -1.
        -11    1    3    3    0    0 -0.18179540150E+02 -0.70325387007E+02 -0.24462890864E+03  0.25518514589E+03  0.00000000000E+00 0.  1.
         11    1    3    3    0    0  0.58643629660E+02 -0.31645229038E+02 -0.13351094038E+03  0.14921684564E+03  0.00000000000E+00 0. -1.
</event>
<event>
 7    1  0.6610867E-006  0.7624445E+02  0.7561462E-02  0.1340060E+00
         -1   -1    0    0    0  501 -0.00000000000E+00  0.00000000000E+00  0.12482116472E+03  0.12482116472E+03  0.00000000000E+00 0.  1.
          1   -1    0    0  501    0  0.00000000000E+00 -0.00000000000E+00 -0.27301446315E+03  0.27301446315E+03  0.00000000000E+00 0. -1.
         23    2    1    2    0    0 -0.21295773233E+02  0.10339691584E+02  0.96136154720E+02  0.12302110858E+03  0.73017900080E+02 0.  0.
          5    1    1    2  502    0  0.21061227354E+02  0.37992816189E+02 -0.21216565061E+03  0.21660739848E+03  0.41800000000E+01 0. -1.
         -5    1    1    2    0  502  0.23454587844E+00 -0.48332507772E+02 -0.32163802541E+02  0.58207120812E+02  0.41800000000E+01 0.  1.
        -11    1    3    3    0    0  0.29564756752E+01 -0.20719102783E+02  0.75880949010E+02  0.78714295977E+02  0.00000000000E+00 0. -1.
         11    1    3    3    0    0 -0.24252248908E+02  0.31058794367E+02  0.20255205711E+02  0.44306812603E+02  0.00000000000E+00 0.  1.
</event>
<event>
 7    1  0.6610867E-006  0.9657720E+02  0.7561462E-02  0.1287663E+00
          2   -1    0    0  501    0  0.00000000000E+00  0.00000000000E+00  0.14007079949E+03  0.14007079949E+03  0.00000000000E+00 0. -1.
         -2   -1    0    0    0  501 -0.00000000000E+00 -0.00000000000E+00 -0.12503869278E+03  0.12503869278E+03  0.00000000000E+00 0.  1.
         23    2    1    2    0    0 -0.45837914361E+02  0.32170923619E+02  0.97489796666E+01  0.12795304511E+03  0.11463357461E+03 0.  0.
          5    1    1    2  502    0  0.46499458663E+02 -0.49583608127E+02 -0.46430759278E+02  0.82425855519E+02  0.41800000000E+01 0. -1.
         -5    1    1    2    0  502 -0.66154430242E+00  0.17412684508E+02  0.51713886324E+02  0.54730591641E+02  0.41800000000E+01 0. -1.
        -11    1    3    3    0    0 -0.52288113512E+02 -0.18941073912E+02  0.39730018969E+02  0.68346803164E+02  0.00000000000E+00 0.  1.
         11    1    3    3    0    0  0.64501991508E+01  0.51111997531E+02 -0.29981039302E+02  0.59606241941E+02  0.00000000000E+00 0. -1.
</event>
<event>
 7    1  0.6610867E-006  0.1271807E+03  0.7561462E-02  0.1231700E+00
          1   -1    0    0  501    0  0.00000000000E+00  0.00000000000E+00  0.43932181462E+03  0.43932181462E+03  0.00000000000E+00 0. -1.
         -1   -1    0    0    0  501 -0.00000000000E+00 -0.00000000000E+00 -0.47083493292E+02  0.47083493292E+02  0.00000000000E+00 0.  1.
         23    2    1    2    0    0  0.95088749146E+02  0.22022543078E+01  0.17746052912E+03  0.22027839079E+03  0.89351048769E+02 0.  0.
          5    1    1    2  502    0  0.24076095177E+02  0.10921002835E+02  0.95620810031E+01  0.28422393548E+02  0.41800000000E+01 0.  1.
         -5    1    1    2    0  502 -0.11916484432E+03 -0.13123257143E+02  0.20521571120E+03  0.23770452357E+03  0.41800000000E+01 0.  1.
        -11    1    3    3    0    0  0.62104326034E+01  0.16487657308E+02  0.99939155479E+02  0.10148027944E+03  0.00000000000E+00 0.  1.
         11    1    3    3    0    0  0.88878316543E+02 -0.14285403001E+02  0.77521373638E+02  0.11879811135E+03  0.00000000000E+00 0. -1.
</event>
<event>
 7    1  0.6610867E-006  0.8441528E+02  0.7561462E-02  0.1316969E+00
          2   -1    0    0  501    0  0.00000000000E+00  0.00000000000E+00  0.20017916928E+03  0.20017916928E+03  0.00000000000E+00 0. -1.
         -2   -1    0    0    0  501 -0.00000000000E+00 -0.00000000000E+00 -0.84016575901E+02  0.84016575901E+02  0.00000000000E+00 0.  1.
         23    2    1    2    0    0 -0.10708608286E+02  0.61159805510E+02  0.16390927868E+02  0.11256498065E+03  0.92450074376E+02 0.  0.
          5    1    1    2  502    0 -0.41481530059E+01 -0.11641767140E+02 -0.29546508925E+02  0.32298707484E+02  0.41800000000E+01 0.  1.
         -5    1    1    2    0  502  0.14856761292E+02 -0.49518038370E+02  0.12931817443E+03  0.13933205704E+03  0.41800000000E+01 0.  1.
        -11    1    3    3    0    0  0.26782401590E+02  0.60785022339E+02  0.29725120430E+02  0.72771551861E+02  0.00000000000E+00 0. -1.
         11    1    3    3    0    0 -0.37491009876E+02  0.37478317075E+00 -0.13334192562E+02  0.39793428794E+02  0.00000000000E+00 0.  1.
</event>
<event>
 7    1  0.6610867E-006  0.1446935E+03  0.7561462E-02  0.1207150E+00
         -1   -1    0    0    0  501 -0.00000000000E+00  0.00000000000E+00  0.33762720734E+02  0.33762720734E+02  0.00000000000E+00 0.  1.
          1   -1    0    0  501    0  0.00000000000E+00 -0.00000000000E+00 -0.12095997780E+04  0.12095997780E+04  0.00000000000E+00 0. -1.
         23    2    1    2    0    0 -0.88640623050E+02  0.69687877831E+02 -0.17050446142E+03  0.22402521120E+03  0.91662225140E+02 0.  0.
          5    1    1    2  502    0  0.24303858223E+02  0.23441195101E+02 -0.51369087602E+03  0.51481642909E+03  0.41800000000E+01 0.  1.
         -5    1    1    2    0  502  0.64336764827E+02 -0.93129072932E+02 -0.49164171981E+03  0.50452085843E+03  0.41800000000E+01 0.  1.
        -11    1    3    3    0    0 -0.40588871530E+02 -0.16180843242E+02 -0.75584622263E+02  0.87305849190E+02  0.00000000000E+00 0.  1.
         11    1    3    3    0    0 -0.48051751520E+02  0.85868721073E+02 -0.94919839158E+02  0.13671936201E+03  0.00000000000E+00 0. -1.
</event>
<event>
 6    1  0.6610867E-006  0.1072856E+03  0.7561462E-02  0.1265681E+00
          1   -1    0    0  501    0  0.00000000000E+00  0.00000000000E+00  0.11776247253E+04  0.11776247253E+04  0.00000000000E+00 0. -1.
         -1   -1    0    0    0  501 -0.00000000000E+00 -0.00000000000E+00 -0.20126348801E+02  0.20126348801E+02  0.00000000000E+00 0.  1.
          5    1    1    2  502    0  0.26243413709E+02  0.28285857502E+02  0.61340238913E+02  0.72587215180E+02  0.41800000000E+01 0.  1.
         -5    1    1    2    0  502  0.70116694152E+02  0.12106316546E+02  0.86929614449E+03  0.87221337580E+03  0.41800000000E+01 0.  1.
        -11    1    1    2    0    0 -0.81016475725E+02 -0.33997501777E+02  0.21575434812E+03  0.23295801811E+03  0.00000000000E+00 0. -1.
         11    1    1    2    0    0 -0.15343632136E+02 -0.63946722701E+01  0.11107644974E+02  0.19992465016E+02  0.00000000000E+00 0.  1.
</event>
<event>
 7    1  0.6610867E-006  0.1813190E+03  0.7561462E-02  0.1166533E+00
         -2   -1    0    0    0  501 -0.00000000000E+00  0.00000000000E+00  0.19684882897E+03  0.19684882897E+03  0.00000000000E+00 0.  1.
          2   -1    0    0  501    0  0.00000000000E+00 -0.00000000000E+00 -0.25048293764E+03  0.25048293764E+03  0.00000000000E+00 0. -1.
         23    2    1    2    0    0  0.17758283752E+02  0.15445015529E+03  0.81350536015E+02  0.20641821446E+03  0.10872149024E+03 0.  0.
          5    1    1    2  502    0  0.18216169853E+02 -0.15989412708E+03 -0.96042782068E+02  0.18745572573E+03  0.41800000000E+01 0. -1.
         -5    1    1    2    0  502 -0.35974453605E+02  0.54439717891E+01 -0.38941862625E+02  0.53457826421E+02  0.41800000000E+01 0. -1.
        -11    1    3    3    0    0 -0.54838889623E+01  0.13388630271E+03  0.10263382541E+03  0.16878778750E+03  0.00000000000E+00 0.  1.
         11    1    3    3    0    0  0.23242172714E+02  0.20563852588E+02 -0.21283289398E+02  0.37630426962E+02  0.00000000000E+00 0. -1.
</event>
<event>
 7    1  0.6610867E-006  0.1856278E+03  0.7561462E-02  0.1162465E+00
         -1   -1    0    0    0  501 -0.00000000000E+00  0.00000000000E+00  0.79936065694E+02  0.79936065694E+02  0.00000000000E+00 0.  1.
          1   -1    0    0  501    0  0.00000000000E+00 -0.00000000000E+00 -0.50618511338E+03  0.50618511338E+03  0.00000000000E+00 0. -1.
         23    2    1    2    0    0  0.10621591663E+03 -0.11001713675E+03 -0.10198581878E+03  0.20641527045E+03  0.93917864752E+02 0.  0.
          5    1    1    2  502    0  0.25018938767E+02  0.11780198115E+02 -0.21099932744E+02  0.35034267888E+02  0.41800000000E+01 0.  1.
         -5    1    1    2    0  502 -0.13123485540E+03  0.98236938635E+02 -0.30316329616E+03  0.34467164073E+03  0.41800000000E+01 0.  1.
        -11    1    3    3    0    0  0.11035084501E+03 -0.53499132844E+02 -0.65717193780E+02  0.13913380527E+03  0.00000000000E+00 0. -1.
         11    1    3    3    0    0 -0.41349283790E+01 -0.56518003905E+02 -0.36268625000E+02  0.67281465186E+02  0.00000000000E+00 0.  1.
</event>
<event>
 7    1  0.6610867E-006  0.1162604E+03  0.7561462E-02  0.1249397E+00
         -4   -1    0    0    0  501 -0.00000000000E+00  0.00000000000E+00  0.10098028822E+03  0.10098028822E+03  0.00000000000E+00 0.  1.
          4   -1    0    0  501    0  0.00000000000E+00 -0.00000000000E+00 -0.27313629096E+03  0.27313629096E+03  0.00000000000E+00 0. -1.
         23    2    1    2    0    0 -0.97842462247E+02 -0.16136212567E+02  0.88901333307E+01  0.13274766894E+03  0.87803099962E+02 0.  0.
          5    1    1    2  502    0  0.75256804250E+02  0.50483463105E+02 -0.17818675126E+03  0.19995038724E+03  0.41800000000E+01 0.  1.
         -5    1    1    2    0  502  0.22585657997E+02 -0.34347250537E+02 -0.28593848162E+01  0.41418523008E+02  0.41800000000E+01 0.  1.
        -11    1    3    3    0    0 -0.46712746966E+02 -0.15927734318E+02  0.47637941026E+02  0.68594073176E+02  0.00000000000E+00 0.  1.
         11    1    3    3    0    0 -0.51129715281E+02 -0.20847824962E+00 -0.38747807695E+02  0.64153595761E+02  0.00000000000E+00 0. -1.
</event>
<event>
 7    1  0.6610867E-006  0.8526907E+02  0.7561462E-02  0.1314730E+00
         -2   -1    0    0    0  501 -0.00000000000E+00  0.00000000000E+00  0.27995629114E+02  0.27995629114E+02  0.00000000000E+00 0.  1.
          2   -1    0    0  501    0  0.00000000000E+00 -0.00000000000E+00 -0.56270885205E+03  0.56270885205E+03  0.00000000000E+00 0. -1.
         23    2    1    2    0    0 -0.73818592262E+01 -0.30426036479E+00 -0.85641544058E+02  0.12450275711E+03  0.90065964934E+02 0.  0.
          5    1    1    2  502    0 -0.90047622514E+01  0.49742662802E+02 -0.89675089269E+02  0.10302675517E+03  0.41800000000E+01 0.  1.
         -5    1    1    2    0  502  0.16386621478E+02 -0.49438402438E+02 -0.35939658961E+03  0.36317496888E+03  0.41800000000E+01 0.  1.
        -11    1    3    3    0    0 -0.20129462767E+02  0.29175479172E+02 -0.85312693772E+02  0.92383221284E+02  0.00000000000E+00 0.  1.
         11    1    3    3    0    0  0.12747603541E+02 -0.29479739537E+02 -0.32885028642E+00  0.32119535827E+02  0.00000000000E+00 0. -1.
</event>
<event>
 7    1  0.6610867E-006  0.1066253E+03  0.7561462E-02  0.1266950E+00
         -2   -1    0    0    0  501 -0.00000000000E+00  0.00000000000E+00  0.16006891538E+02  0.16006891538E+02  0.00000000000E+00 0.  1.
          2   -1    0    0  501    0  0.00000000000E+00 -0.00000000000E+00 -0.89438522171E+03  0.89438522171E+03  0.00000000000E+00 0. -1.
         23    2    1    2    0    0 -0.90310977653E+01 -0.38559219894E+02 -0.27983895102E+03  0.29763923977E+03  0.93332225842E+02 0.  0.
          5    1    1    2  502    0  0.54986397470E+02  0.38168188551E+01 -0.13884690154E+03  0.14944566398E+03  0.41800000000E+01 0.  1.
         -5    1    1    2    0  502 -0.45955299705E+02  0.34742401039E+02 -0.45969247761E+03  0.46330720950E+03  0.41800000000E+01 0.  1.
        -11    1    3    3    0    0  0.28526135026E+02 -0.52826226527E+02 -0.14485912749E+03  0.15680726197E+03  0.00000000000E+00 0.  1.
         11    1    3    3    0    0 -0.37557232792E+02  0.14267006633E+02 -0.13497982352E+03  0.14083197780E+03  0.00000000000E+00 0. -1.
</event>
<event>
 7    1  0.6610867E-006  0.1808806E+03  0.7561462E-02  0.1166954E+00
          2   -1    0    0  501    0  0.00000000000E+00  0.00000000000E+00  0.45892302109E+03  0.45892302109E+03  0.00000000000E+00 0. -1.
         -2   -1    0    0    0  501 -0.00000000000E+00 -0.00000000000E+00 -0.97270518963E+02  0.97270518963E+02  0.00000000000E+00 0.  1.
         23    2    1    2    0    0  0.85291585487E+02 -0.14350198205E+03  0.26656675797E+03  0.32694105697E+03  0.89247660309E+02 0.  0.
          5    1    1    2  502    0 -0.71494869564E+02  0.74913062146E+02  0.11653808841E+03  0.15595538370E+03  0.41800000000E+01 0.  1.
         -5    1    1    2    0  502 -0.13796715923E+02  0.68588919901E+02 -0.21452344261E+02  0.73297099381E+02  0.41800000000E+01 0.  1.
        -11    1    3    3    0    0  0.44131401624E+02 -0.13992542015E+03  0.22264547544E+03  0.26664154130E+03  0.00000000000E+00 0. -1.
         11    1    3    3    0    0  0.41160183863E+02 -0.35765618978E+01  0.43921282527E+02  0.60299515665E+02  0.00000000000E+00 0.  1.
</event>
<event>
 7    1  0.6610867E-006  0.1466634E+03  0.7561462E-02  0.1204634E+00
          1   -1    0    0  501    0  0.00000000000E+00  0.00000000000E+00  0.19477494037E+03  0.19477494037E+03  0.00000000000E+00 0. -1.
         -1   -1    0    0    0  501 -0.00000000000E+00 -0.00000000000E+00 -0.14329686205E+03  0.14329686205E+03  0.00000000000E+00 0.  1.
         23    2    1    2    0    0  0.94611560744E+02  0.42898354565E+02 -0.49745507604E+02  0.14653942658E+03  0.90595649819E+02 0.  0.
          5    1    1    2  502    0  0.26236061546E+02 -0.26588310096E+02  0.91733166977E+01  0.38689679482E+02  0.41800000000E+01 0.  1.
         -5    1    1    2    0  502 -0.12084762229E+03 -0.16310044469E+02  0.92050269230E+02  0.15284269636E+03  0.41800000000E+01 0.  1.
        -11    1    3    3    0    0  0.10061873520E+03  0.10944890089E+02 -0.52299374575E+02  0.11392605090E+03  0.00000000000E+00 0.  1.
         11    1    3    3    0    0 -0.60071744580E+01  0.31953464476E+02  0.25538669714E+01  0.32613375684E+02  0.00000000000E+00 0. -1.
</event>
<event>
 7    1  0.6610867E-006  0.1118872E+03  0.7561462E-02  0.1257114E+00
          1   -1    0    0  501    0  0.00000000000E+00  0.00000000000E+00  0.96703214639E+02  0.96703214639E+02  0.00000000000E+00 0. -1.
         -1   -1    0    0    0  501 -0.00000000000E+00 -0.00000000000E+00 -0.17037506468E+03  0.17037506468E+03  0.00000000000E+00 0.  1.
         23    2    1    2    0    0 -0.95467316875E+01  0.61359834810E+02 -0.63166596527E+02  0.12702832448E+03  0.91049474958E+02 0.  0.
          5    1    1    2  502    0 -0.36951362952E+02 -0.56134162479E+02  0.33918220737E+02  0.75394731375E+02  0.41800000000E+01 0. -1.
         -5    1    1    2    0  502  0.46498094640E+02 -0.52256723310E+01 -0.44423474250E+02  0.64655223462E+02  0.41800000000E+01 0. -1.
        -11    1    3    3    0    0  0.82518094072E+01  0.81882581948E+02 -0.40884364378E+02  0.91893312246E+02  0.00000000000E+00 0. -1.
         11    1    3    3    0    0 -0.17798541095E+02 -0.20522747139E+02 -0.22282232149E+02  0.35135012235E+02  0.00000000000E+00 0.  1.
</event>
<event>
 7    1  0.6610867E-006  0.7076404E+02  0.7561462E-02  0.1357514E+00
          1   -1    0    0  501    0  0.00000000000E+00  0.00000000000E+00  0.32268826324E+03  0.32268826324E+03  0.00000000000E+00 0. -1.
         -1   -1    0    0    0  501 -0.00000000000E+00 -0.00000000000E+00 -0.46159088020E+02  0.46159088020E+02  0.00000000000E+00 0.  1.
         23    2    1    2    0    0  0.39837209984E+02  0.22210203799E+02  0.76209508849E+02  0.12831647677E+03  0.92611729920E+02 0.  0.
          5    1    1    2  502    0  0.11535557490E+02 -0.26327135555E+02 -0.44045523833E+01  0.29377876622E+02  0.41800000000E+01 0.  1.
         -5    1    1    2    0  502 -0.51372767474E+02  0.41169317555E+01  0.20472421875E+03  0.21115299787E+03  0.41800000000E+01 0.  1.
        -11    1    3    3    0    0  0.92914843350E+01  0.28162180129E+02  0.89642820720E+02  0.94420735951E+02  0.00000000000E+00 0. -1.
         11    1    3    3    0    0  0.30545725649E+02 -0.59519763296E+01 -0.13433311872E+02  0.33895740817E+02  0.00000000000E+00 0.  1.
</event>
<event>
 7    1  0.6610867E-006  0.1771850E+03  0.7561462E-02  0.1170556E+00
          2   -1    0    0  501    0  0.00000000000E+00  0.00000000000E+00  0.52302545914E+03  0.52302545914E+03  0.00000000000E+00 0. -1.
         -2   -1    0    0    0  501 -0.00000000000E+00 -0.00000000000E+00 -0.89531804709E+02  0.89531804709E+02  0.00000000000E+00 0.  1.
         23    2    1    2    0    0 -0.26459591898E+02 -0.17009943269E+03  0.10528774627E+03  0.22140526936E+03  0.91109037874E+02 0.  0.
          5    1    1    2  502    0 -0.18697065966E+02  0.64839124611E+02  0.34560483772E+02  0.75931494089E+02  0.41800000000E+01 0.  1.
         -5    1    1    2    0  502  0.45156657864E+02  0.10526030807E+03  0.29364542439E+03  0.31522050040E+03  0.41800000000E+01 0.  1.
        -11    1    3    3    0    0 -0.15901797855E+02 -0.10063124599E+03  0.90991857278E+01  0.10228543408E+03  0.00000000000E+00 0.  1.
         11    1    3    3    0    0 -0.10557794044E+02 -0.69468186698E+02  0.96188560539E+02  0.11911983528E+03  0.00000000000E+00 0. -1.
</event>
<event>
 7    1  0.6610867E-006  0.1043649E+03  0.7561462E-02  0.1271376E+00
          2   -1    0    0  501    0  0.00000000000E+00  0.00000000000E+00  0.21644325358E+03  0.21644325358E+03  0.00000000000E+00 0. -1.
         -2   -1    0    0    0  501 -0.00000000000E+00 -0.00000000000E+00 -0.91781549417E+02  0.91781549417E+02  0.00000000000E+00 0.  1.
         23    2    1    2    0    0 -0.40504310472E+02  0.38755410219E+02 -0.18820180721E+02  0.10978382243E+03  0.92497067401E+02 0.  0.
          5    1    1    2  502    0 -0.87905065058E+01 -0.49471138256E+02  0.13871980665E+03  0.14759852195E+03  0.41800000000E+01 0. -1.
         -5    1    1    2    0  502  0.49294816978E+02  0.10715728037E+02  0.47620782288E+01  0.50842458608E+02  0.41800000000E+01 0. -1.
        -11    1    3    3    0    0 -0.15798155578E+02  0.67767614691E+02 -0.72596667617E+01  0.69962376190E+02  0.00000000000E+00 0. -1.
         11    1    3    3    0    0 -0.24706154894E+02 -0.29012204472E+02 -0.11560513959E+02  0.39821446244E+02  0.00000000000E+00 0.  1.
</event>
<event>
 7    1  0.6610867E-006  0.1787793E+03  0.7561462E-02  0.1168990E+00
         -1   -1    0    0    0  501 -0.00000000000E+00  0.00000000000E+00  0.17836964193E+03  0.17836964193E+03  0.00000000000E+00 0.  1.
          1   -1    0    0  501    0  0.00000000000E+00 -0.00000000000E+00 -0.24515739139E+03  0.24515739139E+03  0.00000000000E+00 0. -1.
         23    2    1    2    0    0  0.71458819012E+02  0.12678323148E+03  0.70705269384E+02  0.18745502828E+03  0.94656230160E+02 0.  0.
          5    1    1    2  502    0 -0.83112976586E+02 -0.29839502911E+02 -0.36830526256E+02  0.95771200657E+02  0.41800000000E+01 0. -1.
         -5    1    1    2    0  502  0.11654157574E+02 -0.96943728574E+02 -0.10066249258E+03  0.14030080439E+03  0.41800000000E+01 0. -1.
        -11    1    3    3    0    0 -0.13271003180E+02  0.65553322797E+02  0.13301644607E+02  0.68193045132E+02  0.00000000000E+00 0. -1.
         11    1    3    3    0    0  0.84729822192E+02  0.61229908688E+02  0.57403624777E+02  0.11926198315E+03  0.00000000000E+00 0.  1.
</event>
<event>
 7    1  0.6610867E-006  0.6719786E+02  0.7561462E-02  0.1369890E+00
         -1   -1    0    0    0  501 -0.00000000000E+00  0.00000000000E+00  0.23477074347E+03  0.23477074347E+03  0.00000000000E+00 0.  1.
          1   -1    0    0  501    0  0.00000000000E+00 -0.00000000000E+00 -0.60522437292E+02  0.60522437292E+02  0.00000000000E+00 0. -1.
         23    2    1    2    0    0  0.27502639807E+02 -0.23849937045E+02  0.11676784341E+03  0.15290379647E+03  0.91758525640E+02 0.  0.
          5    1    1    2  502    0 -0.39059834556E+02  0.39586777088E+02  0.89028243939E+02  0.10505372061E+03  0.41800000000E+01 0. -1.
         -5    1    1    2    0  502  0.11557194749E+02 -0.15736840042E+02 -0.31547781174E+02  0.37335663674E+02  0.41800000000E+01 0. -1.
        -11    1    3    3    0    0  0.60645533983E+01 -0.34284112755E+02  0.11311720512E+01  0.34834734756E+02  0.00000000000E+00 0. -1.
         11    1    3    3    0    0  0.21438086408E+02  0.10434175710E+02  0.11563667136E+03  0.11806906171E+03  0.00000000000E+00 0.  1.
</event>
<event>
 7    1  0.6610867E-006  0.3372744E+03  0.7561462E-02  0.1067963E+00
          1   -1    0    0  501    0  0.00000000000E+00  0.00000000000E+00  0.16290272743E+03  0.16290272743E+03  0.00000000000E+00 0. -1.
         -1   -1    0    0    0  501 -0.00000000000E+00 -0.00000000000E+00 -0.10779441338E+04  0.10779441338E+04  0.00000000000E+00 0.  1.
         23    2    1    2    0    0  0.26204419550E+03  0.18453570286E+03 -0.81873247110E+03  0.88357452119E+03  0.87524220842E+02 0.  0.
          5    1    1    2  502    0  0.86664412649E+01 -0.30054767737E+02 -0.20768649110E+01  0.31625654709E+02  0.41800000000E+01 0. -1.
         -5    1    1    2    0  502 -0.27071063677E+03 -0.15448093512E+03 -0.94232070342E+02  0.32564668531E+03  0.41800000000E+01 0. -1.
        -11    1    3    3    0    0  0.55335098145E+02  0.17811254720E+01 -0.11330334075E+03  0.12610627471E+03  0.00000000000E+00 0.  1.
         11    1    3    3    0    0  0.20670909736E+03  0.18275457738E+03 -0.70542913035E+03  0.75746824648E+03  0.00000000000E+00 0. -1.
</event>
<event>
 7    1  0.6610867E-006  0.2489604E+03  0.7561462E-02  0.1113964E+00
          1   -1    0    0  501    0  0.00000000000E+00  0.00000000000E+00  0.25209794624E+04  0.25209794624E+04  0.00000000000E+00 0. -1.
         -1   -1    0    0    0  501 -0.00000000000E+00 -0.00000000000E+00 -0.41270953915E+02  0.41270953915E+02  0.00000000000E+00 0.  1.
         23    2    1    2    0    0 -0.52322757678E+02  0.11902741090E+03  0.52019037744E+03  0.54334857327E+03  0.87888837603E+02 0.  0.
          5    1    1    2  502    0  0.73174600235E+02 -0.22324925682E+03  0.46877291459E+03  0.52436654226E+03  0.41800000000E+01 0. -1.
         -5    1    1    2    0  502 -0.20851842557E+02  0.10422184592E+03  0.14907452165E+04  0.14945353008E+04  0.41800000000E+01 0.  1.
        -11    1    3    3    0    0 -0.74938280604E+02  0.10790877450E+03  0.42211746456E+03  0.44208958752E+03  0.00000000000E+00 0.  1.
         11    1    3    3    0    0  0.22615522926E+02  0.11118636407E+02  0.98072912888E+02  0.10125898575E+03  0.00000000000E+00 0. -1.
</event>
<event>
 7    1  0.6610867E-006  0.7836282E+02  0.7561462E-02  0.1333763E+00
          1   -1    0    0  501    0  0.00000000000E+00  0.00000000000E+00  0.16709010450E+03  0.16709010450E+03  0.00000000000E+00 0. -1.
         -1   -1    0    0    0  501 -0.00000000000E+00 -0.00000000000E+00 -0.93607394406E+02  0.93607394406E+02  0.00000000000E+00 0.  1.
         23    2    1    2    0    0  0.41536579125E+01  0.18582037185E+02 -0.29948860460E+02  0.97274761670E+02  0.90569862731E+02 0.  0.
          5    1    1    2  502    0 -0.24044219257E+02  0.17787562503E+02  0.11603033391E+03  0.11989592423E+03  0.41800000000E+01 0.  1.
         -5    1    1    2    0  502  0.19890561345E+02 -0.36369599688E+02 -0.12598763359E+02  0.43526813003E+02  0.41800000000E+01 0.  1.
        -11    1    3    3    0    0  0.43013261761E+02  0.34164237752E+01 -0.34592120491E+02  0.55303050899E+02  0.00000000000E+00 0.  1.
         11    1    3    3    0    0 -0.38859603849E+02  0.15165613409E+02  0.46432600303E+01  0.41971710771E+02  0.00000000000E+00 0. -1.
</event>
<event>
 7    1  0.6610867E-006  0.7909187E+02  0.7561462E-02  0.1331648E+00
         -1   -1    0    0    0  501 -0.00000000000E+00  0.00000000000E+00  0.15477625093E+02  0.15477625093E+02  0.00000000000E+00 0.  1.
          1   -1    0    0  501    0  0.00000000000E+00 -0.00000000000E+00 -0.16367532871E+04  0.16367532871E+04  0.00000000000E+00 0. -1.
         23    2    1    2    0    0 -0.46888745085E+01 -0.68355710420E+01 -0.16911250879E+03  0.19466631082E+03  0.96058426816E+02 0.  0.
          5    1    1    2  502    0  0.33923191006E+02  0.31547592797E+01 -0.13655490034E+04  0.13659803397E+04  0.41800000000E+01 0. -1.
         -5    1    1    2    0  502 -0.29234316498E+02  0.36808117623E+01 -0.86614149861E+02  0.91584261707E+02  0.41800000000E+01 0. -1.
        -11    1    3    3    0    0 -0.31495884366E+02 -0.40346783681E+02 -0.70504032478E+02  0.87124464308E+02  0.00000000000E+00 0.  1.
         11    1    3    3    0    0  0.26807009857E+02  0.33511212639E+02 -0.98608476311E+02  0.10754184651E+03  0.00000000000E+00 0. -1.
</event>
<event>
 7    1  0.6610867E-006  0.1607504E+03  0.7561462E-02  0.1187852E+00
          1   -1    0    0  501    0  0.00000000000E+00  0.00000000000E+00  0.46330380371E+03  0.46330380371E+03  0.00000000000E+00 0. -1.
         -1   -1    0    0    0  501 -0.00000000000E+00 -0.00000000000E+00 -0.74876633170E+02  0.74876633170E+02  0.00000000000E+00 0.  1.
         23    2    1    2    0    0 -0.41346494659E+02  0.14373909547E+03  0.15279034978E+03  0.23233742636E+03  0.90913852168E+02 0.  0.
          5    1    1    2  502    0  0.11324521444E+02 -0.35574843091E+02  0.17340027059E+03  0.17742305512E+03  0.41800000000E+01 0. -1.
         -5    1    1    2    0  502  0.30021973214E+02 -0.10816425238E+03  0.62236550175E+02  0.12841995540E+03  0.41800000000E+01 0. -1.
        -11    1    3    3    0    0 -0.57995557417E+02  0.50536957289E+02  0.91560027722E+02  0.11958556522E+03  0.00000000000E+00 0.  1.
         11    1    3    3    0    0  0.16649062758E+02  0.93202138181E+02  0.61230322056E+02  0.11275186114E+03  0.00000000000E+00 0. -1.
</event>
<event>
 7    1  0.6610867E-006  0.1113357E+03  0.7561462E-02  0.1258116E+00
          1   -1    0    0  501    0  0.00000000000E+00  0.00000000000E+00  0.15572191277E+04  0.15572191277E+04  0.00000000000E+00 0. -1.
         -1   -1    0    0    0  501 -0.00000000000E+00 -0.00000000000E+00 -0.16812674265E+02  0.16812674265E+02  0.00000000000E+00 0.  1.
         23    2    1    2    0    0  0.29402082874E+02  0.88263788841E+02  0.30973642512E+03  0.33352761587E+03  0.81541637241E+02 0.  0.
          5    1    1    2  502    0  0.15616050465E+02 -0.18412086080E+02  0.87062202306E+03  0.87096673035E+03  0.41800000000E+01 0. -1.
         -5    1    1    2    0  502 -0.45018133339E+02 -0.69851702761E+02  0.36004800527E+03  0.36953745575E+03  0.41800000000E+01 0. -1.
        -11    1    3    3    0    0  0.44315711806E+02  0.26962616316E+02  0.20315816036E+03  0.20967618632E+03  0.00000000000E+00 0. -1.
         11    1    3    3    0    0 -0.14913628932E+02  0.61301172526E+02  0.10657826477E+03  0.12385142955E+03  0.00000000000E+00 0.  1.
</event>
<event>
 7    1  0.6610867E-006  0.1213288E+03  0.7561462E-02  0.1240921E+00
          3   -1    0    0  501    0  0.00000000000E+00  0.00000000000E+00  0.10074910257E+04  0.10074910257E+04  0.00000000000E+00 0. -1.
         -3   -1    0    0    0  501 -0.00000000000E+00 -0.00000000000E+00 -0.21167903861E+02  0.21167903861E+02  0.00000000000E+00 0.  1.
         23    2    1    2    0    0 -0.95819482122E+01  0.88401179786E+02  0.32611237541E+03  0.35084489615E+03  0.94001475744E+02 0.  0.
          5    1    1    2  502    0  0.47033125465E+02 -0.10211424847E+03  0.45322275889E+03  0.46697727590E+03  0.41800000000E+01 0. -1.
         -5    1    1    2    0  502 -0.37451177253E+02  0.13713068686E+02  0.20698798758E+03  0.21083675754E+03  0.41800000000E+01 0. -1.
        -11    1    3    3    0    0 -0.12386125859E+02  0.48600095165E+02  0.29762006989E+03  0.30181632058E+03  0.00000000000E+00 0. -1.
         11    1    3    3    0    0  0.28041776473E+01  0.39801084622E+02  0.28492305518E+02  0.49028575577E+02  0.00000000000E+00 0.  1.
</event>
<event>
 7    1  0.6610867E-006  0.1320228E+03  0.7561462E-02  0.1224485E+00
          2   -1    0    0  501    0  0.00000000000E+00  0.00000000000E+00  0.60910385571E+03  0.60910385571E+03  0.00000000000E+00 0. -1.
         -2   -1    0    0    0  501 -0.00000000000E+00 -0.00000000000E+00 -0.50809271590E+02  0.50809271590E+02  0.00000000000E+00 0.  1.
         23    2    1    2    0    0  0.10546563888E+02  0.99157962970E+02  0.99320923101E+02  0.16839886266E+03  0.92466207609E+02 0.  0.
          5    1    1    2  502    0 -0.47839456919E+01 -0.12358267707E+03  0.23039516310E+03  0.26152431586E+03  0.41800000000E+01 0. -1.
         -5    1    1    2    0  502 -0.57626181962E+01  0.24424714097E+02  0.22857849792E+03  0.22998994878E+03  0.41800000000E+01 0.  1.
        -11    1    3    3    0    0 -0.18998515765E+02  0.11161076082E+02  0.66317004204E+02  0.69881744878E+02  0.00000000000E+00 0. -1.
         11    1    3    3    0    0  0.29545079653E+02  0.87996886888E+02  0.33003918897E+02  0.98517117783E+02  0.00000000000E+00 0.  1.
</event>
<event>
 7    1  0.6610867E-006  0.1040261E+03  0.7561462E-02  0.1272050E+00
          1   -1    0    0  501    0  0.00000000000E+00  0.00000000000E+00  0.46975403179E+03  0.46975403179E+03  0.00000000000E+00 0. -1.
         -1   -1    0    0    0  501 -0.00000000000E+00 -0.00000000000E+00 -0.30889951328E+02  0.30889951328E+02  0.00000000000E+00 0.  1.
         23    2    1    2    0    0  0.20384582820E+01  0.40243106773E+02  0.12120237595E+03  0.15685576753E+03  0.91049727722E+02 0.  0.
          5    1    1    2  502    0 -0.50749538054E+02 -0.54934167230E+02  0.23484779039E+03  0.24650402713E+03  0.41800000000E+01 0.  1.
         -5    1    1    2    0  502  0.48711079772E+02  0.14691060457E+02  0.82813914126E+02  0.97284188451E+02  0.41800000000E+01 0.  1.
        -11    1    3    3    0    0  0.11180130885E+01  0.61155154642E+02  0.12138276751E+03  0.13592269546E+03  0.00000000000E+00 0. -1.
         11    1    3    3    0    0  0.92044519355E+00 -0.20912047869E+02 -0.18039156006E+00  0.20933072076E+02  0.00000000000E+00 0.  1.
</event>
<event>
 7    1  0.6610867E-006  0.1104462E+03  0.7561462E-02  0.1259746E+00
          2   -1    0    0  501    0  0.00000000000E+00  0.00000000000E+00  0.27745476498E+03  0.27745476498E+03  0.00000000000E+00 0. -1.
         -2   -1    0    0    0  501 -0.00000000000E+00 -0.00000000000E+00 -0.62083911363E+02  0.62083911363E+02  0.00000000000E+00 0.  1.
         23    2    1    2    0    0  0.51148609084E+02  0.11339236503E+02  0.30302464625E+02  0.11009914552E+03  0.91971865186E+02 0.  0.
          5    1    1    2  502    0 -0.58697854965E+02  0.47119766041E+02  0.11828476085E+03  0.14026570350E+03  0.41800000000E+01 0. -1.
         -5    1    1    2    0  502  0.75492458818E+01 -0.58459002544E+02  0.66783628146E+02  0.89173827327E+02  0.41800000000E+01 0. -1.
        -11    1    3    3    0    0  0.58401298614E+02  0.30528360734E+02 -0.82649777201E+01  0.66415377328E+02  0.00000000000E+00 0.  1.
         11    1    3    3    0    0 -0.72526895308E+01 -0.19189124231E+02  0.38567442345E+02  0.43683768189E+02  0.00000000000E+00 0. -1.
</event>
<event>
 7    1  0.6610867E-006  0.1372465E+03  0.7561462E-02  0.1217083E+00
         -2   -1    0    0    0  501 -0.00000000000E+00  0.00000000000E+00  0.18368988113E+02  0.18368988113E+02  0.00000000000E+00 0.  1.
          2   -1    0    0  501    0  0.00000000000E+00 -0.00000000000E+00 -0.12402749003E+04  0.12402749003E+04  0.00000000000E+00 0. -1.
         23    2    1    2    0    0 -0.98234580645E+02 -0.21471049859E+02 -0.68500311961E+03  0.69826651489E+03  0.90751380808E+02 0.  0.
          5    1    1    2  502    0  0.11554546403E+03  0.30690334143E+02 -0.30517202537E+03  0.32778054905E+03  0.41800000000E+01 0. -1.
         -5    1    1    2    0  502 -0.17310883386E+02 -0.92192842831E+01 -0.23173076723E+03  0.23259682450E+03  0.41800000000E+01 0. -1.
        -11    1    3    3    0    0 -0.68404978474E+02 -0.56560264653E+02 -0.48204339911E+03  0.49014706287E+03  0.00000000000E+00 0.  1.
         11    1    3    3    0    0 -0.29829602171E+02  0.35089214794E+02 -0.20295972051E+03  0.20811945202E+03  0.00000000000E+00 0. -1.
</event>
<event>
 7    1  0.6610867E-006  0.1656198E+03  0.7561462E-02  0.1182494E+00
          2   -1    0    0  501    0  0.00000000000E+00  0.00000000000E+00  0.15760471388E+04  0.15760471388E+04  0.00000000000E+00 0.  1.
         -2   -1    0    0    0  501 -0.00000000000E+00 -0.00000000000E+00 -0.22220760725E+02  0.22220760725E+02  0.00000000000E+00 0. -1.
         23    2    1    2    0    0 -0.10348912330E+03 -0.90570409356E+02  0.46067044449E+03  0.48941682081E+03  0.91643703387E+02 0.  0.
          5    1    1    2  502    0 -0.49010698456E+01 -0.18492343441E+02  0.31673940329E+03  0.31734414954E+03  0.41800000000E+01 0.  1.
         -5    1    1    2    0  502  0.10839019315E+03  0.10906275280E+03  0.77641653031E+03  0.79150692919E+03  0.41800000000E+01 0.  1.
        -11    1    3    3    0    0 -0.54419586671E+02  0.46275594599E+00  0.95853344743E+02  0.11022508451E+03  0.00000000000E+00 0. -1.
         11    1    3    3    0    0 -0.49069536634E+02 -0.91033165302E+02  0.36481709975E+03  0.37919173630E+03  0.00000000000E+00 0.  1.
</event>
<event>
 7    1  0.6610867E-006  0.1010551E+03  0.7561462E-02  0.1278093E+00
          2   -1    0    0  501    0  0.00000000000E+00  0.00000000000E+00  0.67105153713E+03  0.67105153713E+03  0.00000000000E+00 0. -1.
         -2   -1    0    0    0  501 -0.00000000000E+00 -0.00000000000E+00 -0.21465601400E+02  0.21465601400E+02  0.00000000000E+00 0.  1.
         23    2    1    2    0    0 -0.31684034614E+02  0.19091148655E+02  0.24061248061E+03  0.26092628842E+03  0.93913854984E+02 0.  0.
          5    1    1    2  502    0  0.41677853325E+02  0.38956813840E+02  0.86153217176E+02  0.10341434152E+03  0.41800000000E+01 0. -1.
         -5    1    1    2    0  502 -0.99938187111E+01 -0.58047962495E+02  0.32282023795E+03  0.32817650860E+03  0.41800000000E+01 0.  1.
        -11    1    3    3    0    0 -0.57610615411E+02  0.10615379649E+02  0.86827758823E+02  0.10474124782E+03  0.00000000000E+00 0.  1.
         11    1    3    3    0    0  0.25926580797E+02  0.84757690065E+01  0.15378472178E+03  0.15618504060E+03  0.00000000000E+00 0. -1.
</event>
<event>
 7    1  0.6610867E-006  0.1104384E+03  0.7561462E-02  0.1259760E+00
         -2   -1    0    0    0  501 -0.00000000000E+00  0.00000000000E+00  0.19073146111E+02  0.19073146111E+02  0.00000000000E+00 0.  1.
          2   -1    0    0  501    0  0.00000000000E+00 -0.00000000000E+00 -0.92191483049E+03  0.92191483049E+03  0.00000000000E+00 0. -1.
         23    2    1    2    0    0 -0.51689940296E+02  0.92350854787E+00 -0.50534114829E+03  0.52107563377E+03  0.11609236476E+03 0.  0.
          5    1    1    2  502    0  0.65198053923E+02 -0.23488725049E+02 -0.10301882197E+03  0.12422904861E+03  0.41800000000E+01 0.  1.
         -5    1    1    2    0  502 -0.13508113627E+02  0.22565216501E+02 -0.29448171412E+03  0.29568329422E+03  0.41800000000E+01 0.  1.
        -11    1    3    3    0    0  0.23138717030E+01 -0.50320798301E+02 -0.25371131808E+03  0.25866381592E+03  0.00000000000E+00 0. -1.
         11    1    3    3    0    0 -0.54003811999E+02  0.51244306848E+02 -0.25162983021E+03  0.26241181785E+03  0.00000000000E+00 0.  1.
</event>
<event>
 7    1  0.6610867E-006  0.9848090E+02  0.7561462E-02  0.1283523E+00
          3   -1    0    0  501    0  0.00000000000E+00  0.00000000000E+00  0.11405741060E+03  0.11405741060E+03  0.00000000000E+00 0. -1.
         -3   -1    0    0    0  501 -0.00000000000E+00 -0.00000000000E+00 -0.16503165673E+03  0.16503165673E+03  0.00000000000E+00 0.  1.
         23    2    1    2    0    0  0.14718457363E+02  0.72830846903E+02 -0.62259534814E+02  0.13315840031E+03  0.91290441173E+02 0.  0.
          5    1    1    2  502    0  0.24670549787E+02 -0.17317291553E+02 -0.47154061971E+02  0.56120429202E+02  0.41800000000E+01 0. -1.
         -5    1    1    2    0  502 -0.39389007150E+02 -0.55513555350E+02  0.58439350658E+02  0.89810237819E+02  0.41800000000E+01 0. -1.
        -11    1    3    3    0    0  0.22853962024E+02 -0.21128629194E+01 -0.52306262758E+02  0.57120161884E+02  0.00000000000E+00 0.  1.
         11    1    3    3    0    0 -0.81355046611E+01  0.74943709822E+02 -0.99532720553E+01  0.76038238424E+02  0.00000000000E+00 0. -1.
</event>
<event>
 7    1  0.6610867E-006  0.1964704E+03  0.7561462E-02  0.1152752E+00
         -2   -1    0    0    0  501 -0.00000000000E+00  0.00000000000E+00  0.88918301191E+02  0.88918301191E+02  0.00000000000E+00 0.  1.
          2   -1    0    0  501    0  0.00000000000E+00 -0.00000000000E+00 -0.65168562981E+03  0.65168562981E+03  0.00000000000E+00 0. -1.
         23    2    1    2    0    0 -0.10767183001E+03  0.15108278718E+03 -0.10595220336E+03  0.23193133171E+03  0.90260964283E+02 0.  0.
          5    1    1    2  502    0  0.81228424563E+02 -0.15466982535E+03 -0.44698053262E+03  0.47992695358E+03  0.41800000000E+01 0.  1.
         -5    1    1    2    0  502  0.26443405450E+02  0.35870381734E+01 -0.98345926370E+01  0.28745645705E+02  0.41800000000E+01 0.  1.
        -11    1    3    3    0    0 -0.87112673467E+02  0.83999194312E+02 -0.22818928848E+02  0.12314700986E+03  0.00000000000E+00 0.  1.
         11    1    3    3    0    0 -0.20559156546E+02  0.67083592868E+02 -0.83133274515E+02  0.10878432186E+03  0.00000000000E+00 0. -1.
</event>
<event>
 7    1  0.6610867E-006  0.3430649E+03  0.7561462E-02  0.1065498E+00
         -1   -1    0    0    0  501 -0.00000000000E+00  0.00000000000E+00  0.28573924547E+02  0.28573924547E+02  0.00000000000E+00 0.  1.
          1   -1    0    0  501    0  0.00000000000E+00 -0.00000000000E+00 -0.41348432081E+04  0.41348432081E+04  0.00000000000E+00 0. -1.
         23    2    1    2    0    0  0.32553140282E+03  0.49748533512E+01 -0.19415471522E+04  0.19707785594E+04  0.91473179485E+02 0.  0.
          5    1    1    2  502    0 -0.10879372155E+03 -0.60022932026E+02 -0.84550902865E+03  0.85460038389E+03  0.41800000000E+01 0. -1.
         -5    1    1    2    0  502 -0.21673768127E+03  0.55048078675E+02 -0.13192131027E+04  0.13380381893E+04  0.41800000000E+01 0. -1.
        -11    1    3    3    0    0  0.15939410059E+03  0.48121220172E+02 -0.96856305025E+03  0.98276981712E+03  0.00000000000E+00 0.  1.
         11    1    3    3    0    0  0.16613730223E+03 -0.43146366820E+02 -0.97298410195E+03  0.98800874227E+03  0.00000000000E+00 0. -1.
</event>
<event>
 7    1  0.6610867E-006  0.1391435E+03  0.7561462E-02  0.1214486E+00
          2   -1    0    0  501    0  0.00000000000E+00  0.00000000000E+00  0.54185250931E+03  0.54185250931E+03  0.00000000000E+00 0. -1.
         -2   -1    0    0    0  501 -0.00000000000E+00 -0.00000000000E+00 -0.54449659177E+02  0.54449659177E+02  0.00000000000E+00 0.  1.
         23    2    1    2    0    0  0.10086834237E+03  0.68941071964E+01  0.79863050780E+02  0.15817306287E+03  0.91753254613E+02 0.  0.
          5    1    1    2  502    0 -0.10628772224E+03  0.34230389798E+02  0.34757909757E+03  0.36509930287E+03  0.41800000000E+01 0. -1.
         -5    1    1    2    0  502  0.54193798691E+01 -0.41124496994E+02  0.59960701777E+02  0.73029802744E+02  0.41800000000E+01 0. -1.
        -11    1    3    3    0    0  0.70095062957E+02  0.39139285331E+02  0.18595915738E+02  0.82407582111E+02  0.00000000000E+00 0.  1.
         11    1    3    3    0    0  0.30773279414E+02 -0.32245178135E+02  0.61267135042E+02  0.75765480762E+02  0.00000000000E+00 0. -1.
</event>
<event>
 7    1  0.6610867E-006  0.1547257E+03  0.7561462E-02  0.1194783E+00
         -2   -1    0    0    0  501 -0.00000000000E+00  0.00000000000E+00  0.77244783158E+02  0.77244783158E+02  0.00000000000E+00 0. -1.
          2   -1    0    0  501    0  0.00000000000E+00 -0.00000000000E+00 -0.41632393370E+03  0.41632393370E+03  0.00000000000E+00 0.  1.
         23    2    1    2    0    0 -0.11995335245E+03  0.76858433047E+02 -0.15795533457E+03  0.23136861701E+03  0.91024852222E+02 0.  0.
          5    1    1    2  502    0  0.36046033616E+02 -0.27427119977E+02 -0.15464045142E+03  0.16119151673E+03  0.41800000000E+01 0. -1.
         -5    1    1    2    0  502  0.83907318834E+02 -0.49431313070E+02 -0.26483364546E+02  0.10100858312E+03  0.41800000000E+01 0. -1.
        -11    1    3    3    0    0 -0.18008144126E+02  0.60646509669E+02 -0.41064406391E+02  0.75422661463E+02  0.00000000000E+00 0. -1.
         11    1    3    3    0    0 -0.10194520832E+03  0.16211923378E+02 -0.11689092818E+03  0.15594595555E+03  0.00000000000E+00 0.  1.
</event>
<event>
 7    1  0.6610867E-006  0.9738550E+02  0.7561462E-02  0.1285892E+00
         -1   -1    0    0    0  501 -0.00000000000E+00  0.00000000000E+00  0.66379808428E+02  0.66379808428E+02  0.00000000000E+00 0.  1.
          1   -1    0    0  501    0  0.00000000000E+00 -0.00000000000E+00 -0.29344770997E+03  0.29344770997E+03  0.00000000000E+00 0. -1.
         23    2    1    2    0    0  0.33891408843E+02  0.20778205097E+02 -0.22152749368E+01  0.99468788870E+02  0.91152460832E+02 0.  0.
          5    1    1    2  502    0  0.13842401766E+02  0.45704143461E+02 -0.10170012687E+03  0.11243161931E+03  0.41800000000E+01 0. -1.
         -5    1    1    2    0  502 -0.47733810609E+02 -0.66482348558E+02 -0.12315249974E+03  0.14792711021E+03  0.41800000000E+01 0. -1.
        -11    1    3    3    0    0  0.14394069096E+02 -0.17057708362E+02 -0.37861036978E+02  0.43950116732E+02  0.00000000000E+00 0. -1.
         11    1    3    3    0    0  0.19497339747E+02  0.37835913459E+02  0.35645762041E+02  0.55518672138E+02  0.00000000000E+00 0.  1.
</event>
<event>
 7    1  0.6610867E-006  0.1192471E+03  0.7561462E-02  0.1244344E+00
          2   -1    0    0  501    0  0.00000000000E+00  0.00000000000E+00  0.80372831126E+02  0.80372831126E+02  0.00000000000E+00 0. -1.
         -2   -1    0    0    0  501 -0.00000000000E+00 -0.00000000000E+00 -0.20189006596E+03  0.20189006596E+03  0.00000000000E+00 0.  1.
         23    2    1    2    0    0 -0.63799044498E+02 -0.45340322135E+00 -0.75640948894E+02  0.13453636126E+03  0.91147987893E+02 0.  0.
          5    1    1    2  502    0  0.91114047373E+02  0.24980081327E+02 -0.55360141322E+02  0.10958098256E+03  0.41800000000E+01 0.  1.
         -5    1    1    2    0  502 -0.27315002875E+02 -0.24526678105E+02  0.94838553868E+01  0.38145553266E+02  0.41800000000E+01 0.  1.
        -11    1    3    3    0    0 -0.24436717474E+02  0.42307665652E+02 -0.53209543893E+02  0.72238129095E+02  0.00000000000E+00 0.  1.
         11    1    3    3    0    0 -0.39362327024E+02 -0.42761068874E+02 -0.22431405001E+02  0.62298232160E+02  0.00000000000E+00 0. -1.
</event>
<event>
 7    1  0.6610867E-006  0.1203902E+03  0.7561462E-02  0.1242455E+00
          1   -1    0    0  501    0  0.00000000000E+00  0.00000000000E+00  0.29088573379E+04  0.29088573379E+04  0.00000000000E+00 0. -1.
         -1   -1    0    0    0  501 -0.00000000000E+00 -0.00000000000E+00 -0.84109791139E+01  0.84109791139E+01  0.00000000000E+00 0.  1.
         23    2    1    2    0    0  0.71938289747E+01  0.27150036964E+02  0.33814202515E+03  0.35060355547E+03  0.88283340755E+02 0.  0.
          5    1    1    2  502    0 -0.31163664778E+02  0.54877858005E+02  0.12170095973E+04  0.12186519542E+04  0.41800000000E+01 0. -1.
         -5    1    1    2    0  502  0.23969835803E+02 -0.82027894969E+02  0.13452947363E+04  0.13480128073E+04  0.41800000000E+01 0.  1.
        -11    1    3    3    0    0  0.46961836573E+02  0.73002210309E+01  0.15360138444E+03  0.16078585952E+03  0.00000000000E+00 0.  1.
         11    1    3    3    0    0 -0.39768007598E+02  0.19849815933E+02  0.18454064071E+03  0.18981769595E+03  0.00000000000E+00 0. -1.
</event>
<event>
 7    1  0.6610867E-006  0.1312084E+03  0.7561462E-02  0.1225674E+00
          2   -1    0    0  501    0  0.00000000000E+00  0.00000000000E+00  0.20739587084E+04  0.20739587084E+04  0.00000000000E+00 0. -1.
         -2   -1    0    0    0  501 -0.00000000000E+00 -0.00000000000E+00 -0.10852651439E+02  0.10852651439E+02  0.00000000000E+00 0.  1.
         23    2    1    2    0    0 -0.50480635419E+02 -0.78760295002E+02  0.63565025177E+03  0.64883470657E+03  0.90464110315E+02 0.  0.
          5    1    1    2  502    0  0.12931121470E+02  0.91758276245E+02  0.56237040899E+03  0.56996907326E+03  0.41800000000E+01 0. -1.
         -5    1    1    2    0  502  0.37549513949E+02 -0.12997981243E+02  0.86508539619E+03  0.86600758000E+03  0.41800000000E+01 0. -1.
        -11    1    3    3    0    0 -0.68910312993E+02 -0.85736358567E+02  0.51857400294E+03  0.53011164008E+03  0.00000000000E+00 0.  1.
         11    1    3    3    0    0  0.18429677574E+02  0.69760635649E+01  0.11707624883E+03  0.11872306650E+03  0.00000000000E+00 0. -1.
</event>
<event>
 7    1  0.6610867E-006  0.2053435E+03  0.7561462E-02  0.1145307E+00
          2   -1    0    0  501    0  0.00000000000E+00  0.00000000000E+00  0.94071997775E+02  0.94071997775E+02  0.00000000000E+00 0. -1.
         -2   -1    0    0    0  501 -0.00000000000E+00 -0.00000000000E+00 -0.50533122708E+03  0.50533122708E+03  0.00000000000E+00 0.  1.
         23    2    1    2    0    0  0.18364603792E+03  0.43832800833E+02 -0.20125482748E+03  0.29053874410E+03  0.90895954638E+02 0.  0.
          5    1    1    2  502    0 -0.90443141512E+02  0.31997423690E+02 -0.13991786922E+03  0.16970055833E+03  0.41800000000E+01 0. -1.
         -5    1    1    2    0  502 -0.93202896411E+02 -0.75830224523E+02 -0.70086532602E+02  0.13916392242E+03  0.41800000000E+01 0. -1.
        -11    1    3    3    0    0  0.14305260412E+03  0.13361668417E+02 -0.19058177158E+03  0.23867130826E+03  0.00000000000E+00 0.  1.
         11    1    3    3    0    0  0.40593433804E+02  0.30471132416E+02 -0.10673055893E+02  0.51867435842E+02  0.00000000000E+00 0. -1.
</event>
<event>
 7    1  0.6610867E-006  0.1095940E+03  0.7561462E-02  0.1261324E+00
          2   -1    0    0  501    0  0.00000000000E+00  0.00000000000E+00  0.25542020481E+03  0.25542020481E+03  0.00000000000E+00 0. -1.
         -2   -1    0    0    0  501 -0.00000000000E+00 -0.00000000000E+00 -0.73480067908E+02  0.73480067908E+02  0.00000000000E+00 0.  1.
         23    2    1    2    0    0  0.37658347628E+02  0.15160249776E+02 -0.26154594027E+01  0.10227753952E+03  0.93839597952E+02 0.  0.
          5    1    1    2  502    0 -0.72582325823E+02  0.10600891149E+02  0.16122063291E+03  0.17717262145E+03  0.41800000000E+01 0. -1.
         -5    1    1    2    0  502  0.34923978195E+02 -0.25761140926E+02  0.23334963389E+02  0.49450111740E+02  0.41800000000E+01 0. -1.
        -11    1    3    3    0    0  0.12918704027E+02 -0.39801420419E+02 -0.35646976246E+01  0.41997060019E+02  0.00000000000E+00 0.  1.
         11    1    3    3    0    0  0.24739643602E+02  0.54961670195E+02  0.94923822196E+00  0.60280479505E+02  0.00000000000E+00 0. -1.
</event>
<event>
 7    1  0.6610867E-006  0.1505431E+03  0.7561462E-02  0.1199807E+00
         -1   -1    0    0    0  501 -0.00000000000E+00  0.00000000000E+00  0.31818533064E+02  0.31818533064E+02  0.00000000000E+00 0.  1.
          1   -1    0    0  501    0  0.00000000000E+00 -0.00000000000E+00 -0.76790346096E+03  0.76790346096E+03  0.00000000000E+00 0. -1.
         23    2    1    2    0    0  0.81766313417E+02 -0.72074958177E+02 -0.27546504975E+03  0.31012995852E+03  0.91755479020E+02 0.  0.
          5    1    1    2  502    0  0.29691929088E+02 -0.45313250770E+01 -0.95939770912E+02  0.10061836613E+03  0.41800000000E+01 0. -1.
         -5    1    1    2    0  502 -0.11145824250E+03  0.76606283254E+02 -0.36468010724E+03  0.38897366938E+03  0.41800000000E+01 0. -1.
        -11    1    3    3    0    0  0.79846017831E+02 -0.18655250921E+02 -0.21108282805E+03  0.22644947615E+03  0.00000000000E+00 0. -1.
         11    1    3    3    0    0  0.19202955866E+01 -0.53419707256E+02 -0.64382221698E+02  0.83680482367E+02  0.00000000000E+00 0.  1.
</event>
<event>
 7    1  0.6610867E-006  0.6454291E+02  0.7561462E-02  0.1379699E+00
         -3   -1    0    0    0  501 -0.00000000000E+00  0.00000000000E+00  0.22872319990E+03  0.22872319990E+03  0.00000000000E+00 0.  1.
          3   -1    0    0  501    0  0.00000000000E+00 -0.00000000000E+00 -0.52525274381E+02  0.52525274381E+02  0.00000000000E+00 0. -1.
         23    2    1    2    0    0  0.14407625186E+02  0.10793108429E+02  0.70755256213E+02  0.11666075547E+03  0.90990959619E+02 0.  0.
          5    1    1    2  502    0 -0.21853666401E+02 -0.24246353833E+02 -0.19753543237E+02  0.38381548689E+02  0.41800000000E+01 0.  1.
         -5    1    1    2    0  502  0.74460412143E+01  0.13453245404E+02  0.12519621254E+03  0.12620617012E+03  0.41800000000E+01 0.  1.
        -11    1    3    3    0    0  0.24423338761E+02 -0.29744464102E+02  0.50598164099E+01  0.38817964437E+02  0.00000000000E+00 0. -1.
         11    1    3    3    0    0 -0.10015713575E+02  0.40537572530E+02  0.65695439803E+02  0.77842791035E+02  0.00000000000E+00 0.  1.
</event>
<event>
 7    1  0.6610867E-006  0.8997131E+02  0.7561462E-02  0.1302921E+00
         -1   -1    0    0    0  501 -0.00000000000E+00  0.00000000000E+00  0.10969983459E+03  0.10969983459E+03  0.00000000000E+00 0.  1.
          1   -1    0    0  501    0  0.00000000000E+00 -0.00000000000E+00 -0.30080185550E+04  0.30080185550E+04  0.00000000000E+00 0. -1.
         23    2    1    2    0    0 -0.34324328685E+02  0.18431282030E+02  0.85886079894E+02  0.13012783607E+03  0.89660266028E+02 0.  0.
          5    1    1    2  502    0  0.51123083372E+02  0.27800265376E+02 -0.25367416709E+04  0.25374125013E+04  0.41800000000E+01 0. -1.
         -5    1    1    2    0  502 -0.16798754687E+02 -0.46231547405E+02 -0.44746312940E+03  0.45017805223E+03  0.41800000000E+01 0.  1.
        -11    1    3    3    0    0 -0.25289016759E+02 -0.20320918300E+02  0.84275001414E+02  0.90303654148E+02  0.00000000000E+00 0. -1.
         11    1    3    3    0    0 -0.90353119261E+01  0.38752200329E+02  0.16110784796E+01  0.39824181923E+02  0.00000000000E+00 0.  1.
</event>
<event>
 7    1  0.6610867E-006  0.9569823E+02  0.7561462E-02  0.1289611E+00
          2   -1    0    0  501    0  0.00000000000E+00  0.00000000000E+00  0.10832519304E+04  0.10832519304E+04  0.00000000000E+00 0. -1.
         -2   -1    0    0    0  501 -0.00000000000E+00 -0.00000000000E+00 -0.11602856943E+02  0.11602856943E+02  0.00000000000E+00 0.  1.
         23    2    1    2    0    0  0.24655265218E+01  0.14294262586E+02  0.26059700302E+03  0.27408367011E+03  0.83669919800E+02 0.  0.
          5    1    1    2  502    0 -0.48596575324E+02 -0.46495466303E+02  0.36528707668E+03  0.37145063778E+03  0.41800000000E+01 0. -1.
         -5    1    1    2    0  502  0.46131048802E+02  0.32201203717E+02  0.44576499376E+03  0.44932047944E+03  0.41800000000E+01 0. -1.
        -11    1    3    3    0    0  0.15892304855E+02  0.37532472191E+02  0.22912554714E+03  0.23272251325E+03  0.00000000000E+00 0. -1.
         11    1    3    3    0    0 -0.13426778333E+02 -0.23238209605E+02  0.31471455873E+02  0.41361156860E+02  0.00000000000E+00 0.  1.
</event>
<event>
 7    1  0.1025011E-005  0.1053309E+03  0.7561462E-02  0.1269469E+00
         -2   -1    0    0    0  501 -0.00000000000E+00  0.00000000000E+00  0.26575882371E+02  0.26575882371E+02  0.00000000000E+00 0.  1.
          2   -1    0    0  501    0  0.00000000000E+00 -0.00000000000E+00 -0.62384389841E+03  0.62384389841E+03  0.00000000000E+00 0. -1.
         23    2    1    2    0    0 -0.59022493055E+02 -0.34025268956E+02 -0.23687029880E+03  0.26289490878E+03  0.91459395337E+02 0.  0.
          5    1    1    2  502    0 -0.13830346774E+02  0.61917127279E+02 -0.14230922443E+03  0.15586659969E+03  0.41800000000E+01 0.  1.
         -5    1    1    2    0  502  0.72852839829E+02 -0.27891858323E+02 -0.21808849281E+03  0.23165827230E+03  0.41800000000E+01 0.  1.
        -11    1    3    3    0    0 -0.29476458624E+02 -0.10853419966E+02 -0.10038357852E+02  0.32976157543E+02  0.00000000000E+00 0.  1.
         11    1    3    3    0    0 -0.29546034431E+02 -0.23171848990E+02 -0.22683194095E+03  0.22991875124E+03  0.00000000000E+00 0. -1.
</event>
<event>
 7    1  0.6610867E-006  0.1129163E+03  0.7561462E-02  0.1255263E+00
         -1   -1    0    0    0  501 -0.00000000000E+00  0.00000000000E+00  0.52975893332E+02  0.52975893332E+02  0.00000000000E+00 0.  1.
          1   -1    0    0  501    0  0.00000000000E+00 -0.00000000000E+00 -0.13118357463E+04  0.13118357463E+04  0.00000000000E+00 0. -1.
         23    2    1    2    0    0 -0.41626460308E+02 -0.23515854258E+02 -0.42843970635E+01  0.10089104712E+03  0.88740575449E+02 0.  0.
          5    1    1    2  502    0  0.87129850200E+02 -0.81091264898E+01 -0.97150183568E+03  0.97544382610E+03  0.41800000000E+01 0. -1.
         -5    1    1    2    0  502 -0.45503389892E+02  0.31624980747E+02 -0.28307362018E+03  0.28847676638E+03  0.41800000000E+01 0.  1.
        -11    1    3    3    0    0 -0.57119762863E+02 -0.31495570221E+02 -0.28396100443E+02  0.71140542403E+02  0.00000000000E+00 0.  1.
         11    1    3    3    0    0  0.15493302555E+02  0.79797159630E+01  0.24111703379E+02  0.29750504714E+02  0.00000000000E+00 0. -1.
</event>
<event>
 7    1  0.6610867E-006  0.8623164E+02  0.7561462E-02  0.1312243E+00
          2   -1    0    0  501    0  0.00000000000E+00  0.00000000000E+00  0.11775933793E+03  0.11775933793E+03  0.00000000000E+00 0. -1.
         -2   -1    0    0    0  501 -0.00000000000E+00 -0.00000000000E+00 -0.14284201439E+03  0.14284201439E+03  0.00000000000E+00 0.  1.
         23    2    1    2    0    0  0.72153492339E+01 -0.47668025382E+02 -0.63337800027E+02  0.12119004785E+03  0.91384073435E+02 0.  0.
          5    1    1    2  502    0 -0.51868221542E+02  0.45773770923E+00  0.51219601743E+02  0.73016723649E+02  0.41800000000E+01 0.  1.
         -5    1    1    2    0  502  0.44652872308E+02  0.47210287673E+02 -0.12964478172E+02  0.66394580816E+02  0.41800000000E+01 0.  1.
        -11    1    3    3    0    0  0.17608910351E+02 -0.31501476509E+02 -0.84932161792E+02  0.92281573744E+02  0.00000000000E+00 0.  1.
         11    1    3    3    0    0 -0.10393561117E+02 -0.16166548872E+02  0.21594361766E+02  0.28908474107E+02  0.00000000000E+00 0. -1.
</event>
<event>
 7    1  0.6610867E-006  0.9610457E+02  0.7561462E-02  0.1288708E+00
          1   -1    0    0  501    0  0.00000000000E+00  0.00000000000E+00  0.14265076376E+04  0.14265076376E+04  0.00000000000E+00 0. -1.
         -1   -1    0    0    0  501 -0.00000000000E+00 -0.00000000000E+00 -0.29255404569E+02  0.29255404569E+02  0.00000000000E+00 0.  1.
         23    2    1    2    0    0 -0.53296822382E+02 -0.49710668269E+02  0.10939835593E+03  0.15979742508E+03  0.90859864442E+02 0.  0.
          5    1    1    2  502    0  0.56613741100E+02  0.70946398704E+02  0.12401781803E+04  0.12435022712E+04  0.41800000000E+01 0.  1.
         -5    1    1    2    0  502 -0.33169187176E+01 -0.21235730434E+02  0.47675696802E+02  0.52463345894E+02  0.41800000000E+01 0.  1.
        -11    1    3    3    0    0 -0.35597828112E+02 -0.11615574945E+02 -0.51430250253E+01  0.37796529656E+02  0.00000000000E+00 0.  1.
         11    1    3    3    0    0 -0.17698994270E+02 -0.38095093324E+02  0.11454138095E+03  0.12200089542E+03  0.00000000000E+00 0. -1.
</event>
<event>
 6    1  0.6610867E-006  0.4931362E+02  0.7561462E-02  0.1449079E+00
         -2   -1    0    0    0  501 -0.00000000000E+00  0.00000000000E+00  0.53849992425E+02  0.53849992425E+02  0.00000000000E+00 0.  1.
          2   -1    0    0  501    0  0.00000000000E+00 -0.00000000000E+00 -0.17100867619E+03  0.17100867619E+03  0.00000000000E+00 0. -1.
          5    1    1    2  502    0  0.39091772335E+01 -0.98314366636E+01 -0.11887021025E+03  0.11941330787E+03  0.41800000000E+01 0. -1.
         -5    1    1    2    0  502 -0.36410979138E+02 -0.11984141510E+02  0.27189621626E+02  0.47181850045E+02  0.41800000000E+01 0.  1.
        -11    1    1    2    0    0  0.17072609761E+02 -0.49688788570E+01 -0.20190476983E+02  0.26903886745E+02  0.00000000000E+00 0. -1.
         11    1    1    2    0    0  0.15429192143E+02  0.26784457031E+02 -0.52876181646E+01  0.31359623953E+02  0.00000000000E+00 0.  1.
</event>
<event>
 7    1  0.6610867E-006  0.8993043E+02  0.7561462E-02  0.1303020E+00
         -2   -1    0    0    0  501 -0.00000000000E+00  0.00000000000E+00  0.33701334811E+02  0.33701334811E+02  0.00000000000E+00 0. -1.
          2   -1    0    0  501    0  0.00000000000E+00 -0.00000000000E+00 -0.42372714399E+03  0.42372714399E+03  0.00000000000E+00 0.  1.
         23    2    1    2    0    0 -0.43646912174E+02  0.25596154387E+02 -0.16224102919E+03  0.19267626206E+03  0.90784218603E+02 0.  0.
          5    1    1    2  502    0  0.70994480799E+02 -0.30176529402E+02 -0.69226628432E+02  0.10373349370E+03  0.41800000000E+01 0.  1.
         -5    1    1    2    0  502 -0.27347568625E+02  0.45803750153E+01 -0.15855815156E+03  0.16101872304E+03  0.41800000000E+01 0.  1.
        -11    1    3    3    0    0  0.64319438912E+01  0.23583592691E+02 -0.13177620711E+03  0.13402434296E+03  0.00000000000E+00 0.  1.
         11    1    3    3    0    0 -0.50078856065E+02  0.20125616959E+01 -0.30464822079E+02  0.58651919096E+02  0.00000000000E+00 0. -1.
</event>
<event>
 7    1  0.6610867E-006  0.1712812E+03  0.7561462E-02  0.1176518E+00
          2   -1    0    0  501    0  0.00000000000E+00  0.00000000000E+00  0.18387503426E+03  0.18387503426E+03  0.00000000000E+00 0. -1.
         -2   -1    0    0    0  501 -0.00000000000E+00 -0.00000000000E+00 -0.21272391674E+03  0.21272391674E+03  0.00000000000E+00 0.  1.
         23    2    1    2    0    0 -0.13549320868E+03 -0.47783258370E+02 -0.94546096869E+02  0.19508929717E+03  0.92082680553E+02 0.  0.
          5    1    1    2  502    0  0.10242113101E+03 -0.25329230175E+02  0.58807794369E+02  0.12086143743E+03  0.41800000000E+01 0. -1.
         -5    1    1    2    0  502  0.33072077663E+02  0.73112488545E+02  0.68894200218E+01  0.80648216412E+02  0.41800000000E+01 0. -1.
        -11    1    3    3    0    0 -0.13302799434E+03 -0.27062738282E+02 -0.47843248063E+02  0.14393684541E+03  0.00000000000E+00 0. -1.
         11    1    3    3    0    0 -0.24652143396E+01 -0.20720520088E+02 -0.46702848805E+02  0.51152451759E+02  0.00000000000E+00 0.  1.
</event>
<event>
 7    1  0.6610867E-006  0.1369261E+03  0.7561462E-02  0.1217526E+00
          1   -1    0    0  501    0  0.00000000000E+00  0.00000000000E+00  0.24362767611E+03  0.24362767611E+03  0.00000000000E+00 0. -1.
         -1   -1    0    0    0  501 -0.00000000000E+00 -0.00000000000E+00 -0.14891243604E+03  0.14891243604E+03  0.00000000000E+00 0.  1.
         23    2    1    2    0    0 -0.11073915306E+03 -0.42293843048E+02 -0.59044858177E+02  0.16159086945E+03  0.92592573307E+02 0.  0.
          5    1    1    2  502    0  0.69220451621E+02  0.50813226067E+02  0.16573732356E+03  0.18670776011E+03  0.41800000000E+01 0. -1.
         -5    1    1    2    0  502  0.41518701436E+02 -0.85193830186E+01 -0.11977225311E+02  0.44241482593E+02  0.41800000000E+01 0. -1.
        -11    1    3    3    0    0 -0.10314080680E+03 -0.83630824659E+00 -0.21972304194E+02  0.10545855864E+03  0.00000000000E+00 0.  1.
         11    1    3    3    0    0 -0.75983462579E+01 -0.41457534802E+02 -0.37072553983E+02  0.56132310807E+02  0.00000000000E+00 0. -1.
</event>
<event>
 7    1  0.6610867E-006  0.2191918E+03  0.7561462E-02  0.1134487E+00
         -1   -1    0    0    0  501 -0.00000000000E+00  0.00000000000E+00  0.55210512536E+02  0.55210512536E+02  0.00000000000E+00 0.  1.
          1   -1    0    0  501    0  0.00000000000E+00 -0.00000000000E+00 -0.15024097526E+04  0.15024097526E+04  0.00000000000E+00 0. -1.
         23    2    1    2    0    0 -0.91583881497E+02 -0.18517523779E+03 -0.25187039303E+03  0.33813828348E+03  0.90671538162E+02 0.  0.
          5    1    1    2  502    0 -0.75946469397E+01  0.30622627705E+02 -0.47627796684E+03  0.47734012830E+03  0.41800000000E+01 0. -1.
         -5    1    1    2    0  502  0.99178528437E+02  0.15455261008E+03 -0.71905088024E+03  0.74214185340E+03  0.41800000000E+01 0. -1.
        -11    1    3    3    0    0 -0.21383446207E+02 -0.13475523616E+03 -0.12791721599E+03  0.18702684190E+03  0.00000000000E+00 0.  1.
         11    1    3    3    0    0 -0.70200435290E+02 -0.50420001624E+02 -0.12395317704E+03  0.15111144158E+03  0.00000000000E+00 0. -1.
</event>
<event>
 7    1  0.6610867E-006  0.9232791E+02  0.7561462E-02  0.1297310E+00
          1   -1    0    0  501    0  0.00000000000E+00  0.00000000000E+00  0.28578814821E+03  0.28578814821E+03  0.00000000000E+00 0. -1.
         -1   -1    0    0    0  501 -0.00000000000E+00 -0.00000000000E+00 -0.71848713178E+02  0.71848713178E+02  0.00000000000E+00 0.  1.
         23    2    1    2    0    0  0.48122836860E+02  0.65375589428E+02  0.11006642887E+03  0.17590398760E+03  0.11062467613E+03 0.  0.
          5    1    1    2  502    0 -0.57150123337E+02 -0.69991941071E+02  0.12712563201E+03  0.15602373898E+03  0.41800000000E+01 0.  1.
         -5    1    1    2    0  502  0.90272864765E+01  0.46163516430E+01 -0.23252625849E+02  0.25709134806E+02  0.41800000000E+01 0.  1.
        -11    1    3    3    0    0  0.16774625420E+02  0.98080275610E+01 -0.21928150276E+02  0.29298963073E+02  0.00000000000E+00 0.  1.
         11    1    3    3    0    0  0.31348211440E+02  0.55567561867E+02  0.13199457915E+03  0.14660502453E+03  0.00000000000E+00 0. -1.
</event>
<event>
 7    1  0.6610867E-006  0.1252197E+03  0.7561462E-02  0.1234726E+00
         -3   -1    0    0    0  501 -0.00000000000E+00  0.00000000000E+00  0.49950642321E+02  0.49950642321E+02  0.00000000000E+00 0.  1.
          3   -1    0    0  501    0  0.00000000000E+00 -0.00000000000E+00 -0.55849229846E+03  0.55849229846E+03  0.00000000000E+00 0. -1.
         23    2    1    2    0    0  0.99901624333E+02  0.24906064176E+02 -0.10365845274E+03  0.17234824197E+03  0.91423165065E+02 0.  0.
          5    1    1    2  502    0 -0.68568717581E+02 -0.62965857749E+02 -0.35004564280E+03  0.36223720504E+03  0.41800000000E+01 0. -1.
         -5    1    1    2    0  502 -0.31332906752E+02  0.38059793573E+02 -0.54837560595E+02  0.73857493759E+02  0.41800000000E+01 0. -1.
        -11    1    3    3    0    0  0.55290403936E+02  0.29951408882E+02 -0.39586191152E+01  0.63006240379E+02  0.00000000000E+00 0.  1.
         11    1    3    3    0    0  0.44611220397E+02 -0.50453447058E+01 -0.99699833622E+02  0.10934200160E+03  0.00000000000E+00 0. -1.
</event>
<event>
 7    1  0.6610867E-006  0.1221852E+03  0.7561462E-02  0.1239535E+00
         -1   -1    0    0    0  501 -0.00000000000E+00  0.00000000000E+00  0.66976904624E+02  0.66976904624E+02  0.00000000000E+00 0.  1.
          1   -1    0    0  501    0  0.00000000000E+00 -0.00000000000E+00 -0.35253703635E+03  0.35253703635E+03  0.00000000000E+00 0. -1.
         23    2    1    2    0    0 -0.60672044143E+02  0.80599320747E+02 -0.77890117517E+02  0.15692819746E+03  0.91554581013E+02 0.  0.
          5    1    1    2  502    0  0.58049943696E+02 -0.47103497768E+02 -0.28291742055E+02  0.80040180744E+02  0.41800000000E+01 0. -1.
         -5    1    1    2    0  502  0.26221004469E+01 -0.33495822979E+02 -0.17937827215E+03  0.18254556277E+03  0.41800000000E+01 0. -1.
        -11    1    3    3    0    0 -0.23860032831E+02 -0.18327008493E+02 -0.23558131724E+02  0.38212118200E+02  0.00000000000E+00 0.  1.
         11    1    3    3    0    0 -0.36812011312E+02  0.98926329239E+02 -0.54331985793E+02  0.11871607926E+03  0.00000000000E+00 0. -1.
</event>
<event>
 7    1  0.6610867E-006  0.1224118E+03  0.7561462E-02  0.1239171E+00
         -3   -1    0    0    0  501 -0.00000000000E+00  0.00000000000E+00  0.12826041111E+02  0.12826041111E+02  0.00000000000E+00 0.  1.
          3   -1    0    0  501    0  0.00000000000E+00 -0.00000000000E+00 -0.13929605984E+04  0.13929605984E+04  0.00000000000E+00 0. -1.
         23    2    1    2    0    0  0.11010176692E+02  0.61057539439E+02 -0.37489527440E+03  0.39089526452E+03  0.91670027524E+02 0.  0.
          5    1    1    2  502    0  0.54203678586E+02 -0.34457682531E+02 -0.61175935931E+03  0.61513604736E+03  0.41800000000E+01 0.  1.
         -5    1    1    2    0  502 -0.65213855278E+02 -0.26599856909E+02 -0.39347992356E+03  0.39975532761E+03  0.41800000000E+01 0.  1.
        -11    1    3    3    0    0 -0.36577965202E+02  0.48390325349E+02 -0.18349873127E+03  0.19326498778E+03  0.00000000000E+00 0.  1.
         11    1    3    3    0    0  0.47588141894E+02  0.12667214090E+02 -0.19139654314E+03  0.19763027674E+03  0.00000000000E+00 0. -1.
</event>
<event>
 7    1  0.6610867E-006  0.1289507E+03  0.7561462E-02  0.1229021E+00
         -2   -1    0    0    0  501 -0.00000000000E+00  0.00000000000E+00  0.23719775718E+02  0.23719775718E+02  0.00000000000E+00 0.  1.
          2   -1    0    0  501    0  0.00000000000E+00 -0.00000000000E+00 -0.83987376209E+03  0.83987376209E+03  0.00000000000E+00 0. -1.
         23    2    1    2    0    0 -0.31891065915E+02  0.77136792386E+02 -0.26839403889E+03  0.29556573148E+03  0.91414532156E+02 0.  0.
          5    1    1    2  502    0 -0.26671647103E+02 -0.81461412239E+02 -0.24495071108E+03  0.25954895820E+03  0.41800000000E+01 0. -1.
         -5    1    1    2    0  502  0.58562713018E+02  0.43246198534E+01 -0.30280923640E+03  0.30847884813E+03  0.41800000000E+01 0. -1.
        -11    1    3    3    0    0 -0.57280583774E+02  0.49777332901E+02 -0.11563171601E+03  0.13830958714E+03  0.00000000000E+00 0.  1.
         11    1    3    3    0    0  0.25389517859E+02  0.27359459484E+02 -0.15276232287E+03  0.15725614433E+03  0.00000000000E+00 0. -1.
</event>
<event>
 7    1  0.6610867E-006  0.1382024E+03  0.7561462E-02  0.1215768E+00
          1   -1    0    0  501    0  0.00000000000E+00  0.00000000000E+00  0.16131354381E+04  0.16131354381E+04  0.00000000000E+00 0. -1.
         -1   -1    0    0    0  501 -0.00000000000E+00 -0.00000000000E+00 -0.19031490691E+02  0.19031490691E+02  0.00000000000E+00 0.  1.
         23    2    1    2    0    0  0.87629013248E+02  0.11383849095E+02  0.26170451097E+03  0.29099371572E+03  0.91540458518E+02 0.  0.
          5    1    1    2  502    0  0.28980576483E+02 -0.14020773535E+02  0.18242811467E+03  0.18529421288E+03  0.41800000000E+01 0. -1.
         -5    1    1    2    0  502 -0.11660958973E+03  0.26369244402E+01  0.11499713218E+04  0.11558790002E+04  0.41800000000E+01 0. -1.
        -11    1    3    3    0    0  0.97760074977E+02 -0.15055323930E+02  0.20464348288E+03  0.22729419289E+03  0.00000000000E+00 0. -1.
         11    1    3    3    0    0 -0.10131061729E+02  0.26439173025E+02  0.57061028093E+02  0.63699522833E+02  0.00000000000E+00 0.  1.
</event>
<event>
 7    1  0.6610867E-006  0.1024903E+03  0.7561462E-02  0.1275145E+00
          3   -1    0    0  501    0  0.00000000000E+00  0.00000000000E+00  0.31447424452E+02  0.31447424452E+02  0.00000000000E+00 0. -1.
         -3   -1    0    0    0  501 -0.00000000000E+00 -0.00000000000E+00 -0.55070728730E+03  0.55070728730E+03  0.00000000000E+00 0.  1.
         23    2    1    2    0    0 -0.15599954700E+02 -0.53217231004E+02 -0.34190105530E+03  0.35815112994E+03  0.91106904245E+02 0.  0.
          5    1    1    2  502    0  0.40029943593E+02  0.60650560389E+02 -0.37710629377E+02  0.81978355848E+02  0.41800000000E+01 0.  1.
         -5    1    1    2    0  502 -0.24429988892E+02 -0.74333293847E+01 -0.13964817818E+03  0.14202522597E+03  0.41800000000E+01 0.  1.
        -11    1    3    3    0    0 -0.15561358654E+02  0.24268588449E+02 -0.80447072990E+02  0.85456724844E+02  0.00000000000E+00 0. -1.
         11    1    3    3    0    0 -0.38596046814E-01 -0.77485819453E+02 -0.26145398231E+03  0.27269440510E+03  0.00000000000E+00 0.  1.
</event>
<event>
 7    1  0.6610867E-006  0.3401370E+03  0.7561462E-02  0.1066738E+00
         -1   -1    0    0    0  501 -0.00000000000E+00  0.00000000000E+00  0.78319394768E+03  0.78319394768E+03  0.00000000000E+00 0.  1.
          1   -1    0    0  501    0  0.00000000000E+00 -0.00000000000E+00 -0.16579608054E+03  0.16579608054E+03  0.00000000000E+00 0. -1.
         23    2    1    2    0    0 -0.32323753464E+03  0.70357651727E+02  0.42496204749E+03  0.54635842821E+03  0.92098248145E+02 0.  0.
          5    1    1    2  502    0  0.37871246619E+01 -0.24267903193E+02  0.36400526532E+02  0.44110590230E+02  0.41800000000E+01 0.  1.
         -5    1    1    2    0  502  0.31945040998E+03 -0.46089748534E+02  0.15603529311E+03  0.35852100978E+03  0.41800000000E+01 0.  1.
        -11    1    3    3    0    0 -0.10751889915E+03  0.40054257659E+02  0.21557066633E+03  0.24420354095E+03  0.00000000000E+00 0.  1.
         11    1    3    3    0    0 -0.21571863549E+03  0.30303394068E+02  0.20939138116E+03  0.30215488726E+03  0.00000000000E+00 0. -1.
</event>
<event>
 7    1  0.6610867E-006  0.9715294E+02  0.7561462E-02  0.1286399E+00
          1   -1    0    0  501    0  0.00000000000E+00  0.00000000000E+00  0.33161981592E+03  0.33161981592E+03  0.00000000000E+00 0. -1.
         -1   -1    0    0    0  501 -0.00000000000E+00 -0.00000000000E+00 -0.50644448641E+02  0.50644448641E+02  0.00000000000E+00 0.  1.
         23    2    1    2    0    0  0.28113371118E+02  0.61727216147E+02  0.97581473013E+02  0.15013524335E+03  0.91748768782E+02 0.  0.
          5    1    1    2  502    0 -0.74429919626E+01  0.54895183004E+01 -0.16952233056E+02  0.19758126078E+02  0.41800000000E+01 0. -1.
         -5    1    1    2    0  502 -0.20670379155E+02 -0.67216734448E+02  0.20034612732E+03  0.21237089512E+03  0.41800000000E+01 0. -1.
        -11    1    3    3    0    0 -0.30883511679E+01 -0.23110473404E+02  0.25215070427E+02  0.34342854723E+02  0.00000000000E+00 0. -1.
         11    1    3    3    0    0  0.31201722286E+02  0.84837689551E+02  0.72366402585E+02  0.11579238863E+03  0.00000000000E+00 0.  1.
</event>
<event>
 7    1  0.6610867E-006  0.9920873E+02  0.7561462E-02  0.1281969E+00
          1   -1    0    0  501    0  0.00000000000E+00  0.00000000000E+00  0.26210614813E+02  0.26210614813E+02  0.00000000000E+00 0. -1.
         -1   -1    0    0    0  501 -0.00000000000E+00 -0.00000000000E+00 -0.48767226856E+03  0.48767226856E+03  0.00000000000E+00 0.  1.
         23    2    1    2    0    0  0.10188390773E+02 -0.26365659244E+02 -0.19300303291E+03  0.21636430268E+03  0.93618318007E+02 0.  0.
          5    1    1    2  502    0 -0.14632723920E+02  0.73310471232E+02 -0.11765007814E+03  0.13945449110E+03  0.41800000000E+01 0.  1.
         -5    1    1    2    0  502  0.44443331468E+01 -0.46944811988E+02 -0.15080854270E+03  0.15806408960E+03  0.41800000000E+01 0.  1.
        -11    1    3    3    0    0 -0.21444312376E+02 -0.37056514347E+02 -0.36264034390E+02  0.56108145390E+02  0.00000000000E+00 0. -1.
         11    1    3    3    0    0  0.31632703149E+02  0.10690855103E+02 -0.15673899852E+03  0.16025615729E+03  0.00000000000E+00 0.  1.
</event>
<event>
 7    1  0.6610867E-006  0.1160629E+03  0.7561462E-02  0.1249737E+00
         -1   -1    0    0    0  501 -0.00000000000E+00  0.00000000000E+00  0.38480312129E+02  0.38480312129E+02  0.00000000000E+00 0.  1.
          1   -1    0    0  501    0  0.00000000000E+00 -0.00000000000E+00 -0.44857651848E+03  0.44857651848E+03  0.00000000000E+00 0. -1.
         23    2    1    2    0    0  0.28148127018E+02  0.66606233188E+02 -0.21178777668E+03  0.24169790867E+03  0.91296820032E+02 0.  0.
          5    1    1    2  502    0 -0.39160096152E+02  0.89670802876E+01 -0.92802002128E+01  0.41442926725E+02  0.41800000000E+01 0. -1.
         -5    1    1    2    0  502  0.11011969134E+02 -0.75573313475E+02 -0.18902822945E+03  0.20391599521E+03  0.41800000000E+01 0. -1.
        -11    1    3    3    0    0  0.39331798669E+02 -0.77237811704E+01 -0.90922958144E+02  0.99366148661E+02  0.00000000000E+00 0. -1.
         11    1    3    3    0    0 -0.11183671651E+02  0.74330014358E+02 -0.12086481854E+03  0.14233176001E+03  0.00000000000E+00 0.  1.
</event>
<event>
 7    1  0.6610867E-006  0.1073568E+03  0.7561462E-02  0.1265544E+00
          1   -1    0    0  501    0  0.00000000000E+00  0.00000000000E+00  0.17036178195E+03  0.17036178195E+03  0.00000000000E+00 0. -1.
         -1   -1    0    0    0  501 -0.00000000000E+00 -0.00000000000E+00 -0.11848860047E+03  0.11848860047E+03  0.00000000000E+00 0.  1.
         23    2    1    2    0    0  0.43858470549E+02 -0.33830333147E+02 -0.49095245966E+02  0.11881793708E+03  0.92947846209E+02 0.  0.
          5    1    1    2  502    0  0.24879784531E+02 -0.87656553600E+01 -0.13415397441E+02  0.29887885182E+02  0.41800000000E+01 0.  1.
         -5    1    1    2    0  502 -0.68738255080E+02  0.42595988507E+02  0.11438382488E+03  0.14014456016E+03  0.41800000000E+01 0.  1.
        -11    1    3    3    0    0  0.54434592223E+02  0.15485437743E+02 -0.17233936370E+02  0.59160224605E+02  0.00000000000E+00 0. -1.
         11    1    3    3    0    0 -0.10576121674E+02 -0.49315770889E+02 -0.31861309597E+02  0.59657712471E+02  0.00000000000E+00 0.  1.
</event>
<event>
 7    1  0.6610867E-006  0.2235935E+03  0.7561462E-02  0.1131232E+00
          1   -1    0    0  501    0  0.00000000000E+00  0.00000000000E+00  0.13332795168E+04  0.13332795168E+04  0.00000000000E+00 0. -1.
         -1   -1    0    0    0  501 -0.00000000000E+00 -0.00000000000E+00 -0.64247570310E+02  0.64247570310E+02  0.00000000000E+00 0.  1.
         23    2    1    2    0    0 -0.14773141500E+03 -0.15929133620E+03  0.23171071346E+03  0.33035515815E+03  0.90809553557E+02 0.  0.
          5    1    1    2  502    0  0.15412503993E+03  0.13772058704E+03  0.10125885716E+04  0.10334769353E+04  0.41800000000E+01 0. -1.
         -5    1    1    2    0  502 -0.63936249298E+01  0.21570749158E+02  0.24732661514E+02  0.33694993761E+02  0.41800000000E+01 0. -1.
        -11    1    3    3    0    0 -0.72184092446E+02 -0.86471048316E+02  0.18249282580E+03  0.21445609544E+03  0.00000000000E+00 0. -1.
         11    1    3    3    0    0 -0.75547322551E+02 -0.72820287885E+02  0.49217887652E+02  0.11589906271E+03  0.00000000000E+00 0.  1.
</event>
<event>
 7    1  0.6610867E-006  0.7456665E+02  0.7561462E-02  0.1345218E+00
         -1   -1    0    0    0  501 -0.00000000000E+00  0.00000000000E+00  0.65330096519E+02  0.65330096519E+02  0.00000000000E+00 0.  1.
          1   -1    0    0  501    0  0.00000000000E+00 -0.00000000000E+00 -0.25669806553E+03  0.25669806553E+03  0.00000000000E+00 0. -1.
         23    2    1    2    0    0  0.13386332786E+02  0.17624059583E+02 -0.19460738424E+01  0.93953350933E+02  0.91288792119E+02 0.  0.
          5    1    1    2  502    0  0.23925977052E+02 -0.34964706716E+02 -0.18090928211E+03  0.18585107976E+03  0.41800000000E+01 0.  1.
         -5    1    1    2    0  502 -0.37312309838E+02  0.17340647134E+02 -0.85126130549E+01  0.42223731354E+02  0.41800000000E+01 0.  1.
        -11    1    3    3    0    0  0.18057501285E+02  0.39183384825E+02 -0.34077052300E+02  0.54978691259E+02  0.00000000000E+00 0. -1.
         11    1    3    3    0    0 -0.46711684989E+01 -0.21559325243E+02  0.32130978458E+02  0.38974659675E+02  0.00000000000E+00 0.  1.
</event>
<event>
 7    1  0.6610867E-006  0.2110286E+03  0.7561462E-02  0.1140754E+00
         -2   -1    0    0    0  501 -0.00000000000E+00  0.00000000000E+00  0.11445389661E+03  0.11445389661E+03  0.00000000000E+00 0.  1.
          2   -1    0    0  501    0  0.00000000000E+00 -0.00000000000E+00 -0.44431797727E+03  0.44431797727E+03  0.00000000000E+00 0. -1.
         23    2    1    2    0    0 -0.10263507932E+03  0.16797658929E+03 -0.17357091908E+03  0.27801451589E+03  0.91733925244E+02 0.  0.
          5    1    1    2  502    0  0.17556973061E+02 -0.10031747288E+03 -0.13622968143E+03  0.17014065114E+03  0.41800000000E+01 0. -1.
         -5    1    1    2    0  502  0.85078106255E+02 -0.67659116413E+02 -0.20063480150E+02  0.11061670685E+03  0.41800000000E+01 0. -1.
        -11    1    3    3    0    0 -0.92873048521E+02  0.79263879797E+02 -0.67940873534E+02  0.13972876611E+03  0.00000000000E+00 0.  1.
         11    1    3    3    0    0 -0.97620307960E+01  0.88712709496E+02 -0.10563004554E+03  0.13828574978E+03  0.00000000000E+00 0. -1.
</event>
<event>
 7    1  0.6610867E-006  0.7144731E+02  0.7561462E-02  0.1355239E+00
         -2   -1    0    0    0  501 -0.00000000000E+00  0.00000000000E+00  0.21200719123E+02  0.21200719123E+02  0.00000000000E+00 0.  1.
          2   -1    0    0  501    0  0.00000000000E+00 -0.00000000000E+00 -0.79418033601E+03  0.79418033601E+03  0.00000000000E+00 0. -1.
         23    2    1    2    0    0  0.31883578925E+02  0.14428862731E+02 -0.15068080087E+03  0.17967069594E+03  0.91389827346E+02 0.  0.
          5    1    1    2  502    0 -0.69907861386E+01 -0.35853801367E+02 -0.58370246132E+03  0.58485930095E+03  0.41800000000E+01 0.  1.
         -5    1    1    2    0  502 -0.24892792786E+02  0.21424938636E+02 -0.38596354693E+02  0.50851058237E+02  0.41800000000E+01 0.  1.
        -11    1    3    3    0    0  0.50504302262E+02  0.18316484715E+01 -0.34156777057E+02  0.60997745057E+02  0.00000000000E+00 0.  1.
         11    1    3    3    0    0 -0.18620723337E+02  0.12597214259E+02 -0.11652402382E+03  0.11867295088E+03  0.00000000000E+00 0. -1.
</event>
<event>
 7    1  0.6610867E-006  0.1301373E+03  0.7561462E-02  0.1227252E+00
          2   -1    0    0  501    0  0.00000000000E+00  0.00000000000E+00  0.82640851797E+03  0.82640851797E+03  0.00000000000E+00 0. -1.
         -2   -1    0    0    0  501 -0.00000000000E+00 -0.00000000000E+00 -0.25622682856E+02  0.25622682856E+02  0.00000000000E+00 0.  1.
         23    2    1    2    0    0 -0.79830267298E+02 -0.41527644344E+02  0.26309674418E+03  0.29269753971E+03  0.91403151663E+02 0.  0.
          5    1    1    2  502    0 -0.20261139919E+02  0.42275052009E+02  0.25767116212E+03  0.26193433147E+03  0.41800000000E+01 0.  1.
         -5    1    1    2    0  502  0.10009140722E+03 -0.74740766455E+00  0.28001792881E+03  0.29739932965E+03  0.41800000000E+01 0.  1.
        -11    1    3    3    0    0 -0.62406445130E+02 -0.60743775134E+02  0.24762874098E+03  0.26249640754E+03  0.00000000000E+00 0. -1.
         11    1    3    3    0    0 -0.17423822168E+02  0.19216130789E+02  0.15468003194E+02  0.30201132168E+02  0.00000000000E+00 0.  1.
</event>
<event>
 7    1  0.6610867E-006  0.1726850E+03  0.7561462E-02  0.1175076E+00
         -2   -1    0    0    0  501 -0.00000000000E+00  0.00000000000E+00  0.15671327524E+02  0.15671327524E+02  0.00000000000E+00 0.  1.
          2   -1    0    0  501    0  0.00000000000E+00 -0.00000000000E+00 -0.25161980421E+04  0.25161980421E+04  0.00000000000E+00 0. -1.
         23    2    1    2    0    0  0.18633333004E+02  0.14961028942E+03 -0.76034837045E+03  0.78069874451E+03  0.92900190731E+02 0.  0.
          5    1    1    2  502    0 -0.42419171414E+02 -0.49584821165E+02 -0.28703235861E+03  0.29438595056E+03  0.41800000000E+01 0.  1.
         -5    1    1    2    0  502  0.23785838410E+02 -0.10002546825E+03 -0.14531459855E+04  0.14567846745E+04  0.41800000000E+01 0.  1.
        -11    1    3    3    0    0 -0.31607929087E+02  0.10580860376E+03 -0.47753616161E+03  0.49013804938E+03  0.00000000000E+00 0.  1.
         11    1    3    3    0    0  0.50241262092E+02  0.43801685659E+02 -0.28281220884E+03  0.29056069513E+03  0.00000000000E+00 0. -1.
</event>
<event>
 7    1  0.6610867E-006  0.1278359E+03  0.7561462E-02  0.1230703E+00
          1   -1    0    0  501    0  0.00000000000E+00  0.00000000000E+00  0.32304091842E+03  0.32304091842E+03  0.00000000000E+00 0. -1.
         -1   -1    0    0    0  501 -0.00000000000E+00 -0.00000000000E+00 -0.76802402355E+02  0.76802402355E+02  0.00000000000E+00 0.  1.
         23    2    1    2    0    0  0.92462664771E+02 -0.62753065870E+02  0.89328503343E+02  0.17015578529E+03  0.92120128672E+02 0.  0.
          5    1    1    2  502    0 -0.33574156577E+01  0.47662249440E+02  0.12478050074E+03  0.13368099352E+03  0.41800000000E+01 0.  1.
         -5    1    1    2    0  502 -0.89105249113E+02  0.15090816430E+02  0.32129511976E+02  0.96006541964E+02  0.41800000000E+01 0.  1.
        -11    1    3    3    0    0  0.54351540227E+02 -0.56887689528E+02  0.66882844791E+01  0.78962220676E+02  0.00000000000E+00 0.  1.
         11    1    3    3    0    0  0.38111124545E+02 -0.58653763418E+01  0.82640218864E+02  0.91193564617E+02  0.00000000000E+00 0. -1.
</event>
<event>
 7    1  0.6610867E-006  0.2009064E+03  0.7561462E-02  0.1148977E+00
          1   -1    0    0  501    0  0.00000000000E+00  0.00000000000E+00  0.10187495562E+04  0.10187495562E+04  0.00000000000E+00 0. -1.
         -1   -1    0    0    0  501 -0.00000000000E+00 -0.00000000000E+00 -0.57709255894E+02  0.57709255894E+02  0.00000000000E+00 0.  1.
         23    2    1    2    0    0 -0.14889236842E+03  0.12044435531E+03  0.23294507951E+03  0.31327753150E+03  0.84874151391E+02 0.  0.
          5    1    1    2  502    0  0.13562550062E+02 -0.43270454359E+02  0.36802821017E+03  0.37083488356E+03  0.41800000000E+01 0.  1.
         -5    1    1    2    0  502  0.13532981836E+03 -0.77173900947E+02  0.36006701059E+03  0.39234639700E+03  0.41800000000E+01 0.  1.
        -11    1    3    3    0    0 -0.27031398466E+02  0.56904521020E+02  0.34314809799E+02  0.71737906208E+02  0.00000000000E+00 0.  1.
         11    1    3    3    0    0 -0.12186096996E+03  0.63539834285E+02  0.19863026972E+03  0.24153962529E+03  0.00000000000E+00 0. -1.
</event>
<event>
 7    1  0.6610867E-006  0.9083088E+02  0.7561462E-02  0.1300852E+00
         -1   -1    0    0    0  501 -0.00000000000E+00  0.00000000000E+00  0.35396581636E+03  0.35396581636E+03  0.00000000000E+00 0.  1.
          1   -1    0    0  501    0  0.00000000000E+00 -0.00000000000E+00 -0.34343180877E+02  0.34343180877E+02  0.00000000000E+00 0. -1.
         23    2    1    2    0    0 -0.14024611796E+02 -0.62885783396E+01  0.18266596135E+03  0.20601297213E+03  0.94011995490E+02 0.  0.
          5    1    1    2  502    0  0.19386384812E+02  0.58840043085E+02  0.46930500156E+02  0.77832684851E+02  0.41800000000E+01 0. -1.
         -5    1    1    2    0  502 -0.53617730160E+01 -0.52551464745E+02  0.90026173980E+02  0.10446334026E+03  0.41800000000E+01 0.  1.
        -11    1    3    3    0    0 -0.36782564584E+02 -0.18038748490E+02  0.28916907209E+02  0.50145199441E+02  0.00000000000E+00 0. -1.
         11    1    3    3    0    0  0.22757952788E+02  0.11750170151E+02  0.15374905414E+03  0.15586777268E+03  0.00000000000E+00 0.  1.
</event>
<event>
 7    1  0.6610867E-006  0.1138261E+03  0.7561462E-02  0.1253644E+00
         -1   -1    0    0    0  501 -0.00000000000E+00  0.00000000000E+00  0.19886225691E+03  0.19886225691E+03  0.00000000000E+00 0.  1.
          1   -1    0    0  501    0  0.00000000000E+00 -0.00000000000E+00 -0.69024419783E+02  0.69024419783E+02  0.00000000000E+00 0. -1.
         23    2    1    2    0    0  0.40477469817E+02 -0.14192131386E+02  0.52323885026E+02  0.11460876673E+03  0.92506963587E+02 0.  0.
          5    1    1    2  502    0 -0.68586038951E+02  0.49874950374E+02  0.38388287888E+02  0.93180944730E+02  0.41800000000E+01 0.  1.
         -5    1    1    2    0  502  0.28108569135E+02 -0.35682818988E+02  0.39125664216E+02  0.60096965232E+02  0.41800000000E+01 0.  1.
        -11    1    3    3    0    0 -0.22651032781E+02 -0.24274864336E+02  0.20221580135E+01  0.33263004187E+02  0.00000000000E+00 0.  1.
         11    1    3    3    0    0  0.63128502597E+02  0.10082732949E+02  0.50301727013E+02  0.81345762547E+02  0.00000000000E+00 0. -1.
</event>
<event>
 7    1  0.6610867E-006  0.2696611E+03  0.7561462E-02  0.1101474E+00
          1   -1    0    0  501    0  0.00000000000E+00  0.00000000000E+00  0.96478828470E+03  0.96478828470E+03  0.00000000000E+00 0. -1.
         -1   -1    0    0    0  501 -0.00000000000E+00 -0.00000000000E+00 -0.88617806859E+02  0.88617806859E+02  0.00000000000E+00 0.  1.
         23    2    1    2    0    0  0.24687980419E+03 -0.39888130849E+02  0.23823309772E+03  0.35687664895E+03  0.89806642391E+02 0.  0.
          5    1    1    2  502    0 -0.65975082231E+02  0.63150449062E+02  0.15079726807E+03  0.17634619120E+03  0.41800000000E+01 0.  1.
         -5    1    1    2    0  502 -0.18090472196E+03 -0.23262318213E+02  0.48714011205E+03  0.52018325140E+03  0.41800000000E+01 0.  1.
        -11    1    3    3    0    0  0.13402202464E+03 -0.66337765908E+02  0.14201451335E+03  0.20622978513E+03  0.00000000000E+00 0. -1.
         11    1    3    3    0    0  0.11285777955E+03  0.26449635059E+02  0.96218584373E+02  0.15064686382E+03  0.00000000000E+00 0.  1.
</event>
<event>
 7    1  0.6610867E-006  0.1285440E+03  0.7561462E-02  0.1229632E+00
          1   -1    0    0  501    0  0.00000000000E+00  0.00000000000E+00  0.75808035381E+02  0.75808035381E+02  0.00000000000E+00 0. -1.
         -1   -1    0    0    0  501 -0.00000000000E+00 -0.00000000000E+00 -0.27773153399E+03  0.27773153399E+03  0.00000000000E+00 0.  1.
         23    2    1    2    0    0  0.14392332005E+02  0.90382884621E+02 -0.12898523151E+03  0.18224145205E+03  0.90545854922E+02 0.  0.
          5    1    1    2  502    0  0.35056337705E+02 -0.98465732322E+02 -0.52279088587E+02  0.11694025294E+03  0.41800000000E+01 0.  1.
         -5    1    1    2    0  502 -0.49448669711E+02  0.80828477010E+01 -0.20659178508E+02  0.54357864378E+02  0.41800000000E+01 0.  1.
        -11    1    3    3    0    0  0.30519131095E+02  0.48252039948E+02 -0.14088882794E+02  0.58806235556E+02  0.00000000000E+00 0. -1.
         11    1    3    3    0    0 -0.16126799090E+02  0.42130844673E+02 -0.11489634872E+03  0.12343521649E+03  0.00000000000E+00 0.  1.
</event>
<event>
 7    1  0.6610867E-006  0.1190893E+03  0.7561462E-02  0.1244607E+00
         -1   -1    0    0    0  501 -0.00000000000E+00  0.00000000000E+00  0.21361806278E+02  0.21361806278E+02  0.00000000000E+00 0.  1.
          1   -1    0    0  501    0  0.00000000000E+00 -0.00000000000E+00 -0.76694938647E+03  0.76694938647E+03  0.00000000000E+00 0. -1.
         23    2    1    2    0    0  0.51652478168E+02  0.28272210422E+02 -0.22784451894E+03  0.25242599574E+03  0.91315180178E+02 0.  0.
          5    1    1    2  502    0 -0.86646308120E+02 -0.36017172474E+02 -0.44350985299E+03  0.45334675638E+03  0.41800000000E+01 0.  1.
         -5    1    1    2    0  502  0.34993829952E+02  0.77449620514E+01 -0.74233208265E+02  0.82538440628E+02  0.41800000000E+01 0.  1.
        -11    1    3    3    0    0  0.12176277268E+02  0.57674248390E+02 -0.13595084960E+03  0.14817966852E+03  0.00000000000E+00 0.  1.
         11    1    3    3    0    0  0.39476200900E+02 -0.29402037968E+02 -0.91893669340E+02  0.10424632722E+03  0.00000000000E+00 0. -1.
</event>
<event>
 7    1  0.6610867E-006  0.1048814E+03  0.7561462E-02  0.1270353E+00
         -4   -1    0    0    0  501 -0.00000000000E+00  0.00000000000E+00  0.17625869233E+03  0.17625869233E+03  0.00000000000E+00 0.  1.
          4   -1    0    0  501    0  0.00000000000E+00 -0.00000000000E+00 -0.81903539209E+02  0.81903539209E+02  0.00000000000E+00 0. -1.
         23    2    1    2    0    0 -0.24309892338E+01 -0.35981649499E+01  0.83123802559E+02  0.13248997743E+03  0.10307847044E+03 0.  0.
          5    1    1    2  502    0 -0.32397296807E+01 -0.60132435815E+02  0.12015056122E+02  0.61548677152E+02  0.41800000000E+01 0.  1.
         -5    1    1    2    0  502  0.56707189145E+01  0.63730600765E+02 -0.78370556038E+00  0.64123576954E+02  0.41800000000E+01 0.  1.
        -11    1    3    3    0    0 -0.41653855383E+02  0.11562112156E+02  0.46739241764E+01  0.43480704606E+02  0.00000000000E+00 0. -1.
         11    1    3    3    0    0  0.39222866150E+02 -0.15160277106E+02  0.78449878383E+02  0.89009272827E+02  0.00000000000E+00 0.  1.
</event>
<event>
 6    1  0.6610867E-006  0.1323380E+03  0.7561462E-02  0.1224027E+00
          3   -1    0    0  501    0  0.00000000000E+00  0.00000000000E+00  0.77798071561E+02  0.77798071561E+02  0.00000000000E+00 0. -1.
         -3   -1    0    0    0  501 -0.00000000000E+00 -0.00000000000E+00 -0.34127281831E+03  0.34127281831E+03  0.00000000000E+00 0.  1.
          5    1    1    2  502    0  0.15004516398E+02 -0.40241225709E+02  0.13283570619E+02  0.45148836168E+02  0.41800000000E+01 0. -1.
         -5    1    1    2    0  502  0.63108158882E+02  0.59005940341E+02 -0.79926952700E+02  0.11777151982E+03  0.41800000000E+01 0. -1.
        -11    1    1    2    0    0 -0.99103990240E+02  0.97915582979E+01 -0.63313290537E+02  0.11800867872E+03  0.00000000000E+00 0. -1.
         11    1    1    2    0    0  0.20991314959E+02 -0.28556272929E+02 -0.13351807413E+03  0.13814185516E+03  0.00000000000E+00 0.  1.
</event>
<event>
 7    1  0.6610867E-006  0.9142440E+02  0.7561462E-02  0.1299439E+00
          2   -1    0    0  501    0  0.00000000000E+00  0.00000000000E+00  0.89245844146E+03  0.89245844146E+03  0.00000000000E+00 0. -1.
         -2   -1    0    0    0  501 -0.00000000000E+00 -0.00000000000E+00 -0.16502316195E+02  0.16502316195E+02  0.00000000000E+00 0.  1.
         23    2    1    2    0    0 -0.45784415101E+02  0.27813864067E+02  0.36006138287E+03  0.37542874967E+03  0.91829858659E+02 0.  0.
          5    1    1    2  502    0  0.12760632089E+02 -0.40198712865E+02  0.46972127763E+02  0.63266289870E+02  0.41800000000E+01 0.  1.
         -5    1    1    2    0  502  0.33023783012E+02  0.12384848798E+02  0.46892261463E+03  0.47026571811E+03  0.41800000000E+01 0.  1.
        -11    1    3    3    0    0 -0.68680999337E+02  0.39514809727E+02  0.24361474882E+03  0.25617698121E+03  0.00000000000E+00 0.  1.
         11    1    3    3    0    0  0.22896584237E+02 -0.11700945660E+02  0.11644663405E+03  0.11925176846E+03  0.00000000000E+00 0. -1.
</event>
<event>
 7    1  0.6610867E-006  0.1736724E+03  0.7561462E-02  0.1174071E+00
          2   -1    0    0  501    0  0.00000000000E+00  0.00000000000E+00  0.13454603546E+03  0.13454603546E+03  0.00000000000E+00 0. -1.
         -2   -1    0    0    0  501 -0.00000000000E+00 -0.00000000000E+00 -0.23769703562E+03  0.23769703562E+03  0.00000000000E+00 0.  1.
         23    2    1    2    0    0  0.50299650573E+02  0.12630128882E+03 -0.88140018442E+02  0.18689369051E+03  0.93158565338E+02 0.  0.
          5    1    1    2  502    0  0.36386777393E+02 -0.72862247305E+02  0.41000323583E+01  0.81652846348E+02  0.41800000000E+01 0.  1.
         -5    1    1    2    0  502 -0.86686427966E+02 -0.53439041513E+02 -0.19111014074E+02  0.10369653422E+03  0.41800000000E+01 0.  1.
        -11    1    3    3    0    0 -0.42903765253E+01  0.10529521876E+03 -0.66041825998E+02  0.12436644727E+03  0.00000000000E+00 0. -1.
         11    1    3    3    0    0  0.54590027098E+02  0.21006070054E+02 -0.22098192443E+02  0.62527243238E+02  0.00000000000E+00 0.  1.
</event>
<event>
 7    1  0.6610867E-006  0.1112219E+03  0.7561462E-02  0.1258324E+00
         -1   -1    0    0    0  501 -0.00000000000E+00  0.00000000000E+00  0.14928514004E+03  0.14928514004E+03  0.00000000000E+00 0.  1.
          1   -1    0    0  501    0  0.00000000000E+00 -0.00000000000E+00 -0.83686893471E+02  0.83686893471E+02  0.00000000000E+00 0. -1.
         23    2    1    2    0    0  0.47010152641E+00 -0.15101234512E+01  0.29708432532E+02  0.88947944846E+02  0.83825082527E+02 0.  0.
          5    1    1    2  502    0  0.46360793593E+02  0.52428443469E+02  0.20231048279E+02  0.72971450455E+02  0.41800000000E+01 0. -1.
         -5    1    1    2    0  502 -0.46830895119E+02 -0.50918320017E+02  0.15658765755E+02  0.71052638206E+02  0.41800000000E+01 0.  1.
        -11    1    3    3    0    0 -0.18427299874E+02  0.36326979336E+02  0.20757273736E+02  0.45717384235E+02  0.00000000000E+00 0.  1.
         11    1    3    3    0    0  0.18897401400E+02 -0.37837102787E+02  0.89511587959E+01  0.43230560612E+02  0.00000000000E+00 0. -1.
</event>
<event>
 7    1  0.6610867E-006  0.1450981E+03  0.7561462E-02  0.1206629E+00
          1   -1    0    0  501    0  0.00000000000E+00  0.00000000000E+00  0.45813999445E+02  0.45813999445E+02  0.00000000000E+00 0. -1.
         -1   -1    0    0    0  501 -0.00000000000E+00 -0.00000000000E+00 -0.55727850652E+03  0.55727850652E+03  0.00000000000E+00 0.  1.
         23    2    1    2    0    0  0.36643894523E+02  0.10410382979E+03 -0.30977518943E+03  0.34135701013E+03  0.91561771496E+02 0.  0.
          5    1    1    2  502    0  0.52708000428E+01  0.22970828761E+02 -0.60706687628E+01  0.24693434883E+02  0.41800000000E+01 0. -1.
         -5    1    1    2    0  502 -0.41914694566E+02 -0.12707465855E+03 -0.19561864889E+03  0.23704206095E+03  0.41800000000E+01 0. -1.
        -11    1    3    3    0    0  0.53181946260E+02  0.41000155018E+02 -0.22239307437E+03  0.23231016260E+03  0.00000000000E+00 0.  1.
         11    1    3    3    0    0 -0.16538051737E+02  0.63103674775E+02 -0.87382115061E+02  0.10904684754E+03  0.00000000000E+00 0. -1.
</event>
<event>
 7    1  0.6610867E-006  0.6182993E+02  0.7561462E-02  0.1390309E+00
          2   -1    0    0  501    0  0.00000000000E+00  0.00000000000E+00  0.29327392030E+03  0.29327392030E+03  0.00000000000E+00 0. -1.
         -2   -1    0    0    0  501 -0.00000000000E+00 -0.00000000000E+00 -0.44317785988E+02  0.44317785988E+02  0.00000000000E+00 0.  1.
         23    2    1    2    0    0  0.87410581005E+01  0.16526984465E+02  0.46297636207E+02  0.98704425955E+02  0.85144261536E+02 0.  0.
          5    1    1    2  502    0 -0.20035631300E+02 -0.88426820413E+01 -0.10923735185E+02  0.24827805736E+02  0.41800000000E+01 0.  1.
         -5    1    1    2    0  502  0.11294573199E+02 -0.76843024240E+01  0.21358223329E+03  0.21405947459E+03  0.41800000000E+01 0.  1.
        -11    1    3    3    0    0  0.24171477139E+01  0.51490664613E+02  0.25140044552E+02  0.57351137613E+02  0.00000000000E+00 0. -1.
         11    1    3    3    0    0  0.63239103866E+01 -0.34963680148E+02  0.21157591656E+02  0.41353288343E+02  0.00000000000E+00 0.  1.
</event>
<event>
 7    1  0.6610867E-006  0.2161327E+03  0.7561462E-02  0.1136800E+00
          2   -1    0    0  501    0  0.00000000000E+00  0.00000000000E+00  0.72004016431E+03  0.72004016431E+03  0.00000000000E+00 0. -1.
         -2   -1    0    0    0  501 -0.00000000000E+00 -0.00000000000E+00 -0.71339957519E+02  0.71339957519E+02  0.00000000000E+00 0.  1.
         23    2    1    2    0    0 -0.14268836045E+03 -0.12621051098E+03  0.38209342495E+03  0.44064578356E+03  0.10901495257E+03 0.  0.
          5    1    1    2  502    0  0.26224006101E+01  0.55690261084E+02  0.13445983985E+03  0.14562006420E+03  0.41800000000E+01 0. -1.
         -5    1    1    2    0  502  0.14006595984E+03  0.70520249899E+02  0.13214694198E+03  0.20511427407E+03  0.41800000000E+01 0. -1.
        -11    1    3    3    0    0 -0.90748396509E+02 -0.88929171911E+01  0.15879527954E+03  0.18311279652E+03  0.00000000000E+00 0.  1.
         11    1    3    3    0    0 -0.51939963940E+02 -0.11731759379E+03  0.22329814541E+03  0.25753298704E+03  0.00000000000E+00 0. -1.
</event>
<event>
 7    1  0.6610867E-006  0.1122785E+03  0.7561462E-02  0.1256408E+00
         -2   -1    0    0    0  501 -0.00000000000E+00  0.00000000000E+00  0.23869753414E+02  0.23869753414E+02  0.00000000000E+00 0.  1.
          2   -1    0    0  501    0  0.00000000000E+00 -0.00000000000E+00 -0.17368976568E+04  0.17368976568E+04  0.00000000000E+00 0. -1.
         23    2    1    2    0    0 -0.59160598479E+02 -0.44185475095E+02 -0.17167395395E+03  0.20812434701E+03  0.91604938358E+02 0.  0.
          5    1    1    2  502    0  0.13917737847E+02  0.74674970842E+02 -0.13832117805E+04  0.13853022618E+04  0.41800000000E+01 0. -1.
         -5    1    1    2    0  502  0.45242860632E+02 -0.30489495747E+02 -0.15814216902E+03  0.16734080140E+03  0.41800000000E+01 0.  1.
        -11    1    3    3    0    0 -0.13009245827E+02  0.14254037265E+02 -0.10929001353E+03  0.11098074208E+03  0.00000000000E+00 0. -1.
         11    1    3    3    0    0 -0.46151352652E+02 -0.58439512360E+02 -0.62383940422E+02  0.97143604931E+02  0.00000000000E+00 0.  1.
</event>
<event>
 7    1  0.6610867E-006  0.1229533E+03  0.7561462E-02  0.1238303E+00
         -4   -1    0    0    0  501 -0.00000000000E+00  0.00000000000E+00  0.33634325428E+03  0.33634325428E+03  0.00000000000E+00 0.  1.
          4   -1    0    0  501    0  0.00000000000E+00 -0.00000000000E+00 -0.53550371923E+02  0.53550371923E+02  0.00000000000E+00 0. -1.
         23    2    1    2    0    0  0.75577208157E+02 -0.51788817258E+01  0.15925720124E+03  0.19845951948E+03  0.91019720490E+02 0.  0.
          5    1    1    2  502    0 -0.89376462836E+02 -0.26228495633E+02  0.40808494629E+02  0.10177864081E+03  0.41800000000E+01 0. -1.
         -5    1    1    2    0  502  0.13799254678E+02  0.31407377358E+02  0.82727186495E+02  0.89655465910E+02  0.41800000000E+01 0. -1.
        -11    1    3    3    0    0  0.14007634648E+01 -0.37263832639E+02  0.43744806123E+02  0.57481852997E+02  0.00000000000E+00 0.  1.
         11    1    3    3    0    0  0.74176444693E+02  0.32084950913E+02  0.11551239511E+03  0.14097766648E+03  0.00000000000E+00 0. -1.
</event>
<event>
 7    1  0.6610867E-006  0.1341539E+03  0.7561462E-02  0.1221419E+00
         -2   -1    0    0    0  501 -0.00000000000E+00  0.00000000000E+00  0.34993366430E+03  0.34993366430E+03  0.00000000000E+00 0.  1.
          2   -1    0    0  501    0  0.00000000000E+00 -0.00000000000E+00 -0.58711401103E+02  0.58711401103E+02  0.00000000000E+00 0. -1.
         23    2    1    2    0    0 -0.90548870481E+02 -0.19669582965E+02  0.16522708237E+03  0.20837792730E+03  0.86806574616E+02 0.  0.
          5    1    1    2  502    0  0.53642573517E+02 -0.43194822729E+02  0.10250624343E+03  0.12356504662E+03  0.41800000000E+01 0.  1.
         -5    1    1    2    0  502  0.36906296964E+02  0.62864405694E+02  0.23488937402E+02  0.76702091492E+02  0.41800000000E+01 0.  1.
        -11    1    3    3    0    0  0.16904574419E+02  0.72691698139E+00  0.30148721392E+02  0.34572220730E+02  0.00000000000E+00 0.  1.
         11    1    3    3    0    0 -0.10745344490E+03 -0.20396499947E+02  0.13507836098E+03  0.17380570657E+03  0.00000000000E+00 0. -1.
</event>
<event>
 7    1  0.6610867E-006  0.9345947E+02  0.7561462E-02  0.1294684E+00
         -2   -1    0    0    0  501 -0.00000000000E+00  0.00000000000E+00  0.45731669296E+02  0.45731669296E+02  0.00000000000E+00 0.  1.
          2   -1    0    0  501    0  0.00000000000E+00 -0.00000000000E+00 -0.27494804788E+03  0.27494804788E+03  0.00000000000E+00 0. -1.
         23    2    1    2    0    0  0.12749182263E+02  0.18611639447E+02 -0.41277973326E+02  0.93793310567E+02  0.81144188048E+02 0.  0.
          5    1    1    2  502    0  0.33730935517E+02 -0.39729434294E+02 -0.16044893570E+03  0.16875288836E+03  0.41800000000E+01 0. -1.
         -5    1    1    2    0  502 -0.46480117780E+02  0.21117794848E+02 -0.27489469556E+02  0.58133518253E+02  0.41800000000E+01 0. -1.
        -11    1    3    3    0    0  0.46248704376E+02  0.27076091939E+01 -0.16430172114E+02  0.49155105124E+02  0.00000000000E+00 0.  1.
         11    1    3    3    0    0 -0.33499522113E+02  0.15904030253E+02 -0.24847801213E+02  0.44638205443E+02  0.00000000000E+00 0. -1.
</event>
<event>
 7    1  0.6610867E-006  0.6758626E+02  0.7561462E-02  0.1368499E+00
          1   -1    0    0  501    0  0.00000000000E+00  0.00000000000E+00  0.28174528389E+03  0.28174528389E+03  0.00000000000E+00 0. -1.
         -1   -1    0    0    0  501 -0.00000000000E+00 -0.00000000000E+00 -0.41998729868E+02  0.41998729868E+02  0.00000000000E+00 0.  1.
         23    2    1    2    0    0 -0.28520254749E+02 -0.64555579355E+01  0.10297048591E+03  0.13610006284E+03  0.84054904539E+02 0.  0.
          5    1    1    2  502    0  0.11501094460E+02 -0.14431971272E+02 -0.20572246956E+02  0.27950790926E+02  0.41800000000E+01 0.  1.
         -5    1    1    2    0  502  0.17019160288E+02  0.20887529208E+02  0.15734831508E+03  0.15969316000E+03  0.41800000000E+01 0.  1.
        -11    1    3    3    0    0  0.95539410036E+01 -0.38222931266E+02  0.44536895809E+02  0.59462638283E+02  0.00000000000E+00 0. -1.
         11    1    3    3    0    0 -0.38074195752E+02  0.31767373331E+02  0.58433590096E+02  0.76637424553E+02  0.00000000000E+00 0.  1.
</event>
<event>
 7    1  0.6610867E-006  0.1084638E+03  0.7561462E-02  0.1263441E+00
          4   -1    0    0  501    0  0.00000000000E+00  0.00000000000E+00  0.11025966177E+03  0.11025966177E+03  0.00000000000E+00 0. -1.
         -4   -1    0    0    0  501 -0.00000000000E+00 -0.00000000000E+00 -0.15947605970E+03  0.15947605970E+03  0.00000000000E+00 0.  1.
         23    2    1    2    0    0  0.61919421358E+02  0.31518352998E+02 -0.67910523600E+02  0.13326483620E+03  0.91215437484E+02 0.  0.
          5    1    1    2  502    0  0.22501262229E+02 -0.31447290278E+02  0.32676209030E+02  0.50798089573E+02  0.41800000000E+01 0. -1.
         -5    1    1    2    0  502 -0.84420683587E+02 -0.71062719995E-01 -0.13982083356E+02  0.85672795695E+02  0.41800000000E+01 0.  1.
        -11    1    3    3    0    0  0.54131481740E+02 -0.66650894655E+01  0.48965502656E+00  0.54542465062E+02  0.00000000000E+00 0.  1.
         11    1    3    3    0    0  0.77879396174E+01  0.38183442464E+02 -0.68400178626E+02  0.78722371140E+02  0.00000000000E+00 0. -1.
</event>
<event>
 7    1  0.6610867E-006  0.2006854E+03  0.7561462E-02  0.1149162E+00
         -1   -1    0    0    0  501 -0.00000000000E+00  0.00000000000E+00  0.51341535282E+03  0.51341535282E+03  0.00000000000E+00 0.  1.
          1   -1    0    0  501    0  0.00000000000E+00 -0.00000000000E+00 -0.95828932685E+02  0.95828932685E+02  0.00000000000E+00 0. -1.
         23    2    1    2    0    0 -0.73128408141E+02  0.17221591580E+03  0.26441304225E+03  0.33702205667E+03  0.93078053491E+02 0.  0.
          5    1    1    2  502    0  0.13854218737E+02  0.88314271309E+00  0.69484765490E+02  0.70981154915E+02  0.41800000000E+01 0.  1.
         -5    1    1    2    0  502  0.59274189404E+02 -0.17309905851E+03  0.83688612394E+02  0.20124107392E+03  0.41800000000E+01 0.  1.
        -11    1    3    3    0    0 -0.79807125110E+02  0.85775717879E+02  0.11435111123E+03  0.16371569147E+03  0.00000000000E+00 0. -1.
         11    1    3    3    0    0  0.66787169694E+01  0.86440197918E+02  0.15006193102E+03  0.17330636520E+03  0.00000000000E+00 0.  1.
</event>
<event>
 7    1  0.6610867E-006  0.1395154E+03  0.7561462E-02  0.1213983E+00
          1   -1    0    0  501    0  0.00000000000E+00  0.00000000000E+00  0.31703375878E+04  0.31703375878E+04  0.00000000000E+00 0. -1.
         -1   -1    0    0    0  501 -0.00000000000E+00 -0.00000000000E+00 -0.10349852711E+02  0.10349852711E+02  0.00000000000E+00 0.  1.
         23    2    1    2    0    0 -0.34168008658E+02  0.10961185665E+03  0.74212664019E+03  0.75687199227E+03  0.94451313764E+02 0.  0.
          5    1    1    2  502    0 -0.16363049978E+02 -0.11513035895E+02  0.13698745205E+04  0.13700269975E+04  0.41800000000E+01 0.  1.
         -5    1    1    2    0  502  0.50531058635E+02 -0.98098820751E+02  0.10479865744E+04  0.10537884508E+04  0.41800000000E+01 0.  1.
        -11    1    3    3    0    0 -0.61837173662E+02  0.41031350408E+02  0.40296621343E+03  0.40974281803E+03  0.00000000000E+00 0. -1.
         11    1    3    3    0    0  0.27669165004E+02  0.68580506237E+02  0.33916042676E+03  0.34712917424E+03  0.00000000000E+00 0.  1.
</event>
<event>
 7    1  0.6610867E-006  0.7514782E+02  0.7561462E-02  0.1343414E+00
          1   -1    0    0  501    0  0.00000000000E+00  0.00000000000E+00  0.15202007799E+03  0.15202007799E+03  0.00000000000E+00 0. -1.
         -1   -1    0    0    0  501 -0.00000000000E+00 -0.00000000000E+00 -0.87660541612E+02  0.87660541612E+02  0.00000000000E+00 0.  1.
         23    2    1    2    0    0  0.35297442804E+02  0.13203445139E+02  0.17906414674E+02  0.10102525725E+03  0.92006643693E+02 0.  0.
          5    1    1    2  502    0 -0.67006315265E+02 -0.31145374282E+02  0.64145327429E+02  0.97938634132E+02  0.41800000000E+01 0.  1.
         -5    1    1    2    0  502  0.31708872461E+02  0.17941929143E+02 -0.17692205722E+02  0.40716728226E+02  0.41800000000E+01 0.  1.
        -11    1    3    3    0    0  0.65805113866E+01  0.81189939473E+01  0.53783924182E+02  0.54789886779E+02  0.00000000000E+00 0. -1.
         11    1    3    3    0    0  0.28716931418E+02  0.50844511922E+01 -0.35877509508E+02  0.46235370470E+02  0.00000000000E+00 0.  1.
</event>
<event>
 7    1  0.6610867E-006  0.8698161E+02  0.7561462E-02  0.1310330E+00
         -1   -1    0    0    0  501 -0.00000000000E+00  0.00000000000E+00  0.28227893535E+02  0.28227893535E+02  0.00000000000E+00 0.  1.
          1   -1    0    0  501    0  0.00000000000E+00 -0.00000000000E+00 -0.39364076378E+03  0.39364076378E+03  0.00000000000E+00 0. -1.
         23    2    1    2    0    0  0.53088285404E+00  0.83864445367E+01 -0.12258853603E+03  0.14857531358E+03  0.83522813361E+02 0.  0.
          5    1    1    2  502    0  0.59797938102E+02 -0.20587434938E+02 -0.13293472945E+03  0.14727101063E+03  0.41800000000E+01 0. -1.
         -5    1    1    2    0  502 -0.60328820956E+02  0.12200990401E+02 -0.10988960477E+03  0.12602233310E+03  0.41800000000E+01 0. -1.
        -11    1    3    3    0    0 -0.21420639844E+02 -0.64792150042E+01 -0.11985149699E+03  0.12192294849E+03  0.00000000000E+00 0. -1.
         11    1    3    3    0    0  0.21951522698E+02  0.14865659541E+02 -0.27370390429E+01  0.26652365093E+02  0.00000000000E+00 0.  1.
</event>
<event>
 7    1  0.6610867E-006  0.2073801E+03  0.7561462E-02  0.1143658E+00
          2   -1    0    0  501    0  0.00000000000E+00  0.00000000000E+00  0.14073933448E+04  0.14073933448E+04  0.00000000000E+00 0. -1.
         -2   -1    0    0    0  501 -0.00000000000E+00 -0.00000000000E+00 -0.66029561305E+02  0.66029561305E+02  0.00000000000E+00 0.  1.
         23    2    1    2    0    0  0.83382088905E+02 -0.16272339964E+03  0.22254358183E+03  0.30211643115E+03  0.91198764343E+02 0.  0.
          5    1    1    2  502    0 -0.59005326497E+02  0.12957043790E+02  0.91586738268E+03  0.91786711925E+03  0.41800000000E+01 0. -1.
         -5    1    1    2    0  502 -0.24376762408E+02  0.14976635585E+03  0.20295281902E+03  0.25343935574E+03  0.41800000000E+01 0.  1.
        -11    1    3    3    0    0  0.89330828003E+02 -0.81356967903E+02  0.15269243989E+03  0.19471500779E+03  0.00000000000E+00 0.  1.
         11    1    3    3    0    0 -0.59487390982E+01 -0.81366431737E+02  0.69851141943E+02  0.10740142337E+03  0.00000000000E+00 0. -1.
</event>
<event>
 7    1  0.6610867E-006  0.1390592E+03  0.7561462E-02  0.1214600E+00
         -2   -1    0    0    0  501 -0.00000000000E+00  0.00000000000E+00  0.70628615172E+02  0.70628615172E+02  0.00000000000E+00 0.  1.
          2   -1    0    0  501    0  0.00000000000E+00 -0.00000000000E+00 -0.32137461576E+03  0.32137461576E+03  0.00000000000E+00 0. -1.
         23    2    1    2    0    0 -0.47937964096E+02  0.91331551222E+02 -0.98555370528E+02  0.16963237513E+03  0.91774075764E+02 0.  0.
          5    1    1    2  502    0 -0.37678729128E+02 -0.59461001581E+02 -0.71214462551E+02  0.10022110264E+03  0.41800000000E+01 0. -1.
         -5    1    1    2    0  502  0.85616693225E+02 -0.31870549641E+02 -0.80976167509E+02  0.12214975316E+03  0.41800000000E+01 0. -1.
        -11    1    3    3    0    0 -0.50136252894E+02  0.38350325938E+02 -0.65775408549E+01  0.63463811716E+02  0.00000000000E+00 0.  1.
         11    1    3    3    0    0  0.21982887976E+01  0.52981225283E+02 -0.91977829673E+02  0.10616856341E+03  0.00000000000E+00 0. -1.
</event>
<event>
 7    1  0.6610867E-006  0.1032183E+03  0.7561462E-02  0.1273670E+00
         -2   -1    0    0    0  501 -0.00000000000E+00  0.00000000000E+00  0.45047233150E+03  0.45047233150E+03  0.00000000000E+00 0.  1.
          2   -1    0    0  501    0  0.00000000000E+00 -0.00000000000E+00 -0.39138566448E+02  0.39138566448E+02  0.00000000000E+00 0. -1.
         23    2    1    2    0    0  0.42046495457E+02 -0.41186936180E+02  0.26280812912E+03  0.28670592566E+03  0.98325498125E+02 0.  0.
          5    1    1    2  502    0 -0.13042560257E+02  0.70286265294E+02  0.14467715984E+03  0.16142868533E+03  0.41800000000E+01 0. -1.
         -5    1    1    2    0  502 -0.29003935200E+02 -0.29099329114E+02  0.38484760871E+01  0.41476286962E+02  0.41800000000E+01 0. -1.
        -11    1    3    3    0    0 -0.83407558214E+01 -0.42316995750E+02  0.41939646142E+02  0.60160038693E+02  0.00000000000E+00 0. -1.
         11    1    3    3    0    0  0.50387251278E+02  0.11300595698E+01  0.22086848298E+03  0.22654588697E+03  0.00000000000E+00 0.  1.
</event>
<event>
 7    1  0.6610867E-006  0.1627378E+03  0.7561462E-02  0.1185640E+00
         -1   -1    0    0    0  501 -0.00000000000E+00  0.00000000000E+00  0.58274789630E+02  0.58274789630E+02  0.00000000000E+00 0.  1.
          1   -1    0    0  501    0  0.00000000000E+00 -0.00000000000E+00 -0.68512904575E+03  0.68512904575E+03  0.00000000000E+00 0. -1.
         23    2    1    2    0    0  0.12587077479E+03  0.84859493468E+02 -0.16915331832E+03  0.24522463939E+03  0.92074388884E+02 0.  0.
          5    1    1    2  502    0 -0.20782831393E+02 -0.27719750328E+01 -0.25260863532E+03  0.25351174522E+03  0.41800000000E+01 0. -1.
         -5    1    1    2    0  502 -0.10508794339E+03 -0.82087518436E+02 -0.20509230248E+03  0.24466745077E+03  0.41800000000E+01 0. -1.
        -11    1    3    3    0    0  0.48171204160E+02 -0.88211376454E+01 -0.20468455619E+02  0.53077632342E+02  0.00000000000E+00 0.  1.
         11    1    3    3    0    0  0.77699570627E+02  0.93680631114E+02 -0.14868486270E+03  0.19214700705E+03  0.00000000000E+00 0. -1.
</event>
<event>
 7    1  0.6610867E-006  0.3133885E+03  0.7561462E-02  0.1078733E+00
         -1   -1    0    0    0  501 -0.00000000000E+00  0.00000000000E+00  0.17773564873E+03  0.17773564873E+03  0.00000000000E+00 0.  1.
          1   -1    0    0  501    0  0.00000000000E+00 -0.00000000000E+00 -0.94972148251E+03  0.94972148251E+03  0.00000000000E+00 0. -1.
         23    2    1    2    0    0  0.46349928461E+02 -0.29602613701E+03 -0.25867943181E+02  0.31374423415E+03  0.89367244107E+02 0.  0.
          5    1    1    2  502    0 -0.79894355134E+02  0.13742655064E+03 -0.42931629310E+03  0.45781996103E+03  0.41800000000E+01 0.  1.
         -5    1    1    2    0  502  0.33544426674E+02  0.15859958637E+03 -0.31680159750E+03  0.35589293606E+03  0.41800000000E+01 0.  1.
        -11    1    3    3    0    0 -0.14198875155E+02 -0.38112866483E+02 -0.26997314566E+02  0.48816530407E+02  0.00000000000E+00 0. -1.
         11    1    3    3    0    0  0.60548803615E+02 -0.25791327053E+03  0.11293713845E+01  0.26492770375E+03  0.00000000000E+00 0.  1.
</event>
<event>
 7    1  0.6610867E-006  0.2601596E+03  0.7561462E-02  0.1107047E+00
          2   -1    0    0  501    0  0.00000000000E+00  0.00000000000E+00  0.10214826305E+04  0.10214826305E+04  0.00000000000E+00 0. -1.
         -2   -1    0    0    0  501 -0.00000000000E+00 -0.00000000000E+00 -0.11891152196E+03  0.11891152196E+03  0.00000000000E+00 0.  1.
         23    2    1    2    0    0 -0.16042830051E+03 -0.20393214115E+03  0.10801288930E+03  0.29523382104E+03  0.90391742065E+02 0.  0.
          5    1    1    2  502    0  0.14448293751E+03  0.17396175659E+03  0.50187517840E+03  0.55048540315E+03  0.41800000000E+01 0. -1.
         -5    1    1    2    0  502  0.15945363003E+02  0.29970384557E+02  0.29268304087E+03  0.29467492829E+03  0.41800000000E+01 0. -1.
        -11    1    3    3    0    0 -0.14772493402E+03 -0.18012228133E+03  0.60643224688E+02  0.24071620856E+03  0.00000000000E+00 0.  1.
         11    1    3    3    0    0 -0.12703366489E+02 -0.23809859815E+02  0.47369664616E+02  0.54517612479E+02  0.00000000000E+00 0. -1.
</event>
<event>
 7    1  0.6610867E-006  0.7046403E+02  0.7561462E-02  0.1358522E+00
         -2   -1    0    0    0  501 -0.00000000000E+00  0.00000000000E+00  0.99672505562E+02  0.99672505562E+02  0.00000000000E+00 0.  1.
          2   -1    0    0  501    0  0.00000000000E+00 -0.00000000000E+00 -0.14994859583E+03  0.14994859583E+03  0.00000000000E+00 0. -1.
         23    2    1    2    0    0  0.23236939890E+02  0.13015475831E+02  0.28958995895E+02  0.99164998594E+02  0.91025905743E+02 0.  0.
          5    1    1    2  502    0 -0.14581978081E+01  0.29631825707E+02  0.22810552588E+02  0.37655877960E+02  0.41800000000E+01 0. -1.
         -5    1    1    2    0  502 -0.21778742082E+02 -0.42647301538E+02 -0.10204563875E+03  0.11280022483E+03  0.41800000000E+01 0. -1.
        -11    1    3    3    0    0 -0.36387560386E+01  0.30577949168E+02  0.51453059737E+02  0.59963896447E+02  0.00000000000E+00 0.  1.
         11    1    3    3    0    0  0.26875695929E+02 -0.17562473338E+02 -0.22494063842E+02  0.39201102147E+02  0.00000000000E+00 0. -1.
</event>
<event>
 7    1  0.6610867E-006  0.1173125E+03  0.7561462E-02  0.1247598E+00
         -4   -1    0    0    0  501 -0.00000000000E+00  0.00000000000E+00  0.10856579572E+03  0.10856579572E+03  0.00000000000E+00 0.  1.
          4   -1    0    0  501    0  0.00000000000E+00 -0.00000000000E+00 -0.18079877331E+03  0.18079877331E+03  0.00000000000E+00 0. -1.
         23    2    1    2    0    0  0.79923806923E+02 -0.41418724110E+02 -0.33879388251E+02  0.13055618266E+03  0.88282377982E+02 0.  0.
          5    1    1    2  502    0 -0.43270109954E+02  0.80074139650E+02  0.31214244000E+01  0.91166802875E+02  0.41800000000E+01 0. -1.
         -5    1    1    2    0  502 -0.36653696969E+02 -0.38655415540E+02 -0.41475013740E+02  0.67641583489E+02  0.41800000000E+01 0. -1.
        -11    1    3    3    0    0  0.59850298490E+02 -0.32593135882E+02  0.21119533651E+02  0.71347077288E+02  0.00000000000E+00 0.  1.
         11    1    3    3    0    0  0.20073508433E+02 -0.88255882272E+01 -0.54998921901E+02  0.59209105370E+02  0.00000000000E+00 0. -1.
</event>
<event>
 7    1  0.6610867E-006  0.8884487E+02  0.7561462E-02  0.1305673E+00
          1   -1    0    0  501    0  0.00000000000E+00  0.00000000000E+00  0.23440062947E+04  0.23440062947E+04  0.00000000000E+00 0. -1.
         -1   -1    0    0    0  501 -0.00000000000E+00 -0.00000000000E+00 -0.78057198836E+01  0.78057198836E+01  0.00000000000E+00 0.  1.
         23    2    1    2    0    0  0.15601484202E+02 -0.64776957831E+02  0.39510569807E+03  0.40554987978E+03  0.62631715361E+02 0.  0.
          5    1    1    2  502    0 -0.53672530820E+01 -0.11577293349E+02  0.13602098585E+04  0.13602761384E+04  0.41800000000E+01 0. -1.
         -5    1    1    2    0  502 -0.10234231120E+02  0.76354251181E+02  0.58088501820E+03  0.58598599636E+03  0.41800000000E+01 0. -1.
        -11    1    3    3    0    0  0.19527786568E+02  0.25290040425E+01  0.46711979135E+02  0.50692596150E+02  0.00000000000E+00 0.  1.
         11    1    3    3    0    0 -0.39263023655E+01 -0.67305961874E+02  0.34839371893E+03  0.35485728363E+03  0.00000000000E+00 0. -1.
</event>
<event>
 7    1  0.6610867E-006  0.1137384E+03  0.7561462E-02  0.1253799E+00
          3   -1    0    0  501    0  0.00000000000E+00  0.00000000000E+00  0.34684716478E+02  0.34684716478E+02  0.00000000000E+00 0. -1.
         -3   -1    0    0    0  501 -0.00000000000E+00 -0.00000000000E+00 -0.45544114026E+03  0.45544114026E+03  0.00000000000E+00 0.  1.
         23    2    1    2    0    0 -0.56690272822E+02  0.47694199872E+01 -0.25716282381E+03  0.27647423538E+03  0.84075861450E+02 0.  0.
          5    1    1    2  502    0  0.57601866021E+02 -0.59218219068E+02 -0.94833141774E+02  0.12583945970E+03  0.41800000000E+01 0. -1.
         -5    1    1    2    0  502 -0.91159319848E+00  0.54448799081E+02 -0.68760458194E+02  0.87812161655E+02  0.41800000000E+01 0. -1.
        -11    1    3    3    0    0 -0.50817329510E+02 -0.27199341470E+02 -0.21844689906E+03  0.22592311272E+03  0.00000000000E+00 0.  1.
         11    1    3    3    0    0 -0.58729433121E+01  0.31968761457E+02 -0.38715924753E+02  0.50551122656E+02  0.00000000000E+00 0. -1.
</event>
<event>
 7    1  0.6610867E-006  0.1114438E+03  0.7561462E-02  0.1257919E+00
          2   -1    0    0  501    0  0.00000000000E+00  0.00000000000E+00  0.20692606063E+04  0.20692606063E+04  0.00000000000E+00 0. -1.
         -2   -1    0    0    0  501 -0.00000000000E+00 -0.00000000000E+00 -0.12696269378E+02  0.12696269378E+02  0.00000000000E+00 0.  1.
         23    2    1    2    0    0  0.81457936244E+02  0.29586569248E+00  0.39205649754E+03  0.41076884937E+03  0.91582025746E+02 0.  0.
          5    1    1    2  502    0 -0.16633094110E+02  0.40910247556E+02  0.11601133182E+04  0.11609611069E+04  0.41800000000E+01 0.  1.
         -5    1    1    2    0  502 -0.64824842134E+02 -0.41206113248E+02  0.50439452117E+03  0.51022691943E+03  0.41800000000E+01 0.  1.
        -11    1    3    3    0    0  0.36068569974E+02 -0.30096917556E+02  0.71233349064E+02  0.85328519295E+02  0.00000000000E+00 0.  1.
         11    1    3    3    0    0  0.45389366270E+02  0.30392783248E+02  0.32082314847E+03  0.32544033008E+03  0.00000000000E+00 0. -1.
</event>
<event>
 7    1  0.6610867E-006  0.7383447E+02  0.7561462E-02  0.1347519E+00
          2   -1    0    0  501    0  0.00000000000E+00  0.00000000000E+00  0.38579548763E+03  0.38579548763E+03  0.00000000000E+00 0. -1.
         -2   -1    0    0    0  501 -0.00000000000E+00 -0.00000000000E+00 -0.33658911155E+02  0.33658911155E+02  0.00000000000E+00 0.  1.
         23    2    1    2    0    0  0.16670077126E+02 -0.28975199285E+02  0.93572660464E+02  0.13028109844E+03  0.84260715518E+02 0.  0.
          5    1    1    2  502    0  0.43248840758E+02  0.36649713826E+00  0.18479658414E+03  0.18983636759E+03  0.41800000000E+01 0. -1.
         -5    1    1    2    0  502 -0.59918917884E+02  0.28608702147E+02  0.73767331865E+02  0.99336932756E+02  0.41800000000E+01 0. -1.
        -11    1    3    3    0    0  0.15511222499E+02 -0.95243902743E+01 -0.12727136346E+02  0.22210178592E+02  0.00000000000E+00 0.  1.
         11    1    3    3    0    0  0.11588546269E+01 -0.19450809011E+02  0.10629979681E+03  0.10807091985E+03  0.00000000000E+00 0. -1.
</event>
<event>
 7    1  0.6610867E-006  0.1848124E+03  0.7561462E-02  0.1163225E+00
         -1   -1    0    0    0  501 -0.00000000000E+00  0.00000000000E+00  0.77423437742E+02  0.77423437742E+02  0.00000000000E+00 0. -1.
          1   -1    0    0  501    0  0.00000000000E+00 -0.00000000000E+00 -0.60476221311E+03  0.60476221311E+03  0.00000000000E+00 0.  1.
         23    2    1    2    0    0 -0.16301679806E+03  0.49738032751E+02 -0.13165923017E+03  0.23356882912E+03  0.90398543673E+02 0.  0.
          5    1    1    2  502    0  0.13723536671E+03 -0.75445857506E+02 -0.22577197155E+03  0.27480189015E+03  0.41800000000E+01 0. -1.
         -5    1    1    2    0  502  0.25781431350E+02  0.25707824756E+02 -0.16990757365E+03  0.17381493158E+03  0.41800000000E+01 0. -1.
        -11    1    3    3    0    0 -0.30346928873E+01  0.11408389025E+02  0.10762163870E+02  0.15974506948E+02  0.00000000000E+00 0. -1.
         11    1    3    3    0    0 -0.15998210517E+03  0.38329643726E+02 -0.14242139404E+03  0.21759432218E+03  0.00000000000E+00 0.  1.
</event>
<event>
 7    1  0.6610867E-006  0.7236870E+02  0.7561462E-02  0.1352219E+00
         -1   -1    0    0    0  501 -0.00000000000E+00  0.00000000000E+00  0.41417948511E+02  0.41417948511E+02  0.00000000000E+00 0.  1.
          1   -1    0    0  501    0  0.00000000000E+00 -0.00000000000E+00 -0.33250803966E+03  0.33250803966E+03  0.00000000000E+00 0. -1.
         23    2    1    2    0    0 -0.11292522380E+02  0.25379515638E+01 -0.39135608580E+02  0.98213464202E+02  0.89332672813E+02 0.  0.
          5    1    1    2  502    0  0.61246249604E+02 -0.61995746527E+01 -0.13984099591E+03  0.15284801063E+03  0.41800000000E+01 0. -1.
         -5    1    1    2    0  502 -0.49953727224E+02  0.36616230888E+01 -0.11211348666E+03  0.12286451334E+03  0.41800000000E+01 0.  1.
        -11    1    3    3    0    0 -0.20505718920E+02 -0.47247418057E+01 -0.65799724627E+02  0.69082642209E+02  0.00000000000E+00 0. -1.
         11    1    3    3    0    0  0.92131965397E+01  0.72626933695E+01  0.26664116047E+02  0.29130821994E+02  0.00000000000E+00 0.  1.
</event>
<event>
 7    1  0.6610867E-006  0.1518465E+03  0.7561462E-02  0.1198222E+00
          2   -1    0    0  501    0  0.00000000000E+00  0.00000000000E+00  0.94994952346E+02  0.94994952346E+02  0.00000000000E+00 0. -1.
         -2   -1    0    0    0  501 -0.00000000000E+00 -0.00000000000E+00 -0.36970064767E+03  0.36970064767E+03  0.00000000000E+00 0.  1.
         23    2    1    2    0    0  0.29531858229E+02  0.11765387394E+03 -0.24345654256E+03  0.28766785978E+03  0.93633032274E+02 0.  0.
          5    1    1    2  502    0  0.18316250860E+02  0.11945545079E+02 -0.31793428659E+02  0.38813343049E+02  0.41800000000E+01 0.  1.
         -5    1    1    2    0  502 -0.47848109089E+02 -0.12959941902E+03  0.54427588845E+00  0.13821439719E+03  0.41800000000E+01 0.  1.
        -11    1    3    3    0    0 -0.23980872079E+02  0.17584002055E+02 -0.16710401191E+02  0.34110362969E+02  0.00000000000E+00 0. -1.
         11    1    3    3    0    0  0.53512730309E+02  0.10006987189E+03 -0.22674614137E+03  0.25355749681E+03  0.00000000000E+00 0.  1.
</event>
<event>
 7    1  0.6610867E-006  0.1584050E+03  0.7561462E-02  0.1190509E+00
         -2   -1    0    0    0  501 -0.00000000000E+00  0.00000000000E+00  0.96010490852E+02  0.96010490852E+02  0.00000000000E+00 0.  1.
          2   -1    0    0  501    0  0.00000000000E+00 -0.00000000000E+00 -0.40712909729E+03  0.40712909729E+03  0.00000000000E+00 0. -1.
         23    2    1    2    0    0  0.15465227996E+02 -0.11685546350E+02  0.69971459003E+01  0.91850585747E+02  0.89508908946E+02 0.  0.
          5    1    1    2  502    0  0.81634015083E+02  0.93026091337E+02 -0.10061666906E+03  0.15955924474E+03  0.41800000000E+01 0. -1.
         -5    1    1    2    0  502 -0.97099243079E+02 -0.81340544987E+02 -0.21749908328E+03  0.25172975766E+03  0.41800000000E+01 0.  1.
        -11    1    3    3    0    0  0.39853712486E+02 -0.17172836696E+01 -0.27493998858E+02  0.48447780499E+02  0.00000000000E+00 0. -1.
         11    1    3    3    0    0 -0.24388484490E+02 -0.99682626805E+01  0.34491144758E+02  0.43402805247E+02  0.00000000000E+00 0.  1.
</event>
<event>
 7    1  0.6610867E-006  0.1666859E+03  0.7561462E-02  0.1181349E+00
          2   -1    0    0  501    0  0.00000000000E+00  0.00000000000E+00  0.63939403082E+02  0.63939403082E+02  0.00000000000E+00 0. -1.
         -2   -1    0    0    0  501 -0.00000000000E+00 -0.00000000000E+00 -0.47591398200E+03  0.47591398200E+03  0.00000000000E+00 0.  1.
         23    2    1    2    0    0  0.21524685964E+02  0.13867606325E+03 -0.16968576518E+03  0.23854356585E+03  0.91735550794E+02 0.  0.
          5    1    1    2  502    0 -0.31531851982E+02  0.62230467660E+01 -0.30772157385E+02  0.44692080625E+02  0.41800000000E+01 0. -1.
         -5    1    1    2    0  502  0.10007166018E+02 -0.14489911001E+03 -0.21151665636E+03  0.25661773861E+03  0.41800000000E+01 0.  1.
        -11    1    3    3    0    0  0.44973539692E+02  0.10842033961E+03 -0.16107955933E+03  0.19930934185E+03  0.00000000000E+00 0.  1.
         11    1    3    3    0    0 -0.23448853729E+02  0.30255723634E+02 -0.86062058518E+01  0.39234224001E+02  0.00000000000E+00 0. -1.
</event>
<event>
 7    1  0.6610867E-006  0.1060512E+03  0.7561462E-02  0.1268062E+00
          1   -1    0    0  501    0  0.00000000000E+00  0.00000000000E+00  0.12907130921E+04  0.12907130921E+04  0.00000000000E+00 0. -1.
         -1   -1    0    0    0  501 -0.00000000000E+00 -0.00000000000E+00 -0.15702160787E+02  0.15702160787E+02  0.00000000000E+00 0.  1.
         23    2    1    2    0    0  0.88819102113E+02 -0.89978803618E+01  0.47977123080E+03  0.49646483720E+03  0.91252977621E+02 0.  0.
          5    1    1    2  502    0 -0.61043564261E+02 -0.68516613195E+01  0.75877754211E+03  0.76127136608E+03  0.41800000000E+01 0.  1.
         -5    1    1    2    0  502 -0.27775537852E+02  0.15849541681E+02  0.36462158380E+02  0.48679049582E+02  0.41800000000E+01 0.  1.
        -11    1    3    3    0    0  0.92705684596E+02  0.15052267959E+02  0.43929338079E+03  0.44922109160E+03  0.00000000000E+00 0. -1.
         11    1    3    3    0    0 -0.38865824832E+01 -0.24050148321E+02  0.40477850002E+02  0.47243745601E+02  0.00000000000E+00 0.  1.
</event>
<event>
 7    1  0.6610867E-006  0.2025657E+03  0.7561462E-02  0.1147592E+00
          2   -1    0    0  501    0  0.00000000000E+00  0.00000000000E+00  0.85906431360E+03  0.85906431360E+03  0.00000000000E+00 0. -1.
         -2   -1    0    0    0  501 -0.00000000000E+00 -0.00000000000E+00 -0.62919238205E+02  0.62919238205E+02  0.00000000000E+00 0.  1.
         23    2    1    2    0    0 -0.11134172458E+03 -0.13995888684E+03  0.18615646544E+03  0.27412610070E+03  0.92224832993E+02 0.  0.
          5    1    1    2  502    0  0.15098174186E+02  0.11492639767E+03  0.37860922704E+03  0.39597784148E+03  0.41800000000E+01 0. -1.
         -5    1    1    2    0  502  0.96243550398E+02  0.25032489170E+02  0.23137938292E+03  0.25187960963E+03  0.41800000000E+01 0. -1.
        -11    1    3    3    0    0 -0.85489750526E+02 -0.13966822629E+03  0.18660542408E+03  0.24826859482E+03  0.00000000000E+00 0. -1.
         11    1    3    3    0    0 -0.25851974057E+02 -0.29066055116E+00 -0.44895864100E+00  0.25857505875E+02  0.00000000000E+00 0.  1.
</event>
<event>
 7    1  0.6610867E-006  0.1080638E+03  0.7561462E-02  0.1264198E+00
         -1   -1    0    0    0  501 -0.00000000000E+00  0.00000000000E+00  0.50104789306E+03  0.50104789306E+03  0.00000000000E+00 0.  1.
          1   -1    0    0  501    0  0.00000000000E+00 -0.00000000000E+00 -0.48406014342E+02  0.48406014342E+02  0.00000000000E+00 0. -1.
         23    2    1    2    0    0 -0.19401206238E+01  0.53693169396E+02  0.38364664051E+03  0.39682754732E+03  0.86026955257E+02 0.  0.
          5    1    1    2  502    0  0.15215165726E+02 -0.87539738042E+02  0.19486142592E+02  0.91059810881E+02  0.41800000000E+01 0. -1.
         -5    1    1    2    0  502 -0.13275045102E+02  0.33846568646E+02  0.49509095614E+02  0.61566549197E+02  0.41800000000E+01 0. -1.
        -11    1    3    3    0    0 -0.14047863104E+02  0.69366940387E+02  0.35509184877E+03  0.36207642278E+03  0.00000000000E+00 0.  1.
         11    1    3    3    0    0  0.12107742481E+02 -0.15673770991E+02  0.28554791746E+02  0.34751124539E+02  0.00000000000E+00 0. -1.
</event>
<event>
 7    1  0.6610867E-006  0.1313011E+03  0.7561462E-02  0.1225538E+00
          2   -1    0    0  501    0  0.00000000000E+00  0.00000000000E+00  0.20836833688E+03  0.20836833688E+03  0.00000000000E+00 0. -1.
         -2   -1    0    0    0  501 -0.00000000000E+00 -0.00000000000E+00 -0.97519623978E+02  0.97519623978E+02  0.00000000000E+00 0.  1.
         23    2    1    2    0    0 -0.89602433491E+02  0.10825706488E+01  0.28133514935E+02  0.13118974941E+03  0.91594146328E+02 0.  0.
          5    1    1    2  502    0  0.15825379990E+02  0.55913879212E+02  0.17448033222E+02  0.60817027251E+02  0.41800000000E+01 0. -1.
         -5    1    1    2    0  502  0.73777053500E+02 -0.56996449860E+02  0.65267164747E+02  0.11388118420E+03  0.41800000000E+01 0. -1.
        -11    1    3    3    0    0 -0.20749639401E+02 -0.29183230635E+02  0.41486148797E+02  0.54802454576E+02  0.00000000000E+00 0. -1.
         11    1    3    3    0    0 -0.68852794089E+02  0.30265801284E+02 -0.13352633862E+02  0.76387294836E+02  0.00000000000E+00 0.  1.
</event>
<event>
 7    1  0.6610867E-006  0.1085327E+03  0.7561462E-02  0.1263311E+00
         -2   -1    0    0    0  501 -0.00000000000E+00  0.00000000000E+00  0.18329826745E+02  0.18329826745E+02  0.00000000000E+00 0.  1.
          2   -1    0    0  501    0  0.00000000000E+00 -0.00000000000E+00 -0.82341037438E+03  0.82341037438E+03  0.00000000000E+00 0. -1.
         23    2    1    2    0    0  0.15107730415E+02 -0.43702364067E+02 -0.17732317100E+03  0.19997296816E+03  0.80047116625E+02 0.  0.
          5    1    1    2  502    0 -0.57254161086E+02  0.63949089776E+02 -0.37920218593E+03  0.38881781757E+03  0.41800000000E+01 0. -1.
         -5    1    1    2    0  502  0.42146430670E+02 -0.20246725709E+02 -0.24855519071E+03  0.25294941539E+03  0.41800000000E+01 0. -1.
        -11    1    3    3    0    0  0.22216295961E+02  0.13860465377E+02 -0.22090635060E+02  0.34258903427E+02  0.00000000000E+00 0.  1.
         11    1    3    3    0    0 -0.71085655460E+01 -0.57562829443E+02 -0.15523253594E+03  0.16571406473E+03  0.00000000000E+00 0. -1.
</event>
<event>
 7    1  0.6610867E-006  0.1070520E+03  0.7561462E-02  0.1266129E+00
         -2   -1    0    0    0  501 -0.00000000000E+00  0.00000000000E+00  0.19527396955E+02  0.19527396955E+02  0.00000000000E+00 0.  1.
          2   -1    0    0  501    0  0.00000000000E+00 -0.00000000000E+00 -0.90945097882E+03  0.90945097882E+03  0.00000000000E+00 0. -1.
         23    2    1    2    0    0  0.52109916062E+02  0.49997391352E+02 -0.31214736404E+03  0.33342188519E+03  0.92298397345E+02 0.  0.
          5    1    1    2  502    0  0.13379223824E+02 -0.49544281697E+02 -0.43941639936E+03  0.44242274343E+03  0.41800000000E+01 0.  1.
         -5    1    1    2    0  502 -0.65489139886E+02 -0.45310965474E+00 -0.13835981846E+03  0.15313374715E+03  0.41800000000E+01 0.  1.
        -11    1    3    3    0    0  0.14667492743E+02  0.57036917174E+02 -0.86904579624E+02  0.10497976578E+03  0.00000000000E+00 0.  1.
         11    1    3    3    0    0  0.37442423319E+02 -0.70395258225E+01 -0.22524278442E+03  0.22844211941E+03  0.00000000000E+00 0. -1.
</event>
<event>
 7    1  0.6610867E-006  0.1070779E+03  0.7561462E-02  0.1266079E+00
          2   -1    0    0  501    0  0.00000000000E+00  0.00000000000E+00  0.23053443120E+03  0.23053443120E+03  0.00000000000E+00 0.  1.
         -2   -1    0    0    0  501 -0.00000000000E+00 -0.00000000000E+00 -0.68233966939E+02  0.68233966939E+02  0.00000000000E+00 0. -1.
         23    2    1    2    0    0  0.64180228776E+01  0.37570074418E+02  0.12840772779E+02  0.10018547400E+03  0.91758063652E+02 0.  0.
          5    1    1    2  502    0  0.45384974805E+02  0.22351214954E+02  0.48672746774E+02  0.70326960879E+02  0.41800000000E+01 0. -1.
         -5    1    1    2    0  502 -0.51802997683E+02 -0.59921289372E+02  0.10078694471E+03  0.12825596327E+03  0.41800000000E+01 0. -1.
        -11    1    3    3    0    0 -0.23391733778E+01  0.59973720779E+02  0.33272526756E+02  0.68624922243E+02  0.00000000000E+00 0.  1.
         11    1    3    3    0    0  0.87571962554E+01 -0.22403646361E+02 -0.20431753977E+02  0.31560551755E+02  0.00000000000E+00 0. -1.
</event>
<event>
 7    1  0.6610867E-006  0.2150263E+03  0.7561462E-02  0.1137646E+00
         -1   -1    0    0    0  501 -0.00000000000E+00  0.00000000000E+00  0.26832057756E+02  0.26832057756E+02  0.00000000000E+00 0.  1.
          1   -1    0    0  501    0  0.00000000000E+00 -0.00000000000E+00 -0.21850496363E+04  0.21850496363E+04  0.00000000000E+00 0. -1.
         23    2    1    2    0    0 -0.18844862184E+03  0.55658485771E+02 -0.62947702907E+03  0.66549684191E+03  0.89632395629E+02 0.  0.
          5    1    1    2  502    0  0.63446702858E+02 -0.70002610499E+02 -0.41973178312E+03  0.43025352031E+03  0.41800000000E+01 0.  1.
         -5    1    1    2    0  502  0.12500191898E+03  0.14344124728E+02 -0.11090087663E+04  0.11161313318E+04  0.41800000000E+01 0.  1.
        -11    1    3    3    0    0 -0.43804641381E+02  0.47651398463E+02 -0.12684192978E+03  0.14240216828E+03  0.00000000000E+00 0.  1.
         11    1    3    3    0    0 -0.14464398046E+03  0.80070873072E+01 -0.50263509930E+03  0.52309467362E+03  0.00000000000E+00 0. -1.
</event>
<event>
 7    1  0.6610867E-006  0.1792706E+03  0.7561462E-02  0.1168511E+00
         -2   -1    0    0    0  501 -0.00000000000E+00  0.00000000000E+00  0.41549492582E+03  0.41549492582E+03  0.00000000000E+00 0.  1.
          2   -1    0    0  501    0  0.00000000000E+00 -0.00000000000E+00 -0.83635420011E+02  0.83635420011E+02  0.00000000000E+00 0. -1.
         23    2    1    2    0    0 -0.10228775660E+03  0.10857798674E+03  0.17900869679E+03  0.25161850204E+03  0.94951528086E+02 0.  0.
          5    1    1    2  502    0  0.91347175258E+02 -0.13088647979E+03  0.98498047892E+02  0.18760307796E+03  0.41800000000E+01 0.  1.
         -5    1    1    2    0  502  0.10940581340E+02  0.22308493050E+02  0.54352761125E+02  0.59908765837E+02  0.41800000000E+01 0.  1.
        -11    1    3    3    0    0 -0.11138635082E+03  0.64585669878E+02  0.15198857944E+03  0.19919527149E+03  0.00000000000E+00 0.  1.
         11    1    3    3    0    0  0.90985942187E+01  0.43992316864E+02  0.27020117350E+02  0.52423230551E+02  0.00000000000E+00 0. -1.
</event>
<event>
 7    1  0.6610867E-006  0.9376512E+02  0.7561462E-02  0.1293982E+00
         -1   -1    0    0    0  501 -0.00000000000E+00  0.00000000000E+00  0.74199023848E+01  0.74199023848E+01  0.00000000000E+00 0.  1.
          1   -1    0    0  501    0  0.00000000000E+00 -0.00000000000E+00 -0.12933534609E+04  0.12933534609E+04  0.00000000000E+00 0. -1.
         23    2    1    2    0    0 -0.70497215219E+01 -0.14867548650E+02 -0.29484768308E+03  0.30168885329E+03  0.61727347266E+02 0.  0.
          5    1    1    2  502    0 -0.52548295607E+02 -0.19213384588E+02 -0.37562328665E+03  0.37979047302E+03  0.41800000000E+01 0. -1.
         -5    1    1    2    0  502  0.59598017129E+02  0.34080933238E+02 -0.61546258880E+03  0.61929403700E+03  0.41800000000E+01 0. -1.
        -11    1    3    3    0    0  0.26741545688E+02 -0.33940987021E+01 -0.98361747528E+02  0.10198854616E+03  0.00000000000E+00 0.  1.
         11    1    3    3    0    0 -0.33791267210E+02 -0.11473449948E+02 -0.19648593556E+03  0.19970030712E+03  0.00000000000E+00 0. -1.
</event>
<event>
 7    1  0.6610867E-006  0.1856711E+03  0.7561462E-02  0.1162425E+00
         -3   -1    0    0    0  501 -0.00000000000E+00  0.00000000000E+00  0.41166550530E+03  0.41166550530E+03  0.00000000000E+00 0.  1.
          3   -1    0    0  501    0  0.00000000000E+00 -0.00000000000E+00 -0.10239923273E+03  0.10239923273E+03  0.00000000000E+00 0. -1.
         23    2    1    2    0    0  0.16331499260E+03  0.18369167737E+02  0.21849417333E+03  0.28846227680E+03  0.91986782906E+02 0.  0.
          5    1    1    2  502    0 -0.18219194501E+03 -0.28890346484E+02  0.81718242491E+02  0.20180163652E+03  0.41800000000E+01 0.  1.
         -5    1    1    2    0  502  0.18876952409E+02  0.10521178748E+02  0.90538567587E+01  0.23800824706E+02  0.41800000000E+01 0.  1.
        -11    1    3    3    0    0  0.13121361815E+03  0.19709694338E+02  0.10127473862E+03  0.16691931680E+03  0.00000000000E+00 0. -1.
         11    1    3    3    0    0  0.32101374453E+02 -0.13405266013E+01  0.11721943471E+03  0.12154296001E+03  0.00000000000E+00 0.  1.
</event>
<event>
 7    1  0.6610867E-006  0.7858788E+02  0.7561462E-02  0.1333107E+00
         -2   -1    0    0    0  501 -0.00000000000E+00  0.00000000000E+00  0.31211921680E+03  0.31211921680E+03  0.00000000000E+00 0.  1.
          2   -1    0    0  501    0  0.00000000000E+00 -0.00000000000E+00 -0.40610716114E+02  0.40610716114E+02  0.00000000000E+00 0. -1.
         23    2    1    2    0    0 -0.30415630227E+01 -0.14743772355E+02  0.16099729193E+03  0.18514177833E+03  0.90170505972E+02 0.  0.
          5    1    1    2  502    0  0.38035908271E+02  0.26956564000E+02  0.12025007440E+03  0.12903851927E+03  0.41800000000E+01 0.  1.
         -5    1    1    2    0  502 -0.34994345248E+02 -0.12212791645E+02 -0.97388656409E+01  0.38549635317E+02  0.41800000000E+01 0.  1.
        -11    1    3    3    0    0  0.30783795840E+02  0.86106992403E+01  0.18715025077E+02  0.37041036586E+02  0.00000000000E+00 0. -1.
         11    1    3    3    0    0 -0.33825358863E+02 -0.23354471595E+02  0.14228226685E+03  0.14810074174E+03  0.00000000000E+00 0.  1.
</event>
<event>
 7    1  0.6610867E-006  0.1152933E+03  0.7561462E-02  0.1251070E+00
          2   -1    0    0  501    0  0.00000000000E+00  0.00000000000E+00  0.12798608772E+04  0.12798608772E+04  0.00000000000E+00 0.  1.
         -2   -1    0    0    0  501 -0.00000000000E+00 -0.00000000000E+00 -0.16624424774E+02  0.16624424774E+02  0.00000000000E+00 0. -1.
         23    2    1    2    0    0 -0.41321398822E+02  0.35485882322E+02  0.19870909831E+03  0.22325074328E+03  0.85958610851E+02 0.  0.
          5    1    1    2  502    0  0.41003416876E+02 -0.80863533798E+02  0.72785928195E+03  0.73349628357E+03  0.41800000000E+01 0.  1.
         -5    1    1    2    0  502  0.31798194565E+00  0.45377651475E+02  0.33666807217E+03  0.33973827512E+03  0.41800000000E+01 0.  1.
        -11    1    3    3    0    0 -0.39659384505E+02 -0.15982734536E+02  0.49528047887E+02  0.65431965507E+02  0.00000000000E+00 0. -1.
         11    1    3    3    0    0 -0.16620143163E+01  0.51468616858E+02  0.14918105042E+03  0.15781877777E+03  0.00000000000E+00 0.  1.
</event>
<event>
 7    1  0.6610867E-006  0.6938636E+02  0.7561462E-02  0.1362192E+00
         -2   -1    0    0    0  501 -0.00000000000E+00  0.00000000000E+00  0.78249658680E+02  0.78249658680E+02  0.00000000000E+00 0.  1.
          2   -1    0    0  501    0  0.00000000000E+00 -0.00000000000E+00 -0.21937710157E+03  0.21937710157E+03  0.00000000000E+00 0. -1.
         23    2    1    2    0    0  0.66099890395E+02  0.15417992485E+02 -0.30049622595E+02  0.11709266767E+03  0.90558285110E+02 0.  0.
          5    1    1    2  502    0 -0.35155368806E+02 -0.15710876952E+02 -0.13547718163E+03  0.14090518355E+03  0.41800000000E+01 0. -1.
         -5    1    1    2    0  502 -0.30944521589E+02  0.29288446683E+00  0.24399361327E+02  0.39628909029E+02  0.41800000000E+01 0. -1.
        -11    1    3    3    0    0  0.51948813443E+02  0.71899325613E+01 -0.61992333851E+02  0.81199900275E+02  0.00000000000E+00 0. -1.
         11    1    3    3    0    0  0.14151076952E+02  0.82280599236E+01  0.31942711257E+02  0.35892767397E+02  0.00000000000E+00 0.  1.
</event>
<event>
 7    1  0.6610867E-006  0.9105209E+02  0.7561462E-02  0.1300324E+00
         -2   -1    0    0    0  501 -0.00000000000E+00  0.00000000000E+00  0.39662303511E+02  0.39662303511E+02  0.00000000000E+00 0.  1.
          2   -1    0    0  501    0  0.00000000000E+00 -0.00000000000E+00 -0.28517010675E+03  0.28517010675E+03  0.00000000000E+00 0. -1.
         23    2    1    2    0    0 -0.41931277591E+01  0.40655964796E+01 -0.98512578664E+02  0.13172529518E+03  0.87250867277E+02 0.  0.
          5    1    1    2  502    0 -0.49970128973E+02 -0.30773398442E+02 -0.10173832330E+03  0.11752520865E+03  0.41800000000E+01 0.  1.
         -5    1    1    2    0  502  0.54163256733E+02  0.26707801962E+02 -0.45256901272E+02  0.75581906421E+02  0.41800000000E+01 0.  1.
        -11    1    3    3    0    0 -0.12210665036E+02  0.31695129750E+02 -0.97158101644E+02  0.10292413860E+03  0.00000000000E+00 0. -1.
         11    1    3    3    0    0  0.80175372773E+01 -0.27629533271E+02 -0.13544770201E+01  0.28801156587E+02  0.00000000000E+00 0.  1.
</event>
<event>
 7    1  0.6610867E-006  0.6710281E+02  0.7561462E-02  0.1370232E+00
         -1   -1    0    0    0  501 -0.00000000000E+00  0.00000000000E+00  0.75485971843E+02  0.75485971843E+02  0.00000000000E+00 0.  1.
          1   -1    0    0  501    0  0.00000000000E+00 -0.00000000000E+00 -0.16615112150E+03  0.16615112150E+03  0.00000000000E+00 0. -1.
         23    2    1    2    0    0  0.12660555071E+02 -0.25155572991E+02 -0.29903959618E+02  0.99726876128E+02  0.90874146567E+02 0.  0.
          5    1    1    2  502    0 -0.31549656593E+02 -0.16926461115E+02 -0.83031353926E+02  0.90518307827E+02  0.41800000000E+01 0. -1.
         -5    1    1    2    0  502  0.18889101522E+02  0.42082034107E+02  0.22270163887E+02  0.51391909387E+02  0.41800000000E+01 0. -1.
        -11    1    3    3    0    0 -0.22118368685E+01  0.11800839088E+02  0.27412283009E+02  0.29926330969E+02  0.00000000000E+00 0.  1.
         11    1    3    3    0    0  0.14872391940E+02 -0.36956412079E+02 -0.57316242626E+02  0.69800545159E+02  0.00000000000E+00 0. -1.
</event>
<event>
 7    1  0.6610867E-006  0.9786343E+02  0.7561462E-02  0.1284854E+00
          1   -1    0    0  501    0  0.00000000000E+00  0.00000000000E+00  0.46282575400E+02  0.46282575400E+02  0.00000000000E+00 0. -1.
         -1   -1    0    0    0  501 -0.00000000000E+00 -0.00000000000E+00 -0.40853394103E+03  0.40853394103E+03  0.00000000000E+00 0.  1.
         23    2    1    2    0    0  0.39299778687E+02  0.63999812862E+02 -0.10058944899E+03  0.15522683351E+03  0.91305443112E+02 0.  0.
          5    1    1    2  502    0 -0.52725620378E+02 -0.55078209755E+02 -0.27026514114E+03  0.28084572126E+03  0.41800000000E+01 0. -1.
         -5    1    1    2    0  502  0.13425841691E+02 -0.89216031064E+01  0.86032244967E+01  0.18743961664E+02  0.41800000000E+01 0. -1.
        -11    1    3    3    0    0  0.59290966954E+02  0.54679930097E+02 -0.38572802965E+02  0.89404556071E+02  0.00000000000E+00 0. -1.
         11    1    3    3    0    0 -0.19991188267E+02  0.93198827647E+01 -0.62016646021E+02  0.65822277435E+02  0.00000000000E+00 0.  1.
</event>
<event>
 7    1  0.6610867E-006  0.9900344E+02  0.7561462E-02  0.1282406E+00
          1   -1    0    0  501    0  0.00000000000E+00  0.00000000000E+00  0.73926794206E+03  0.73926794206E+03  0.00000000000E+00 0. -1.
         -1   -1    0    0    0  501 -0.00000000000E+00 -0.00000000000E+00 -0.25559231104E+02  0.25559231104E+02  0.00000000000E+00 0.  1.
         23    2    1    2    0    0  0.69330782471E+02 -0.18350982534E+02  0.20777016831E+03  0.23874200348E+03  0.93197561268E+02 0.  0.
          5    1    1    2  502    0 -0.17710309914E+02 -0.42145546713E+02  0.75647935362E+02  0.88487200823E+02  0.41800000000E+01 0.  1.
         -5    1    1    2    0  502 -0.51620472556E+02  0.60496529246E+02  0.43029060728E+03  0.43759796886E+03  0.41800000000E+01 0.  1.
        -11    1    3    3    0    0  0.14354865206E+02 -0.82855368130E+01 -0.61216188727E+01  0.17668799987E+02  0.00000000000E+00 0.  1.
         11    1    3    3    0    0  0.54975917265E+02 -0.10065445721E+02  0.21389178718E+03  0.22107320349E+03  0.00000000000E+00 0. -1.
</event>
<event>
 7    1  0.6610867E-006  0.8051020E+02  0.7561462E-02  0.1327610E+00
          3   -1    0    0  501    0  0.00000000000E+00  0.00000000000E+00  0.34744269030E+03  0.34744269030E+03  0.00000000000E+00 0. -1.
         -3   -1    0    0    0  501 -0.00000000000E+00 -0.00000000000E+00 -0.48055487017E+02  0.48055487017E+02  0.00000000000E+00 0.  1.
         23    2    1    2    0    0  0.15867674580E+02 -0.12839755511E+01  0.30302578535E+02  0.98329219868E+02  0.92178942954E+02 0.  0.
          5    1    1    2  502    0 -0.18044095634E+02  0.61969850384E+02  0.12461694406E+03  0.14040194761E+03  0.41800000000E+01 0.  1.
         -5    1    1    2    0  502  0.21764210547E+01 -0.60685874833E+02  0.14446768068E+03  0.15676700984E+03  0.41800000000E+01 0.  1.
        -11    1    3    3    0    0  0.17346489592E+01  0.14317441383E+02  0.60122177629E+02  0.61827779983E+02  0.00000000000E+00 0. -1.
         11    1    3    3    0    0  0.14133025621E+02 -0.15601416934E+02 -0.29819599094E+02  0.36501439885E+02  0.00000000000E+00 0.  1.
</event>
<event>
 7    1  0.6610867E-006  0.1046829E+03  0.7561462E-02  0.1270746E+00
         -3   -1    0    0    0  501 -0.00000000000E+00  0.00000000000E+00  0.23408719217E+02  0.23408719217E+02  0.00000000000E+00 0.  1.
          3   -1    0    0  501    0  0.00000000000E+00 -0.00000000000E+00 -0.61259472666E+03  0.61259472666E+03  0.00000000000E+00 0. -1.
         23    2    1    2    0    0  0.11000941553E+01  0.62048956843E+02 -0.15551172695E+03  0.18040238372E+03  0.67155339182E+02 0.  0.
          5    1    1    2  502    0 -0.39241124086E+02  0.11722997492E+02 -0.59859333295E+02  0.72649202832E+02  0.41800000000E+01 0.  1.
         -5    1    1    2    0  502  0.38141029930E+02 -0.73771954335E+02 -0.37381494720E+03  0.38295185933E+03  0.41800000000E+01 0.  1.
        -11    1    3    3    0    0 -0.25262441067E+02  0.50082769746E+02 -0.13086752286E+03  0.14238252454E+03  0.00000000000E+00 0. -1.
         11    1    3    3    0    0  0.26362535222E+02  0.11966187097E+02 -0.24644204083E+02  0.38019859178E+02  0.00000000000E+00 0.  1.
</event>
<event>
 7    1  0.6610867E-006  0.1345020E+03  0.7561462E-02  0.1220924E+00
         -1   -1    0    0    0  501 -0.00000000000E+00  0.00000000000E+00  0.31429887630E+03  0.31429887630E+03  0.00000000000E+00 0.  1.
          1   -1    0    0  501    0  0.00000000000E+00 -0.00000000000E+00 -0.85793079288E+02  0.85793079288E+02  0.00000000000E+00 0. -1.
         23    2    1    2    0    0 -0.70663359132E+01  0.11280614122E+03  0.46571060482E+02  0.15205481083E+03  0.90424793175E+02 0.  0.
          5    1    1    2  502    0  0.47878228282E+02 -0.53860929631E+02  0.26647551621E+02  0.76947312438E+02  0.41800000000E+01 0.  1.
         -5    1    1    2    0  502 -0.40811892368E+02 -0.58945211588E+02  0.15528718490E+03  0.17108983232E+03  0.41800000000E+01 0.  1.
        -11    1    3    3    0    0  0.20897361920E+02  0.23635021988E+02 -0.19965355036E+02  0.37335363950E+02  0.00000000000E+00 0. -1.
         11    1    3    3    0    0 -0.27963697833E+02  0.89171119231E+02  0.66536415518E+02  0.11471944688E+03  0.00000000000E+00 0.  1.
</event>
<event>
 7    1  0.6610867E-006  0.1665277E+03  0.7561462E-02  0.1181518E+00
         -2   -1    0    0    0  501 -0.00000000000E+00  0.00000000000E+00  0.39486514936E+02  0.39486514936E+02  0.00000000000E+00 0.  1.
          2   -1    0    0  501    0  0.00000000000E+00 -0.00000000000E+00 -0.72398858567E+03  0.72398858567E+03  0.00000000000E+00 0. -1.
         23    2    1    2    0    0 -0.38004157479E+02 -0.12406436065E+03 -0.31376869619E+03  0.35125414009E+03  0.89957738169E+02 0.  0.
          5    1    1    2  502    0  0.60112022135E+02  0.13758024378E+03 -0.27966534897E+03  0.31744599304E+03  0.41800000000E+01 0.  1.
         -5    1    1    2    0  502 -0.22107864656E+02 -0.13515883139E+02 -0.91068025582E+02  0.94774967476E+02  0.41800000000E+01 0.  1.
        -11    1    3    3    0    0 -0.62089492015E+02 -0.53194946558E+02 -0.18596693532E+03  0.20314651951E+03  0.00000000000E+00 0. -1.
         11    1    3    3    0    0  0.24085334536E+02 -0.70869414087E+02 -0.12780176087E+03  0.14810762058E+03  0.00000000000E+00 0.  1.
</event>
<event>
 7    1  0.6610867E-006  0.1157889E+03  0.7561462E-02  0.1250210E+00
         -1   -1    0    0    0  501 -0.00000000000E+00  0.00000000000E+00  0.12929067885E+02  0.12929067885E+02  0.00000000000E+00 0.  1.
          1   -1    0    0  501    0  0.00000000000E+00 -0.00000000000E+00 -0.12989009779E+04  0.12989009779E+04  0.00000000000E+00 0. -1.
         23    2    1    2    0    0  0.61986475309E+02  0.25609773654E+01 -0.36388147538E+03  0.37922724009E+03  0.86917718450E+02 0.  0.
          5    1    1    2  502    0  0.21894075313E+02  0.28024125334E+02 -0.49318895654E+03  0.49448712965E+03  0.41800000000E+01 0.  1.
         -5    1    1    2    0  502 -0.83880550622E+02 -0.30585102699E+02 -0.42890147808E+03  0.43811567602E+03  0.41800000000E+01 0.  1.
        -11    1    3    3    0    0  0.44127548121E+02 -0.40422902315E+02 -0.18829027484E+03  0.19757145324E+03  0.00000000000E+00 0.  1.
         11    1    3    3    0    0  0.17858927188E+02  0.42983879681E+02 -0.17559120054E+03  0.18165578686E+03  0.00000000000E+00 0. -1.
</event>
<event>
 7    1  0.6610867E-006  0.1174944E+03  0.7561462E-02  0.1247289E+00
          2   -1    0    0  501    0  0.00000000000E+00  0.00000000000E+00  0.12726672584E+04  0.12726672584E+04  0.00000000000E+00 0.  1.
         -2   -1    0    0    0  501 -0.00000000000E+00 -0.00000000000E+00 -0.15499627627E+02  0.15499627627E+02  0.00000000000E+00 0. -1.
         23    2    1    2    0    0 -0.40896189720E+02  0.78094035849E+02  0.52435761361E+03  0.53954852494E+03  0.91599820097E+02 0.  0.
          5    1    1    2  502    0  0.13945911881E+02  0.11057575309E+02  0.12145974340E+02  0.21948929873E+02  0.41800000000E+01 0. -1.
         -5    1    1    2    0  502  0.26950277839E+02 -0.89151611157E+02  0.72066404285E+03  0.72666943124E+03  0.41800000000E+01 0. -1.
        -11    1    3    3    0    0 -0.15371155323E+01 -0.18816288106E+02  0.43070520841E+02  0.47026430736E+02  0.00000000000E+00 0. -1.
         11    1    3    3    0    0 -0.39359074188E+02  0.96910323954E+02  0.48128709277E+03  0.49252209420E+03  0.00000000000E+00 0.  1.
</event>
<event>
 6    1  0.6610867E-006  0.1319480E+03  0.7561462E-02  0.1224594E+00
         -2   -1    0    0    0  501 -0.00000000000E+00  0.00000000000E+00  0.51864884668E+02  0.51864884668E+02  0.00000000000E+00 0.  1.
          2   -1    0    0  501    0  0.00000000000E+00 -0.00000000000E+00 -0.23795437505E+04  0.23795437505E+04  0.00000000000E+00 0. -1.
          5    1    1    2  502    0  0.74982879614E+01  0.47669642173E+02 -0.10372759726E+04  0.10384062475E+04  0.41800000000E+01 0. -1.
         -5    1    1    2    0  502 -0.40746245612E+02 -0.67544821109E+02 -0.12474254946E+04  0.12499241562E+04  0.41800000000E+01 0.  1.
        -11    1    1    2    0    0  0.41584175904E+02 -0.50602319185E+02 -0.21257476487E+02  0.68860138681E+02  0.00000000000E+00 0.  1.
         11    1    1    2    0    0 -0.83362182535E+01  0.70477498122E+02 -0.21719922180E+02  0.74218092779E+02  0.00000000000E+00 0. -1.
</event>
<event>
 7    1  0.6610867E-006  0.1111817E+03  0.7561462E-02  0.1258397E+00
         -2   -1    0    0    0  501 -0.00000000000E+00  0.00000000000E+00  0.34039680068E+02  0.34039680068E+02  0.00000000000E+00 0.  1.
          2   -1    0    0  501    0  0.00000000000E+00 -0.00000000000E+00 -0.79512231565E+03  0.79512231565E+03  0.00000000000E+00 0. -1.
         23    2    1    2    0    0 -0.60108860083E+02  0.11996308076E+02 -0.82180217837E+02  0.13708151752E+03  0.90998724022E+02 0.  0.
          5    1    1    2  502    0  0.75319885893E+02 -0.45684526320E+02 -0.34425058288E+03  0.35536755250E+03  0.41800000000E+01 0. -1.
         -5    1    1    2    0  502 -0.15211025810E+02  0.33688218245E+02 -0.33465183487E+03  0.33671292570E+03  0.41800000000E+01 0.  1.
        -11    1    3    3    0    0 -0.64767327495E+02  0.34920175085E+02 -0.29193925429E+02  0.79161294967E+02  0.00000000000E+00 0.  1.
         11    1    3    3    0    0  0.46584674121E+01 -0.22923867010E+02 -0.52986292409E+02  0.57920222553E+02  0.00000000000E+00 0. -1.
</event>
<event>
 6    1  0.6610867E-006  0.1177384E+03  0.7561462E-02  0.1246875E+00
          4   -1    0    0  501    0  0.00000000000E+00  0.00000000000E+00  0.13843180294E+03  0.13843180294E+03  0.00000000000E+00 0. -1.
         -4   -1    0    0    0  501 -0.00000000000E+00 -0.00000000000E+00 -0.16069933690E+03  0.16069933690E+03  0.00000000000E+00 0.  1.
          5    1    1    2  502    0  0.16335746099E+02 -0.48806084284E+02 -0.13400254207E+02  0.53347255567E+02  0.41800000000E+01 0. -1.
         -5    1    1    2    0  502 -0.64392617984E+02  0.43771376481E+02  0.22065106292E+02  0.81035078611E+02  0.41800000000E+01 0. -1.
        -11    1    1    2    0    0 -0.28781204266E+02 -0.94190826365E+00 -0.71910364005E+02  0.77461896191E+02  0.00000000000E+00 0.  1.
         11    1    1    2    0    0  0.76838076151E+02  0.59766160670E+01  0.40977977959E+02  0.87286909464E+02  0.00000000000E+00 0. -1.
</event>
<event>
 7    1  0.6610867E-006  0.5001114E+02  0.7561462E-02  0.1445281E+00
          2   -1    0    0  501    0  0.00000000000E+00  0.00000000000E+00  0.31954658140E+03  0.31954658140E+03  0.00000000000E+00 0. -1.
         -2   -1    0    0    0  501 -0.00000000000E+00 -0.00000000000E+00 -0.41717205904E+02  0.41717205904E+02  0.00000000000E+00 0.  1.
         23    2    1    2    0    0  0.12342524606E+02 -0.86833545451E+00  0.53410929220E+02  0.10403932927E+03  0.88421506181E+02 0.  0.
          5    1    1    2  502    0  0.18893476835E+02  0.88992859070E+01 -0.78432800675E+01  0.22696920469E+02  0.41800000000E+01 0.  1.
         -5    1    1    2    0  502 -0.31236001440E+02 -0.80309504525E+01  0.23226172634E+03  0.23452753756E+03  0.41800000000E+01 0.  1.
        -11    1    3    3    0    0  0.12996959362E+02  0.20798395318E+02 -0.17343975653E+02  0.30038436908E+02  0.00000000000E+00 0.  1.
         11    1    3    3    0    0 -0.65443475670E+00 -0.21666730772E+02  0.70754904873E+02  0.74000892364E+02  0.00000000000E+00 0. -1.
</event>
<event>
 7    1  0.6610867E-006  0.9852123E+02  0.7561462E-02  0.1283437E+00
          2   -1    0    0  501    0  0.00000000000E+00  0.00000000000E+00  0.52395504981E+03  0.52395504981E+03  0.00000000000E+00 0. -1.
         -2   -1    0    0    0  501 -0.00000000000E+00 -0.00000000000E+00 -0.25139776919E+02  0.25139776919E+02  0.00000000000E+00 0.  1.
         23    2    1    2    0    0 -0.18603589455E+02 -0.19552630709E+02  0.18983593468E+03  0.21291477549E+03  0.92556040406E+02 0.  0.
          5    1    1    2  502    0  0.65004512634E+02  0.38124595470E+01  0.86611639445E+02  0.10843970674E+03  0.41800000000E+01 0. -1.
         -5    1    1    2    0  502 -0.46400923179E+02  0.15740171162E+02  0.22236769876E+03  0.22774034450E+03  0.41800000000E+01 0.  1.
        -11    1    3    3    0    0  0.26660140289E+02  0.10094851368E+02  0.20415882584E+02  0.35063904033E+02  0.00000000000E+00 0. -1.
         11    1    3    3    0    0 -0.45263729744E+02 -0.29647482077E+02  0.16942005210E+03  0.17785087146E+03  0.00000000000E+00 0.  1.
</event>
<event>
 7    1  0.7214252E-006  0.1488443E+03  0.7561462E-02  0.1201900E+00
         -2   -1    0    0    0  501 -0.00000000000E+00  0.00000000000E+00  0.15820397170E+03  0.15820397170E+03  0.00000000000E+00 0.  1.
          2   -1    0    0  501    0  0.00000000000E+00 -0.00000000000E+00 -0.16764389175E+03  0.16764389175E+03  0.00000000000E+00 0. -1.
         23    2    1    2    0    0  0.49450059424E+02  0.92578429544E+02  0.56585603468E+02  0.14971479676E+03  0.90534611367E+02 0.  0.
          5    1    1    2  502    0  0.41739570276E+02 -0.20751938598E+02 -0.13926656372E+02  0.48828873017E+02  0.41800000000E+01 0. -1.
         -5    1    1    2    0  502 -0.91189629701E+02 -0.71826490946E+02 -0.52098867151E+02  0.12730419367E+03  0.41800000000E+01 0. -1.
        -11    1    3    3    0    0  0.29920096759E+02  0.10658127398E+03  0.59209074621E+02  0.12554080878E+03  0.00000000000E+00 0.  1.
         11    1    3    3    0    0  0.19529962665E+02 -0.14002844432E+02 -0.26234711526E+01  0.24173987978E+02  0.00000000000E+00 0. -1.
</event>
<event>
 7    1  0.6610867E-006  0.9685980E+02  0.7561462E-02  0.1287041E+00
          2   -1    0    0  501    0  0.00000000000E+00  0.00000000000E+00  0.22236788346E+03  0.22236788346E+03  0.00000000000E+00 0. -1.
         -2   -1    0    0    0  501 -0.00000000000E+00 -0.00000000000E+00 -0.75297652350E+02  0.75297652350E+02  0.00000000000E+00 0.  1.
         23    2    1    2    0    0 -0.13347542905E+02  0.45303062382E+02  0.54473098845E+01  0.10289316418E+03  0.91251332520E+02 0.  0.
          5    1    1    2  502    0 -0.42506800225E+01  0.21244571931E+02  0.12070858481E+03  0.12270874037E+03  0.41800000000E+01 0.  1.
         -5    1    1    2    0  502  0.17598222928E+02 -0.66547634313E+02  0.20914336418E+02  0.72063631262E+02  0.41800000000E+01 0.  1.
        -11    1    3    3    0    0  0.78278777500E+01 -0.26604278507E+02 -0.42052619544E-01  0.27732022526E+02  0.00000000000E+00 0.  1.
         11    1    3    3    0    0 -0.21175420656E+02  0.71907340889E+02  0.54893625040E+01  0.75161141651E+02  0.00000000000E+00 0. -1.
</event>
<event>
 7    1  0.6610867E-006  0.7267305E+02  0.7561462E-02  0.1351232E+00
         -2   -1    0    0    0  501 -0.00000000000E+00  0.00000000000E+00  0.25697180158E+02  0.25697180158E+02  0.00000000000E+00 0.  1.
          2   -1    0    0  501    0  0.00000000000E+00 -0.00000000000E+00 -0.80977888235E+03  0.80977888235E+03  0.00000000000E+00 0. -1.
         23    2    1    2    0    0 -0.47906214570E+02  0.30385930076E+01 -0.13465581683E+03  0.16703058226E+03  0.86387429415E+02 0.  0.
          5    1    1    2  502    0  0.27810644220E+01 -0.17902531573E+02 -0.59807017672E+03  0.59835912597E+03  0.41800000000E+01 0. -1.
         -5    1    1    2    0  502  0.45125150148E+02  0.14863938565E+02 -0.51355708645E+02  0.70086354278E+02  0.41800000000E+01 0.  1.
        -11    1    3    3    0    0  0.15324072945E+02  0.39400773671E+01  0.24812093120E+01  0.16015861542E+02  0.00000000000E+00 0.  1.
         11    1    3    3    0    0 -0.63230287516E+02 -0.90148435953E+00 -0.13713702614E+03  0.15101472071E+03  0.00000000000E+00 0. -1.
</event>
<event>
 7    1  0.6610867E-006  0.7681820E+02  0.7561462E-02  0.1338331E+00
         -1   -1    0    0    0  501 -0.00000000000E+00  0.00000000000E+00  0.48542429077E+02  0.48542429077E+02  0.00000000000E+00 0.  1.
          1   -1    0    0  501    0  0.00000000000E+00 -0.00000000000E+00 -0.31059039294E+03  0.31059039294E+03  0.00000000000E+00 0. -1.
         23    2    1    2    0    0  0.56216282562E+02  0.87649896742E+01 -0.12914882412E+03  0.16795538607E+03  0.91063150986E+02 0.  0.
          5    1    1    2  502    0 -0.23272287403E+02  0.32645270443E+02  0.75703009593E+01  0.41013350264E+02  0.41800000000E+01 0.  1.
         -5    1    1    2    0  502 -0.32943995158E+02 -0.41410260117E+02 -0.14046944070E+03  0.15016408568E+03  0.41800000000E+01 0.  1.
        -11    1    3    3    0    0  0.31864360721E+02  0.14836971888E+02  0.12419209732E+01  0.35171232373E+02  0.00000000000E+00 0.  1.
         11    1    3    3    0    0  0.24351921841E+02 -0.60719822135E+01 -0.13039074510E+03  0.13278415370E+03  0.00000000000E+00 0. -1.
</event>
<event>
 7    1  0.6610867E-006  0.1197152E+03  0.7561462E-02  0.1243568E+00
          4   -1    0    0  501    0  0.00000000000E+00  0.00000000000E+00  0.41359540907E+03  0.41359540907E+03  0.00000000000E+00 0.  1.
         -4   -1    0    0    0  501 -0.00000000000E+00 -0.00000000000E+00 -0.54276705647E+02  0.54276705647E+02  0.00000000000E+00 0. -1.
         23    2    1    2    0    0  0.88500890694E+02  0.50402186749E+02  0.14440128374E+03  0.19915467181E+03  0.91858937924E+02 0.  0.
          5    1    1    2  502    0  0.19269360182E+02 -0.93588815044E+01  0.11195897746E+03  0.11406656801E+03  0.41800000000E+01 0.  1.
         -5    1    1    2    0  502 -0.10777025088E+03 -0.41043305245E+02  0.10295844223E+03  0.15465087489E+03  0.41800000000E+01 0.  1.
        -11    1    3    3    0    0  0.20177976824E+02  0.74732349028E+01 -0.10915939163E+02  0.24127944721E+02  0.00000000000E+00 0. -1.
         11    1    3    3    0    0  0.68322913870E+02  0.42928951847E+02  0.15531722290E+03  0.17502672709E+03  0.00000000000E+00 0.  1.
</event>
<event>
 7    1  0.6610867E-006  0.1093965E+03  0.7561462E-02  0.1261692E+00
          3   -1    0    0  501    0  0.00000000000E+00  0.00000000000E+00  0.11982457075E+03  0.11982457075E+03  0.00000000000E+00 0. -1.
         -3   -1    0    0    0  501 -0.00000000000E+00 -0.00000000000E+00 -0.12048714639E+03  0.12048714639E+03  0.00000000000E+00 0.  1.
         23    2    1    2    0    0 -0.28047345881E+02 -0.12473001924E+02 -0.43180541463E+02  0.10467894514E+03  0.90282296200E+02 0.  0.
          5    1    1    2  502    0  0.76287248385E+02  0.17731764714E-01  0.12788452704E+02  0.77464582250E+02  0.41800000000E+01 0. -1.
         -5    1    1    2    0  502 -0.48239902504E+02  0.12455270159E+02  0.29729513123E+02  0.58168189750E+02  0.41800000000E+01 0. -1.
        -11    1    3    3    0    0 -0.26313180403E+02 -0.49110642103E+02 -0.13080192920E+02  0.57230499539E+02  0.00000000000E+00 0. -1.
         11    1    3    3    0    0 -0.17341654789E+01  0.36637640179E+02 -0.30100348542E+02  0.47448445603E+02  0.00000000000E+00 0.  1.
</event>
<event>
 7    1  0.6610867E-006  0.8597535E+02  0.7561462E-02  0.1312901E+00
         -2   -1    0    0    0  501 -0.00000000000E+00  0.00000000000E+00  0.65402583684E+03  0.65402583684E+03  0.00000000000E+00 0.  1.
          2   -1    0    0  501    0  0.00000000000E+00 -0.00000000000E+00 -0.19962689627E+02  0.19962689627E+02  0.00000000000E+00 0. -1.
         23    2    1    2    0    0  0.17369791428E+02  0.33780237318E+02  0.24212309854E+03  0.26082086993E+03  0.89225093191E+02 0.  0.
          5    1    1    2  502    0 -0.31677115234E+02 -0.45822415903E+02  0.65166909508E+02  0.85833163309E+02  0.41800000000E+01 0. -1.
         -5    1    1    2    0  502  0.14307323807E+02  0.12042178585E+02  0.32677313917E+03  0.32733449323E+03  0.41800000000E+01 0. -1.
        -11    1    3    3    0    0 -0.31914006268E+02  0.35340417873E+02  0.12303871800E+03  0.13193170604E+03  0.00000000000E+00 0.  1.
         11    1    3    3    0    0  0.49283797696E+02 -0.15601805545E+01  0.11908438054E+03  0.12888916389E+03  0.00000000000E+00 0. -1.
</event>
<event>
 7    1  0.6610867E-006  0.1460719E+03  0.7561462E-02  0.1205385E+00
         -2   -1    0    0    0  501 -0.00000000000E+00  0.00000000000E+00  0.63265617723E+02  0.63265617723E+02  0.00000000000E+00 0.  1.
          2   -1    0    0  501    0  0.00000000000E+00 -0.00000000000E+00 -0.43285060905E+03  0.43285060905E+03  0.00000000000E+00 0. -1.
         23    2    1    2    0    0  0.39288568107E+02 -0.11288001006E+03 -0.12108497684E+03  0.19332373140E+03  0.91798721401E+02 0.  0.
          5    1    1    2  502    0  0.16381626271E+02  0.98383854532E+02 -0.21255810074E+03  0.23483219350E+03  0.41800000000E+01 0. -1.
         -5    1    1    2    0  502 -0.55670194378E+02  0.14496155529E+02 -0.35941913737E+02  0.67960301870E+02  0.41800000000E+01 0. -1.
        -11    1    3    3    0    0 -0.11852436835E+02 -0.59678127983E+02 -0.12626069709E+02  0.62139977911E+02  0.00000000000E+00 0.  1.
         11    1    3    3    0    0  0.51141004942E+02 -0.53201882078E+02 -0.10845890714E+03  0.13118375349E+03  0.00000000000E+00 0. -1.
</event>
<event>
 7    1  0.6610867E-006  0.1111682E+03  0.7561462E-02  0.1258422E+00
         -2   -1    0    0    0  501 -0.00000000000E+00  0.00000000000E+00  0.23927592155E+03  0.23927592155E+03  0.00000000000E+00 0.  1.
          2   -1    0    0  501    0  0.00000000000E+00 -0.00000000000E+00 -0.88075758433E+02  0.88075758433E+02  0.00000000000E+00 0. -1.
         23    2    1    2    0    0  0.11940758960E+01 -0.86414123568E+02  0.87998535663E+02  0.16818787909E+03  0.11434419017E+03 0.  0.
          5    1    1    2  502    0 -0.29308819018E+02  0.98964397284E+02  0.18837858022E+02  0.10500140998E+03  0.41800000000E+01 0. -1.
         -5    1    1    2    0  502  0.28114743122E+02 -0.12550273716E+02  0.44363769429E+02  0.54162390910E+02  0.41800000000E+01 0.  1.
        -11    1    3    3    0    0  0.74184764923E+01 -0.21270902505E+02  0.99261575450E+02  0.10178578215E+03  0.00000000000E+00 0.  1.
         11    1    3    3    0    0 -0.62244005963E+01 -0.65143221063E+02 -0.11263039788E+02  0.66402096944E+02  0.00000000000E+00 0. -1.
</event>
<event>
 7    1  0.6610867E-006  0.1535053E+03  0.7561462E-02  0.1196231E+00
         -2   -1    0    0    0  501 -0.00000000000E+00  0.00000000000E+00  0.38517191359E+02  0.38517191359E+02  0.00000000000E+00 0.  1.
          2   -1    0    0  501    0  0.00000000000E+00 -0.00000000000E+00 -0.81999966690E+03  0.81999966690E+03  0.00000000000E+00 0. -1.
         23    2    1    2    0    0 -0.12911597336E+03  0.24912763939E+02 -0.24761287320E+03  0.29464165320E+03  0.90608986543E+02 0.  0.
          5    1    1    2  502    0  0.14198957209E+03 -0.21035741080E+02 -0.53023218808E+03  0.54933340210E+03  0.41800000000E+01 0. -1.
         -5    1    1    2    0  502 -0.12873598736E+02 -0.38770228586E+01 -0.36374142533E+01  0.14541802953E+02  0.41800000000E+01 0. -1.
        -11    1    3    3    0    0 -0.96036203285E+02  0.49567959772E+02 -0.12483479206E+03  0.16511711082E+03  0.00000000000E+00 0.  1.
         11    1    3    3    0    0 -0.33079770073E+02 -0.24655195833E+02 -0.12277808114E+03  0.12952454238E+03  0.00000000000E+00 0. -1.
</event>
<event>
 7    1  0.6610867E-006  0.1005500E+03  0.7561462E-02  0.1279144E+00
         -2   -1    0    0    0  501 -0.00000000000E+00  0.00000000000E+00  0.33450456213E+02  0.33450456213E+02  0.00000000000E+00 0.  1.
          2   -1    0    0  501    0  0.00000000000E+00 -0.00000000000E+00 -0.54751285872E+03  0.54751285872E+03  0.00000000000E+00 0. -1.
         23    2    1    2    0    0 -0.22991349350E+02  0.26544559241E+02 -0.74374828241E+02  0.12248134711E+03  0.90757090870E+02 0.  0.
          5    1    1    2  502    0 -0.41436948533E+02  0.22683753410E+02 -0.19464630467E+03  0.20034028475E+03  0.41800000000E+01 0. -1.
         -5    1    1    2    0  502  0.64428297883E+02 -0.49228312651E+02 -0.24504126959E+03  0.25814168307E+03  0.41800000000E+01 0. -1.
        -11    1    3    3    0    0  0.41686088594E+01 -0.19002946471E+02 -0.65982509764E+02  0.68790848731E+02  0.00000000000E+00 0. -1.
         11    1    3    3    0    0 -0.27159958209E+02  0.45547505712E+02 -0.83923184773E+01  0.53690498377E+02  0.00000000000E+00 0.  1.
</event>
<event>
 7    1  0.6610867E-006  0.9970633E+02  0.7561462E-02  0.1280915E+00
          1   -1    0    0  501    0  0.00000000000E+00  0.00000000000E+00  0.32397369350E+02  0.32397369350E+02  0.00000000000E+00 0. -1.
         -1   -1    0    0    0  501 -0.00000000000E+00 -0.00000000000E+00 -0.45022912909E+03  0.45022912909E+03  0.00000000000E+00 0.  1.
         23    2    1    2    0    0 -0.17337062851E+02  0.18022075111E+02 -0.28934922262E+03  0.30157122376E+03  0.81221065206E+02 0.  0.
          5    1    1    2  502    0 -0.15728820044E+02  0.47899121983E+02 -0.33268384018E+02  0.60547332244E+02  0.41800000000E+01 0. -1.
         -5    1    1    2    0  502  0.33065882895E+02 -0.65921197094E+02 -0.95214153106E+02  0.12050794243E+03  0.41800000000E+01 0. -1.
        -11    1    3    3    0    0 -0.35729460700E+02  0.34934647594E+02 -0.25010314366E+03  0.25504628292E+03  0.00000000000E+00 0.  1.
         11    1    3    3    0    0  0.18392397849E+02 -0.16912572483E+02 -0.39246078958E+02  0.46524940840E+02  0.00000000000E+00 0. -1.
</event>
<event>
 7    1  0.6610867E-006  0.1361255E+03  0.7561462E-02  0.1218640E+00
         -2   -1    0    0    0  501 -0.00000000000E+00  0.00000000000E+00  0.14768539239E+02  0.14768539239E+02  0.00000000000E+00 0. -1.
          2   -1    0    0  501    0  0.00000000000E+00 -0.00000000000E+00 -0.18252359394E+04  0.18252359394E+04  0.00000000000E+00 0.  1.
         23    2    1    2    0    0 -0.63863937390E+01  0.11516216433E+03 -0.62815950369E+03  0.64551593882E+03  0.93826196148E+02 0.  0.
          5    1    1    2  502    0  0.23048935883E+02 -0.81712542431E+01 -0.40113920664E+02  0.47165897344E+02  0.41800000000E+01 0. -1.
         -5    1    1    2    0  502 -0.16662542144E+02 -0.10699091009E+03 -0.11421939758E+04  0.11473226425E+04  0.41800000000E+01 0. -1.
        -11    1    3    3    0    0 -0.37084454592E+02  0.95947674586E+02 -0.54777927175E+03  0.55735387644E+03  0.00000000000E+00 0.  1.
         11    1    3    3    0    0  0.30698060853E+02  0.19214489744E+02 -0.80380231941E+02  0.88162062381E+02  0.00000000000E+00 0. -1.
</event>
<event>
 7    1  0.6610867E-006  0.1271039E+03  0.7561462E-02  0.1231817E+00
          2   -1    0    0  501    0  0.00000000000E+00  0.00000000000E+00  0.60893740263E+02  0.60893740263E+02  0.00000000000E+00 0.  1.
         -2   -1    0    0    0  501 -0.00000000000E+00 -0.00000000000E+00 -0.37918836354E+03  0.37918836354E+03  0.00000000000E+00 0. -1.
         23    2    1    2    0    0 -0.83236300785E+02  0.65676299586E+02 -0.15091555636E+03  0.20575840340E+03  0.91210511041E+02 0.  0.
          5    1    1    2  502    0  0.40048655757E+02  0.18182586966E+02 -0.24117255900E+01  0.44246922119E+02  0.41800000000E+01 0. -1.
         -5    1    1    2    0  502  0.43187645028E+02 -0.83858886552E+02 -0.16496734133E+03  0.19007677828E+03  0.41800000000E+01 0. -1.
        -11    1    3    3    0    0 -0.21436619147E+02 -0.47028877541E+01  0.62340019754E+01  0.22814657007E+02  0.00000000000E+00 0.  1.
         11    1    3    3    0    0 -0.61799681638E+02  0.70379187340E+02 -0.15714955833E+03  0.18294374640E+03  0.00000000000E+00 0. -1.
</event>
<event>
 7    1  0.6610867E-006  0.1058686E+03  0.7561462E-02  0.1268418E+00
          2   -1    0    0  501    0  0.00000000000E+00  0.00000000000E+00  0.12062395721E+03  0.12062395721E+03  0.00000000000E+00 0.  1.
         -2   -1    0    0    0  501 -0.00000000000E+00 -0.00000000000E+00 -0.15376932742E+03  0.15376932742E+03  0.00000000000E+00 0. -1.
         23    2    1    2    0    0  0.54429045992E+02 -0.48981720699E+01 -0.76503503821E+02  0.13116597910E+03  0.91461548425E+02 0.  0.
          5    1    1    2  502    0 -0.86541615928E+02  0.22589996670E+02  0.45184170255E+01  0.89652929285E+02  0.41800000000E+01 0. -1.
         -5    1    1    2    0  502  0.32112569937E+02 -0.17691824600E+02  0.38839716588E+02  0.53574376247E+02  0.41800000000E+01 0. -1.
        -11    1    3    3    0    0  0.39655568217E+02 -0.34274699540E+02 -0.52326701536E+01  0.52675420797E+02  0.00000000000E+00 0.  1.
         11    1    3    3    0    0  0.14773477775E+02  0.29376527470E+02 -0.71270833667E+02  0.78490558307E+02  0.00000000000E+00 0. -1.
</event>
<event>
 7    1  0.6610867E-006  0.1076941E+03  0.7561462E-02  0.1264901E+00
          2   -1    0    0  501    0  0.00000000000E+00  0.00000000000E+00  0.29660410842E+03  0.29660410842E+03  0.00000000000E+00 0. -1.
         -2   -1    0    0    0  501 -0.00000000000E+00 -0.00000000000E+00 -0.66416704302E+02  0.66416704302E+02  0.00000000000E+00 0.  1.
         23    2    1    2    0    0 -0.44800184405E+02  0.41907446584E+02  0.25612208285E+02  0.11551285569E+03  0.94466629100E+02 0.  0.
          5    1    1    2  502    0  0.87317812923E+02 -0.26875233244E+02  0.15788563609E+03  0.18246102351E+03  0.41800000000E+01 0.  1.
         -5    1    1    2    0  502 -0.42517628518E+02 -0.15032213340E+02  0.46689559744E+02  0.65046933531E+02  0.41800000000E+01 0.  1.
        -11    1    3    3    0    0 -0.54546171281E+02  0.27079091955E+02 -0.21962063426E+02  0.64737116498E+02  0.00000000000E+00 0.  1.
         11    1    3    3    0    0  0.97459868760E+01  0.14828354629E+02  0.47574271711E+02  0.50775739187E+02  0.00000000000E+00 0. -1.
</event>
<event>
 7    1  0.6610867E-006  0.1445804E+03  0.7561462E-02  0.1207295E+00
          1   -1    0    0  501    0  0.00000000000E+00  0.00000000000E+00  0.13047169534E+03  0.13047169534E+03  0.00000000000E+00 0. -1.
         -1   -1    0    0    0  501 -0.00000000000E+00 -0.00000000000E+00 -0.18821816514E+03  0.18821816514E+03  0.00000000000E+00 0.  1.
         23    2    1    2    0    0  0.33211519874E+02 -0.10843998058E+03 -0.44960185436E+02  0.14932196307E+03  0.86101079796E+02 0.  0.
          5    1    1    2  502    0  0.39912190020E+02  0.82876891315E+01 -0.18931391500E+02  0.45139103751E+02  0.41800000000E+01 0. -1.
         -5    1    1    2    0  502 -0.73123709893E+02  0.10015229145E+03  0.61451071302E+01  0.12422879365E+03  0.41800000000E+01 0. -1.
        -11    1    3    3    0    0 -0.38557028430E+01 -0.72081718545E+02 -0.61498201964E+02  0.94829686478E+02  0.00000000000E+00 0.  1.
         11    1    3    3    0    0  0.37067222717E+02 -0.36358262033E+02  0.16538016528E+02  0.54492276597E+02  0.00000000000E+00 0. -1.
</event>
<event>
 7    1  0.6610867E-006  0.1542539E+03  0.7561462E-02  0.1195341E+00
          2   -1    0    0  501    0  0.00000000000E+00  0.00000000000E+00  0.79516719275E+03  0.79516719275E+03  0.00000000000E+00 0. -1.
         -2   -1    0    0    0  501 -0.00000000000E+00 -0.00000000000E+00 -0.81067983611E+02  0.81067983611E+02  0.00000000000E+00 0.  1.
         23    2    1    2    0    0  0.13818950433E+03 -0.50594899962E+02  0.44961283831E+02  0.17978079118E+03  0.92970064131E+02 0.  0.
          5    1    1    2  502    0 -0.51568877126E+02  0.40624962389E+02  0.94007995003E+02  0.11473757964E+03  0.41800000000E+01 0. -1.
         -5    1    1    2    0  502 -0.86620627206E+02  0.99699375724E+01  0.57512993030E+03  0.58171680554E+03  0.41800000000E+01 0. -1.
        -11    1    3    3    0    0  0.10283750083E+03 -0.59723520307E+02  0.67627095943E+02  0.13680597414E+03  0.00000000000E+00 0. -1.
         11    1    3    3    0    0  0.35352003501E+02  0.91286203458E+01 -0.22665812112E+02  0.42974817040E+02  0.00000000000E+00 0.  1.
</event>
<event>
 7    1  0.6610867E-006  0.9457266E+02  0.7561462E-02  0.1292141E+00
         -2   -1    0    0    0  501 -0.00000000000E+00  0.00000000000E+00  0.14194356528E+02  0.14194356528E+02  0.00000000000E+00 0.  1.
          2   -1    0    0  501    0  0.00000000000E+00 -0.00000000000E+00 -0.88388442740E+03  0.88388442740E+03  0.00000000000E+00 0. -1.
         23    2    1    2    0    0  0.10565720989E+02  0.13392352817E+00 -0.25325879762E+03  0.26899541188E+03  0.90038106628E+02 0.  0.
          5    1    1    2  502    0  0.17415586058E+02  0.54792897443E+02 -0.20172816571E+03  0.20980297779E+03  0.41800000000E+01 0.  1.
         -5    1    1    2    0  502 -0.27981307047E+02 -0.54926820971E+02 -0.41470310754E+03  0.41928039426E+03  0.41800000000E+01 0.  1.
        -11    1    3    3    0    0 -0.24324203959E+02  0.18242801916E+02 -0.31503069728E+02  0.43782532159E+02  0.00000000000E+00 0.  1.
         11    1    3    3    0    0  0.34889924947E+02 -0.18108878388E+02 -0.22175572789E+03  0.22521287972E+03  0.00000000000E+00 0. -1.
</event>
<event>
 7    1  0.6610867E-006  0.9911780E+02  0.7561462E-02  0.1282162E+00
         -2   -1    0    0    0  501 -0.00000000000E+00  0.00000000000E+00  0.12071794305E+03  0.12071794305E+03  0.00000000000E+00 0.  1.
          2   -1    0    0  501    0  0.00000000000E+00 -0.00000000000E+00 -0.92544961030E+02  0.92544961030E+02  0.00000000000E+00 0. -1.
         23    2    1    2    0    0 -0.26556804394E+02  0.86757428673E+01  0.14245794022E+02  0.90457314158E+02  0.84847219539E+02 0.  0.
          5    1    1    2  502    0  0.66642474428E+02  0.69498821412E+01  0.33877658581E+02  0.75197662269E+02  0.41800000000E+01 0. -1.
         -5    1    1    2    0  502 -0.40085670034E+02 -0.15625625008E+02 -0.19950470583E+02  0.47607927653E+02  0.41800000000E+01 0.  1.
        -11    1    3    3    0    0  0.34932431577E+01 -0.34827663566E+02 -0.22394191639E+01  0.35073977468E+02  0.00000000000E+00 0. -1.
         11    1    3    3    0    0 -0.30050047552E+02  0.43503406433E+02  0.16485213186E+02  0.55383336690E+02  0.00000000000E+00 0.  1.
</event>
<event>
 7    1  0.6610867E-006  0.1208609E+03  0.7561462E-02  0.1241684E+00
          1   -1    0    0  501    0  0.00000000000E+00  0.00000000000E+00  0.74318868043E+02  0.74318868043E+02  0.00000000000E+00 0. -1.
         -1   -1    0    0    0  501 -0.00000000000E+00 -0.00000000000E+00 -0.29891906090E+03  0.29891906090E+03  0.00000000000E+00 0.  1.
         23    2    1    2    0    0 -0.42515410505E+02  0.92857845881E+02 -0.14782534951E+03  0.20238410524E+03  0.93149623855E+02 0.  0.
          5    1    1    2  502    0 -0.10476996822E+02 -0.55155767941E+02 -0.88253422107E+02  0.10468077719E+03  0.41800000000E+01 0. -1.
         -5    1    1    2    0  502  0.52992407328E+02 -0.37702077940E+02  0.11478578753E+02  0.66173046519E+02  0.41800000000E+01 0.  1.
        -11    1    3    3    0    0 -0.51841389315E+02  0.37166538682E+02 -0.12714617601E+03  0.14224989040E+03  0.00000000000E+00 0.  1.
         11    1    3    3    0    0  0.93259788097E+01  0.55691307199E+02 -0.20679173498E+02  0.60134214843E+02  0.00000000000E+00 0. -1.
</event>
<event>
 7    1  0.6610867E-006  0.1037546E+03  0.7561462E-02  0.1272593E+00
          2   -1    0    0  501    0  0.00000000000E+00  0.00000000000E+00  0.32918866592E+03  0.32918866592E+03  0.00000000000E+00 0. -1.
         -2   -1    0    0    0  501 -0.00000000000E+00 -0.00000000000E+00 -0.36660199549E+02  0.36660199549E+02  0.00000000000E+00 0.  1.
         23    2    1    2    0    0  0.39135117716E+02  0.20637126151E+02  0.11360138651E+03  0.15072455193E+03  0.88629380690E+02 0.  0.
          5    1    1    2  502    0  0.37857217150E+02 -0.17709841318E+02  0.56334033697E+02  0.70269503502E+02  0.41800000000E+01 0. -1.
         -5    1    1    2    0  502 -0.76992334867E+02 -0.29272848333E+01  0.12259304616E+03  0.14485481004E+03  0.41800000000E+01 0.  1.
        -11    1    3    3    0    0  0.42967053638E+02 -0.20094123124E+02  0.94152121876E+02  0.10542563036E+03  0.00000000000E+00 0. -1.
         11    1    3    3    0    0 -0.38319359218E+01  0.40731249275E+02  0.19449264637E+02  0.45298921570E+02  0.00000000000E+00 0.  1.
</event>
<event>
 7    1  0.6610867E-006  0.2359494E+03  0.7561462E-02  0.1122521E+00
         -1   -1    0    0    0  501 -0.00000000000E+00  0.00000000000E+00  0.62641445649E+03  0.62641445649E+03  0.00000000000E+00 0.  1.
          1   -1    0    0  501    0  0.00000000000E+00 -0.00000000000E+00 -0.12924760466E+03  0.12924760466E+03  0.00000000000E+00 0. -1.
         23    2    1    2    0    0  0.20900365655E+03  0.28858468075E+02  0.45066177193E+03  0.50601217508E+03  0.91852866102E+02 0.  0.
          5    1    1    2  502    0 -0.10987132776E+03  0.47721884716E+02  0.25980536139E+02  0.12264398723E+03  0.41800000000E+01 0. -1.
         -5    1    1    2    0  502 -0.99132328794E+02 -0.76580352791E+02  0.20524543758E+02  0.12700589885E+03  0.41800000000E+01 0. -1.
        -11    1    3    3    0    0  0.14446014875E+02 -0.21342425366E+02  0.28205230008E+02  0.38206301392E+02  0.00000000000E+00 0. -1.
         11    1    3    3    0    0  0.19455764168E+03  0.50200893441E+02  0.42245654192E+03  0.46780587368E+03  0.00000000000E+00 0.  1.
</event>
<event>
 7    1  0.6610867E-006  0.1818652E+03  0.7561462E-02  0.1166010E+00
          1   -1    0    0  501    0  0.00000000000E+00  0.00000000000E+00  0.12590783631E+03  0.12590783631E+03  0.00000000000E+00 0. -1.
         -1   -1    0    0    0  501 -0.00000000000E+00 -0.00000000000E+00 -0.51008573776E+03  0.51008573776E+03  0.00000000000E+00 0.  1.
         23    2    1    2    0    0 -0.12668145921E+03 -0.12191243987E+03 -0.36990532420E+03  0.41975037176E+03  0.91921654812E+02 0.  0.
          5    1    1    2  502    0  0.79924353832E+02  0.80019642838E+02 -0.69257729782E+02  0.13268440417E+03  0.41800000000E+01 0. -1.
         -5    1    1    2    0  502  0.46757105375E+02  0.41892797030E+02  0.54985152535E+02  0.83558798132E+02  0.41800000000E+01 0. -1.
        -11    1    3    3    0    0 -0.13143021331E+03 -0.99816608727E+02 -0.26308629999E+03  0.31056667173E+03  0.00000000000E+00 0. -1.
         11    1    3    3    0    0  0.47487541032E+01 -0.22095831141E+02 -0.10681902421E+03  0.10918370004E+03  0.00000000000E+00 0.  1.
</event>
<event>
 7    1  0.6610867E-006  0.8695160E+02  0.7561462E-02  0.1310406E+00
          1   -1    0    0  501    0  0.00000000000E+00  0.00000000000E+00  0.22017284580E+03  0.22017284580E+03  0.00000000000E+00 0. -1.
         -1   -1    0    0    0  501 -0.00000000000E+00 -0.00000000000E+00 -0.88683816160E+02  0.88683816160E+02  0.00000000000E+00 0.  1.
         23    2    1    2    0    0  0.57756396033E+02  0.27142611734E+02 -0.10016089310E+02  0.10949885348E+03  0.88414671935E+02 0.  0.
          5    1    1    2  502    0 -0.72713227353E+02 -0.15712984794E+02  0.15754525937E+03  0.17427590904E+03  0.41800000000E+01 0.  1.
         -5    1    1    2    0  502  0.14956831320E+02 -0.11429626940E+02 -0.16040140416E+02  0.25081899443E+02  0.41800000000E+01 0.  1.
        -11    1    3    3    0    0  0.24884622954E+02 -0.13122458220E+02 -0.40445771355E+02  0.49267674897E+02  0.00000000000E+00 0.  1.
         11    1    3    3    0    0  0.32871773079E+02  0.40265069954E+02  0.30429682045E+02  0.60231178580E+02  0.00000000000E+00 0. -1.
</event>
<event>
 7    1  0.6610867E-006  0.1953835E+03  0.7561462E-02  0.1153693E+00
         -1   -1    0    0    0  501 -0.00000000000E+00  0.00000000000E+00  0.19525890311E+03  0.19525890311E+03  0.00000000000E+00 0.  1.
          1   -1    0    0  501    0  0.00000000000E+00 -0.00000000000E+00 -0.22750199111E+03  0.22750199111E+03  0.00000000000E+00 0. -1.
         23    2    1    2    0    0 -0.12027280781E+03  0.12801874491E+03  0.20689068226E+02  0.19918640475E+03  0.91612438830E+02 0.  0.
          5    1    1    2  502    0  0.13822908783E+03 -0.75891035770E+02 -0.19467065172E+02  0.15894391797E+03  0.41800000000E+01 0. -1.
         -5    1    1    2    0  502 -0.17956280025E+02 -0.52127709138E+02 -0.33465091057E+02  0.64630571495E+02  0.41800000000E+01 0.  1.
        -11    1    3    3    0    0 -0.89997919938E+02  0.77191158111E+02  0.55101398358E+02  0.13074503656E+03  0.00000000000E+00 0.  1.
         11    1    3    3    0    0 -0.30274887868E+02  0.50827586797E+02 -0.34412330132E+02  0.68441368193E+02  0.00000000000E+00 0. -1.
</event>
<event>
 7    1  0.6610867E-006  0.1104980E+03  0.7561462E-02  0.1259650E+00
         -1   -1    0    0    0  501 -0.00000000000E+00  0.00000000000E+00  0.41982119155E+02  0.41982119155E+02  0.00000000000E+00 0.  1.
          1   -1    0    0  501    0  0.00000000000E+00 -0.00000000000E+00 -0.51605436815E+03  0.51605436815E+03  0.00000000000E+00 0. -1.
         23    2    1    2    0    0 -0.33024867052E+02 -0.26415381748E+02 -0.46205734038E+02  0.11025868203E+03  0.90739147390E+02 0.  0.
          5    1    1    2  502    0  0.38313729399E+02  0.73074043916E+02 -0.31035116483E+03  0.32115895701E+03  0.41800000000E+01 0.  1.
         -5    1    1    2    0  502 -0.52888623461E+01 -0.46658662168E+02 -0.11751535012E+03  0.12661884826E+03  0.41800000000E+01 0.  1.
        -11    1    3    3    0    0 -0.59102650528E+02 -0.27392154133E+02 -0.10422237576E+02  0.65970269392E+02  0.00000000000E+00 0.  1.
         11    1    3    3    0    0  0.26077783476E+02  0.97677238501E+00 -0.35783496462E+02  0.44288412642E+02  0.00000000000E+00 0. -1.
</event>
<event>
 7    1  0.6610867E-006  0.9090500E+02  0.7561462E-02  0.1300675E+00
          1   -1    0    0  501    0  0.00000000000E+00  0.00000000000E+00  0.96716937912E+03  0.96716937912E+03  0.00000000000E+00 0. -1.
         -1   -1    0    0    0  501 -0.00000000000E+00 -0.00000000000E+00 -0.22244366939E+02  0.22244366939E+02  0.00000000000E+00 0.  1.
         23    2    1    2    0    0  0.20178300755E+02  0.29486506280E+02  0.11721192309E+03  0.15154069610E+03  0.89159014054E+02 0.  0.
          5    1    1    2  502    0 -0.32628703228E+02 -0.71553743827E+02  0.65106667015E+03  0.65581236029E+03  0.41800000000E+01 0.  1.
         -5    1    1    2    0  502  0.12450402474E+02  0.42067237547E+02  0.17664641894E+03  0.18206068966E+03  0.41800000000E+01 0.  1.
        -11    1    3    3    0    0 -0.10050686800E+02  0.26819432246E+02  0.11775640697E+03  0.12118939572E+03  0.00000000000E+00 0. -1.
         11    1    3    3    0    0  0.30228987555E+02  0.26670740337E+01 -0.54448388075E+00  0.30351300388E+02  0.00000000000E+00 0.  1.
</event>
<event>
 7    1  0.6610867E-006  0.9414795E+02  0.7561462E-02  0.1293107E+00
         -2   -1    0    0    0  501 -0.00000000000E+00  0.00000000000E+00  0.11223834830E+03  0.11223834830E+03  0.00000000000E+00 0.  1.
          2   -1    0    0  501    0  0.00000000000E+00 -0.00000000000E+00 -0.16568456967E+03  0.16568456967E+03  0.00000000000E+00 0. -1.
         23    2    1    2    0    0 -0.19755464981E+02  0.31425908766E+02  0.52132364517E+02  0.10047740450E+03  0.77460049354E+02 0.  0.
          5    1    1    2  502    0 -0.43929408130E+02 -0.11144013496E+02 -0.10045290988E+03  0.11028255274E+03  0.41800000000E+01 0. -1.
         -5    1    1    2    0  502  0.63684873111E+02 -0.20281895270E+02 -0.51256760073E+01  0.67162960726E+02  0.41800000000E+01 0.  1.
        -11    1    3    3    0    0  0.13833160374E+02 -0.13761177620E+02 -0.51260027569E+01  0.20174296511E+02  0.00000000000E+00 0. -1.
         11    1    3    3    0    0 -0.33588625355E+02  0.45187086386E+02  0.57258367274E+02  0.80303107986E+02  0.00000000000E+00 0.  1.
</event>
<event>
 7    1  0.6610867E-006  0.1442362E+03  0.7561462E-02  0.1207740E+00
          2   -1    0    0  501    0  0.00000000000E+00  0.00000000000E+00  0.96973765650E+03  0.96973765650E+03  0.00000000000E+00 0. -1.
         -2   -1    0    0    0  501 -0.00000000000E+00 -0.00000000000E+00 -0.54816018493E+02  0.54816018493E+02  0.00000000000E+00 0.  1.
         23    2    1    2    0    0  0.29733743782E+02  0.10191511577E+03  0.59139115677E+02  0.15318597079E+03  0.93261569274E+02 0.  0.
          5    1    1    2  502    0  0.24378764035E+02  0.19102472777E+02  0.18001018733E+03  0.18270295166E+03  0.41800000000E+01 0. -1.
         -5    1    1    2    0  502 -0.54112507817E+02 -0.12101758855E+03  0.67577233500E+03  0.68866475254E+03  0.41800000000E+01 0. -1.
        -11    1    3    3    0    0 -0.87859006037E+01  0.79578610958E+02  0.71105079802E+02  0.10707884826E+03  0.00000000000E+00 0. -1.
         11    1    3    3    0    0  0.38519644385E+02  0.22336504813E+02 -0.11965964125E+02  0.46107122533E+02  0.00000000000E+00 0.  1.
</event>
<event>
 7    1  0.6610867E-006  0.1009531E+03  0.7561462E-02  0.1278304E+00
         -1   -1    0    0    0  501 -0.00000000000E+00  0.00000000000E+00  0.13394176090E+02  0.13394176090E+02  0.00000000000E+00 0.  1.
          1   -1    0    0  501    0  0.00000000000E+00 -0.00000000000E+00 -0.10514491581E+04  0.10514491581E+04  0.00000000000E+00 0. -1.
         23    2    1    2    0    0 -0.31263890979E+02 -0.90391457737E+01 -0.31021238874E+03  0.32561249470E+03  0.93448560910E+02 0.  0.
          5    1    1    2  502    0  0.72186566760E+02 -0.18830485230E+02 -0.33334967002E+03  0.34162108029E+03  0.41800000000E+01 0.  1.
         -5    1    1    2    0  502 -0.40922675780E+02  0.27869631004E+02 -0.39449292329E+03  0.39760975925E+03  0.41800000000E+01 0.  1.
        -11    1    3    3    0    0 -0.52332030633E+02  0.43890074401E+01 -0.28613801952E+03  0.29091729242E+03  0.00000000000E+00 0. -1.
         11    1    3    3    0    0  0.21068139654E+02 -0.13428153214E+02 -0.24074369229E+02  0.34695202276E+02  0.00000000000E+00 0.  1.
</event>
<event>
 7    1  0.6610867E-006  0.1026758E+03  0.7561462E-02  0.1274768E+00
          2   -1    0    0  501    0  0.00000000000E+00  0.00000000000E+00  0.38928311710E+03  0.38928311710E+03  0.00000000000E+00 0. -1.
         -2   -1    0    0    0  501 -0.00000000000E+00 -0.00000000000E+00 -0.47031090556E+02  0.47031090556E+02  0.00000000000E+00 0.  1.
         23    2    1    2    0    0  0.55134455261E+02 -0.14032130946E+02  0.60075302897E+02  0.12245423972E+03  0.90273417748E+02 0.  0.
          5    1    1    2  502    0  0.29160904076E+02  0.39295787834E+02  0.92816957226E+02  0.10500941490E+03  0.41800000000E+01 0.  1.
         -5    1    1    2    0  502 -0.84295359337E+02 -0.25263656888E+02  0.18935976642E+03  0.20885055303E+03  0.41800000000E+01 0.  1.
        -11    1    3    3    0    0  0.30842988801E+02  0.11483162921E+02 -0.17485203475E+02  0.37267751870E+02  0.00000000000E+00 0. -1.
         11    1    3    3    0    0  0.24291466460E+02 -0.25515293867E+02  0.77560506373E+02  0.85186487852E+02  0.00000000000E+00 0.  1.
</event>
<event>
 7    1  0.6610867E-006  0.8006096E+02  0.7561462E-02  0.1328879E+00
         -2   -1    0    0    0  501 -0.00000000000E+00  0.00000000000E+00  0.34535000302E+03  0.34535000302E+03  0.00000000000E+00 0. -1.
          2   -1    0    0  501    0  0.00000000000E+00 -0.00000000000E+00 -0.36563250793E+02  0.36563250793E+02  0.00000000000E+00 0.  1.
         23    2    1    2    0    0  0.48619160439E+02  0.56574658686E+00  0.13860816778E+03  0.16512048639E+03  0.75421535510E+02 0.  0.
          5    1    1    2  502    0  0.66813412229E+01  0.27488356913E+02  0.14810296887E+03  0.15083836340E+03  0.41800000000E+01 0. -1.
         -5    1    1    2    0  502 -0.55300501662E+02 -0.28054103500E+02  0.22075615584E+02  0.65954404028E+02  0.41800000000E+01 0. -1.
        -11    1    3    3    0    0  0.31084474580E+02  0.24588862497E+02  0.12725699853E+03  0.13328615979E+03  0.00000000000E+00 0.  1.
         11    1    3    3    0    0  0.17534685858E+02 -0.24023115910E+02  0.11351169251E+02  0.31834326592E+02  0.00000000000E+00 0. -1.
</event>
<event>
 7    1  0.6610867E-006  0.1260024E+03  0.7561462E-02  0.1233511E+00
          2   -1    0    0  501    0  0.00000000000E+00  0.00000000000E+00  0.24826243336E+02  0.24826243336E+02  0.00000000000E+00 0.  1.
         -2   -1    0    0    0  501 -0.00000000000E+00 -0.00000000000E+00 -0.73752644813E+03  0.73752644813E+03  0.00000000000E+00 0. -1.
         23    2    1    2    0    0  0.66374333543E+02  0.38054253992E+02 -0.40849195153E+03  0.42464815447E+03  0.87216410339E+02 0.  0.
          5    1    1    2  502    0 -0.72009663671E+02 -0.74259296070E+02 -0.17491799727E+03  0.20325750388E+03  0.41800000000E+01 0. -1.
         -5    1    1    2    0  502  0.56353301281E+01  0.36205042078E+02 -0.12929025599E+03  0.13444703311E+03  0.41800000000E+01 0. -1.
        -11    1    3    3    0    0  0.78182785688E+01 -0.24618785435E+02 -0.53055731913E+02  0.59009497243E+02  0.00000000000E+00 0.  1.
         11    1    3    3    0    0  0.58556054974E+02  0.62673039428E+02 -0.35543621962E+03  0.36563865723E+03  0.00000000000E+00 0. -1.
</event>
<event>
 7    1  0.6610867E-006  0.1157226E+03  0.7561462E-02  0.1250325E+00
          1   -1    0    0  501    0  0.00000000000E+00  0.00000000000E+00  0.82404576227E+03  0.82404576227E+03  0.00000000000E+00 0. -1.
         -1   -1    0    0    0  501 -0.00000000000E+00 -0.00000000000E+00 -0.22425829204E+02  0.22425829204E+02  0.00000000000E+00 0.  1.
         23    2    1    2    0    0 -0.34231344933E+02 -0.75808069763E+02  0.33910731321E+03  0.36017557877E+03  0.88396998011E+02 0.  0.
          5    1    1    2  502    0 -0.26389102093E+01 -0.21402944954E+02  0.23608413522E+03  0.23710386163E+03  0.41800000000E+01 0. -1.
         -5    1    1    2    0  502  0.36870255142E+02  0.97211014718E+02  0.22642848464E+03  0.24919215107E+03  0.41800000000E+01 0. -1.
        -11    1    3    3    0    0 -0.50149288260E+02 -0.33727499418E+02  0.27681112189E+03  0.28333177113E+03  0.00000000000E+00 0. -1.
         11    1    3    3    0    0  0.15917943327E+02 -0.42080570346E+02  0.62296191312E+02  0.76843807638E+02  0.00000000000E+00 0.  1.
</event>
<event>
 7    1  0.6610867E-006  0.2121825E+03  0.7561462E-02  0.1139849E+00
         -1   -1    0    0    0  501 -0.00000000000E+00  0.00000000000E+00  0.51738920176E+03  0.51738920176E+03  0.00000000000E+00 0.  1.
          1   -1    0    0  501    0  0.00000000000E+00 -0.00000000000E+00 -0.13912110098E+03  0.13912110098E+03  0.00000000000E+00 0. -1.
         23    2    1    2    0    0 -0.14501524176E+03 -0.10846667773E+03  0.29600338105E+03  0.35889572654E+03  0.91617140393E+02 0.  0.
          5    1    1    2  502    0  0.11648143802E+03  0.14810185089E+03  0.13019085123E+03  0.22906159386E+03  0.41800000000E+01 0. -1.
         -5    1    1    2    0  502  0.28533803738E+02 -0.39635173160E+02 -0.47926131494E+02  0.68552982336E+02  0.41800000000E+01 0.  1.
        -11    1    3    3    0    0 -0.83969445563E+02 -0.33999681523E+02  0.21412249317E+03  0.23249793163E+03  0.00000000000E+00 0.  1.
         11    1    3    3    0    0 -0.61045796195E+02 -0.74466996205E+02  0.81880887883E+02  0.12639779491E+03  0.00000000000E+00 0. -1.
</event>
<event>
 7    1  0.6610867E-006  0.9070258E+02  0.7561462E-02  0.1301159E+00
         -2   -1    0    0    0  501 -0.00000000000E+00  0.00000000000E+00  0.15068123222E+02  0.15068123222E+02  0.00000000000E+00 0.  1.
          2   -1    0    0  501    0  0.00000000000E+00 -0.00000000000E+00 -0.12596999043E+04  0.12596999043E+04  0.00000000000E+00 0. -1.
         23    2    1    2    0    0  0.51443350568E+02 -0.12401647943E+01 -0.25230997979E+03  0.27327019481E+03  0.91478506458E+02 0.  0.
          5    1    1    2  502    0 -0.29699896026E+02 -0.29146941909E+02 -0.10011757621E+03  0.10850174890E+03  0.41800000000E+01 0. -1.
         -5    1    1    2    0  502 -0.21743454542E+02  0.30387106703E+02 -0.89220422506E+03  0.89299608380E+03  0.41800000000E+01 0. -1.
        -11    1    3    3    0    0 -0.25224234228E+02  0.14931879719E+01 -0.37920816306E+02  0.45568409146E+02  0.00000000000E+00 0.  1.
         11    1    3    3    0    0  0.76667584796E+02 -0.27333527662E+01 -0.21438916349E+03  0.22770178567E+03  0.00000000000E+00 0. -1.
</event>
<event>
 7    1  0.6610867E-006  0.1107746E+03  0.7561462E-02  0.1259142E+00
         -2   -1    0    0    0  501 -0.00000000000E+00  0.00000000000E+00  0.30586490191E+03  0.30586490191E+03  0.00000000000E+00 0.  1.
          2   -1    0    0  501    0  0.00000000000E+00 -0.00000000000E+00 -0.42765422942E+02  0.42765422942E+02  0.00000000000E+00 0. -1.
         23    2    1    2    0    0  0.24719084958E+02 -0.90165672329E+01  0.14835205434E+03  0.17685213390E+03  0.92606768594E+02 0.  0.
          5    1    1    2  502    0 -0.71635165958E+02  0.24419010767E+02  0.52457034774E+02  0.92179704848E+02  0.41800000000E+01 0.  1.
         -5    1    1    2    0  502  0.46916081000E+02 -0.15402443534E+02  0.62290389852E+02  0.79598486110E+02  0.41800000000E+01 0.  1.
        -11    1    3    3    0    0 -0.97229102016E+01 -0.45203503265E+02  0.67768043010E+02  0.82039011108E+02  0.00000000000E+00 0. -1.
         11    1    3    3    0    0  0.34441995160E+02  0.36186936032E+02  0.80584011335E+02  0.94813122788E+02  0.00000000000E+00 0.  1.
</event>
<event>
 7    1  0.6610867E-006  0.9427178E+02  0.7561462E-02  0.1292825E+00
         -1   -1    0    0    0  501 -0.00000000000E+00  0.00000000000E+00  0.18433588248E+03  0.18433588248E+03  0.00000000000E+00 0.  1.
          1   -1    0    0  501    0  0.00000000000E+00 -0.00000000000E+00 -0.82134013313E+02  0.82134013313E+02  0.00000000000E+00 0. -1.
         23    2    1    2    0    0 -0.37802120852E+02 -0.13081784759E+02  0.98203193765E+02  0.13969149688E+03  0.90937965684E+02 0.  0.
          5    1    1    2  502    0 -0.17407604824E+01  0.59558551481E+02 -0.17010622937E+02  0.62105434499E+02  0.41800000000E+01 0. -1.
         -5    1    1    2    0  502  0.39542881334E+02 -0.46476766722E+02  0.21009298342E+02  0.64672964413E+02  0.41800000000E+01 0.  1.
        -11    1    3    3    0    0 -0.33578588638E+01  0.19767514579E+02  0.88977307835E+02  0.91208503762E+02  0.00000000000E+00 0. -1.
         11    1    3    3    0    0 -0.34444261988E+02 -0.32849299338E+02  0.92258859292E+01  0.48482993122E+02  0.00000000000E+00 0.  1.
</event>
<event>
 7    1  0.6610867E-006  0.1094670E+03  0.7561462E-02  0.1261560E+00
         -1   -1    0    0    0  501 -0.00000000000E+00  0.00000000000E+00  0.32822896738E+02  0.32822896738E+02  0.00000000000E+00 0.  1.
          1   -1    0    0  501    0  0.00000000000E+00 -0.00000000000E+00 -0.40785366253E+03  0.40785366253E+03  0.00000000000E+00 0. -1.
         23    2    1    2    0    0  0.39145647526E+02 -0.26536041535E+02 -0.13175315182E+03  0.16306461527E+03  0.83633919659E+02 0.  0.
          5    1    1    2  502    0  0.40995685272E+02  0.97131225835E+01 -0.13692622117E+03  0.14332220137E+03  0.41800000000E+01 0. -1.
         -5    1    1    2    0  502 -0.80141332798E+02  0.16822918951E+02 -0.10635139280E+03  0.13428974262E+03  0.41800000000E+01 0. -1.
        -11    1    3    3    0    0  0.64786276164E+02 -0.22849381179E+02 -0.10751781657E+03  0.12759089575E+03  0.00000000000E+00 0.  1.
         11    1    3    3    0    0 -0.25640628638E+02 -0.36866603555E+01 -0.24235335255E+02  0.35473719518E+02  0.00000000000E+00 0. -1.
</event>
<event>
 7    1  0.6610867E-006  0.1019607E+03  0.7561462E-02  0.1276226E+00
         -2   -1    0    0    0  501 -0.00000000000E+00  0.00000000000E+00  0.20349629658E+02  0.20349629658E+02  0.00000000000E+00 0.  1.
          2   -1    0    0  501    0  0.00000000000E+00 -0.00000000000E+00 -0.76116691343E+03  0.76116691343E+03  0.00000000000E+00 0. -1.
         23    2    1    2    0    0  0.36921740567E+02  0.29016373277E+02 -0.20083109678E+03  0.22523022209E+03  0.90500600351E+02 0.  0.
          5    1    1    2  502    0  0.25266484166E+02 -0.30499988409E+02 -0.41201953181E+03  0.41393986461E+03  0.41800000000E+01 0.  1.
         -5    1    1    2    0  502 -0.62188224733E+02  0.14836151317E+01 -0.12796665518E+03  0.14234645639E+03  0.41800000000E+01 0.  1.
        -11    1    3    3    0    0 -0.21105608965E+02  0.37572333948E+02 -0.77994351238E+02  0.89108057061E+02  0.00000000000E+00 0. -1.
         11    1    3    3    0    0  0.58027349532E+02 -0.85559606713E+01 -0.12283674554E+03  0.13612216503E+03  0.00000000000E+00 0.  1.
</event>
<event>
 7    1  0.6610867E-006  0.1274041E+03  0.7561462E-02  0.1231359E+00
         -2   -1    0    0    0  501 -0.00000000000E+00  0.00000000000E+00  0.23608076384E+02  0.23608076384E+02  0.00000000000E+00 0.  1.
          2   -1    0    0  501    0  0.00000000000E+00 -0.00000000000E+00 -0.94450053938E+03  0.94450053938E+03  0.00000000000E+00 0. -1.
         23    2    1    2    0    0 -0.11781938536E+02  0.10143331392E+03 -0.45382878139E+03  0.47391838163E+03  0.90612021171E+02 0.  0.
          5    1    1    2  502    0  0.44923633037E+02 -0.15537883520E+02 -0.59168279406E+02  0.76012606306E+02  0.41800000000E+01 0. -1.
         -5    1    1    2    0  502 -0.33141694501E+02 -0.85895430404E+02 -0.40789540219E+03  0.41817762782E+03  0.41800000000E+01 0. -1.
        -11    1    3    3    0    0 -0.27108702860E+02  0.24684102329E+02 -0.46890585849E+02  0.59522379991E+02  0.00000000000E+00 0. -1.
         11    1    3    3    0    0  0.15326764324E+02  0.76749211595E+02 -0.40693819554E+03  0.41439600164E+03  0.00000000000E+00 0.  1.
</event>
<event>
 7    1  0.6610867E-006  0.8473712E+02  0.7561462E-02  0.1316121E+00
          1   -1    0    0  501    0  0.00000000000E+00  0.00000000000E+00  0.64166935796E+03  0.64166935796E+03  0.00000000000E+00 0. -1.
         -1   -1    0    0    0  501 -0.00000000000E+00 -0.00000000000E+00 -0.25800513450E+02  0.25800513450E+02  0.00000000000E+00 0.  1.
         23    2    1    2    0    0 -0.29226459962E+02  0.57079405083E+02  0.20913210321E+03  0.23713053423E+03  0.91555498055E+02 0.  0.
          5    1    1    2  502    0  0.98085035262E+00 -0.53614039484E+02  0.53257751083E+02  0.75692058683E+02  0.41800000000E+01 0. -1.
         -5    1    1    2    0  502  0.28245609609E+02 -0.34653655990E+01  0.35347899022E+03  0.35464727850E+03  0.41800000000E+01 0. -1.
        -11    1    3    3    0    0 -0.46192109997E+02  0.30362808989E+02  0.19461221704E+03  0.20231046986E+03  0.00000000000E+00 0. -1.
         11    1    3    3    0    0  0.16965650035E+02  0.26716596095E+02  0.14519886172E+02  0.34820064366E+02  0.00000000000E+00 0.  1.
</event>
<event>
 7    1  0.6610867E-006  0.7791075E+02  0.7561462E-02  0.1335087E+00
         -2   -1    0    0    0  501 -0.00000000000E+00  0.00000000000E+00  0.12256724185E+03  0.12256724185E+03  0.00000000000E+00 0.  1.
          2   -1    0    0  501    0  0.00000000000E+00 -0.00000000000E+00 -0.12779709131E+03  0.12779709131E+03  0.00000000000E+00 0. -1.
         23    2    1    2    0    0 -0.39492774932E+02 -0.33241932486E+02  0.38868302222E+02  0.10803435601E+03  0.86579280515E+02 0.  0.
          5    1    1    2  502    0  0.38751484138E+02 -0.22625083058E+02 -0.67867821580E+02  0.81468309865E+02  0.41800000000E+01 0. -1.
         -5    1    1    2    0  502  0.74129079422E+00  0.55867015543E+02  0.23769669892E+02  0.60861667284E+02  0.41800000000E+01 0. -1.
        -11    1    3    3    0    0 -0.31110421053E+02 -0.14763942930E+02  0.65828760202E+02  0.74291708680E+02  0.00000000000E+00 0.  1.
         11    1    3    3    0    0 -0.83823538790E+01 -0.18477989556E+02 -0.26960457980E+02  0.33742647333E+02  0.00000000000E+00 0. -1.
</event>
<event>
 7    1  0.6610867E-006  0.1368037E+03  0.7561462E-02  0.1217696E+00
         -4   -1    0    0    0  501 -0.00000000000E+00  0.00000000000E+00  0.26641539266E+03  0.26641539266E+03  0.00000000000E+00 0. -1.
          4   -1    0    0  501    0  0.00000000000E+00 -0.00000000000E+00 -0.73951930113E+02  0.73951930113E+02  0.00000000000E+00 0.  1.
         23    2    1    2    0    0 -0.43168106462E+02 -0.75174231342E+02  0.11250464833E+03  0.16844201836E+03  0.90558087330E+02 0.  0.
          5    1    1    2  502    0  0.47911158246E+02 -0.20691740704E+02  0.10565859224E+02  0.53411019453E+02  0.41800000000E+01 0. -1.
         -5    1    1    2    0  502 -0.47430517844E+01  0.95865972047E+02  0.69392955002E+02  0.11851428496E+03  0.41800000000E+01 0. -1.
        -11    1    3    3    0    0 -0.66198500724E+02 -0.77622945438E+02  0.88044638347E+02  0.13475689778E+03  0.00000000000E+00 0.  1.
         11    1    3    3    0    0  0.23030394262E+02  0.24487140957E+01  0.24460009979E+02  0.33685120584E+02  0.00000000000E+00 0. -1.
</event>
<event>
 7    1  0.6610867E-006  0.8726635E+02  0.7561462E-02  0.1309610E+00
          2   -1    0    0  501    0  0.00000000000E+00  0.00000000000E+00  0.43329461049E+03  0.43329461049E+03  0.00000000000E+00 0. -1.
         -2   -1    0    0    0  501 -0.00000000000E+00 -0.00000000000E+00 -0.32111332359E+02  0.32111332359E+02  0.00000000000E+00 0.  1.
         23    2    1    2    0    0  0.44835962574E+01  0.16902973211E+02  0.88715124052E+02  0.12837488625E+03  0.91125874725E+02 0.  0.
          5    1    1    2  502    0 -0.41828230486E+02 -0.30757585652E+01  0.29990742529E+02  0.51729857856E+02  0.41800000000E+01 0.  1.
         -5    1    1    2    0  502  0.37344634228E+02 -0.13827214646E+02  0.28247741155E+03  0.28530119875E+03  0.41800000000E+01 0.  1.
        -11    1    3    3    0    0 -0.27998946448E+02 -0.26216936168E+02  0.43118188037E+02  0.57710024119E+02  0.00000000000E+00 0. -1.
         11    1    3    3    0    0  0.32482542706E+02  0.43119909379E+02  0.45596936015E+02  0.70664862127E+02  0.00000000000E+00 0.  1.
</event>
<event>
 7    1  0.6610867E-006  0.9372926E+02  0.7561462E-02  0.1294064E+00
         -2   -1    0    0    0  501 -0.00000000000E+00  0.00000000000E+00  0.43212925768E+02  0.43212925768E+02  0.00000000000E+00 0.  1.
          2   -1    0    0  501    0  0.00000000000E+00 -0.00000000000E+00 -0.32387896080E+03  0.32387896080E+03  0.00000000000E+00 0. -1.
         23    2    1    2    0    0  0.61302034411E+00 -0.13131035117E+02 -0.49239449193E+02  0.10369277748E+03  0.90304312561E+02 0.  0.
          5    1    1    2  502    0  0.11946767647E+01  0.67727826730E+02 -0.15647449403E+03  0.17055856897E+03  0.41800000000E+01 0.  1.
         -5    1    1    2    0  502 -0.18076971088E+01 -0.54596791613E+02 -0.74952091803E+02  0.92840540116E+02  0.41800000000E+01 0.  1.
        -11    1    3    3    0    0  0.32003595390E+02 -0.81114720218E+01 -0.61354149835E+02  0.69673221529E+02  0.00000000000E+00 0. -1.
         11    1    3    3    0    0 -0.31390575046E+02 -0.50195630952E+01  0.12114700642E+02  0.34019555950E+02  0.00000000000E+00 0.  1.
</event>
<event>
 7    1  0.6610867E-006  0.1538284E+03  0.7561462E-02  0.1195846E+00
          1   -1    0    0  501    0  0.00000000000E+00  0.00000000000E+00  0.44579635287E+03  0.44579635287E+03  0.00000000000E+00 0. -1.
         -1   -1    0    0    0  501 -0.00000000000E+00 -0.00000000000E+00 -0.70100827152E+02  0.70100827152E+02  0.00000000000E+00 0.  1.
         23    2    1    2    0    0  0.10674845270E+03  0.33453486261E+02  0.56865098516E+02  0.15559870921E+03  0.91994298641E+02 0.  0.
          5    1    1    2  502    0 -0.84546078246E+02 -0.78974033392E+02  0.20060108858E+03  0.23161003095E+03  0.41800000000E+01 0. -1.
         -5    1    1    2    0  502 -0.22202374453E+02  0.45520547132E+02  0.11822933862E+03  0.12868843986E+03  0.41800000000E+01 0. -1.
        -11    1    3    3    0    0  0.11507108204E+03  0.92123688498E+01  0.31775842297E+02  0.11973272658E+03  0.00000000000E+00 0. -1.
         11    1    3    3    0    0 -0.83226293376E+01  0.24241117411E+02  0.25089256220E+02  0.35865982631E+02  0.00000000000E+00 0.  1.
</event>
<event>
 7    1  0.6610867E-006  0.1484392E+03  0.7561462E-02  0.1202404E+00
          1   -1    0    0  501    0  0.00000000000E+00  0.00000000000E+00  0.53146909635E+03  0.53146909635E+03  0.00000000000E+00 0. -1.
         -1   -1    0    0    0  501 -0.00000000000E+00 -0.00000000000E+00 -0.54142075679E+02  0.54142075679E+02  0.00000000000E+00 0.  1.
         23    2    1    2    0    0 -0.11022316399E+03  0.51180078723E+02  0.14827399841E+03  0.21319912009E+03  0.93274540270E+02 0.  0.
          5    1    1    2  502    0  0.10472518616E+03  0.14617714678E+02  0.17134769908E+03  0.20139153056E+03  0.41800000000E+01 0.  1.
         -5    1    1    2    0  502  0.54979778231E+01 -0.65797793401E+02  0.15770532318E+03  0.17102052138E+03  0.41800000000E+01 0.  1.
        -11    1    3    3    0    0 -0.74317469531E+02  0.48808481074E+02  0.15294723152E+03  0.17691300046E+03  0.00000000000E+00 0. -1.
         11    1    3    3    0    0 -0.35905694457E+02  0.23715976492E+01 -0.46732331067E+01  0.36286119626E+02  0.00000000000E+00 0.  1.
</event>
<event>
 7    1  0.6610867E-006  0.1203118E+03  0.7561462E-02  0.1242584E+00
          1   -1    0    0  501    0  0.00000000000E+00  0.00000000000E+00  0.21817486615E+03  0.21817486615E+03  0.00000000000E+00 0. -1.
         -1   -1    0    0    0  501 -0.00000000000E+00 -0.00000000000E+00 -0.91741546765E+02  0.91741546765E+02  0.00000000000E+00 0.  1.
         23    2    1    2    0    0  0.78889757721E+02 -0.19899706259E+02  0.10049445143E+03  0.15845376291E+03  0.91590763900E+02 0.  0.
          5    1    1    2  502    0 -0.10305039192E+03  0.12096490914E+02  0.50871475483E+02  0.11563341985E+03  0.41800000000E+01 0. -1.
         -5    1    1    2    0  502  0.24160634203E+02  0.78032153454E+01 -0.24932607528E+02  0.35829230147E+02  0.41800000000E+01 0. -1.
        -11    1    3    3    0    0  0.57251258774E+02 -0.48606302874E+02  0.33102768036E+02  0.82073580170E+02  0.00000000000E+00 0.  1.
         11    1    3    3    0    0  0.21638498947E+02  0.28706596615E+02  0.67391683390E+02  0.76380182744E+02  0.00000000000E+00 0. -1.
</event>
<event>
 7    1  0.6610867E-006  0.2669150E+03  0.7561462E-02  0.1103058E+00
          1   -1    0    0  501    0  0.00000000000E+00  0.00000000000E+00  0.13604505926E+04  0.13604505926E+04  0.00000000000E+00 0. -1.
         -1   -1    0    0    0  501 -0.00000000000E+00 -0.00000000000E+00 -0.77731397462E+02  0.77731397462E+02  0.00000000000E+00 0.  1.
         23    2    1    2    0    0  0.19379860927E+03 -0.16173185125E+03  0.24385485634E+03  0.36179856961E+03  0.87851700891E+02 0.  0.
          5    1    1    2  502    0 -0.14959274051E+03  0.16631020850E+03  0.96035505713E+03  0.98607118487E+03  0.41800000000E+01 0. -1.
         -5    1    1    2    0  502 -0.44205868760E+02 -0.45783572505E+01  0.78509281647E+02  0.90312235564E+02  0.41800000000E+01 0. -1.
        -11    1    3    3    0    0  0.10273436419E+03 -0.33248571177E+02  0.78862599934E+02  0.13371285181E+03  0.00000000000E+00 0.  1.
         11    1    3    3    0    0  0.91064245072E+02 -0.12848328008E+03  0.16499225641E+03  0.22808571780E+03  0.00000000000E+00 0. -1.
</event>
<event>
 7    1  0.6610867E-006  0.1340047E+03  0.7561462E-02  0.1221632E+00
         -1   -1    0    0    0  501 -0.00000000000E+00  0.00000000000E+00  0.56554954720E+02  0.56554954720E+02  0.00000000000E+00 0.  1.
          1   -1    0    0  501    0  0.00000000000E+00 -0.00000000000E+00 -0.36122886059E+03  0.36122886059E+03  0.00000000000E+00 0. -1.
         23    2    1    2    0    0 -0.25258574635E+02  0.85042175516E+02 -0.10713167898E+03  0.16770407371E+03  0.93687205576E+02 0.  0.
          5    1    1    2  502    0  0.71023462082E+02 -0.36591374903E+02 -0.70854324134E+02  0.10686939942E+03  0.41800000000E+01 0. -1.
         -5    1    1    2    0  502 -0.45764887447E+02 -0.48450800613E+02 -0.12668790276E+03  0.14321034218E+03  0.41800000000E+01 0. -1.
        -11    1    3    3    0    0 -0.10661991841E+02  0.99859403555E+02 -0.62035049851E+02  0.11804205165E+03  0.00000000000E+00 0.  1.
         11    1    3    3    0    0 -0.14596582794E+02 -0.14817228039E+02 -0.45096629126E+02  0.49662022055E+02  0.00000000000E+00 0. -1.
</event>
<event>
 6    1  0.6610867E-006  0.7279940E+02  0.7561462E-02  0.1350824E+00
         -2   -1    0    0    0  501 -0.00000000000E+00  0.00000000000E+00  0.24724090021E+02  0.24724090021E+02  0.00000000000E+00 0. -1.
          2   -1    0    0  501    0  0.00000000000E+00 -0.00000000000E+00 -0.28766946121E+03  0.28766946121E+03  0.00000000000E+00 0.  1.
          5    1    1    2  502    0  0.55180850182E+02  0.22351826566E+02 -0.18773471826E+03  0.19699321618E+03  0.41800000000E+01 0.  1.
         -5    1    1    2    0  502 -0.42168502358E+02 -0.15333618711E+02 -0.28693650644E+02  0.53423781607E+02  0.41800000000E+01 0.  1.
        -11    1    1    2    0    0 -0.30478757694E+01 -0.22355428704E+02 -0.27854949246E+02  0.35846240204E+02  0.00000000000E+00 0.  1.
         11    1    1    2    0    0 -0.99644720546E+01  0.15337220850E+02 -0.18662053033E+02  0.26130313242E+02  0.00000000000E+00 0. -1.
</event>
<event>
 7    1  0.6610867E-006  0.1514912E+03  0.7561462E-02  0.1198652E+00
         -2   -1    0    0    0  501 -0.00000000000E+00  0.00000000000E+00  0.72536055858E+02  0.72536055858E+02  0.00000000000E+00 0.  1.
          2   -1    0    0  501    0  0.00000000000E+00 -0.00000000000E+00 -0.39590276310E+03  0.39590276310E+03  0.00000000000E+00 0. -1.
         23    2    1    2    0    0  0.10917426697E+03 -0.54986432000E+02 -0.91803575870E+02  0.17824825252E+03  0.91662504391E+02 0.  0.
          5    1    1    2  502    0 -0.43406999784E+01  0.44723762472E+02 -0.15075421575E+03  0.15736379054E+03  0.41800000000E+01 0. -1.
         -5    1    1    2    0  502 -0.10483356699E+03  0.10262669528E+02 -0.80808915626E+02  0.13282677591E+03  0.41800000000E+01 0. -1.
        -11    1    3    3    0    0  0.56300744484E+02 -0.76812069284E+02 -0.63159945305E+02  0.11427618522E+03  0.00000000000E+00 0.  1.
         11    1    3    3    0    0  0.52873522482E+02  0.21825637284E+02 -0.28643630565E+02  0.63972067299E+02  0.00000000000E+00 0. -1.
</event>
<event>
 7    1  0.6610867E-006  0.6305973E+02  0.7561462E-02  0.1385422E+00
         -2   -1    0    0    0  501 -0.00000000000E+00  0.00000000000E+00  0.99214001848E+02  0.99214001848E+02  0.00000000000E+00 0.  1.
          2   -1    0    0  501    0  0.00000000000E+00 -0.00000000000E+00 -0.17943841503E+03  0.17943841503E+03  0.00000000000E+00 0. -1.
         23    2    1    2    0    0  0.10394799328E+02 -0.15551604350E+02  0.47398850559E+01  0.92746886066E+02  0.90717220601E+02 0.  0.
          5    1    1    2  502    0 -0.19466233821E+02  0.28981452688E+02 -0.13167397626E+03  0.13628781048E+03  0.41800000000E+01 0. -1.
         -5    1    1    2    0  502  0.90714344932E+01 -0.13429848338E+02  0.46709678025E+02  0.49617720336E+02  0.41800000000E+01 0.  1.
        -11    1    3    3    0    0 -0.13192764554E+02  0.24450391351E+02  0.29162346235E+02  0.40277948207E+02  0.00000000000E+00 0. -1.
         11    1    3    3    0    0  0.23587563882E+02 -0.40001995702E+02 -0.24422461179E+02  0.52468937859E+02  0.00000000000E+00 0.  1.
</event>
<event>
 7    1  0.6610867E-006  0.1615273E+03  0.7561462E-02  0.1186983E+00
         -1   -1    0    0    0  501 -0.00000000000E+00  0.00000000000E+00  0.38698469369E+03  0.38698469369E+03  0.00000000000E+00 0.  1.
          1   -1    0    0  501    0  0.00000000000E+00 -0.00000000000E+00 -0.92976137518E+02  0.92976137518E+02  0.00000000000E+00 0. -1.
         23    2    1    2    0    0  0.14059472192E+03 -0.66523464243E+02  0.12637581860E+03  0.21930655653E+03  0.89063298192E+02 0.  0.
          5    1    1    2  502    0 -0.39554241100E+02 -0.67607719766E+01 -0.11801993373E+02  0.42035764228E+02  0.41800000000E+01 0. -1.
         -5    1    1    2    0  502 -0.10104048082E+03  0.73284236219E+02  0.17943473094E+03  0.21861851045E+03  0.41800000000E+01 0. -1.
        -11    1    3    3    0    0  0.11095695274E+02 -0.14510424481E+02  0.63803007300E+02  0.66366336443E+02  0.00000000000E+00 0.  1.
         11    1    3    3    0    0  0.12949902664E+03 -0.52013039761E+02  0.62572811299E+02  0.15294022009E+03  0.00000000000E+00 0. -1.
</event>
<event>
 7    1  0.6610867E-006  0.6671130E+02  0.7561462E-02  0.1371647E+00
          2   -1    0    0  501    0  0.00000000000E+00  0.00000000000E+00  0.65265912125E+03  0.65265912125E+03  0.00000000000E+00 0. -1.
         -2   -1    0    0    0  501 -0.00000000000E+00 -0.00000000000E+00 -0.19285468413E+02  0.19285468413E+02  0.00000000000E+00 0.  1.
         23    2    1    2    0    0 -0.29288079742E+02  0.62597022288E+01  0.25373504616E+03  0.27110741343E+03  0.90668519791E+02 0.  0.
          5    1    1    2  502    0  0.43702841126E+02 -0.51384584305E+01  0.38289548099E+03  0.38543840473E+03  0.41800000000E+01 0. -1.
         -5    1    1    2    0  502 -0.14414761384E+02 -0.11212437982E+01 -0.32568743139E+01  0.15398771500E+02  0.41800000000E+01 0. -1.
        -11    1    3    3    0    0 -0.50128227581E+02 -0.51827038318E+01  0.23632770736E+03  0.24164123175E+03  0.00000000000E+00 0. -1.
         11    1    3    3    0    0  0.20840147840E+02  0.11442406061E+02  0.17407338803E+02  0.29466181677E+02  0.00000000000E+00 0.  1.
</event>
<event>
 7    1  0.6610867E-006  0.7083934E+02  0.7561462E-02  0.1357262E+00
          1   -1    0    0  501    0  0.00000000000E+00  0.00000000000E+00  0.17298498842E+04  0.17298498842E+04  0.00000000000E+00 0. -1.
         -1   -1    0    0    0  501 -0.00000000000E+00 -0.00000000000E+00 -0.61118375002E+02  0.61118375002E+02  0.00000000000E+00 0.  1.
         23    2    1    2    0    0  0.13054144456E+02 -0.27280137199E+02 -0.16564358767E+02  0.98198582843E+02  0.91945457299E+02 0.  0.
          5    1    1    2  502    0 -0.26889393357E+02  0.19249720890E+02  0.16697256277E+04  0.16700583030E+04  0.41800000000E+01 0. -1.
         -5    1    1    2    0  502  0.13835248901E+02  0.80304163088E+01  0.15570240294E+02  0.22711373385E+02  0.41800000000E+01 0.  1.
        -11    1    3    3    0    0 -0.37107865850E+02 -0.73102560900E+01  0.83572045671E+01  0.38733401867E+02  0.00000000000E+00 0.  1.
         11    1    3    3    0    0  0.50162010306E+02 -0.19969881109E+02 -0.24921563334E+02  0.59465180976E+02  0.00000000000E+00 0. -1.
</event>
<event>
 7    1  0.6610867E-006  0.9176370E+02  0.7561462E-02  0.1298636E+00
         -1   -1    0    0    0  501 -0.00000000000E+00  0.00000000000E+00  0.27150487100E+02  0.27150487100E+02  0.00000000000E+00 0.  1.
          1   -1    0    0  501    0  0.00000000000E+00 -0.00000000000E+00 -0.48125446339E+03  0.48125446339E+03  0.00000000000E+00 0. -1.
         23    2    1    2    0    0  0.14216975339E+02  0.26570646625E+02 -0.14867247641E+03  0.17697843100E+03  0.91157765151E+02 0.  0.
          5    1    1    2  502    0  0.50656092812E+02 -0.18345130615E+02 -0.20102372264E+03  0.20816001782E+03  0.41800000000E+01 0.  1.
         -5    1    1    2    0  502 -0.64873068151E+02 -0.82255160094E+01 -0.10440777724E+03  0.12326650167E+03  0.41800000000E+01 0.  1.
        -11    1    3    3    0    0 -0.34482725448E+01 -0.16791308994E+02  0.37323345150E+01  0.17543345240E+02  0.00000000000E+00 0.  1.
         11    1    3    3    0    0  0.17665247884E+02  0.43361955619E+02 -0.15240481093E+03  0.15943508576E+03  0.00000000000E+00 0. -1.
</event>
<event>
 7    1  0.6610867E-006  0.1320952E+03  0.7561462E-02  0.1224380E+00
         -2   -1    0    0    0  501 -0.00000000000E+00  0.00000000000E+00  0.11039189685E+03  0.11039189685E+03  0.00000000000E+00 0.  1.
          2   -1    0    0  501    0  0.00000000000E+00 -0.00000000000E+00 -0.20881890171E+03  0.20881890171E+03  0.00000000000E+00 0. -1.
         23    2    1    2    0    0 -0.36660091584E+02  0.83410238214E+02  0.49140960357E+01  0.13312050026E+03  0.96931362812E+02 0.  0.
          5    1    1    2  502    0  0.26789282958E+02 -0.10426673753E+03 -0.11692424555E+03  0.15899047089E+03  0.41800000000E+01 0.  1.
         -5    1    1    2    0  502  0.98708086258E+01  0.20856499317E+02  0.13583144650E+02  0.27099827403E+02  0.41800000000E+01 0.  1.
        -11    1    3    3    0    0  0.10903852080E+02 -0.17971903523E+02 -0.13806170617E+00  0.21021473960E+02  0.00000000000E+00 0.  1.
         11    1    3    3    0    0 -0.47563943664E+02  0.10138214174E+03  0.50521577419E+01  0.11209902630E+03  0.00000000000E+00 0. -1.
</event>
<event>
 7    1  0.6610867E-006  0.9261268E+02  0.7561462E-02  0.1296645E+00
          1   -1    0    0  501    0  0.00000000000E+00  0.00000000000E+00  0.21695663711E+03  0.21695663711E+03  0.00000000000E+00 0. -1.
         -1   -1    0    0    0  501 -0.00000000000E+00 -0.00000000000E+00 -0.69071198644E+02  0.69071198644E+02  0.00000000000E+00 0.  1.
         23    2    1    2    0    0  0.32187235063E+02 -0.31812255978E+02  0.25446139815E+02  0.10523071886E+03  0.91531199211E+02 0.  0.
          5    1    1    2  502    0  0.46677941866E+02 -0.20031679611E+00  0.53992446955E+02  0.71494944659E+02  0.41800000000E+01 0.  1.
         -5    1    1    2    0  502 -0.78865176929E+02  0.32012572774E+02  0.68446851694E+02  0.10930217223E+03  0.41800000000E+01 0.  1.
        -11    1    3    3    0    0  0.29505262986E+02 -0.99813406375E+01 -0.31430060646E+02  0.44249705276E+02  0.00000000000E+00 0.  1.
         11    1    3    3    0    0  0.26819720769E+01 -0.21830915341E+02  0.56876200462E+02  0.60981013584E+02  0.00000000000E+00 0. -1.
</event>
<event>
 7    1  0.6610867E-006  0.9258568E+02  0.7561462E-02  0.1296708E+00
          2   -1    0    0  501    0  0.00000000000E+00  0.00000000000E+00  0.33212865319E+03  0.33212865319E+03  0.00000000000E+00 0. -1.
         -2   -1    0    0    0  501 -0.00000000000E+00 -0.00000000000E+00 -0.87957772782E+02  0.87957772782E+02  0.00000000000E+00 0.  1.
         23    2    1    2    0    0 -0.27261408616E+02  0.39779660786E+02 -0.36012303256E+02  0.10948010508E+03  0.91451635363E+02 0.  0.
          5    1    1    2  502    0  0.63454499127E+02 -0.20312572611E+02  0.25176877022E+03  0.26046892353E+03  0.41800000000E+01 0.  1.
         -5    1    1    2    0  502 -0.36193090511E+02 -0.19467088175E+02  0.28414413437E+02  0.50137397357E+02  0.41800000000E+01 0.  1.
        -11    1    3    3    0    0 -0.42073359318E+02  0.91126100111E+01  0.17154378738E+02  0.46340909954E+02  0.00000000000E+00 0. -1.
         11    1    3    3    0    0  0.14811950702E+02  0.30667050775E+02 -0.53166681994E+02  0.63139195126E+02  0.00000000000E+00 0.  1.
</event>
<event>
 7    1  0.6610867E-006  0.9203531E+02  0.7561462E-02  0.1297996E+00
          1   -1    0    0  501    0  0.00000000000E+00  0.00000000000E+00  0.66242246976E+03  0.66242246976E+03  0.00000000000E+00 0. -1.
         -1   -1    0    0    0  501 -0.00000000000E+00 -0.00000000000E+00 -0.26123280300E+02  0.26123280300E+02  0.00000000000E+00 0.  1.
         23    2    1    2    0    0 -0.47820608670E+01 -0.43752141045E+02  0.12989208336E+03  0.16506455509E+03  0.91854428723E+02 0.  0.
          5    1    1    2  502    0 -0.42083319979E+02  0.17718349860E+02  0.69406838399E+02  0.83184898622E+02  0.41800000000E+01 0. -1.
         -5    1    1    2    0  502  0.46865380846E+02  0.26033791185E+02  0.43700026770E+03  0.44029629635E+03  0.41800000000E+01 0. -1.
        -11    1    3    3    0    0 -0.26264430712E+02 -0.54444643407E+02  0.41125942283E+02  0.73112123789E+02  0.00000000000E+00 0.  1.
         11    1    3    3    0    0  0.21482369845E+02  0.10692502361E+02  0.88766141075E+02  0.91952431301E+02  0.00000000000E+00 0. -1.
</event>
<event>
 7    1  0.6610867E-006  0.1327868E+03  0.7561462E-02  0.1223378E+00
          1   -1    0    0  501    0  0.00000000000E+00  0.00000000000E+00  0.44275504912E+03  0.44275504912E+03  0.00000000000E+00 0. -1.
         -1   -1    0    0    0  501 -0.00000000000E+00 -0.00000000000E+00 -0.50389310518E+02  0.50389310518E+02  0.00000000000E+00 0.  1.
         23    2    1    2    0    0 -0.48105456968E+01  0.99988808390E+02  0.15731300156E+03  0.20868716935E+03  0.93712598079E+02 0.  0.
          5    1    1    2  502    0  0.59425443044E+02 -0.84295238822E+02  0.15273113111E+03  0.18434028691E+03  0.41800000000E+01 0. -1.
         -5    1    1    2    0  502 -0.54614897348E+02 -0.15693569568E+02  0.82321605931E+02  0.10011690337E+03  0.41800000000E+01 0. -1.
        -11    1    3    3    0    0  0.12648041668E+02  0.21301603917E+02  0.11503274153E+03  0.11767014452E+03  0.00000000000E+00 0. -1.
         11    1    3    3    0    0 -0.17458587365E+02  0.78687204473E+02  0.42280260029E+02  0.91017024829E+02  0.00000000000E+00 0.  1.
</event>
<event>
 7    1  0.6610867E-006  0.9977627E+02  0.7561462E-02  0.1280767E+00
         -4   -1    0    0    0  501 -0.00000000000E+00  0.00000000000E+00  0.29368908974E+02  0.29368908974E+02  0.00000000000E+00 0. -1.
          4   -1    0    0  501    0  0.00000000000E+00 -0.00000000000E+00 -0.96941402949E+03  0.96941402949E+03  0.00000000000E+00 0.  1.
         23    2    1    2    0    0 -0.18341961176E+02  0.21437904546E+02 -0.67451930884E+02  0.11681784857E+03  0.91107823343E+02 0.  0.
          5    1    1    2  502    0  0.23648512963E+02  0.37695802278E+02 -0.65054325090E+03  0.65207685081E+03  0.41800000000E+01 0.  1.
         -5    1    1    2    0  502 -0.53065517872E+01 -0.59133706824E+02 -0.22204993873E+03  0.22988823908E+03  0.41800000000E+01 0.  1.
        -11    1    3    3    0    0 -0.47288623914E+02 -0.14248263442E+02 -0.36582606600E+02  0.61461484431E+02  0.00000000000E+00 0.  1.
         11    1    3    3    0    0  0.28946662738E+02  0.35686167989E+02 -0.30869324283E+02  0.55356364143E+02  0.00000000000E+00 0. -1.
</event>
<event>
 7    1  0.6610867E-006  0.6818402E+02  0.7561462E-02  0.1366380E+00
         -1   -1    0    0    0  501 -0.00000000000E+00  0.00000000000E+00  0.54677233146E+02  0.54677233146E+02  0.00000000000E+00 0.  1.
          1   -1    0    0  501    0  0.00000000000E+00 -0.00000000000E+00 -0.29922933695E+03  0.29922933695E+03  0.00000000000E+00 0. -1.
         23    2    1    2    0    0  0.53938352900E+02 -0.94521785245E+01 -0.32866973059E+02  0.10200055615E+03  0.79531037621E+02 0.  0.
          5    1    1    2  502    0 -0.43112607664E+02  0.11422354545E+02 -0.22768110510E+03  0.23204595481E+03  0.41800000000E+01 0.  1.
         -5    1    1    2    0  502 -0.10825745236E+02 -0.19701760205E+01  0.15995974353E+02  0.19860059138E+02  0.41800000000E+01 0.  1.
        -11    1    3    3    0    0  0.35793662728E+02  0.23053165125E+02  0.11484195187E+02  0.44096728370E+02  0.00000000000E+00 0.  1.
         11    1    3    3    0    0  0.18144690172E+02 -0.32505343650E+02 -0.44351168245E+02  0.57903827783E+02  0.00000000000E+00 0. -1.
</event>
<event>
 7    1  0.6610867E-006  0.1132444E+03  0.7561462E-02  0.1254677E+00
         -1   -1    0    0    0  501 -0.00000000000E+00  0.00000000000E+00  0.45710834305E+02  0.45710834305E+02  0.00000000000E+00 0.  1.
          1   -1    0    0  501    0  0.00000000000E+00 -0.00000000000E+00 -0.39116576662E+03  0.39116576662E+03  0.00000000000E+00 0. -1.
         23    2    1    2    0    0 -0.17935143403E+02  0.54771322487E+02 -0.71436953041E+02  0.13019662279E+03  0.92338265040E+02 0.  0.
          5    1    1    2  502    0 -0.43364303185E+02 -0.48399379911E+02 -0.19966336162E+03  0.21001403081E+03  0.41800000000E+01 0. -1.
         -5    1    1    2    0  502  0.61299446588E+02 -0.63719425765E+01 -0.74354617656E+02  0.96665947319E+02  0.41800000000E+01 0. -1.
        -11    1    3    3    0    0  0.30364515506E+02  0.59867664481E+01  0.23665720940E+00  0.30949978692E+02  0.00000000000E+00 0.  1.
         11    1    3    3    0    0 -0.48299658909E+02  0.48784556039E+02 -0.71673610251E+02  0.99246644100E+02  0.00000000000E+00 0. -1.
</event>
<event>
 7    1  0.6610867E-006  0.8643347E+02  0.7561462E-02  0.1311726E+00
         -2   -1    0    0    0  501 -0.00000000000E+00  0.00000000000E+00  0.15150886832E+03  0.15150886832E+03  0.00000000000E+00 0.  1.
          2   -1    0    0  501    0  0.00000000000E+00 -0.00000000000E+00 -0.92595269167E+02  0.92595269167E+02  0.00000000000E+00 0. -1.
         23    2    1    2    0    0 -0.20838706470E+02  0.43177913922E+02  0.36415553230E+02  0.10825913095E+03  0.89974235085E+02 0.  0.
          5    1    1    2  502    0  0.10231377953E+02 -0.61867408877E+02  0.63514118409E+02  0.89351961440E+02  0.41800000000E+01 0. -1.
         -5    1    1    2    0  502  0.10607328517E+02  0.18689494954E+02 -0.41016072487E+02  0.46493045095E+02  0.41800000000E+01 0. -1.
        -11    1    3    3    0    0 -0.17006036876E+02 -0.19190521508E+02  0.37895722137E+02  0.45755515102E+02  0.00000000000E+00 0.  1.
         11    1    3    3    0    0 -0.38326695942E+01  0.62368435430E+02 -0.14801689068E+01  0.62503615849E+02  0.00000000000E+00 0. -1.
</event>
<event>
 7    1  0.6610867E-006  0.1100379E+03  0.7561462E-02  0.1260500E+00
          4   -1    0    0  501    0  0.00000000000E+00  0.00000000000E+00  0.84499812278E+02  0.84499812278E+02  0.00000000000E+00 0.  1.
         -4   -1    0    0    0  501 -0.00000000000E+00 -0.00000000000E+00 -0.39090886875E+03  0.39090886875E+03  0.00000000000E+00 0. -1.
         23    2    1    2    0    0  0.79540653021E+02 -0.55556647621E+02 -0.28617086161E+03  0.31581788444E+03  0.91836362742E+02 0.  0.
          5    1    1    2  502    0 -0.79550397958E+02  0.54457341137E+02 -0.63887563374E+02  0.11572796107E+03  0.41800000000E+01 0.  1.
         -5    1    1    2    0  502  0.97449368368E-02  0.10993064847E+01  0.43649368503E+02  0.43862835526E+02  0.41800000000E+01 0.  1.
        -11    1    3    3    0    0  0.57571356684E+02  0.20467223225E+01 -0.21035018704E+03  0.21809596826E+03  0.00000000000E+00 0. -1.
         11    1    3    3    0    0  0.21969296337E+02 -0.57603369944E+02 -0.75820674563E+02  0.97721916179E+02  0.00000000000E+00 0.  1.
</event>
<event>
 7    1  0.7493869E-006  0.1523851E+03  0.7561462E-02  0.1197573E+00
          4   -1    0    0  501    0  0.00000000000E+00  0.00000000000E+00  0.23363957750E+03  0.23363957750E+03  0.00000000000E+00 0.  1.
         -4   -1    0    0    0  501 -0.00000000000E+00 -0.00000000000E+00 -0.14193783064E+03  0.14193783064E+03  0.00000000000E+00 0. -1.
         23    2    1    2    0    0 -0.40266442159E+02  0.13915484223E+03  0.46750603110E+02  0.17897181576E+03  0.94126699003E+02 0.  0.
          5    1    1    2  502    0  0.50451313443E+02 -0.80121691007E+02 -0.31060720600E+02  0.99734954565E+02  0.41800000000E+01 0.  1.
         -5    1    1    2    0  502 -0.10184871284E+02 -0.59033151227E+02  0.76011864354E+02  0.96870637808E+02  0.41800000000E+01 0.  1.
        -11    1    3    3    0    0 -0.41604303674E+02  0.74930099825E+02  0.69996120415E+02  0.11065665284E+03  0.00000000000E+00 0.  1.
         11    1    3    3    0    0  0.13378615155E+01  0.64224742409E+02 -0.23245517304E+02  0.68315162927E+02  0.00000000000E+00 0. -1.
</event>
<event>
 7    1  0.6610867E-006  0.1260818E+03  0.7561462E-02  0.1233388E+00
         -1   -1    0    0    0  501 -0.00000000000E+00  0.00000000000E+00  0.13854375972E+02  0.13854375972E+02  0.00000000000E+00 0. -1.
          1   -1    0    0  501    0  0.00000000000E+00 -0.00000000000E+00 -0.13415515715E+04  0.13415515715E+04  0.00000000000E+00 0.  1.
         23    2    1    2    0    0  0.55743194255E+02  0.42330765533E+02 -0.37881951853E+03  0.39576235793E+03  0.90688582088E+02 0.  0.
          5    1    1    2  502    0 -0.24076586655E+02 -0.85727484717E+02 -0.62171941436E+03  0.62807753204E+03  0.41800000000E+01 0.  1.
         -5    1    1    2    0  502 -0.31666607599E+02  0.43396719184E+02 -0.32715826262E+03  0.33156605748E+03  0.41800000000E+01 0.  1.
        -11    1    3    3    0    0  0.46837568618E+02 -0.16482522599E+02 -0.23385754003E+03  0.23907065988E+03  0.00000000000E+00 0.  1.
         11    1    3    3    0    0  0.89056256363E+01  0.58813288132E+02 -0.14496197849E+03  0.15669169805E+03  0.00000000000E+00 0. -1.
</event>
<event>
 7    1  0.6610867E-006  0.1708375E+03  0.7561462E-02  0.1176977E+00
         -2   -1    0    0    0  501 -0.00000000000E+00  0.00000000000E+00  0.21534042446E+02  0.21534042446E+02  0.00000000000E+00 0.  1.
          2   -1    0    0  501    0  0.00000000000E+00 -0.00000000000E+00 -0.14317070506E+04  0.14317070506E+04  0.00000000000E+00 0. -1.
         23    2    1    2    0    0 -0.97299278706E+02 -0.95781540669E+02 -0.57526926931E+03  0.59804947084E+03  0.89928772835E+02 0.  0.
          5    1    1    2  502    0  0.19620782218E+02 -0.26811962026E+02 -0.84933496241E+02  0.91296372251E+02  0.41800000000E+01 0.  1.
         -5    1    1    2    0  502  0.77678496488E+02  0.12259350269E+03 -0.74997024257E+03  0.76389524993E+03  0.41800000000E+01 0.  1.
        -11    1    3    3    0    0  0.90413546333E+01 -0.43629631533E+02 -0.13737404331E+03  0.14441924601E+03  0.00000000000E+00 0.  1.
         11    1    3    3    0    0 -0.10634063334E+03 -0.52151909136E+02 -0.43789522600E+03  0.45363022483E+03  0.00000000000E+00 0. -1.
</event>
<event>
 7    1  0.6610867E-006  0.1171451E+03  0.7561462E-02  0.1247882E+00
         -1   -1    0    0    0  501 -0.00000000000E+00  0.00000000000E+00  0.35614730138E+02  0.35614730138E+02  0.00000000000E+00 0.  1.
          1   -1    0    0  501    0  0.00000000000E+00 -0.00000000000E+00 -0.48087329626E+03  0.48087329626E+03  0.00000000000E+00 0. -1.
         23    2    1    2    0    0  0.45052062640E+02  0.35838148821E+02 -0.14447859834E+03  0.18568593817E+03  0.10144526108E+03 0.  0.
          5    1    1    2  502    0 -0.10129903182E+02  0.46672666856E+02 -0.10962898818E+03  0.11965341708E+03  0.41800000000E+01 0.  1.
         -5    1    1    2    0  502 -0.34922159458E+02 -0.82510815678E+02 -0.19115097961E+03  0.21114867115E+03  0.41800000000E+01 0.  1.
        -11    1    3    3    0    0 -0.19791679560E+01  0.48028041977E+02 -0.20003421109E+02  0.52064832450E+02  0.00000000000E+00 0.  1.
         11    1    3    3    0    0  0.47031230596E+02 -0.12189893156E+02 -0.12447517723E+03  0.13362110572E+03  0.00000000000E+00 0. -1.
</event>
<event>
 7    1  0.6610867E-006  0.1274128E+03  0.7561462E-02  0.1231346E+00
          4   -1    0    0  501    0  0.00000000000E+00  0.00000000000E+00  0.46231788685E+03  0.46231788685E+03  0.00000000000E+00 0.  1.
         -4   -1    0    0    0  501 -0.00000000000E+00 -0.00000000000E+00 -0.46726060051E+02  0.46726060051E+02  0.00000000000E+00 0. -1.
         23    2    1    2    0    0  0.46690311114E+02 -0.85026835751E+02  0.13022500941E+03  0.18271789575E+03  0.83771883123E+02 0.  0.
          5    1    1    2  502    0 -0.53047229775E+02 -0.60709412055E+01  0.47828342051E+02  0.71804509728E+02  0.41800000000E+01 0. -1.
         -5    1    1    2    0  502  0.63569186611E+01  0.91097776957E+02  0.23753847535E+03  0.25452154143E+03  0.41800000000E+01 0. -1.
        -11    1    3    3    0    0  0.56570135329E+02 -0.81809390568E+02  0.13773767589E+03  0.16989592095E+03  0.00000000000E+00 0.  1.
         11    1    3    3    0    0 -0.98798242155E+01 -0.32174451830E+01 -0.75126664827E+01  0.12821974798E+02  0.00000000000E+00 0. -1.
</event>
<event>
 7    1  0.6610867E-006  0.3267891E+03  0.7561462E-02  0.1072566E+00
         -1   -1    0    0    0  501 -0.00000000000E+00  0.00000000000E+00  0.10483359514E+03  0.10483359514E+03  0.00000000000E+00 0.  1.
          1   -1    0    0  501    0  0.00000000000E+00 -0.00000000000E+00 -0.11275359953E+04  0.11275359953E+04  0.00000000000E+00 0. -1.
         23    2    1    2    0    0 -0.27003824616E+03 -0.16530972895E+03 -0.36442260227E+03  0.49126960389E+03  0.91071564116E+02 0.  0.
          5    1    1    2  502    0  0.17603422797E+03  0.40772585618E+02 -0.40636331225E+03  0.44474607035E+03  0.41800000000E+01 0.  1.
         -5    1    1    2    0  502  0.94004018197E+02  0.12453714333E+03 -0.25191648564E+03  0.29635391619E+03  0.41800000000E+01 0.  1.
        -11    1    3    3    0    0 -0.13708497420E+03 -0.78659729878E+02 -0.11429671099E+03  0.19504712609E+03  0.00000000000E+00 0.  1.
         11    1    3    3    0    0 -0.13295327197E+03 -0.86649999068E+02 -0.25012589128E+03  0.29622247780E+03  0.00000000000E+00 0. -1.
</event>
<event>
 7    1  0.6610867E-006  0.1282798E+03  0.7561462E-02  0.1230031E+00
          2   -1    0    0  501    0  0.00000000000E+00  0.00000000000E+00  0.45439640458E+03  0.45439640458E+03  0.00000000000E+00 0. -1.
         -2   -1    0    0    0  501 -0.00000000000E+00 -0.00000000000E+00 -0.63846058211E+02  0.63846058211E+02  0.00000000000E+00 0.  1.
         23    2    1    2    0    0 -0.37571516742E+02 -0.90661496826E+02  0.51560399476E+02  0.14381890433E+03  0.91620284716E+02 0.  0.
          5    1    1    2  502    0  0.24009098261E+01  0.11491509367E+03  0.22668864314E+03  0.25419767200E+03  0.41800000000E+01 0.  1.
         -5    1    1    2    0  502  0.35170606916E+02 -0.24253596846E+02  0.11230130375E+03  0.12022588646E+03  0.41800000000E+01 0.  1.
        -11    1    3    3    0    0 -0.11584130572E+02 -0.17589795668E+02  0.62078143240E+02  0.65553709742E+02  0.00000000000E+00 0. -1.
         11    1    3    3    0    0 -0.25987386170E+02 -0.73071701158E+02 -0.10517743764E+02  0.78265194588E+02  0.00000000000E+00 0.  1.
</event>
<event>
 7    1  0.6610867E-006  0.9678632E+02  0.7561462E-02  0.1287203E+00
         -2   -1    0    0    0  501 -0.00000000000E+00  0.00000000000E+00  0.40010936889E+02  0.40010936889E+02  0.00000000000E+00 0.  1.
          2   -1    0    0  501    0  0.00000000000E+00 -0.00000000000E+00 -0.70590658660E+03  0.70590658660E+03  0.00000000000E+00 0. -1.
         23    2    1    2    0    0  0.98940822512E+01 -0.90719774932E+01 -0.28901197360E+02  0.96618098483E+02  0.91211754212E+02 0.  0.
          5    1    1    2  502    0  0.49007037136E+02  0.10819189959E+02 -0.13954296254E+03  0.14835247000E+03  0.41800000000E+01 0.  1.
         -5    1    1    2    0  502 -0.58901119387E+02 -0.17472124661E+01 -0.49745148981E+03  0.50094695501E+03  0.41800000000E+01 0.  1.
        -11    1    3    3    0    0  0.46769025891E+02 -0.53747493841E+01  0.37506935674E+01  0.47226024774E+02  0.00000000000E+00 0.  1.
         11    1    3    3    0    0 -0.36874943640E+02 -0.36972281091E+01 -0.32651890927E+02  0.49392073709E+02  0.00000000000E+00 0. -1.
</event>
<event>
 7    1  0.6610867E-006  0.1837357E+03  0.7561462E-02  0.1164236E+00
          1   -1    0    0  501    0  0.00000000000E+00  0.00000000000E+00  0.23470501607E+03  0.23470501607E+03  0.00000000000E+00 0. -1.
         -1   -1    0    0    0  501 -0.00000000000E+00 -0.00000000000E+00 -0.16227997626E+03  0.16227997626E+03  0.00000000000E+00 0.  1.
         23    2    1    2    0    0 -0.83919762717E+02 -0.13053445019E+03 -0.13432896390E+02  0.17995777182E+03  0.90125399691E+02 0.  0.
          5    1    1    2  502    0 -0.29402943254E+02  0.25973747536E+02  0.39818525245E+02  0.56054937211E+02  0.41800000000E+01 0.  1.
         -5    1    1    2    0  502  0.11332270597E+03  0.10456070266E+03  0.46039410957E+02  0.16097228330E+03  0.41800000000E+01 0.  1.
        -11    1    3    3    0    0 -0.95069561435E+02 -0.87135003240E+02 -0.29614184966E+02  0.13231677994E+03  0.00000000000E+00 0.  1.
         11    1    3    3    0    0  0.11149798718E+02 -0.43399446954E+02  0.16181288577E+02  0.47640991880E+02  0.00000000000E+00 0. -1.
</event>
<event>
 7    1  0.6610867E-006  0.1389692E+03  0.7561462E-02  0.1214723E+00
          1   -1    0    0  501    0  0.00000000000E+00  0.00000000000E+00  0.65224922674E+03  0.65224922674E+03  0.00000000000E+00 0. -1.
         -1   -1    0    0    0  501 -0.00000000000E+00 -0.00000000000E+00 -0.31117833731E+02  0.31117833731E+02  0.00000000000E+00 0.  1.
         23    2    1    2    0    0  0.89078540090E+02 -0.13995341105E+02  0.23632117070E+03  0.26881097806E+03  0.90998847955E+02 0.  0.
          5    1    1    2  502    0 -0.71394488126E+02  0.64749390728E+02  0.20014041909E+03  0.22217856847E+03  0.41800000000E+01 0.  1.
         -5    1    1    2    0  502 -0.17684051964E+02 -0.50754049623E+02  0.18466980322E+03  0.19237751394E+03  0.41800000000E+01 0.  1.
        -11    1    3    3    0    0  0.68609599047E+02 -0.50849742814E+02  0.16960397887E+03  0.18989071350E+03  0.00000000000E+00 0.  1.
         11    1    3    3    0    0  0.20468941043E+02  0.36854401709E+02  0.66717191827E+02  0.78920264559E+02  0.00000000000E+00 0. -1.
</event>
<event>
 7    1  0.6610867E-006  0.1328168E+03  0.7561462E-02  0.1223335E+00
          2   -1    0    0  501    0  0.00000000000E+00  0.00000000000E+00  0.19014130486E+03  0.19014130486E+03  0.00000000000E+00 0. -1.
         -2   -1    0    0    0  501 -0.00000000000E+00 -0.00000000000E+00 -0.29110911778E+03  0.29110911778E+03  0.00000000000E+00 0.  1.
         23    2    1    2    0    0  0.60933213731E+01 -0.74371215076E+01 -0.91491439865E+02  0.13004199140E+03  0.91911895945E+02 0.  0.
          5    1    1    2  502    0 -0.94962354404E+02 -0.12121195798E+02  0.14386187832E+03  0.17285394001E+03  0.41800000000E+01 0. -1.
         -5    1    1    2    0  502  0.88869033031E+02  0.19558317306E+02 -0.15333825138E+03  0.17835449123E+03  0.41800000000E+01 0.  1.
        -11    1    3    3    0    0  0.41140129192E+02  0.51887924304E+01 -0.13495843641E+02  0.43607013111E+02  0.00000000000E+00 0. -1.
         11    1    3    3    0    0 -0.35046807819E+02 -0.12625913938E+02 -0.77995596223E+02  0.86434978286E+02  0.00000000000E+00 0.  1.
</event>
<event>
 7    1  0.6610867E-006  0.1067839E+03  0.7561462E-02  0.1266644E+00
          1   -1    0    0  501    0  0.00000000000E+00  0.00000000000E+00  0.21658941458E+03  0.21658941458E+03  0.00000000000E+00 0. -1.
         -1   -1    0    0    0  501 -0.00000000000E+00 -0.00000000000E+00 -0.65051904784E+02  0.65051904784E+02  0.00000000000E+00 0.  1.
         23    2    1    2    0    0  0.88048077823E+01 -0.20583652727E+01  0.13503861818E+02  0.95143257533E+02  0.93744992732E+02 0.  0.
          5    1    1    2  502    0 -0.19051644248E+02 -0.57782895622E+02  0.91177922727E+02  0.10969372894E+03  0.41800000000E+01 0. -1.
         -5    1    1    2    0  502  0.10246836465E+02  0.59841260895E+02  0.46855725255E+02  0.76804332900E+02  0.41800000000E+01 0. -1.
        -11    1    3    3    0    0  0.40841336523E+02  0.26601476032E+02 -0.36152993910E+01  0.48874570952E+02  0.00000000000E+00 0.  1.
         11    1    3    3    0    0 -0.32036528741E+02 -0.28659841305E+02  0.17119161209E+02  0.46268686581E+02  0.00000000000E+00 0. -1.
</event>
<event>
 7    1  0.6610867E-006  0.2242925E+03  0.7561462E-02  0.1130723E+00
          2   -1    0    0  501    0  0.00000000000E+00  0.00000000000E+00  0.51583031533E+03  0.51583031533E+03  0.00000000000E+00 0. -1.
         -2   -1    0    0    0  501 -0.00000000000E+00 -0.00000000000E+00 -0.13893205358E+03  0.13893205358E+03  0.00000000000E+00 0.  1.
         23    2    1    2    0    0 -0.33754068023E+01  0.19694458555E+03  0.71965248580E+01  0.21758312351E+03  0.92152387460E+02 0.  0.
          5    1    1    2  502    0  0.22955474616E+02  0.92790708947E+01  0.54096206239E+02  0.59639977372E+02  0.41800000000E+01 0.  1.
         -5    1    1    2    0  502 -0.19580067813E+02 -0.20622365645E+03  0.31560553065E+03  0.37753926804E+03  0.41800000000E+01 0.  1.
        -11    1    3    3    0    0  0.42620852764E+02  0.80610438329E+02  0.14232114663E+02  0.92288314242E+02  0.00000000000E+00 0.  1.
         11    1    3    3    0    0 -0.45996259566E+02  0.11633414722E+03 -0.70355898053E+01  0.12529480926E+03  0.00000000000E+00 0. -1.
</event>
<event>
 7    1  0.6610867E-006  0.6636518E+02  0.7561462E-02  0.1372909E+00
          2   -1    0    0  501    0  0.00000000000E+00  0.00000000000E+00  0.90457286127E+03  0.90457286127E+03  0.00000000000E+00 0. -1.
         -2   -1    0    0    0  501 -0.00000000000E+00 -0.00000000000E+00 -0.24233252857E+02  0.24233252857E+02  0.00000000000E+00 0.  1.
         23    2    1    2    0    0  0.30044985662E+01  0.16965657631E+02  0.11932218886E+03  0.15949290457E+03  0.10441906580E+03 0.  0.
          5    1    1    2  502    0 -0.32031836097E+02 -0.27728991690E+00  0.68927754956E+03  0.69003414998E+03  0.41800000000E+01 0. -1.
         -5    1    1    2    0  502  0.29027337531E+02 -0.16688367714E+02  0.71739869994E+02  0.79279059580E+02  0.41800000000E+01 0.  1.
        -11    1    3    3    0    0  0.12282735743E+02 -0.22773834673E+02 -0.69485368551E+01  0.26791702213E+02  0.00000000000E+00 0. -1.
         11    1    3    3    0    0 -0.92782371771E+01  0.39739492304E+02  0.12627072572E+03  0.13270120236E+03  0.00000000000E+00 0.  1.
</event>
<event>
 7    1  0.6610867E-006  0.9782829E+02  0.7561462E-02  0.1284930E+00
         -1   -1    0    0    0  501 -0.00000000000E+00  0.00000000000E+00  0.42005261866E+03  0.42005261866E+03  0.00000000000E+00 0.  1.
          1   -1    0    0  501    0  0.00000000000E+00 -0.00000000000E+00 -0.33773514983E+02  0.33773514983E+02  0.00000000000E+00 0. -1.
         23    2    1    2    0    0  0.57015277020E+02  0.15058879076E+02  0.16445924491E+03  0.19242221502E+03  0.80634694412E+02 0.  0.
          5    1    1    2  502    0 -0.77507748820E+02  0.23581747455E+02  0.84119667585E+02  0.11686377033E+03  0.41800000000E+01 0.  1.
         -5    1    1    2    0  502  0.20492471801E+02 -0.38640626531E+02  0.13770019117E+03  0.14454014829E+03  0.41800000000E+01 0.  1.
        -11    1    3    3    0    0  0.15673179121E+02  0.23648237960E+02  0.14158518885E+03  0.14439963090E+03  0.00000000000E+00 0.  1.
         11    1    3    3    0    0  0.41342097898E+02 -0.85893588843E+01  0.22874056063E+02  0.48022584119E+02  0.00000000000E+00 0. -1.
</event>
<event>
 7    1  0.6610867E-006  0.1394590E+03  0.7561462E-02  0.1214059E+00
         -2   -1    0    0    0  501 -0.00000000000E+00  0.00000000000E+00  0.47110684733E+02  0.47110684733E+02  0.00000000000E+00 0.  1.
          2   -1    0    0  501    0  0.00000000000E+00 -0.00000000000E+00 -0.14024640366E+04  0.14024640366E+04  0.00000000000E+00 0. -1.
         23    2    1    2    0    0 -0.10517893405E+03  0.36729962660E+02 -0.90860908766E+02  0.17403559262E+03  0.98086616977E+02 0.  0.
          5    1    1    2  502    0  0.19899798891E+02  0.44957568585E+02 -0.37026120658E+03  0.37353449435E+03  0.41800000000E+01 0.  1.
         -5    1    1    2    0  502  0.85279135160E+02 -0.81687531245E+02 -0.89423123648E+03  0.90200463433E+03  0.41800000000E+01 0.  1.
        -11    1    3    3    0    0 -0.33627202266E+02  0.12174815465E+02  0.19117263401E+02  0.40552245607E+02  0.00000000000E+00 0.  1.
         11    1    3    3    0    0 -0.71551731785E+02  0.24555147194E+02 -0.10997817217E+03  0.13348334701E+03  0.00000000000E+00 0. -1.
</event>
<event>
 7    1  0.6610867E-006  0.8884648E+02  0.7561462E-02  0.1305669E+00
         -1   -1    0    0    0  501 -0.00000000000E+00  0.00000000000E+00  0.49919738628E+02  0.49919738628E+02  0.00000000000E+00 0.  1.
          1   -1    0    0  501    0  0.00000000000E+00 -0.00000000000E+00 -0.23181694326E+03  0.23181694326E+03  0.00000000000E+00 0. -1.
         23    2    1    2    0    0 -0.26138408211E+02 -0.11835953713E+02 -0.10509946502E+02  0.67616671515E+02  0.60317900388E+02 0.  0.
          5    1    1    2  502    0  0.16142031796E+01  0.58175331643E+02 -0.14279419077E+03  0.15425507506E+03  0.41800000000E+01 0. -1.
         -5    1    1    2    0  502  0.24524205031E+02 -0.46339377930E+02 -0.28593067361E+02  0.59864935317E+02  0.41800000000E+01 0. -1.
        -11    1    3    3    0    0  0.50437047050E+01  0.20923557189E+02 -0.45473050837E+01  0.21998004139E+02  0.00000000000E+00 0. -1.
         11    1    3    3    0    0 -0.31182112916E+02 -0.32759510902E+02 -0.59626414186E+01  0.45618667376E+02  0.00000000000E+00 0.  1.
</event>
<event>
 7    1  0.6610867E-006  0.1013176E+03  0.7561462E-02  0.1277549E+00
         -2   -1    0    0    0  501 -0.00000000000E+00  0.00000000000E+00  0.12162558128E+03  0.12162558128E+03  0.00000000000E+00 0.  1.
          2   -1    0    0  501    0  0.00000000000E+00 -0.00000000000E+00 -0.18253717120E+03  0.18253717120E+03  0.00000000000E+00 0. -1.
         23    2    1    2    0    0  0.21146484085E+02  0.18523715351E+02  0.71557686058E+02  0.11981569915E+03  0.91896667565E+02 0.  0.
          5    1    1    2  502    0 -0.63390117313E+02 -0.41021489569E+02 -0.10371523568E+03  0.12835650390E+03  0.41800000000E+01 0.  1.
         -5    1    1    2    0  502  0.42243633227E+02  0.22497774218E+02 -0.28754040286E+02  0.55990549433E+02  0.41800000000E+01 0.  1.
        -11    1    3    3    0    0  0.46813757247E+02  0.24177356570E+02  0.76681558407E+02  0.93038346063E+02  0.00000000000E+00 0.  1.
         11    1    3    3    0    0 -0.25667273161E+02 -0.56536412192E+01 -0.51238723496E+01  0.26777353089E+02  0.00000000000E+00 0. -1.
</event>
<event>
 7    1  0.6610867E-006  0.1541376E+03  0.7561462E-02  0.1195479E+00
         -2   -1    0    0    0  501 -0.00000000000E+00  0.00000000000E+00  0.47306928202E+03  0.47306928202E+03  0.00000000000E+00 0.  1.
          2   -1    0    0  501    0  0.00000000000E+00 -0.00000000000E+00 -0.83800295970E+02  0.83800295970E+02  0.00000000000E+00 0. -1.
         23    2    1    2    0    0 -0.37931275864E+02 -0.13464097378E+03  0.31052917295E+03  0.35336498557E+03  0.94188493264E+02 0.  0.
          5    1    1    2  502    0  0.58943915886E+01  0.63492015562E+02  0.10341065234E+03  0.12156157003E+03  0.41800000000E+01 0.  1.
         -5    1    1    2    0  502  0.32036884275E+02  0.71148958220E+02 -0.24670839235E+02  0.81943022390E+02  0.41800000000E+01 0.  1.
        -11    1    3    3    0    0 -0.61098208470E+02 -0.12846834494E+03  0.28380547105E+03  0.31746283582E+03  0.00000000000E+00 0. -1.
         11    1    3    3    0    0  0.23166932606E+02 -0.61726288373E+01  0.26723701902E+02  0.35902149747E+02  0.00000000000E+00 0.  1.
</event>
<event>
 7    1  0.6610867E-006  0.1961539E+03  0.7561462E-02  0.1153025E+00
         -1   -1    0    0    0  501 -0.00000000000E+00  0.00000000000E+00  0.13348262443E+03  0.13348262443E+03  0.00000000000E+00 0.  1.
          1   -1    0    0  501    0  0.00000000000E+00 -0.00000000000E+00 -0.37520908052E+03  0.37520908052E+03  0.00000000000E+00 0. -1.
         23    2    1    2    0    0 -0.99042702829E+02  0.15815834819E+03 -0.50177771614E+02  0.21346027750E+03  0.90686058584E+02 0.  0.
          5    1    1    2  502    0  0.74746791140E+02 -0.40350386958E+02 -0.22964824669E+02  0.88091384854E+02  0.41800000000E+01 0. -1.
         -5    1    1    2    0  502  0.24295911689E+02 -0.11780796123E+03 -0.16858385981E+03  0.20714004259E+03  0.41800000000E+01 0. -1.
        -11    1    3    3    0    0 -0.55894703737E+02  0.98865250136E+02 -0.74932149585E+02  0.13606389173E+03  0.00000000000E+00 0. -1.
         11    1    3    3    0    0 -0.43147999093E+02  0.59293098056E+02  0.24754377971E+02  0.77396385778E+02  0.00000000000E+00 0.  1.
</event>
<event>
 7    1  0.6610867E-006  0.1978938E+03  0.7561462E-02  0.1151528E+00
          2   -1    0    0  501    0  0.00000000000E+00  0.00000000000E+00  0.72067256092E+03  0.72067256092E+03  0.00000000000E+00 0. -1.
         -2   -1    0    0    0  501 -0.00000000000E+00 -0.00000000000E+00 -0.66812372180E+02  0.66812372180E+02  0.00000000000E+00 0.  1.
         23    2    1    2    0    0  0.54821292354E+02 -0.18118868685E+03  0.34685620156E+03  0.40573749606E+03  0.92081359766E+02 0.  0.
          5    1    1    2  502    0 -0.47478874635E+02  0.80800286687E+02  0.24764344584E+03  0.26481631093E+03  0.41800000000E+01 0. -1.
         -5    1    1    2    0  502 -0.73424177197E+01  0.10038840016E+03  0.59360541336E+02  0.11693112610E+03  0.41800000000E+01 0. -1.
        -11    1    3    3    0    0  0.61924613404E+02 -0.87056589344E+02  0.12377199414E+03  0.16350233645E+03  0.00000000000E+00 0. -1.
         11    1    3    3    0    0 -0.71033210495E+01 -0.94132097502E+02  0.22308420742E+03  0.24223515961E+03  0.00000000000E+00 0.  1.
</event>
<event>
 7    1  0.6610867E-006  0.1034819E+03  0.7561462E-02  0.1273140E+00
         -2   -1    0    0    0  501 -0.00000000000E+00  0.00000000000E+00  0.67956661112E+02  0.67956661112E+02  0.00000000000E+00 0.  1.
          2   -1    0    0  501    0  0.00000000000E+00 -0.00000000000E+00 -0.21120560021E+03  0.21120560021E+03  0.00000000000E+00 0. -1.
         23    2    1    2    0    0  0.36042880025E+02  0.37184261036E+01 -0.19725136148E+02  0.99675774184E+02  0.90737330079E+02 0.  0.
          5    1    1    2  502    0 -0.80507930151E+02 -0.15451079330E+02 -0.93446066906E+02  0.12437806274E+03  0.41800000000E+01 0. -1.
         -5    1    1    2    0  502  0.44465050126E+02  0.11732653226E+02 -0.30077736041E+02  0.55108424399E+02  0.41800000000E+01 0. -1.
        -11    1    3    3    0    0 -0.13809704524E+02  0.21687870622E+02  0.20713079732E+02  0.33016713088E+02  0.00000000000E+00 0.  1.
         11    1    3    3    0    0  0.49852584550E+02 -0.17969444518E+02 -0.40438215881E+02  0.66659061096E+02  0.00000000000E+00 0. -1.
</event>
<event>
 7    1  0.6610867E-006  0.1573454E+03  0.7561462E-02  0.1191727E+00
         -2   -1    0    0    0  501 -0.00000000000E+00  0.00000000000E+00  0.21558538010E+03  0.21558538010E+03  0.00000000000E+00 0. -1.
          2   -1    0    0  501    0  0.00000000000E+00 -0.00000000000E+00 -0.18985862703E+03  0.18985862703E+03  0.00000000000E+00 0.  1.
         23    2    1    2    0    0 -0.22889853241E+02 -0.15143754252E+03 -0.61501453489E+02  0.18931350939E+03  0.92735653299E+02 0.  0.
          5    1    1    2  502    0  0.12404531372E+02  0.18024399492E+02  0.78897303186E+02  0.81981755444E+02  0.41800000000E+01 0. -1.
         -5    1    1    2    0  502  0.10485321869E+02  0.13341314302E+03  0.83309033708E+01  0.13414874229E+03  0.41800000000E+01 0. -1.
        -11    1    3    3    0    0  0.71726808043E+01 -0.88350323217E+02 -0.77361944686E+02  0.11765244344E+03  0.00000000000E+00 0.  1.
         11    1    3    3    0    0 -0.30062534045E+02 -0.63087219300E+02  0.15860491197E+02  0.71661065951E+02  0.00000000000E+00 0. -1.
</event>
<event>
 7    1  0.7823352E-006  0.1235302E+03  0.7561462E-02  0.1237384E+00
          3   -1    0    0  501    0  0.00000000000E+00  0.00000000000E+00  0.76464839889E+02  0.76464839889E+02  0.00000000000E+00 0. -1.
         -3   -1    0    0    0  501 -0.00000000000E+00 -0.00000000000E+00 -0.32877032245E+03  0.32877032245E+03  0.00000000000E+00 0.  1.
         23    2    1    2    0    0 -0.86203476995E+02  0.75760504761E+02 -0.13502207373E+03  0.19890105087E+03  0.90332575062E+02 0.  0.
          5    1    1    2  502    0  0.17763329418E+01 -0.20019509277E+02 -0.10186445630E+03  0.10391234753E+03  0.41800000000E+01 0. -1.
         -5    1    1    2    0  502  0.84427144053E+02 -0.55740995484E+02 -0.15418952527E+02  0.10242176393E+03  0.41800000000E+01 0. -1.
        -11    1    3    3    0    0 -0.61196176834E+02  0.20359260110E+02 -0.17877955224E+02  0.66926024941E+02  0.00000000000E+00 0.  1.
         11    1    3    3    0    0 -0.25007300161E+02  0.55401244651E+02 -0.11714411850E+03  0.13197502593E+03  0.00000000000E+00 0. -1.
</event>
<event>
 7    1  0.6610867E-006  0.3336107E+03  0.7561462E-02  0.1069550E+00
          2   -1    0    0  501    0  0.00000000000E+00  0.00000000000E+00  0.55945212019E+03  0.55945212019E+03  0.00000000000E+00 0.  1.
         -2   -1    0    0    0  501 -0.00000000000E+00 -0.00000000000E+00 -0.20275680641E+03  0.20275680641E+03  0.00000000000E+00 0. -1.
         23    2    1    2    0    0 -0.89008314806E+02 -0.30584145820E+03  0.18581275706E+03  0.37970367891E+03  0.90482182953E+02 0.  0.
          5    1    1    2  502    0  0.97051636766E+02  0.31112361937E+03  0.17644462392E+03  0.37063068470E+03  0.41800000000E+01 0. -1.
         -5    1    1    2    0  502 -0.80433219604E+01 -0.52821611717E+01 -0.55620671931E+01  0.11874562992E+02  0.41800000000E+01 0. -1.
        -11    1    3    3    0    0 -0.26024966615E+02 -0.23320842849E+03  0.13952480293E+03  0.27300300482E+03  0.00000000000E+00 0.  1.
         11    1    3    3    0    0 -0.62983348191E+02 -0.72633029711E+02  0.46287954127E+02  0.10670067409E+03  0.00000000000E+00 0. -1.
</event>
<event>
 7    1  0.6610867E-006  0.1112435E+03  0.7561462E-02  0.1258284E+00
         -1   -1    0    0    0  501 -0.00000000000E+00  0.00000000000E+00  0.25398786661E+02  0.25398786661E+02  0.00000000000E+00 0.  1.
          1   -1    0    0  501    0  0.00000000000E+00 -0.00000000000E+00 -0.65146361541E+03  0.65146361541E+03  0.00000000000E+00 0. -1.
         23    2    1    2    0    0  0.46796242796E+02  0.47011351212E+02 -0.21436098173E+03  0.24149225716E+03  0.89263230374E+02 0.  0.
          5    1    1    2  502    0 -0.74153396154E+02  0.91600153777E+01 -0.17106152505E+03  0.18671408569E+03  0.41800000000E+01 0.  1.
         -5    1    1    2    0  502  0.27357153358E+02 -0.56171366590E+02 -0.24064232197E+03  0.24865605922E+03  0.41800000000E+01 0.  1.
        -11    1    3    3    0    0  0.30193085311E+01  0.40691702393E+02 -0.26873517553E+02  0.48858129449E+02  0.00000000000E+00 0.  1.
         11    1    3    3    0    0  0.43776934265E+02  0.63196488196E+01 -0.18748746418E+03  0.19263412771E+03  0.00000000000E+00 0. -1.
</event>
<event>
 7    1  0.6610867E-006  0.1172272E+03  0.7561462E-02  0.1247743E+00
          1   -1    0    0  501    0  0.00000000000E+00  0.00000000000E+00  0.94155484845E+02  0.94155484845E+02  0.00000000000E+00 0. -1.
         -1   -1    0    0    0  501 -0.00000000000E+00 -0.00000000000E+00 -0.20893545569E+03  0.20893545569E+03  0.00000000000E+00 0.  1.
         23    2    1    2    0    0  0.49031800822E+02 -0.33717480735E+02 -0.12232958525E+03  0.16436225856E+03  0.92246618433E+02 0.  0.
          5    1    1    2  502    0 -0.83255308530E+02  0.35804933714E+02 -0.21908303271E+02  0.93332126457E+02  0.41800000000E+01 0.  1.
         -5    1    1    2    0  502  0.34223507708E+02 -0.20874529795E+01  0.29457917672E+02  0.45396555523E+02  0.41800000000E+01 0.  1.
        -11    1    3    3    0    0 -0.13391124039E+02 -0.43939447040E+02 -0.59935624046E+02  0.75513417610E+02  0.00000000000E+00 0.  1.
         11    1    3    3    0    0  0.62422924861E+02  0.10221966306E+02 -0.62393961199E+02  0.88848840946E+02  0.00000000000E+00 0. -1.
</event>
<event>
 7    1  0.6610867E-006  0.1112561E+03  0.7561462E-02  0.1258261E+00
          1   -1    0    0  501    0  0.00000000000E+00  0.00000000000E+00  0.40250670176E+02  0.40250670176E+02  0.00000000000E+00 0. -1.
         -1   -1    0    0    0  501 -0.00000000000E+00 -0.00000000000E+00 -0.45433990672E+03  0.45433990672E+03  0.00000000000E+00 0.  1.
         23    2    1    2    0    0 -0.54539146395E+02  0.55752768850E+02 -0.15202518170E+03  0.19391303772E+03  0.91693623568E+02 0.  0.
          5    1    1    2  502    0  0.29914719169E+02  0.12564261211E+02 -0.20667984594E+03  0.20925291444E+03  0.41800000000E+01 0. -1.
         -5    1    1    2    0  502  0.24624427226E+02 -0.68317030062E+02 -0.55384208904E+02  0.91424624739E+02  0.41800000000E+01 0. -1.
        -11    1    3    3    0    0 -0.44242681972E+02 -0.14111996116E+02 -0.39015915749E+02  0.60653153456E+02  0.00000000000E+00 0. -1.
         11    1    3    3    0    0 -0.10296464423E+02  0.69864764966E+02 -0.11300926595E+03  0.13325988426E+03  0.00000000000E+00 0.  1.
</event>
<event>
 7    1  0.6610867E-006  0.1146634E+03  0.7561462E-02  0.1252170E+00
         -1   -1    0    0    0  501 -0.00000000000E+00  0.00000000000E+00  0.40971473054E+02  0.40971473054E+02  0.00000000000E+00 0.  1.
          1   -1    0    0  501    0  0.00000000000E+00 -0.00000000000E+00 -0.37106971258E+03  0.37106971258E+03  0.00000000000E+00 0. -1.
         23    2    1    2    0    0  0.25069554867E+02 -0.44828419629E+02 -0.11354462624E+03  0.15672467261E+03  0.95037734975E+02 0.  0.
          5    1    1    2  502    0 -0.72887948859E+02  0.69161250992E+01 -0.13127124807E+03  0.15036654830E+03  0.41800000000E+01 0.  1.
         -5    1    1    2    0  502  0.47818393992E+02  0.37912294530E+02 -0.85282365216E+02  0.10494996473E+03  0.41800000000E+01 0.  1.
        -11    1    3    3    0    0  0.28222962967E+02  0.16979412867E+02 -0.72491486948E+01  0.33725157624E+02  0.00000000000E+00 0.  1.
         11    1    3    3    0    0 -0.31534081000E+01 -0.61807832496E+02 -0.10629547754E+03  0.12299951499E+03  0.00000000000E+00 0. -1.
</event>
<event>
 7    1  0.6610867E-006  0.1292352E+03  0.7561462E-02  0.1228595E+00
         -2   -1    0    0    0  501 -0.00000000000E+00  0.00000000000E+00  0.16022001551E+03  0.16022001551E+03  0.00000000000E+00 0. -1.
          2   -1    0    0  501    0  0.00000000000E+00 -0.00000000000E+00 -0.16616114399E+03  0.16616114399E+03  0.00000000000E+00 0.  1.
         23    2    1    2    0    0 -0.26400752512E+02  0.94063387889E+02  0.70598376540E+02  0.15017171431E+03  0.89568366822E+02 0.  0.
          5    1    1    2  502    0 -0.36984517184E+01 -0.10863582684E+03 -0.88723013986E+02  0.14037331310E+03  0.41800000000E+01 0.  1.
         -5    1    1    2    0  502  0.30099204230E+02  0.14572438952E+02  0.12183508962E+02  0.35836132086E+02  0.41800000000E+01 0.  1.
        -11    1    3    3    0    0  0.18215053884E+02  0.50287224300E+02 -0.30538746514E+01  0.53571627437E+02  0.00000000000E+00 0.  1.
         11    1    3    3    0    0 -0.44615806396E+02  0.43776163589E+02  0.73652251192E+02  0.96600086877E+02  0.00000000000E+00 0. -1.
</event>
<event>
 7    1  0.6610867E-006  0.8948186E+02  0.7561462E-02  0.1304111E+00
         -4   -1    0    0    0  501 -0.00000000000E+00  0.00000000000E+00  0.40201101445E+03  0.40201101445E+03  0.00000000000E+00 0.  1.
          4   -1    0    0  501    0  0.00000000000E+00 -0.00000000000E+00 -0.32019072664E+02  0.32019072664E+02  0.00000000000E+00 0. -1.
         23    2    1    2    0    0 -0.16446045155E+02 -0.29242360808E+02  0.17657411095E+03  0.20125702601E+03  0.90555981550E+02 0.  0.
          5    1    1    2  502    0  0.47980263337E+02  0.12794496076E+02  0.19042506140E+03  0.19683744869E+03  0.41800000000E+01 0.  1.
         -5    1    1    2    0  502 -0.31534218182E+02  0.16447864731E+02  0.29927694423E+01  0.35935612414E+02  0.41800000000E+01 0.  1.
        -11    1    3    3    0    0 -0.29539823652E+02  0.24268830726E+02  0.47901667020E+02  0.61287413304E+02  0.00000000000E+00 0. -1.
         11    1    3    3    0    0  0.13093778497E+02 -0.53511191533E+02  0.12867244393E+03  0.13996961270E+03  0.00000000000E+00 0.  1.
</event>
<event>
 7    1  0.6610867E-006  0.2993527E+03  0.7561462E-02  0.1085565E+00
         -2   -1    0    0    0  501 -0.00000000000E+00  0.00000000000E+00  0.28990719362E+02  0.28990719362E+02  0.00000000000E+00 0.  1.
          2   -1    0    0  501    0  0.00000000000E+00 -0.00000000000E+00 -0.32080326732E+04  0.32080326732E+04  0.00000000000E+00 0. -1.
         23    2    1    2    0    0  0.11320942582E+03 -0.26024522134E+03 -0.13877226763E+04  0.14190532342E+04  0.85987823827E+02 0.  0.
          5    1    1    2  502    0 -0.12405769991E+03  0.16160431490E+03 -0.10090037452E+04  0.10293747120E+04  0.41800000000E+01 0.  1.
         -5    1    1    2    0  502  0.10848274084E+02  0.98640906440E+02 -0.78231553235E+03  0.78859544637E+03  0.41800000000E+01 0.  1.
        -11    1    3    3    0    0  0.17899503190E+02 -0.14480397123E+03 -0.74130799967E+03  0.75553036516E+03  0.00000000000E+00 0. -1.
         11    1    3    3    0    0  0.95309922632E+02 -0.11544125010E+03 -0.64641467662E+03  0.66352286903E+03  0.00000000000E+00 0.  1.
</event>
<event>
 7    1  0.6610867E-006  0.1092894E+03  0.7561462E-02  0.1261891E+00
          4   -1    0    0  501    0  0.00000000000E+00  0.00000000000E+00  0.51776207290E+03  0.51776207290E+03  0.00000000000E+00 0. -1.
         -4   -1    0    0    0  501 -0.00000000000E+00 -0.00000000000E+00 -0.38324714843E+02  0.38324714843E+02  0.00000000000E+00 0.  1.
         23    2    1    2    0    0  0.56552906023E+02  0.59473162810E+02  0.14730483079E+03  0.19182807704E+03  0.91454959900E+02 0.  0.
          5    1    1    2  502    0 -0.43250067002E+02 -0.10307267636E+02  0.30126116198E+03  0.30455306299E+03  0.41800000000E+01 0. -1.
         -5    1    1    2    0  502 -0.13302839020E+02 -0.49165895174E+02  0.30871365283E+02  0.59705647712E+02  0.41800000000E+01 0. -1.
        -11    1    3    3    0    0  0.60124592800E+02 -0.30399927155E+01  0.75269371456E+02  0.96383019741E+02  0.00000000000E+00 0. -1.
         11    1    3    3    0    0 -0.35716867775E+01  0.62513155526E+02  0.72035459337E+02  0.95445057295E+02  0.00000000000E+00 0.  1.
</event>
<event>
 7    1  0.6610867E-006  0.9899063E+02  0.7561462E-02  0.1282433E+00
         -2   -1    0    0    0  501 -0.00000000000E+00  0.00000000000E+00  0.13024367531E+03  0.13024367531E+03  0.00000000000E+00 0.  1.
          2   -1    0    0  501    0  0.00000000000E+00 -0.00000000000E+00 -0.94153712906E+02  0.94153712906E+02  0.00000000000E+00 0. -1.
         23    2    1    2    0    0  0.21865267999E+02 -0.32748266513E+01  0.30703225303E+02  0.97255053250E+02  0.89593765990E+02 0.  0.
          5    1    1    2  502    0 -0.74060109025E+02  0.63238427480E+01  0.32222104552E+00  0.74447746522E+02  0.41800000000E+01 0. -1.
         -5    1    1    2    0  502  0.52194841025E+02 -0.30490160967E+01  0.50645160582E+01  0.52694588448E+02  0.41800000000E+01 0. -1.
        -11    1    3    3    0    0 -0.24520182392E+02 -0.29497690447E+01  0.42712943763E+02  0.49338991141E+02  0.00000000000E+00 0.  1.
         11    1    3    3    0    0  0.46385450392E+02 -0.32505760656E+00 -0.12009718459E+02  0.47916062108E+02  0.00000000000E+00 0. -1.
</event>
<event>
 7    1  0.6610867E-006  0.1085046E+03  0.7561462E-02  0.1263364E+00
          1   -1    0    0  501    0  0.00000000000E+00  0.00000000000E+00  0.10331710123E+04  0.10331710123E+04  0.00000000000E+00 0. -1.
         -1   -1    0    0    0  501 -0.00000000000E+00 -0.00000000000E+00 -0.16826285042E+02  0.16826285042E+02  0.00000000000E+00 0.  1.
         23    2    1    2    0    0 -0.39511411649E+02 -0.62650868027E+02  0.39343665948E+03  0.41035052035E+03  0.90049217729E+02 0.  0.
          5    1    1    2  502    0  0.73927465714E+02  0.69181272669E+02  0.54185125055E+03  0.55124547055E+03  0.41800000000E+01 0. -1.
         -5    1    1    2    0  502 -0.34416054065E+02 -0.65304046420E+01  0.81056817213E+02  0.88401306432E+02  0.41800000000E+01 0. -1.
        -11    1    3    3    0    0 -0.11027149326E+02  0.58271616238E+00  0.19933801055E+00  0.11044334114E+02  0.00000000000E+00 0.  1.
         11    1    3    3    0    0 -0.28484262323E+02 -0.63233584189E+02  0.39323732147E+03  0.39930618623E+03  0.00000000000E+00 0. -1.
</event>
<event>
 7    1  0.6610867E-006  0.9352283E+02  0.7561462E-02  0.1294538E+00
         -3   -1    0    0    0  501 -0.00000000000E+00  0.00000000000E+00  0.48200040449E+02  0.48200040449E+02  0.00000000000E+00 0.  1.
          3   -1    0    0  501    0  0.00000000000E+00 -0.00000000000E+00 -0.29741038268E+03  0.29741038268E+03  0.00000000000E+00 0. -1.
         23    2    1    2    0    0 -0.14861318551E+02 -0.47439481479E+02 -0.93240078869E+02  0.13958498026E+03  0.91207955876E+02 0.  0.
          5    1    1    2  502    0 -0.10050455876E+02  0.76247679265E+02 -0.14807183626E+03  0.16690554620E+03  0.41800000000E+01 0.  1.
         -5    1    1    2    0  502  0.24911774427E+02 -0.28808197787E+02 -0.78984270975E+01  0.39119896669E+02  0.41800000000E+01 0.  1.
        -11    1    3    3    0    0 -0.12879294476E+02 -0.58792140917E+02 -0.10630703944E+03  0.12216210007E+03  0.00000000000E+00 0. -1.
         11    1    3    3    0    0 -0.19820240752E+01  0.11352659438E+02  0.13066960567E+02  0.17422880192E+02  0.00000000000E+00 0.  1.
</event>
<event>
 7    1  0.6610867E-006  0.1055065E+03  0.7561462E-02  0.1269125E+00
          4   -1    0    0  501    0  0.00000000000E+00  0.00000000000E+00  0.83064350779E+03  0.83064350779E+03  0.00000000000E+00 0. -1.
         -4   -1    0    0    0  501 -0.00000000000E+00 -0.00000000000E+00 -0.16296144396E+02  0.16296144396E+02  0.00000000000E+00 0.  1.
         23    2    1    2    0    0 -0.17028578184E+01  0.56990950145E+02  0.39138656735E+03  0.40519147738E+03  0.88010340980E+02 0.  0.
          5    1    1    2  502    0 -0.43095587575E+02 -0.48083145901E+02  0.12993431945E+03  0.14515377487E+03  0.41800000000E+01 0. -1.
         -5    1    1    2    0  502  0.44798445393E+02 -0.89078042433E+01  0.29302647661E+03  0.29659439994E+03  0.41800000000E+01 0.  1.
        -11    1    3    3    0    0 -0.15615021207E+02  0.75606603197E+02  0.34206598775E+03  0.35066982663E+03  0.00000000000E+00 0.  1.
         11    1    3    3    0    0  0.13912163388E+02 -0.18615653052E+02  0.49320579598E+02  0.54521650750E+02  0.00000000000E+00 0. -1.
</event>
<event>
 7    1  0.6610867E-006  0.7624253E+02  0.7561462E-02  0.1340066E+00
         -1   -1    0    0    0  501 -0.00000000000E+00  0.00000000000E+00  0.34499489524E+02  0.34499489524E+02  0.00000000000E+00 0. -1.
          1   -1    0    0  501    0  0.00000000000E+00 -0.00000000000E+00 -0.45102974457E+03  0.45102974457E+03  0.00000000000E+00 0.  1.
         23    2    1    2    0    0 -0.25586703458E+02 -0.33832878347E+02 -0.97511506817E+02  0.14024721095E+03  0.91440927196E+02 0.  0.
          5    1    1    2  502    0  0.48893979939E+01  0.30567912713E+02 -0.32217344731E+03  0.32368426909E+03  0.41800000000E+01 0.  1.
         -5    1    1    2    0  502  0.20697305464E+02  0.32649656343E+01  0.31546990828E+01  0.21597754059E+02  0.41800000000E+01 0.  1.
        -11    1    3    3    0    0  0.30504009200E+02 -0.31341705944E+02 -0.52184208907E+02  0.68088095641E+02  0.00000000000E+00 0.  1.
         11    1    3    3    0    0 -0.56090712658E+02 -0.24911724035E+01 -0.45327297910E+02  0.72159115310E+02  0.00000000000E+00 0. -1.
</event>
<event>
 7    1  0.6610867E-006  0.1480547E+03  0.7561462E-02  0.1202884E+00
          2   -1    0    0  501    0  0.00000000000E+00  0.00000000000E+00  0.74806585823E+03  0.74806585823E+03  0.00000000000E+00 0. -1.
         -2   -1    0    0    0  501 -0.00000000000E+00 -0.00000000000E+00 -0.33685147944E+02  0.33685147944E+02  0.00000000000E+00 0.  1.
         23    2    1    2    0    0  0.11135433267E+03 -0.26114613840E+02  0.30394309735E+03  0.33769240109E+03  0.92590446940E+02 0.  0.
          5    1    1    2  502    0 -0.47265695475E+02 -0.43234836279E+02  0.24750403069E+03  0.25569320414E+03  0.41800000000E+01 0.  1.
         -5    1    1    2    0  502 -0.64088637196E+02  0.69349450119E+02  0.16293358225E+03  0.18836540095E+03  0.41800000000E+01 0.  1.
        -11    1    3    3    0    0  0.15555938870E+02  0.24520265691E+02  0.12642204781E+03  0.12971416591E+03  0.00000000000E+00 0.  1.
         11    1    3    3    0    0  0.95798393802E+02 -0.50634879531E+02  0.17752104954E+03  0.20797823518E+03  0.00000000000E+00 0. -1.
</event>
<event>
 7    1  0.6610867E-006  0.1199637E+03  0.7561462E-02  0.1243157E+00
          2   -1    0    0  501    0  0.00000000000E+00  0.00000000000E+00  0.37730297623E+03  0.37730297623E+03  0.00000000000E+00 0. -1.
         -2   -1    0    0    0  501 -0.00000000000E+00 -0.00000000000E+00 -0.44879329777E+02  0.44879329777E+02  0.00000000000E+00 0.  1.
         23    2    1    2    0    0  0.29341760788E+02  0.40936324499E+02  0.67754478221E+02  0.12512944555E+03  0.92357930008E+02 0.  0.
          5    1    1    2  502    0 -0.33119712541E+02  0.40908591026E+02  0.10688340477E+03  0.11921393708E+03  0.41800000000E+01 0.  1.
         -5    1    1    2    0  502  0.37779517525E+01 -0.81844915524E+02  0.15778576346E+03  0.17783892337E+03  0.41800000000E+01 0.  1.
        -11    1    3    3    0    0 -0.23688370158E+02 -0.14977497493E+02  0.20636759634E+02  0.34804312378E+02  0.00000000000E+00 0. -1.
         11    1    3    3    0    0  0.53030130946E+02  0.55913821992E+02  0.47117718587E+02  0.90325133173E+02  0.00000000000E+00 0.  1.
</event>
<event>
 7    1  0.6610867E-006  0.2914739E+03  0.7561462E-02  0.1089582E+00
          2   -1    0    0  501    0  0.00000000000E+00  0.00000000000E+00  0.96422208362E+02  0.96422208362E+02  0.00000000000E+00 0.  1.
         -2   -1    0    0    0  501 -0.00000000000E+00 -0.00000000000E+00 -0.12507116004E+04  0.12507116004E+04  0.00000000000E+00 0. -1.
         23    2    1    2    0    0 -0.11541350404E+03  0.25618551670E+03 -0.90434240720E+03  0.95081741849E+03  0.85248331161E+02 0.  0.
          5    1    1    2  502    0  0.42427853481E+02 -0.31120065301E+02 -0.10841342950E+03  0.12057995402E+03  0.41800000000E+01 0.  1.
         -5    1    1    2    0  502  0.72985650559E+02 -0.22506545140E+03 -0.14153355537E+03  0.27573643629E+03  0.41800000000E+01 0.  1.
        -11    1    3    3    0    0 -0.36202422868E+02  0.18005827260E+03 -0.55341713863E+03  0.58309701275E+03  0.00000000000E+00 0. -1.
         11    1    3    3    0    0 -0.79211081173E+02  0.76127244094E+02 -0.35092526857E+03  0.36772040573E+03  0.00000000000E+00 0.  1.
</event>
<event>
 7    1  0.6610867E-006  0.1050612E+03  0.7561462E-02  0.1269999E+00
          1   -1    0    0  501    0  0.00000000000E+00  0.00000000000E+00  0.17474627154E+03  0.17474627154E+03  0.00000000000E+00 0. -1.
         -1   -1    0    0    0  501 -0.00000000000E+00 -0.00000000000E+00 -0.96838924299E+02  0.96838924299E+02  0.00000000000E+00 0.  1.
         23    2    1    2    0    0  0.37837248033E+02 -0.13119140644E+02 -0.26126823661E+02  0.10319421473E+03  0.91447612597E+02 0.  0.
          5    1    1    2  502    0  0.35759700943E+02  0.93215098035E+01  0.84065081482E+02  0.91924192034E+02  0.41800000000E+01 0. -1.
         -5    1    1    2    0  502 -0.73596948976E+02  0.37976308404E+01  0.19969089418E+02  0.76466789070E+02  0.41800000000E+01 0.  1.
        -11    1    3    3    0    0 -0.26817653941E+02  0.12481458199E+02 -0.22298984149E+01  0.29663880539E+02  0.00000000000E+00 0. -1.
         11    1    3    3    0    0  0.64654901974E+02 -0.25600598843E+02 -0.23896925246E+02  0.73530334193E+02  0.00000000000E+00 0.  1.
</event>
<event>
 7    1  0.6610867E-006  0.1847935E+03  0.7561462E-02  0.1163243E+00
         -2   -1    0    0    0  501 -0.00000000000E+00  0.00000000000E+00  0.45512341386E+02  0.45512341386E+02  0.00000000000E+00 0.  1.
          2   -1    0    0  501    0  0.00000000000E+00 -0.00000000000E+00 -0.86695461958E+03  0.86695461958E+03  0.00000000000E+00 0. -1.
         23    2    1    2    0    0  0.77349334607E+02  0.14588586866E+03 -0.34718159606E+03  0.39493824577E+03  0.90418754050E+02 0.  0.
          5    1    1    2  502    0 -0.23974026857E+02 -0.13196030125E+03 -0.22307372308E+03  0.26032217232E+03  0.41800000000E+01 0. -1.
         -5    1    1    2    0  502 -0.53375307750E+02 -0.13925567412E+02 -0.25118695905E+03  0.25720654288E+03  0.41800000000E+01 0. -1.
        -11    1    3    3    0    0  0.86198782535E+02  0.94374538529E+02 -0.29295507538E+03  0.31962393500E+03  0.00000000000E+00 0.  1.
         11    1    3    3    0    0 -0.88494479278E+01  0.51511330135E+02 -0.54226520679E+02  0.75314310764E+02  0.00000000000E+00 0. -1.
</event>
<event>
 7    1  0.6610867E-006  0.2291200E+03  0.7561462E-02  0.1127261E+00
         -2   -1    0    0    0  501 -0.00000000000E+00  0.00000000000E+00  0.11911930578E+03  0.11911930578E+03  0.00000000000E+00 0. -1.
          2   -1    0    0  501    0  0.00000000000E+00 -0.00000000000E+00 -0.48129284763E+03  0.48129284763E+03  0.00000000000E+00 0.  1.
         23    2    1    2    0    0 -0.17964408566E+03 -0.10037491419E+03 -0.10263805026E+03  0.24635996601E+03  0.88382931517E+02 0.  0.
          5    1    1    2  502    0  0.14599985867E+02 -0.26421953705E+02 -0.50903922798E+02  0.59329259065E+02  0.41800000000E+01 0. -1.
         -5    1    1    2    0  502  0.16504409979E+03  0.12679686790E+03 -0.20863156880E+03  0.29472292833E+03  0.41800000000E+01 0. -1.
        -11    1    3    3    0    0 -0.45479630106E+02  0.91637299281E+01 -0.42778689325E+02  0.63106156285E+02  0.00000000000E+00 0. -1.
         11    1    3    3    0    0 -0.13416445555E+03 -0.10953864412E+03 -0.59859360932E+02  0.18325380973E+03  0.00000000000E+00 0.  1.
</event>
<event>
 7    1  0.6780459E-006  0.1280616E+03  0.7561462E-02  0.1230361E+00
         -2   -1    0    0    0  501 -0.00000000000E+00  0.00000000000E+00  0.23612641674E+03  0.23612641674E+03  0.00000000000E+00 0. -1.
          2   -1    0    0  501    0  0.00000000000E+00 -0.00000000000E+00 -0.99091679032E+02  0.99091679032E+02  0.00000000000E+00 0.  1.
         23    2    1    2    0    0  0.71527663459E+02  0.79050565088E+02  0.73997814120E+02  0.15918958611E+03  0.92197881491E+02 0.  0.
          5    1    1    2  502    0 -0.64464806291E+02 -0.84657483946E+02  0.94907056871E+02  0.14264439240E+03  0.41800000000E+01 0. -1.
         -5    1    1    2    0  502 -0.70628571677E+01  0.56069188574E+01 -0.31870133279E+02  0.33384117267E+02  0.41800000000E+01 0. -1.
        -11    1    3    3    0    0  0.22722835224E+02  0.87289502699E+02  0.57721649635E+02  0.10708675622E+03  0.00000000000E+00 0.  1.
         11    1    3    3    0    0  0.48804828235E+02 -0.82389376107E+01  0.16276164485E+02  0.52102829888E+02  0.00000000000E+00 0. -1.
</event>
<event>
 7    1  0.6610867E-006  0.5072817E+02  0.7561462E-02  0.1441453E+00
         -2   -1    0    0    0  501 -0.00000000000E+00  0.00000000000E+00  0.85648118343E+02  0.85648118343E+02  0.00000000000E+00 0. -1.
          2   -1    0    0  501    0  0.00000000000E+00 -0.00000000000E+00 -0.10993826254E+03  0.10993826254E+03  0.00000000000E+00 0.  1.
         23    2    1    2    0    0  0.73134765916E+01  0.41019729673E+00 -0.16211217901E+01  0.68250280258E+02  0.67836697427E+02 0.  0.
          5    1    1    2  502    0 -0.30659119413E+02 -0.18442287374E+02  0.42480671686E+02  0.55697212082E+02  0.41800000000E+01 0.  1.
         -5    1    1    2    0  502  0.23345642822E+02  0.18032090077E+02 -0.65149694089E+02  0.71638888540E+02  0.41800000000E+01 0.  1.
        -11    1    3    3    0    0 -0.25012120549E+00 -0.16821056010E+02  0.28288755604E+02  0.32912978892E+02  0.00000000000E+00 0. -1.
         11    1    3    3    0    0  0.75635977971E+01  0.17231253307E+02 -0.29909877394E+02  0.35337301367E+02  0.00000000000E+00 0.  1.
</event>
<event>
 7    1  0.6610867E-006  0.1128197E+03  0.7561462E-02  0.1255436E+00
         -1   -1    0    0    0  501 -0.00000000000E+00  0.00000000000E+00  0.25737566614E+03  0.25737566614E+03  0.00000000000E+00 0.  1.
          1   -1    0    0  501    0  0.00000000000E+00 -0.00000000000E+00 -0.10737328976E+03  0.10737328976E+03  0.00000000000E+00 0. -1.
         23    2    1    2    0    0 -0.41125857439E+02 -0.44441789491E+02  0.19616297513E+03  0.22202141402E+03  0.84541035401E+02 0.  0.
          5    1    1    2  502    0  0.55879988874E+02  0.77964589192E+02 -0.44505778106E+02  0.10582668382E+03  0.41800000000E+01 0. -1.
         -5    1    1    2    0  502 -0.14754131435E+02 -0.33522799701E+02 -0.16548206508E+01  0.36900858060E+02  0.41800000000E+01 0.  1.
        -11    1    3    3    0    0  0.12685257076E+02  0.10046500660E+02  0.88103725998E+02  0.89577421583E+02  0.00000000000E+00 0. -1.
         11    1    3    3    0    0 -0.53811114515E+02 -0.54488290151E+02  0.10805924913E+03  0.13244399244E+03  0.00000000000E+00 0.  1.
</event>
<event>
 7    1  0.6610867E-006  0.3209611E+03  0.7561462E-02  0.1075208E+00
         -2   -1    0    0    0  501 -0.00000000000E+00  0.00000000000E+00  0.10554966597E+04  0.10554966597E+04  0.00000000000E+00 0.  1.
          2   -1    0    0  501    0  0.00000000000E+00 -0.00000000000E+00 -0.11834856874E+03  0.11834856874E+03  0.00000000000E+00 0. -1.
         23    2    1    2    0    0 -0.26447057450E+03 -0.16753075914E+03  0.66548979871E+03  0.74088159121E+03  0.89541163615E+02 0.  0.
          5    1    1    2  502    0  0.17356595998E+03  0.14471952195E+03  0.24932595298E+03  0.33652605506E+03  0.41800000000E+01 0. -1.
         -5    1    1    2    0  502  0.90904614511E+02  0.22811237185E+02  0.22332339303E+02  0.96437582197E+02  0.41800000000E+01 0. -1.
        -11    1    3    3    0    0 -0.20595764298E+03 -0.89531782653E+02  0.41104520235E+03  0.46839369038E+03  0.00000000000E+00 0. -1.
         11    1    3    3    0    0 -0.58512931512E+02 -0.77998976485E+02  0.25444459635E+03  0.27248790083E+03  0.00000000000E+00 0.  1.
</event>
<event>
 7    1  0.6610867E-006  0.8293429E+02  0.7561462E-02  0.1320925E+00
          2   -1    0    0  501    0  0.00000000000E+00  0.00000000000E+00  0.32350991845E+03  0.32350991845E+03  0.00000000000E+00 0. -1.
         -2   -1    0    0    0  501 -0.00000000000E+00 -0.00000000000E+00 -0.41171259612E+02  0.41171259612E+02  0.00000000000E+00 0.  1.
         23    2    1    2    0    0  0.18300154197E+02  0.28856898653E+00  0.87358571277E+02  0.13230281209E+03  0.97660305116E+02 0.  0.
          5    1    1    2  502    0 -0.62309482265E+02  0.30231196651E+02  0.83000173469E+02  0.10817993357E+03  0.41800000000E+01 0. -1.
         -5    1    1    2    0  502  0.44009328068E+02 -0.30519765637E+02  0.11197991409E+03  0.12419843240E+03  0.41800000000E+01 0. -1.
        -11    1    3    3    0    0  0.26527420462E+02 -0.11068038597E+02  0.10551566935E+03  0.10936069675E+03  0.00000000000E+00 0. -1.
         11    1    3    3    0    0 -0.82272662651E+01  0.11356607583E+02 -0.18157098072E+02  0.22942115342E+02  0.00000000000E+00 0.  1.
</event>
<event>
 7    1  0.6610867E-006  0.1553643E+03  0.7561462E-02  0.1194032E+00
          1   -1    0    0  501    0  0.00000000000E+00  0.00000000000E+00  0.34462506193E+03  0.34462506193E+03  0.00000000000E+00 0. -1.
         -1   -1    0    0    0  501 -0.00000000000E+00 -0.00000000000E+00 -0.92720887221E+02  0.92720887221E+02  0.00000000000E+00 0.  1.
         23    2    1    2    0    0 -0.13169478150E+03 -0.10929394543E+02  0.54064123112E+02  0.16855110018E+03  0.89574420590E+02 0.  0.
          5    1    1    2  502    0  0.84275748371E+02 -0.28752161884E+02  0.37161623998E+02  0.96579227967E+02  0.41800000000E+01 0. -1.
         -5    1    1    2    0  502  0.47419033127E+02  0.39681556427E+02  0.16067842760E+03  0.17221562101E+03  0.41800000000E+01 0. -1.
        -11    1    3    3    0    0 -0.13037415884E+03  0.17153833028E+02  0.45839213298E+02  0.13925842436E+03  0.00000000000E+00 0.  1.
         11    1    3    3    0    0 -0.13206226617E+01 -0.28083227570E+02  0.82249098143E+01  0.29292675816E+02  0.00000000000E+00 0. -1.
</event>
<event>
 7    1  0.6610867E-006  0.9580818E+02  0.7561462E-02  0.1289366E+00
          1   -1    0    0  501    0  0.00000000000E+00  0.00000000000E+00  0.12023612759E+03  0.12023612759E+03  0.00000000000E+00 0. -1.
         -1   -1    0    0    0  501 -0.00000000000E+00 -0.00000000000E+00 -0.15053425876E+03  0.15053425876E+03  0.00000000000E+00 0.  1.
         23    2    1    2    0    0  0.33706103004E+02  0.75383647185E+02 -0.30618588299E+02  0.12088324961E+03  0.82803782789E+02 0.  0.
          5    1    1    2  502    0  0.97508245736E+01  0.60045426994E+01 -0.45274928889E+02  0.46887361824E+02  0.41800000000E+01 0. -1.
         -5    1    1    2    0  502 -0.43456927577E+02 -0.81388189884E+02  0.45595386023E+02  0.10299977492E+03  0.41800000000E+01 0. -1.
        -11    1    3    3    0    0  0.29872530005E+02  0.33005203241E+02 -0.55844356726E+02  0.71416410355E+02  0.00000000000E+00 0.  1.
         11    1    3    3    0    0  0.38335729980E+01  0.42378443944E+02  0.25225768428E+02  0.49466839254E+02  0.00000000000E+00 0. -1.
</event>
<event>
 7    1  0.9277944E-006  0.1383039E+03  0.7561462E-02  0.1215630E+00
          1   -1    0    0  501    0  0.00000000000E+00  0.00000000000E+00  0.80360231003E+03  0.80360231003E+03  0.00000000000E+00 0. -1.
         -1   -1    0    0    0  501 -0.00000000000E+00 -0.00000000000E+00 -0.29579155405E+02  0.29579155405E+02  0.00000000000E+00 0.  1.
         23    2    1    2    0    0 -0.76091755887E+02 -0.77106604350E+02  0.31589883437E+03  0.34608724118E+03  0.90823571839E+02 0.  0.
          5    1    1    2  502    0  0.89966775571E+02  0.73436386607E+01  0.20293206317E+03  0.22214149634E+03  0.41800000000E+01 0.  1.
         -5    1    1    2    0  502 -0.13875019684E+02  0.69762965689E+02  0.25519225709E+03  0.26495272792E+03  0.41800000000E+01 0.  1.
        -11    1    3    3    0    0 -0.70740592686E+02 -0.48213006707E+02  0.30139614783E+03  0.31331831002E+03  0.00000000000E+00 0. -1.
         11    1    3    3    0    0 -0.53511632010E+01 -0.28893597643E+02  0.14502686547E+02  0.32768931161E+02  0.00000000000E+00 0.  1.
</event>
<event>
 7    1  0.6610867E-006  0.4653620E+03  0.7561462E-02  0.1023237E+00
         -4   -1    0    0    0  501 -0.00000000000E+00  0.00000000000E+00  0.16106912919E+04  0.16106912919E+04  0.00000000000E+00 0.  1.
          4   -1    0    0  501    0  0.00000000000E+00 -0.00000000000E+00 -0.14938677202E+03  0.14938677202E+03  0.00000000000E+00 0. -1.
         23    2    1    2    0    0 -0.17147326158E+03  0.42445545258E+03  0.47413551678E+03  0.66476289836E+03  0.86831515609E+02 0.  0.
          5    1    1    2  502    0  0.18459080620E+03 -0.33981229241E+03  0.76569728610E+03  0.85782047432E+03  0.41800000000E+01 0. -1.
         -5    1    1    2    0  502 -0.13117544618E+02 -0.84643160165E+02  0.22147171700E+03  0.23749469125E+03  0.41800000000E+01 0. -1.
        -11    1    3    3    0    0 -0.12616344480E+03  0.28709334682E+03  0.26548123195E+03  0.41087721902E+03  0.00000000000E+00 0. -1.
         11    1    3    3    0    0 -0.45309816778E+02  0.13736210575E+03  0.20865428483E+03  0.25388567934E+03  0.00000000000E+00 0.  1.
</event>
<event>
 7    1  0.6610867E-006  0.1165951E+03  0.7561462E-02  0.1248822E+00
          1   -1    0    0  501    0  0.00000000000E+00  0.00000000000E+00  0.15175982354E+03  0.15175982354E+03  0.00000000000E+00 0. -1.
         -1   -1    0    0    0  501 -0.00000000000E+00 -0.00000000000E+00 -0.12787157248E+03  0.12787157248E+03  0.00000000000E+00 0.  1.
         23    2    1    2    0    0 -0.32966933149E+02 -0.79016171132E+02  0.96712746016E+01  0.12737259324E+03  0.93807622159E+02 0.  0.
          5    1    1    2  502    0  0.62373105205E+02  0.66315511147E+02 -0.31373296163E+02  0.96384165627E+02  0.41800000000E+01 0. -1.
         -5    1    1    2    0  502 -0.29406172056E+02  0.12700659985E+02  0.45590272623E+02  0.55874637152E+02  0.41800000000E+01 0. -1.
        -11    1    3    3    0    0  0.15669555502E+02 -0.51586156423E+02 -0.27272702557E+02  0.60419093083E+02  0.00000000000E+00 0.  1.
         11    1    3    3    0    0 -0.48636488651E+02 -0.27430014709E+02  0.36943977159E+02  0.66953500159E+02  0.00000000000E+00 0. -1.
</event>
<event>
 7    1  0.6610867E-006  0.1126679E+03  0.7561462E-02  0.1255708E+00
         -1   -1    0    0    0  501 -0.00000000000E+00  0.00000000000E+00  0.19756310071E+02  0.19756310071E+02  0.00000000000E+00 0.  1.
          1   -1    0    0  501    0  0.00000000000E+00 -0.00000000000E+00 -0.11811168278E+04  0.11811168278E+04  0.00000000000E+00 0. -1.
         23    2    1    2    0    0  0.33606403949E+02 -0.85671938291E+02 -0.30864916487E+03  0.33413606502E+03  0.88958032673E+02 0.  0.
          5    1    1    2  502    0  0.12640785896E+00  0.83619563144E+02 -0.79740312418E+03  0.80178641930E+03  0.41800000000E+01 0. -1.
         -5    1    1    2    0  502 -0.33732811808E+02  0.20523751471E+01 -0.55308228643E+02  0.64950653513E+02  0.41800000000E+01 0. -1.
        -11    1    3    3    0    0  0.35862468194E+02 -0.18506980758E+02 -0.38577240472E+02  0.55828562977E+02  0.00000000000E+00 0.  1.
         11    1    3    3    0    0 -0.22560642448E+01 -0.67164957533E+02 -0.27007192440E+03  0.27830750205E+03  0.00000000000E+00 0. -1.
</event>
<event>
 7    1  0.6610867E-006  0.1314403E+03  0.7561462E-02  0.1225334E+00
          1   -1    0    0  501    0  0.00000000000E+00  0.00000000000E+00  0.71002051265E+02  0.71002051265E+02  0.00000000000E+00 0. -1.
         -1   -1    0    0    0  501 -0.00000000000E+00 -0.00000000000E+00 -0.50485504375E+03  0.50485504375E+03  0.00000000000E+00 0.  1.
         23    2    1    2    0    0  0.59391623088E+02 -0.67745965899E+02 -0.40314295182E+03  0.42330148591E+03  0.92428499844E+02 0.  0.
          5    1    1    2  502    0 -0.73579503360E+02  0.74404974430E+01  0.14842928544E+02  0.75545279433E+02  0.41800000000E+01 0. -1.
         -5    1    1    2    0  502  0.14187880272E+02  0.60305468456E+02 -0.45552969211E+02  0.77010329672E+02  0.41800000000E+01 0.  1.
        -11    1    3    3    0    0  0.66100061573E+02 -0.79871346883E+01 -0.17123241745E+03  0.18372140116E+03  0.00000000000E+00 0.  1.
         11    1    3    3    0    0 -0.67084384855E+01 -0.59758831210E+02 -0.23191053437E+03  0.23958008475E+03  0.00000000000E+00 0. -1.
</event>
<event>
 7    1  0.6610867E-006  0.1118638E+03  0.7561462E-02  0.1257157E+00
          2   -1    0    0  501    0  0.00000000000E+00  0.00000000000E+00  0.95191227404E+03  0.95191227404E+03  0.00000000000E+00 0. -1.
         -2   -1    0    0    0  501 -0.00000000000E+00 -0.00000000000E+00 -0.17469129718E+02  0.17469129718E+02  0.00000000000E+00 0.  1.
         23    2    1    2    0    0 -0.56120865188E+02  0.13617221108E+02  0.24844225239E+03  0.26968208563E+03  0.87577932807E+02 0.  0.
          5    1    1    2  502    0  0.50983356372E+02 -0.66430956891E+02  0.38441334133E+03  0.39345071363E+03  0.41800000000E+01 0.  1.
         -5    1    1    2    0  502  0.51375088158E+01  0.52813735783E+02  0.30158755060E+03  0.30624860450E+03  0.41800000000E+01 0.  1.
        -11    1    3    3    0    0 -0.83582845315E+01  0.33789777938E+02  0.18254051366E+03  0.18582962396E+03  0.00000000000E+00 0. -1.
         11    1    3    3    0    0 -0.47762580657E+02 -0.20172556830E+02  0.65901738732E+02  0.83852461669E+02  0.00000000000E+00 0.  1.
</event>
<event>
 7    1  0.6610867E-006  0.1312067E+03  0.7561462E-02  0.1225676E+00
          1   -1    0    0  501    0  0.00000000000E+00  0.00000000000E+00  0.67330081923E+03  0.67330081923E+03  0.00000000000E+00 0. -1.
         -1   -1    0    0    0  501 -0.00000000000E+00 -0.00000000000E+00 -0.35609045740E+02  0.35609045740E+02  0.00000000000E+00 0.  1.
         23    2    1    2    0    0 -0.10524187457E+03 -0.11940392051E+02  0.22113785501E+03  0.26127086619E+03  0.90233527434E+02 0.  0.
          5    1    1    2  502    0 -0.31062372806E+01 -0.15362588147E+02 -0.12174370114E+00  0.16221746088E+02  0.41800000000E+01 0. -1.
         -5    1    1    2    0  502  0.10834811185E+03  0.27302980198E+02  0.41667566218E+03  0.43141725270E+03  0.41800000000E+01 0. -1.
        -11    1    3    3    0    0 -0.15671181689E+02 -0.37991299606E+02  0.39104399325E+02  0.56728113206E+02  0.00000000000E+00 0.  1.
         11    1    3    3    0    0 -0.89570692882E+02  0.26050907556E+02  0.18203345569E+03  0.20454275298E+03  0.00000000000E+00 0. -1.
</event>
<event>
 7    1  0.6610867E-006  0.1258330E+03  0.7561462E-02  0.1233773E+00
          3   -1    0    0  501    0  0.00000000000E+00  0.00000000000E+00  0.39284911046E+02  0.39284911046E+02  0.00000000000E+00 0. -1.
         -3   -1    0    0    0  501 -0.00000000000E+00 -0.00000000000E+00 -0.92132451067E+03  0.92132451067E+03  0.00000000000E+00 0.  1.
         23    2    1    2    0    0  0.98278218859E+02 -0.11020864299E+01 -0.72392347552E+03  0.73631828220E+03  0.91867248778E+02 0.  0.
          5    1    1    2  502    0 -0.29836624499E+02  0.32292746008E+02  0.51701439608E+01  0.44466261309E+02  0.41800000000E+01 0. -1.
         -5    1    1    2    0  502 -0.68441594359E+02 -0.31190659578E+02 -0.16328626806E+03  0.17982487820E+03  0.41800000000E+01 0. -1.
        -11    1    3    3    0    0 -0.73890163124E+01  0.22686598723E+02 -0.85261925488E+02  0.88537422944E+02  0.00000000000E+00 0. -1.
         11    1    3    3    0    0  0.10566723517E+03 -0.23788685153E+02 -0.63866155003E+03  0.64778085926E+03  0.00000000000E+00 0.  1.
</event>
<event>
 7    1  0.6610867E-006  0.1751481E+03  0.7561462E-02  0.1172583E+00
         -1   -1    0    0    0  501 -0.00000000000E+00  0.00000000000E+00  0.13269147574E+03  0.13269147574E+03  0.00000000000E+00 0.  1.
          1   -1    0    0  501    0  0.00000000000E+00 -0.00000000000E+00 -0.24679432062E+03  0.24679432062E+03  0.00000000000E+00 0. -1.
         23    2    1    2    0    0 -0.13320937078E+03 -0.54627808935E+02 -0.64285612477E+02  0.18236208749E+03  0.91620723696E+02 0.  0.
          5    1    1    2  502    0  0.12350280508E+03  0.90079427217E+02 -0.47194038384E+02  0.16003748226E+03  0.41800000000E+01 0.  1.
         -5    1    1    2    0  502  0.97065657039E+01 -0.35451618282E+02 -0.26231940219E+01  0.37086226601E+02  0.41800000000E+01 0.  1.
        -11    1    3    3    0    0 -0.45102252347E+02  0.15586421162E+02  0.81669408562E+01  0.48413310301E+02  0.00000000000E+00 0.  1.
         11    1    3    3    0    0 -0.88107118435E+02 -0.70214230097E+02 -0.72452553333E+02  0.13394877719E+03  0.00000000000E+00 0. -1.
</event>
<event>
 7    1  0.6610867E-006  0.8508984E+02  0.7561462E-02  0.1315198E+00
         -1   -1    0    0    0  501 -0.00000000000E+00  0.00000000000E+00  0.52735221144E+03  0.52735221144E+03  0.00000000000E+00 0.  1.
          1   -1    0    0  501    0  0.00000000000E+00 -0.00000000000E+00 -0.29136742314E+02  0.29136742314E+02  0.00000000000E+00 0. -1.
         23    2    1    2    0    0  0.43744066629E+02 -0.30491512732E+02  0.28085160881E+03  0.30009492183E+03  0.91302027487E+02 0.  0.
          5    1    1    2  502    0  0.24242637185E+01 -0.47181725669E+01 -0.15211935176E+02  0.16643724906E+02  0.41800000000E+01 0. -1.
         -5    1    1    2    0  502 -0.46168330348E+02  0.35209685299E+02  0.23257579549E+03  0.23975030701E+03  0.41800000000E+01 0. -1.
        -11    1    3    3    0    0  0.16160508231E+02  0.32583444278E+02  0.83381505724E+02  0.90968776864E+02  0.00000000000E+00 0.  1.
         11    1    3    3    0    0  0.27583558398E+02 -0.63074957010E+02  0.19747010308E+03  0.20912614497E+03  0.00000000000E+00 0. -1.
</event>
<event>
 7    1  0.6610867E-006  0.1227887E+03  0.7561462E-02  0.1238566E+00
         -3   -1    0    0    0  501 -0.00000000000E+00  0.00000000000E+00  0.22439121969E+02  0.22439121969E+02  0.00000000000E+00 0.  1.
          3   -1    0    0  501    0  0.00000000000E+00 -0.00000000000E+00 -0.10275845409E+04  0.10275845409E+04  0.00000000000E+00 0. -1.
         23    2    1    2    0    0 -0.58777518669E+02  0.65682837907E+02 -0.24467339583E+03  0.27430811799E+03  0.87240134523E+02 0.  0.
          5    1    1    2  502    0  0.75107063974E+02 -0.18326089674E+02 -0.64689808906E+03  0.65151479388E+03  0.41800000000E+01 0.  1.
         -5    1    1    2    0  502 -0.16329545305E+02 -0.47356748234E+02 -0.11357393401E+03  0.12420075096E+03  0.41800000000E+01 0.  1.
        -11    1    3    3    0    0  0.19548878778E+02  0.12229385452E+02 -0.20309815362E+02  0.30727921018E+02  0.00000000000E+00 0.  1.
         11    1    3    3    0    0 -0.78326397447E+02  0.53453452455E+02 -0.22436358047E+03  0.24358019697E+03  0.00000000000E+00 0. -1.
</event>
<event>
 7    1  0.6610867E-006  0.5388380E+02  0.7561462E-02  0.1425452E+00
         -2   -1    0    0    0  501 -0.00000000000E+00  0.00000000000E+00  0.13834055034E+03  0.13834055034E+03  0.00000000000E+00 0.  1.
          2   -1    0    0  501    0  0.00000000000E+00 -0.00000000000E+00 -0.11268617264E+03  0.11268617264E+03  0.00000000000E+00 0. -1.
         23    2    1    2    0    0  0.60122644222E+01 -0.44878464879E+02  0.53806767562E+02  0.11504389417E+03  0.91047819395E+02 0.  0.
          5    1    1    2  502    0  0.19273653262E+00  0.37938783888E+02  0.46770398093E+02  0.60368294726E+02  0.41800000000E+01 0.  1.
         -5    1    1    2    0  502 -0.62050009548E+01  0.69396809912E+01 -0.74922787956E+02  0.75614534081E+02  0.41800000000E+01 0.  1.
        -11    1    3    3    0    0 -0.14148195182E+02 -0.55468747030E+01  0.67172181688E+02  0.68869741096E+02  0.00000000000E+00 0.  1.
         11    1    3    3    0    0  0.20160459604E+02 -0.39331590176E+02 -0.13365414126E+02  0.46174153073E+02  0.00000000000E+00 0. -1.
</event>
<event>
 7    1  0.6610867E-006  0.9485219E+02  0.7561462E-02  0.1291509E+00
         -2   -1    0    0    0  501 -0.00000000000E+00  0.00000000000E+00  0.74425787956E+02  0.74425787956E+02  0.00000000000E+00 0.  1.
          2   -1    0    0  501    0  0.00000000000E+00 -0.00000000000E+00 -0.19914016788E+03  0.19914016788E+03  0.00000000000E+00 0. -1.
         23    2    1    2    0    0 -0.70101856505E+01 -0.21794726627E+02  0.64612264399E+01  0.90867279232E+02  0.87698130973E+02 0.  0.
          5    1    1    2  502    0 -0.49014356396E+02  0.34098917589E+02 -0.31541538193E+02  0.67657108608E+02  0.41800000000E+01 0. -1.
         -5    1    1    2    0  502  0.56024542046E+02 -0.12304190962E+02 -0.99634068170E+02  0.11504156800E+03  0.41800000000E+01 0. -1.
        -11    1    3    3    0    0 -0.79391921104E+01  0.24643121348E+02  0.29307402618E+02  0.39105473394E+02  0.00000000000E+00 0.  1.
         11    1    3    3    0    0  0.92900645987E+00 -0.46437847975E+02 -0.22846176179E+02  0.51761805837E+02  0.00000000000E+00 0. -1.
</event>
<event>
 7    1  0.6610867E-006  0.1066316E+03  0.7561462E-02  0.1266938E+00
         -1   -1    0    0    0  501 -0.00000000000E+00  0.00000000000E+00  0.16176943867E+02  0.16176943867E+02  0.00000000000E+00 0.  1.
          1   -1    0    0  501    0  0.00000000000E+00 -0.00000000000E+00 -0.85971540734E+03  0.85971540734E+03  0.00000000000E+00 0. -1.
         23    2    1    2    0    0 -0.19863309271E+02  0.13499684365E+02 -0.21408607829E+03  0.23368107204E+03  0.90538400579E+02 0.  0.
          5    1    1    2  502    0  0.22506292959E+02  0.53381393773E+02 -0.35261416167E+03  0.35736581515E+03  0.41800000000E+01 0.  1.
         -5    1    1    2    0  502 -0.26429836879E+01 -0.66881078138E+02 -0.27683822351E+03  0.28484546401E+03  0.41800000000E+01 0.  1.
        -11    1    3    3    0    0 -0.51791208226E+02 -0.35670937843E+01 -0.84864093832E+02  0.99483505314E+02  0.00000000000E+00 0.  1.
         11    1    3    3    0    0  0.31927898956E+02  0.17066778150E+02 -0.12922198446E+03  0.13419756673E+03  0.00000000000E+00 0. -1.
</event>
<event>
 7    1  0.6610867E-006  0.1306146E+03  0.7561462E-02  0.1226547E+00
          2   -1    0    0  501    0  0.00000000000E+00  0.00000000000E+00  0.15511540163E+04  0.15511540163E+04  0.00000000000E+00 0. -1.
         -2   -1    0    0    0  501 -0.00000000000E+00 -0.00000000000E+00 -0.12988485559E+02  0.12988485559E+02  0.00000000000E+00 0.  1.
         23    2    1    2    0    0 -0.21542480221E+02  0.85049694682E+02  0.56943493510E+03  0.58343675369E+03  0.91895436352E+02 0.  0.
          5    1    1    2  502    0 -0.48999294908E+02 -0.42501068535E+02  0.55810613564E+03  0.56187828109E+03  0.41800000000E+01 0. -1.
         -5    1    1    2    0  502  0.70541775129E+02 -0.42548626147E+02  0.41062446005E+03  0.41882746713E+03  0.41800000000E+01 0. -1.
        -11    1    3    3    0    0 -0.37574872404E+02  0.89532507256E+02  0.54671640256E+03  0.55527179446E+03  0.00000000000E+00 0. -1.
         11    1    3    3    0    0  0.16032392183E+02 -0.44828125739E+01  0.22718532536E+02  0.28164959227E+02  0.00000000000E+00 0.  1.
</event>
<event>
 7    1  0.6610867E-006  0.1261800E+03  0.7561462E-02  0.1233237E+00
         -2   -1    0    0    0  501 -0.00000000000E+00  0.00000000000E+00  0.22239869457E+02  0.22239869457E+02  0.00000000000E+00 0.  1.
          2   -1    0    0  501    0  0.00000000000E+00 -0.00000000000E+00 -0.89580282508E+03  0.89580282508E+03  0.00000000000E+00 0. -1.
         23    2    1    2    0    0 -0.74537244985E+02 -0.43268926716E+02 -0.30582855480E+03  0.33033716320E+03  0.90352285800E+02 0.  0.
          5    1    1    2  502    0  0.10297616676E+03  0.24397218956E+02 -0.30790339975E+03  0.32560910797E+03  0.41800000000E+01 0. -1.
         -5    1    1    2    0  502 -0.28438921777E+02  0.18871707760E+02 -0.25983100107E+03  0.26209642337E+03  0.41800000000E+01 0. -1.
        -11    1    3    3    0    0 -0.50363035015E+02  0.11971637373E+02 -0.70858768478E+02  0.87753749023E+02  0.00000000000E+00 0.  1.
         11    1    3    3    0    0 -0.24174209969E+02 -0.55240564088E+02 -0.23496978632E+03  0.24258341417E+03  0.00000000000E+00 0. -1.
</event>
<event>
 7    1  0.6610867E-006  0.1084358E+03  0.7561462E-02  0.1263494E+00
          2   -1    0    0  501    0  0.00000000000E+00  0.00000000000E+00  0.37998466860E+02  0.37998466860E+02  0.00000000000E+00 0. -1.
         -2   -1    0    0    0  501 -0.00000000000E+00 -0.00000000000E+00 -0.46637774076E+03  0.46637774076E+03  0.00000000000E+00 0.  1.
         23    2    1    2    0    0  0.25921410979E+02  0.55406397013E+02 -0.27917418437E+03  0.30028886125E+03  0.92159571383E+02 0.  0.
          5    1    1    2  502    0 -0.10703234469E+02 -0.79074248937E+02 -0.15561164180E+03  0.17492784666E+03  0.41800000000E+01 0.  1.
         -5    1    1    2    0  502 -0.15218176509E+02  0.23667851924E+02  0.64065522734E+01  0.29159499704E+02  0.41800000000E+01 0.  1.
        -11    1    3    3    0    0  0.59279259598E+02  0.29096649081E+02 -0.14034191264E+03  0.15510157333E+03  0.00000000000E+00 0. -1.
         11    1    3    3    0    0 -0.33357848619E+02  0.26309747932E+02 -0.13883227173E+03  0.14518728792E+03  0.00000000000E+00 0.  1.
</event>
<event>
 7    1  0.6610867E-006  0.7062432E+02  0.7561462E-02  0.1357983E+00
          1   -1    0    0  501    0  0.00000000000E+00  0.00000000000E+00  0.16867256226E+03  0.16867256226E+03  0.00000000000E+00 0. -1.
         -1   -1    0    0    0  501 -0.00000000000E+00 -0.00000000000E+00 -0.81575871531E+02  0.81575871531E+02  0.00000000000E+00 0.  1.
         23    2    1    2    0    0 -0.13530382976E+02 -0.33218795696E+02  0.20880456733E+02  0.10423568363E+03  0.95616549917E+02 0.  0.
          5    1    1    2  502    0  0.15839052862E+02  0.32094049059E+02  0.10288752486E+03  0.10901476392E+03  0.41800000000E+01 0. -1.
         -5    1    1    2    0  502 -0.23086698865E+01  0.11247466372E+01 -0.36671290868E+02  0.36997986236E+02  0.41800000000E+01 0. -1.
        -11    1    3    3    0    0  0.40166451626E+02 -0.20640517273E+02 -0.29328198008E+00  0.45160389766E+02  0.00000000000E+00 0.  1.
         11    1    3    3    0    0 -0.53696834602E+02 -0.12578278423E+02  0.21173738713E+02  0.59075293866E+02  0.00000000000E+00 0. -1.
</event>
<event>
 7    1  0.6610867E-006  0.1035213E+03  0.7561462E-02  0.1273061E+00
         -2   -1    0    0    0  501 -0.00000000000E+00  0.00000000000E+00  0.15319325639E+03  0.15319325639E+03  0.00000000000E+00 0.  1.
          2   -1    0    0  501    0  0.00000000000E+00 -0.00000000000E+00 -0.91779927041E+02  0.91779927041E+02  0.00000000000E+00 0. -1.
         23    2    1    2    0    0 -0.31187419796E+02  0.63809807314E+01  0.66537460462E+02  0.11579508872E+03  0.89263076677E+02 0.  0.
          5    1    1    2  502    0  0.24503207794E+02  0.57784614743E+02 -0.12423279883E+02  0.64119257452E+02  0.41800000000E+01 0. -1.
         -5    1    1    2    0  502  0.66842120021E+01 -0.64165595475E+02  0.72991487670E+01  0.65058837259E+02  0.41800000000E+01 0. -1.
        -11    1    3    3    0    0 -0.12616188932E+02  0.39529573675E+02  0.65801093723E+02  0.77791640639E+02  0.00000000000E+00 0.  1.
         11    1    3    3    0    0 -0.18571230864E+02 -0.33148592943E+02  0.73636673832E+00  0.38003448079E+02  0.00000000000E+00 0. -1.
</event>
<event>
 7    1  0.6610867E-006  0.1027825E+03  0.7561462E-02  0.1274551E+00
          1   -1    0    0  501    0  0.00000000000E+00  0.00000000000E+00  0.10830360696E+03  0.10830360696E+03  0.00000000000E+00 0. -1.
         -1   -1    0    0    0  501 -0.00000000000E+00 -0.00000000000E+00 -0.17437283172E+03  0.17437283172E+03  0.00000000000E+00 0.  1.
         23    2    1    2    0    0 -0.34602283882E+02 -0.76955209841E+02 -0.23057404864E+02  0.12577914466E+03  0.90384329069E+02 0.  0.
          5    1    1    2  502    0  0.58086487238E+01 -0.10351414001E+02 -0.61718270497E+02  0.62988169405E+02  0.41800000000E+01 0.  1.
         -5    1    1    2    0  502  0.28793635158E+02  0.87306623842E+02  0.18706450604E+02  0.93909124618E+02  0.41800000000E+01 0.  1.
        -11    1    3    3    0    0  0.13534267752E+02 -0.50965507590E+01  0.23469400325E+02  0.27567444293E+02  0.00000000000E+00 0. -1.
         11    1    3    3    0    0 -0.48136551634E+02 -0.71858659082E+02 -0.46526805189E+02  0.98211700369E+02  0.00000000000E+00 0.  1.
</event>
<event>
 7    1  0.6610867E-006  0.8378874E+02  0.7561462E-02  0.1318631E+00
          2   -1    0    0  501    0  0.00000000000E+00  0.00000000000E+00  0.36164809165E+03  0.36164809165E+03  0.00000000000E+00 0. -1.
         -2   -1    0    0    0  501 -0.00000000000E+00 -0.00000000000E+00 -0.54525428540E+02  0.54525428540E+02  0.00000000000E+00 0.  1.
         23    2    1    2    0    0 -0.28078935721E+02 -0.52067819881E+02  0.32273591105E+02  0.10846078347E+03  0.84986306960E+02 0.  0.
          5    1    1    2  502    0  0.19495966007E+02  0.64745406759E+02  0.28220360406E+03  0.29022130682E+03  0.41800000000E+01 0. -1.
         -5    1    1    2    0  502  0.85829697138E+01 -0.12677586878E+02 -0.73545320538E+01  0.17491429898E+02  0.41800000000E+01 0. -1.
        -11    1    3    3    0    0 -0.42376592678E+02 -0.16232847396E+02  0.48666178153E+02  0.66540798294E+02  0.00000000000E+00 0. -1.
         11    1    3    3    0    0  0.14297656957E+02 -0.35834972485E+02 -0.16392587048E+02  0.41919985181E+02  0.00000000000E+00 0.  1.
</event>
<event>
 7    1  0.6610867E-006  0.1194832E+03  0.7561462E-02  0.1243952E+00
         -1   -1    0    0    0  501 -0.00000000000E+00  0.00000000000E+00  0.14158014904E+03  0.14158014904E+03  0.00000000000E+00 0.  1.
          1   -1    0    0  501    0  0.00000000000E+00 -0.00000000000E+00 -0.21810414523E+03  0.21810414523E+03  0.00000000000E+00 0. -1.
         23    2    1    2    0    0 -0.25943044222E+02  0.32894038353E+02  0.92769093623E+02  0.13734842731E+03  0.92214025239E+02 0.  0.
          5    1    1    2  502    0  0.75190280716E+02  0.10597679937E+02 -0.71055810404E+02  0.10407828653E+03  0.41800000000E+01 0. -1.
         -5    1    1    2    0  502 -0.49247236495E+02 -0.43491718291E+02 -0.98237279415E+02  0.11825758043E+03  0.41800000000E+01 0.  1.
        -11    1    3    3    0    0  0.32405028510E+01  0.58299779726E+02  0.35829860032E+02  0.68506525564E+02  0.00000000000E+00 0. -1.
         11    1    3    3    0    0 -0.29183547073E+02 -0.25405741373E+02  0.56939233590E+02  0.68841901748E+02  0.00000000000E+00 0.  1.
</event>
<event>
 7    1  0.6610867E-006  0.6817613E+02  0.7561462E-02  0.1366407E+00
         -2   -1    0    0    0  501 -0.00000000000E+00  0.00000000000E+00  0.22300600739E+03  0.22300600739E+03  0.00000000000E+00 0.  1.
          2   -1    0    0  501    0  0.00000000000E+00 -0.00000000000E+00 -0.51560935894E+02  0.51560935894E+02  0.00000000000E+00 0. -1.
         23    2    1    2    0    0  0.12503743638E+02  0.23369927166E+02  0.62589577109E+02  0.10664015882E+03  0.82171596128E+02 0.  0.
          5    1    1    2  502    0 -0.14152112695E+02 -0.35186209291E+02 -0.16761987325E+02  0.41674791386E+02  0.41800000000E+01 0. -1.
         -5    1    1    2    0  502  0.16483690572E+01  0.11816282125E+02  0.12561748171E+03  0.12625199307E+03  0.41800000000E+01 0. -1.
        -11    1    3    3    0    0  0.40527543493E+02 -0.10233876708E+02  0.23419656161E+02  0.47913404270E+02  0.00000000000E+00 0.  1.
         11    1    3    3    0    0 -0.28023799856E+02  0.33603803873E+02  0.39169920948E+02  0.58726754552E+02  0.00000000000E+00 0. -1.
</event>
<event>
 7    1  0.6610867E-006  0.8054206E+02  0.7561462E-02  0.1327520E+00
          1   -1    0    0  501    0  0.00000000000E+00  0.00000000000E+00  0.17355413586E+04  0.17355413586E+04  0.00000000000E+00 0. -1.
         -1   -1    0    0    0  501 -0.00000000000E+00 -0.00000000000E+00 -0.10228895000E+02  0.10228895000E+02  0.00000000000E+00 0.  1.
         23    2    1    2    0    0 -0.74176163783E+01  0.56631544715E+02  0.42653913351E+03  0.43973670246E+03  0.90391272714E+02 0.  0.
          5    1    1    2  502    0  0.50783101467E+01 -0.26620415007E+02  0.12358622396E+04  0.12361664060E+04  0.41800000000E+01 0. -1.
         -5    1    1    2    0  502  0.23393062316E+01 -0.30011129708E+02  0.62911090521E+02  0.69867145144E+02  0.41800000000E+01 0. -1.
        -11    1    3    3    0    0  0.38672244347E+02  0.16078815459E+02  0.23170084029E+03  0.23545562253E+03  0.00000000000E+00 0. -1.
         11    1    3    3    0    0 -0.46089860725E+02  0.40552729256E+02  0.19483829322E+03  0.20428107993E+03  0.00000000000E+00 0.  1.
</event>
<event>
 7    1  0.6610867E-006  0.2238929E+03  0.7561462E-02  0.1131014E+00
          1   -1    0    0  501    0  0.00000000000E+00  0.00000000000E+00  0.16824948629E+04  0.16824948629E+04  0.00000000000E+00 0. -1.
         -1   -1    0    0    0  501 -0.00000000000E+00 -0.00000000000E+00 -0.30369073744E+02  0.30369073744E+02  0.00000000000E+00 0.  1.
         23    2    1    2    0    0  0.15847001105E+03 -0.11819617115E+03  0.77696352692E+03  0.80697205595E+03  0.91915709397E+02 0.  0.
          5    1    1    2  502    0  0.88198504965E+01  0.53737316464E+02  0.20623977856E+03  0.21334902767E+03  0.41800000000E+01 0. -1.
         -5    1    1    2    0  502 -0.16728986155E+03  0.64458854690E+02  0.66892248364E+03  0.69254285300E+03  0.41800000000E+01 0. -1.
        -11    1    3    3    0    0  0.11613899630E+03 -0.12538115760E+03  0.67576662533E+03  0.69704320745E+03  0.00000000000E+00 0. -1.
         11    1    3    3    0    0  0.42331014754E+02  0.71849864409E+01  0.10119690159E+03  0.10992884850E+03  0.00000000000E+00 0.  1.
</event>
<event>
 7    1  0.6610867E-006  0.2511507E+03  0.7561462E-02  0.1112580E+00
         -1   -1    0    0    0  501 -0.00000000000E+00  0.00000000000E+00  0.43058173454E+02  0.43058173454E+02  0.00000000000E+00 0.  1.
          1   -1    0    0  501    0  0.00000000000E+00 -0.00000000000E+00 -0.16153077651E+04  0.16153077651E+04  0.00000000000E+00 0. -1.
         23    2    1    2    0    0  0.37230747771E+02 -0.23012801197E+03 -0.57993047910E+03  0.63138502863E+03  0.89345751484E+02 0.  0.
          5    1    1    2  502    0 -0.76243505607E+02  0.17634622190E+03 -0.63224390430E+03  0.66080321507E+03  0.41800000000E+01 0.  1.
         -5    1    1    2    0  502  0.39012757836E+02  0.53781790078E+02 -0.36007520828E+03  0.36617769490E+03  0.41800000000E+01 0.  1.
        -11    1    3    3    0    0 -0.19581862837E+02 -0.94618040020E+02 -0.16504728355E+03  0.19125017296E+03  0.00000000000E+00 0.  1.
         11    1    3    3    0    0  0.56812610608E+02 -0.13550997196E+03 -0.41488319555E+03  0.44013485567E+03  0.00000000000E+00 0. -1.
</event>
<event>
 7    1  0.6610867E-006  0.1417025E+03  0.7561462E-02  0.1211056E+00
         -4   -1    0    0    0  501 -0.00000000000E+00  0.00000000000E+00  0.27965567154E+03  0.27965567154E+03  0.00000000000E+00 0.  1.
          4   -1    0    0  501    0  0.00000000000E+00 -0.00000000000E+00 -0.81479003921E+02  0.81479003921E+02  0.00000000000E+00 0. -1.
         23    2    1    2    0    0  0.30199242342E+02  0.10037962310E+03  0.85430628840E+02  0.16277303995E+03  0.90601364329E+02 0.  0.
          5    1    1    2  502    0 -0.73945870774E+02 -0.92422453375E+02  0.85038456917E+02  0.14580436635E+03  0.41800000000E+01 0. -1.
         -5    1    1    2    0  502  0.43746628432E+02 -0.79571697211E+01  0.27707581862E+02  0.52557269162E+02  0.41800000000E+01 0. -1.
        -11    1    3    3    0    0  0.34998660386E+02  0.21068003966E+02 -0.63891652741E+01  0.41347169829E+02  0.00000000000E+00 0. -1.
         11    1    3    3    0    0 -0.47994180439E+01  0.79311619130E+02  0.91819794114E+02  0.12142587012E+03  0.00000000000E+00 0.  1.
</event>
<event>
 7    1  0.8498022E-006  0.1310340E+03  0.7561462E-02  0.1225930E+00
         -4   -1    0    0    0  501 -0.00000000000E+00  0.00000000000E+00  0.11605782578E+03  0.11605782578E+03  0.00000000000E+00 0. -1.
          4   -1    0    0  501    0  0.00000000000E+00 -0.00000000000E+00 -0.23502168833E+03  0.23502168833E+03  0.00000000000E+00 0.  1.
         23    2    1    2    0    0  0.10484476333E+03  0.49892809773E+02 -0.75724535109E+01  0.14727224844E+03  0.90277661921E+02 0.  0.
          5    1    1    2  502    0 -0.88625145366E+02 -0.73439915361E+02 -0.32324205647E+02  0.11962509866E+03  0.41800000000E+01 0.  1.
         -5    1    1    2    0  502 -0.16219617968E+02  0.23547105587E+02 -0.79067203397E+02  0.84182167005E+02  0.41800000000E+01 0.  1.
        -11    1    3    3    0    0  0.59301080440E+02  0.39588900954E+02 -0.47632522115E+02  0.85748215043E+02  0.00000000000E+00 0.  1.
         11    1    3    3    0    0  0.45543682895E+02  0.10303908820E+02  0.40060068604E+02  0.61524033394E+02  0.00000000000E+00 0. -1.
</event>
<event>
 7    1  0.6610867E-006  0.1191900E+03  0.7561462E-02  0.1244439E+00
         -1   -1    0    0    0  501 -0.00000000000E+00  0.00000000000E+00  0.16975772348E+02  0.16975772348E+02  0.00000000000E+00 0.  1.
          1   -1    0    0  501    0  0.00000000000E+00 -0.00000000000E+00 -0.11101066672E+04  0.11101066672E+04  0.00000000000E+00 0. -1.
         23    2    1    2    0    0 -0.54014764048E+02 -0.16218129080E+02 -0.22737543085E+03  0.25052060921E+03  0.88771429172E+02 0.  0.
          5    1    1    2  502    0 -0.38490688131E+02 -0.43654005951E+01 -0.34936185737E+03  0.35152776502E+03  0.41800000000E+01 0.  1.
         -5    1    1    2    0  502  0.92505452179E+02  0.20583529675E+02 -0.51639360665E+03  0.52503406534E+03  0.41800000000E+01 0.  1.
        -11    1    3    3    0    0  0.12865689289E+02 -0.33156864359E+02 -0.64954521140E+02  0.74053989978E+02  0.00000000000E+00 0.  1.
         11    1    3    3    0    0 -0.66880453337E+02  0.16938735279E+02 -0.16242090971E+03  0.17646661923E+03  0.00000000000E+00 0. -1.
</event>
<event>
 7    1  0.6610867E-006  0.1014326E+03  0.7561462E-02  0.1277312E+00
         -2   -1    0    0    0  501 -0.00000000000E+00  0.00000000000E+00  0.17359194426E+02  0.17359194426E+02  0.00000000000E+00 0.  1.
          2   -1    0    0  501    0  0.00000000000E+00 -0.00000000000E+00 -0.11597421877E+04  0.11597421877E+04  0.00000000000E+00 0. -1.
         23    2    1    2    0    0 -0.27642355074E+02  0.11728545870E+01 -0.15504142910E+03  0.18210832231E+03  0.91433696938E+02 0.  0.
          5    1    1    2  502    0  0.22306892672E+02  0.54789092429E+02 -0.67543669564E+03  0.67803513502E+03  0.41800000000E+01 0. -1.
         -5    1    1    2    0  502  0.53354624014E+01 -0.55961947016E+02 -0.31190486851E+03  0.31695792477E+03  0.41800000000E+01 0.  1.
        -11    1    3    3    0    0  0.29746537338E+02 -0.96294419328E+00 -0.92636957544E+02  0.97300512065E+02  0.00000000000E+00 0. -1.
         11    1    3    3    0    0 -0.57388892412E+02  0.21357987803E+01 -0.62404471561E+02  0.84807810250E+02  0.00000000000E+00 0.  1.
</event>
<event>
 7    1  0.6610867E-006  0.9301719E+02  0.7561462E-02  0.1295705E+00
         -1   -1    0    0    0  501 -0.00000000000E+00  0.00000000000E+00  0.17130391421E+02  0.17130391421E+02  0.00000000000E+00 0.  1.
          1   -1    0    0  501    0  0.00000000000E+00 -0.00000000000E+00 -0.73512798997E+03  0.73512798997E+03  0.00000000000E+00 0. -1.
         23    2    1    2    0    0 -0.18277008227E+02 -0.13024886161E+02 -0.23212442758E+03  0.25039865070E+03  0.91181345156E+02 0.  0.
          5    1    1    2  502    0  0.54526463940E+02  0.37711493648E+02 -0.39859667518E+03  0.40409413988E+03  0.41800000000E+01 0. -1.
         -5    1    1    2    0  502 -0.36249455713E+02 -0.24686607487E+02 -0.87276495787E+02  0.97765590806E+02  0.41800000000E+01 0.  1.
        -11    1    3    3    0    0 -0.46287259848E+02 -0.10197229797E+02 -0.20797449661E+03  0.21330702089E+03  0.00000000000E+00 0.  1.
         11    1    3    3    0    0  0.28010251621E+02 -0.28276563639E+01 -0.24149930971E+02  0.37091629814E+02  0.00000000000E+00 0. -1.
</event>
<event>
 7    1  0.6610867E-006  0.1211666E+03  0.7561462E-02  0.1241185E+00
          3   -1    0    0  501    0  0.00000000000E+00  0.00000000000E+00  0.40060825816E+03  0.40060825816E+03  0.00000000000E+00 0. -1.
         -3   -1    0    0    0  501 -0.00000000000E+00 -0.00000000000E+00 -0.56065568192E+02  0.56065568192E+02  0.00000000000E+00 0.  1.
         23    2    1    2    0    0 -0.63168161198E+02  0.74169661824E+02  0.10778562468E+03  0.17173014181E+03  0.91554057216E+02 0.  0.
          5    1    1    2  502    0  0.92189091982E+02 -0.42086504179E+02  0.10407501516E+03  0.14532440846E+03  0.41800000000E+01 0.  1.
         -5    1    1    2    0  502 -0.29020930784E+02 -0.32083157645E+02  0.13268205012E+03  0.13961927608E+03  0.41800000000E+01 0.  1.
        -11    1    3    3    0    0 -0.43796361591E+02  0.50037371544E+02  0.76664151199E+01  0.66937536259E+02  0.00000000000E+00 0.  1.
         11    1    3    3    0    0 -0.19371799607E+02  0.24132290280E+02  0.10011920956E+03  0.10479260555E+03  0.00000000000E+00 0. -1.
</event>
<event>
 7    1  0.6610867E-006  0.7634112E+02  0.7561462E-02  0.1339768E+00
          2   -1    0    0  501    0  0.00000000000E+00  0.00000000000E+00  0.22308071885E+03  0.22308071885E+03  0.00000000000E+00 0. -1.
         -2   -1    0    0    0  501 -0.00000000000E+00 -0.00000000000E+00 -0.17868231077E+03  0.17868231077E+03  0.00000000000E+00 0.  1.
         23    2    1    2    0    0 -0.14109228376E+02 -0.68233504393E+01 -0.14779759596E+03  0.17450267048E+03  0.91440823462E+02 0.  0.
          5    1    1    2  502    0 -0.40583561703E+02  0.28113690920E+02  0.14034715871E+03  0.14883615977E+03  0.41800000000E+01 0. -1.
         -5    1    1    2    0  502  0.54692790080E+02 -0.21290340481E+02  0.51848845337E+02  0.78424199373E+02  0.41800000000E+01 0.  1.
        -11    1    3    3    0    0  0.14782174040E+02 -0.94056919486E+00  0.73800633914E+01  0.16548796797E+02  0.00000000000E+00 0.  1.
         11    1    3    3    0    0 -0.28891402416E+02 -0.58827812445E+01 -0.15517765935E+03  0.15795387368E+03  0.00000000000E+00 0. -1.
</event>
<event>
 7    1  0.6610867E-006  0.1419680E+03  0.7561462E-02  0.1210705E+00
          2   -1    0    0  501    0  0.00000000000E+00  0.00000000000E+00  0.55441312404E+03  0.55441312404E+03  0.00000000000E+00 0.  1.
         -2   -1    0    0    0  501 -0.00000000000E+00 -0.00000000000E+00 -0.52037697853E+02  0.52037697853E+02  0.00000000000E+00 0. -1.
         23    2    1    2    0    0 -0.10550234832E+02  0.11361716095E+03  0.11889554286E+03  0.18725525912E+03  0.88928146495E+02 0.  0.
          5    1    1    2  502    0  0.43679200070E+02 -0.37299677226E+02  0.52618322401E+02  0.78008324506E+02  0.41800000000E+01 0. -1.
         -5    1    1    2    0  502 -0.33128965238E+02 -0.76317483721E+02  0.33086156092E+03  0.34118723827E+03  0.41800000000E+01 0. -1.
        -11    1    3    3    0    0 -0.27270494451E+00  0.12653516345E+03  0.11323528814E+03  0.16980415907E+03  0.00000000000E+00 0. -1.
         11    1    3    3    0    0 -0.10277529887E+02 -0.12918002508E+02  0.56602547257E+01  0.17451100049E+02  0.00000000000E+00 0.  1.
</event>
<event>
 7    1  0.6610867E-006  0.1122560E+03  0.7561462E-02  0.1256448E+00
          2   -1    0    0  501    0  0.00000000000E+00  0.00000000000E+00  0.96302100800E+02  0.96302100800E+02  0.00000000000E+00 0. -1.
         -2   -1    0    0    0  501 -0.00000000000E+00 -0.00000000000E+00 -0.19082314720E+03  0.19082314720E+03  0.00000000000E+00 0.  1.
         23    2    1    2    0    0  0.57680931696E+02 -0.18421101514E+02 -0.10005766569E+03  0.14811917377E+03  0.90891838543E+02 0.  0.
          5    1    1    2  502    0 -0.27246732130E+02 -0.51071350835E+02 -0.15685920827E+02  0.60118115407E+02  0.41800000000E+01 0.  1.
         -5    1    1    2    0  502 -0.30434199566E+02  0.69492452349E+02  0.21222540123E+02  0.78887958815E+02  0.41800000000E+01 0.  1.
        -11    1    3    3    0    0  0.47279478963E+01 -0.34760154696E+02 -0.15750085623E+01  0.35115559198E+02  0.00000000000E+00 0. -1.
         11    1    3    3    0    0  0.52952983800E+02  0.16339053183E+02 -0.98482657129E+02  0.11300361458E+03  0.00000000000E+00 0.  1.
</event>
<event>
 7    1  0.6610867E-006  0.1067817E+03  0.7561462E-02  0.1266648E+00
         -2   -1    0    0    0  501 -0.00000000000E+00  0.00000000000E+00  0.91568823901E+01  0.91568823901E+01  0.00000000000E+00 0.  1.
          2   -1    0    0  501    0  0.00000000000E+00 -0.00000000000E+00 -0.17556161320E+04  0.17556161320E+04  0.00000000000E+00 0. -1.
         23    2    1    2    0    0 -0.12187937715E+02 -0.56389952543E+02 -0.53149970254E+03  0.54202899569E+03  0.89303559844E+02 0.  0.
          5    1    1    2  502    0 -0.12747976929E+02 -0.23771024709E+02 -0.77190370646E+02  0.81874283215E+02  0.41800000000E+01 0. -1.
         -5    1    1    2    0  502  0.24935914645E+02  0.80160977252E+02 -0.11377691764E+04  0.11408697355E+04  0.41800000000E+01 0. -1.
        -11    1    3    3    0    0 -0.27292822346E+02 -0.74082862278E+02 -0.46309399648E+03  0.46977571054E+03  0.00000000000E+00 0. -1.
         11    1    3    3    0    0  0.15104884630E+02  0.17692909735E+02 -0.68405706055E+02  0.72253285153E+02  0.00000000000E+00 0.  1.
</event>
<event>
 7    1  0.6610867E-006  0.1517839E+03  0.7561462E-02  0.1198298E+00
          2   -1    0    0  501    0  0.00000000000E+00  0.00000000000E+00  0.11590604318E+04  0.11590604318E+04  0.00000000000E+00 0. -1.
         -2   -1    0    0    0  501 -0.00000000000E+00 -0.00000000000E+00 -0.30133137123E+02  0.30133137123E+02  0.00000000000E+00 0.  1.
         23    2    1    2    0    0  0.83689854950E+01 -0.11597365437E+03  0.22543078132E+03  0.26969650099E+03  0.91636439560E+02 0.  0.
          5    1    1    2  502    0 -0.61381780111E+02  0.72233517463E+02  0.64695869814E+03  0.65387952520E+03  0.41800000000E+01 0.  1.
         -5    1    1    2    0  502  0.53012794616E+02  0.43740136910E+02  0.25653781523E+03  0.26561754274E+03  0.41800000000E+01 0.  1.
        -11    1    3    3    0    0  0.39636052200E+02 -0.92801462349E+02  0.19752145829E+03  0.22180589382E+03  0.00000000000E+00 0. -1.
         11    1    3    3    0    0 -0.31267066705E+02 -0.23172192024E+02  0.27909323029E+02  0.47890607174E+02  0.00000000000E+00 0.  1.
</event>
<event>
 7    1  0.6610867E-006  0.1295637E+03  0.7561462E-02  0.1228104E+00
         -1   -1    0    0    0  501 -0.00000000000E+00  0.00000000000E+00  0.19797400053E+03  0.19797400053E+03  0.00000000000E+00 0.  1.
          1   -1    0    0  501    0  0.00000000000E+00 -0.00000000000E+00 -0.10161356845E+03  0.10161356845E+03  0.00000000000E+00 0. -1.
         23    2    1    2    0    0  0.74599766391E+02 -0.51265544667E+02  0.70484968017E+02  0.14303711409E+03  0.85429526947E+02 0.  0.
          5    1    1    2  502    0 -0.93232975042E+01  0.81443139585E+02  0.18477749390E+02  0.84135655250E+02  0.41800000000E+01 0.  1.
         -5    1    1    2    0  502 -0.65276468887E+02 -0.30177594918E+02  0.73977146780E+01  0.72414799647E+02  0.41800000000E+01 0.  1.
        -11    1    3    3    0    0  0.17174353060E+02 -0.43867974597E+02  0.70913413703E+02  0.85135596793E+02  0.00000000000E+00 0.  1.
         11    1    3    3    0    0  0.57425413331E+02 -0.73975700701E+01 -0.42844568669E+00  0.57901517294E+02  0.00000000000E+00 0. -1.
</event>
<event>
 7    1  0.6610867E-006  0.1122895E+03  0.7561462E-02  0.1256388E+00
          2   -1    0    0  501    0  0.00000000000E+00  0.00000000000E+00  0.66856411554E+03  0.66856411554E+03  0.00000000000E+00 0. -1.
         -2   -1    0    0    0  501 -0.00000000000E+00 -0.00000000000E+00 -0.22320810206E+02  0.22320810206E+02  0.00000000000E+00 0.  1.
         23    2    1    2    0    0  0.62490540889E+02  0.73270198900E+01  0.27780547423E+03  0.29673674281E+03  0.83174876641E+02 0.  0.
          5    1    1    2  502    0 -0.11468675465E+01  0.43919019869E+02  0.23034995083E+03  0.23453948038E+03  0.41800000000E+01 0.  1.
         -5    1    1    2    0  502 -0.61343673342E+02 -0.51246039759E+02  0.13808788028E+03  0.15960870255E+03  0.41800000000E+01 0.  1.
        -11    1    3    3    0    0  0.34868881651E+02 -0.35295661112E+02  0.17752134023E+03  0.18432430344E+03  0.00000000000E+00 0. -1.
         11    1    3    3    0    0  0.27621659238E+02  0.42622681002E+02  0.10028413399E+03  0.11241243937E+03  0.00000000000E+00 0.  1.
</event>
<event>
 7    1  0.6610867E-006  0.1115923E+03  0.7561462E-02  0.1257649E+00
         -1   -1    0    0    0  501 -0.00000000000E+00  0.00000000000E+00  0.95588782746E+02  0.95588782746E+02  0.00000000000E+00 0.  1.
          1   -1    0    0  501    0  0.00000000000E+00 -0.00000000000E+00 -0.21540492033E+03  0.21540492033E+03  0.00000000000E+00 0. -1.
         23    2    1    2    0    0  0.22566718087E+02 -0.29576103863E+02  0.39024782134E+02  0.10541238530E+03  0.90580542442E+02 0.  0.
          5    1    1    2  502    0  0.50491945750E+02  0.19126236214E+02 -0.48076176951E+02  0.72415748892E+02  0.41800000000E+01 0.  1.
         -5    1    1    2    0  502 -0.73058663837E+02  0.10449867650E+02 -0.11076474277E+03  0.13316556888E+03  0.41800000000E+01 0.  1.
        -11    1    3    3    0    0 -0.20360880134E+02 -0.45082404472E+02  0.32785852905E+02  0.59345604585E+02  0.00000000000E+00 0.  1.
         11    1    3    3    0    0  0.42927598221E+02  0.15506300609E+02  0.62389292298E+01  0.46066780716E+02  0.00000000000E+00 0. -1.
</event>
<event>
 7    1  0.6610867E-006  0.1205401E+03  0.7561462E-02  0.1242209E+00
         -1   -1    0    0    0  501 -0.00000000000E+00  0.00000000000E+00  0.56606438031E+02  0.56606438031E+02  0.00000000000E+00 0.  1.
          1   -1    0    0  501    0  0.00000000000E+00 -0.00000000000E+00 -0.46672971464E+03  0.46672971464E+03  0.00000000000E+00 0. -1.
         23    2    1    2    0    0  0.40579006997E+01  0.74606049226E+02 -0.39026355887E+02  0.12465973195E+03  0.91839333489E+02 0.  0.
          5    1    1    2  502    0 -0.55490092166E+01  0.26115247367E+02 -0.18555355814E+03  0.18751104764E+03  0.41800000000E+01 0.  1.
         -5    1    1    2    0  502  0.14911085168E+01 -0.10072129659E+03 -0.18554336258E+03  0.21116537308E+03  0.41800000000E+01 0.  1.
        -11    1    3    3    0    0 -0.78976816927E+01  0.91886167264E+02 -0.45273178763E+02  0.10273802522E+03  0.00000000000E+00 0. -1.
         11    1    3    3    0    0  0.11955582392E+02 -0.17280118038E+02  0.62468228761E+01  0.21921706726E+02  0.00000000000E+00 0.  1.
</event>
<event>
 7    1  0.6610867E-006  0.9278998E+02  0.7561462E-02  0.1296233E+00
          3   -1    0    0  501    0  0.00000000000E+00  0.00000000000E+00  0.22117996103E+03  0.22117996103E+03  0.00000000000E+00 0. -1.
         -3   -1    0    0    0  501 -0.00000000000E+00 -0.00000000000E+00 -0.59546722738E+02  0.59546722738E+02  0.00000000000E+00 0.  1.
         23    2    1    2    0    0 -0.26436912461E+02 -0.11866696078E+02  0.39726583643E+02  0.10368928586E+03  0.91288212481E+02 0.  0.
          5    1    1    2  502    0  0.33391274203E+02 -0.31338274225E+02 -0.15268165737E+01  0.46009435914E+02  0.41800000000E+01 0.  1.
         -5    1    1    2    0  502 -0.69543617415E+01  0.43204970303E+02  0.12343347122E+03  0.13102796199E+03  0.41800000000E+01 0.  1.
        -11    1    3    3    0    0 -0.21358617672E+02  0.39026933149E+02  0.15673685011E+02  0.47169444153E+02  0.00000000000E+00 0.  1.
         11    1    3    3    0    0 -0.50782947890E+01 -0.50893629228E+02  0.24052898632E+02  0.56519841707E+02  0.00000000000E+00 0. -1.
</event>
<event>
 7    1  0.6610867E-006  0.1627003E+03  0.7561462E-02  0.1185681E+00
          1   -1    0    0  501    0  0.00000000000E+00  0.00000000000E+00  0.63119774331E+03  0.63119774331E+03  0.00000000000E+00 0. -1.
         -1   -1    0    0    0  501 -0.00000000000E+00 -0.00000000000E+00 -0.74023461525E+02  0.74023461525E+02  0.00000000000E+00 0.  1.
         23    2    1    2    0    0 -0.14501434860E+03 -0.12431659868E+02  0.77956595655E+02  0.18900371664E+03  0.91986230661E+02 0.  0.
          5    1    1    2  502    0  0.21109105126E+02  0.37681666156E+02  0.25587143612E+03  0.25952488610E+03  0.41800000000E+01 0.  1.
         -5    1    1    2    0  502  0.12390524347E+03 -0.25250006288E+02  0.22334625000E+03  0.25669260209E+03  0.41800000000E+01 0.  1.
        -11    1    3    3    0    0 -0.17050500296E+02  0.17111789314E+02  0.48836157479E+02  0.54483971690E+02  0.00000000000E+00 0. -1.
         11    1    3    3    0    0 -0.12796384830E+03 -0.29543449181E+02  0.29120438176E+02  0.13451974495E+03  0.00000000000E+00 0.  1.
</event>
<event>
 7    1  0.6610867E-006  0.6578767E+02  0.7561462E-02  0.1375033E+00
          2   -1    0    0  501    0  0.00000000000E+00  0.00000000000E+00  0.29170442114E+03  0.29170442114E+03  0.00000000000E+00 0. -1.
         -2   -1    0    0    0  501 -0.00000000000E+00 -0.00000000000E+00 -0.64744573717E+02  0.64744573717E+02  0.00000000000E+00 0.  1.
         23    2    1    2    0    0 -0.11580291582E+02  0.35191455632E+02  0.58007099150E+01  0.99677976314E+02  0.92355341069E+02 0.  0.
          5    1    1    2  502    0 -0.30703576660E+02 -0.19723212323E+02  0.20574491725E+03  0.20899798587E+03  0.41800000000E+01 0. -1.
         -5    1    1    2    0  502  0.42283868241E+02 -0.15468243310E+02  0.15414220258E+02  0.47773032672E+02  0.41800000000E+01 0. -1.
        -11    1    3    3    0    0  0.10502266951E+02  0.20704035532E+02 -0.40322718465E+02  0.46528231460E+02  0.00000000000E+00 0.  1.
         11    1    3    3    0    0 -0.22082558532E+02  0.14487420100E+02  0.46123428380E+02  0.53149744854E+02  0.00000000000E+00 0. -1.
</event>
<event>
 7    1  0.6610867E-006  0.1454980E+03  0.7561462E-02  0.1206117E+00
         -1   -1    0    0    0  501 -0.00000000000E+00  0.00000000000E+00  0.39593412972E+02  0.39593412972E+02  0.00000000000E+00 0.  1.
          1   -1    0    0  501    0  0.00000000000E+00 -0.00000000000E+00 -0.77382733509E+03  0.77382733509E+03  0.00000000000E+00 0. -1.
         23    2    1    2    0    0  0.97869128591E+02 -0.51417094997E+02 -0.15200170164E+03  0.20772760755E+03  0.88454268683E+02 0.  0.
          5    1    1    2  502    0  0.23157615923E+02 -0.15830184794E+02 -0.10539691147E+03  0.10914600896E+03  0.41800000000E+01 0. -1.
         -5    1    1    2    0  502 -0.12102674451E+03  0.67247279790E+02 -0.47683530902E+03  0.49654713155E+03  0.41800000000E+01 0. -1.
        -11    1    3    3    0    0  0.85324067541E+02 -0.16353396487E+02 -0.52554255895E+02  0.10153610142E+03  0.00000000000E+00 0.  1.
         11    1    3    3    0    0  0.12545061051E+02 -0.35063698509E+02 -0.99447445741E+02  0.10619150613E+03  0.00000000000E+00 0. -1.
</event>
<event>
 7    1  0.6610867E-006  0.9810050E+02  0.7561462E-02  0.1284342E+00
         -1   -1    0    0    0  501 -0.00000000000E+00  0.00000000000E+00  0.18404502048E+02  0.18404502048E+02  0.00000000000E+00 0.  1.
          1   -1    0    0  501    0  0.00000000000E+00 -0.00000000000E+00 -0.67294911277E+03  0.67294911277E+03  0.00000000000E+00 0. -1.
         23    2    1    2    0    0  0.37954433479E+01  0.66295900246E+01 -0.21026990994E+03  0.22974154610E+03  0.92246333935E+02 0.  0.
          5    1    1    2  502    0 -0.52591444934E+02 -0.12965011466E+02 -0.35886348894E+03  0.36295237662E+03  0.41800000000E+01 0. -1.
         -5    1    1    2    0  502  0.48796001586E+02  0.63354214416E+01 -0.85411211836E+02  0.98659692088E+02  0.41800000000E+01 0. -1.
        -11    1    3    3    0    0  0.34006841734E+02 -0.29763597353E+02 -0.10723819231E+03  0.11637167569E+03  0.00000000000E+00 0. -1.
         11    1    3    3    0    0 -0.30211398386E+02  0.36393187378E+02 -0.10303171763E+03  0.11336987042E+03  0.00000000000E+00 0.  1.
</event>
<event>
 7    1  0.6610867E-006  0.1353715E+03  0.7561462E-02  0.1219696E+00
         -3   -1    0    0    0  501 -0.00000000000E+00  0.00000000000E+00  0.35482994845E+02  0.35482994845E+02  0.00000000000E+00 0.  1.
          3   -1    0    0  501    0  0.00000000000E+00 -0.00000000000E+00 -0.83899231768E+03  0.83899231768E+03  0.00000000000E+00 0. -1.
         23    2    1    2    0    0  0.71590731375E+02  0.10824154928E+03 -0.28095236738E+03  0.32170675359E+03  0.87860894386E+02 0.  0.
          5    1    1    2  502    0  0.14779155973E+01 -0.40454245964E+02 -0.35821254111E+03  0.36051688901E+03  0.41800000000E+01 0. -1.
         -5    1    1    2    0  502 -0.73068646973E+02 -0.67787303319E+02 -0.16434441434E+03  0.19225166992E+03  0.41800000000E+01 0. -1.
        -11    1    3    3    0    0  0.53868202448E+02  0.71745888302E+02 -0.26198406453E+03  0.27692039613E+03  0.00000000000E+00 0. -1.
         11    1    3    3    0    0  0.17722528927E+02  0.36495660981E+02 -0.18968302843E+02  0.44786357462E+02  0.00000000000E+00 0.  1.
</event>
<event>
 7    1  0.6610867E-006  0.1499807E+03  0.7561462E-02  0.1200497E+00
          1   -1    0    0  501    0  0.00000000000E+00  0.00000000000E+00  0.20679424702E+03  0.20679424702E+03  0.00000000000E+00 0. -1.
         -1   -1    0    0    0  501 -0.00000000000E+00 -0.00000000000E+00 -0.11208012953E+03  0.11208012953E+03  0.00000000000E+00 0.  1.
         23    2    1    2    0    0 -0.36168007508E+01 -0.10309031296E+03  0.21735540615E+02  0.14107112081E+03  0.93743978619E+02 0.  0.
          5    1    1    2  502    0 -0.89232932261E+01 -0.28240614035E+02  0.98597174006E+01  0.31493552837E+02  0.41800000000E+01 0. -1.
         -5    1    1    2    0  502  0.12540093977E+02  0.13133092699E+03  0.63118859472E+02  0.14630970290E+03  0.41800000000E+01 0. -1.
        -11    1    3    3    0    0 -0.20352223184E+02  0.10733474647E+02  0.11060268427E+02  0.25529394905E+02  0.00000000000E+00 0.  1.
         11    1    3    3    0    0  0.16735422433E+02 -0.11382378761E+03  0.10675272188E+02  0.11554172591E+03  0.00000000000E+00 0. -1.
</event>
<event>
 7    1  0.6610867E-006  0.1800061E+03  0.7561462E-02  0.1167797E+00
          2   -1    0    0  501    0  0.00000000000E+00  0.00000000000E+00  0.57324849524E+03  0.57324849524E+03  0.00000000000E+00 0. -1.
         -2   -1    0    0    0  501 -0.00000000000E+00 -0.00000000000E+00 -0.68599550819E+02  0.68599550819E+02  0.00000000000E+00 0.  1.
         23    2    1    2    0    0  0.14749487375E+03  0.25881499826E+02  0.12695942325E+03  0.21673356919E+03  0.91815875789E+02 0.  0.
          5    1    1    2  502    0 -0.13789783267E+03  0.26134210497E+02  0.24801258909E+03  0.28500267711E+03  0.41800000000E+01 0.  1.
         -5    1    1    2    0  502 -0.95970410780E+01 -0.52015710323E+02  0.12967693208E+03  0.14011179976E+03  0.41800000000E+01 0.  1.
        -11    1    3    3    0    0  0.10897011188E+03 -0.15423895236E+02  0.11465120543E+03  0.15892539361E+03  0.00000000000E+00 0.  1.
         11    1    3    3    0    0  0.38524761867E+02  0.41305395063E+02  0.12308217823E+02  0.57808175582E+02  0.00000000000E+00 0. -1.
</event>
<event>
 7    1  0.6610867E-006  0.6239738E+02  0.7561462E-02  0.1388038E+00
         -1   -1    0    0    0  501 -0.00000000000E+00  0.00000000000E+00  0.63108217222E+02  0.63108217222E+02  0.00000000000E+00 0.  1.
          1   -1    0    0  501    0  0.00000000000E+00 -0.00000000000E+00 -0.29886237222E+03  0.29886237222E+03  0.00000000000E+00 0. -1.
         23    2    1    2    0    0  0.17478914318E+02  0.86834773952E+01  0.36372873843E+01  0.91170780005E+02  0.88982953658E+02 0.  0.
          5    1    1    2  502    0 -0.19825590484E+02  0.10856865359E+02  0.66559731832E+01  0.23931150045E+02  0.41800000000E+01 0.  1.
         -5    1    1    2    0  502  0.23466761659E+01 -0.19540342755E+02 -0.24604741557E+03  0.24686865940E+03  0.41800000000E+01 0.  1.
        -11    1    3    3    0    0 -0.98366713549E-01 -0.34792845389E+02 -0.18396673123E+02  0.39357201987E+02  0.00000000000E+00 0. -1.
         11    1    3    3    0    0  0.17577281031E+02  0.43476322784E+02  0.22033960507E+02  0.51813578017E+02  0.00000000000E+00 0.  1.
</event>
<event>
 7    1  0.6610867E-006  0.1036588E+03  0.7561462E-02  0.1272785E+00
         -2   -1    0    0    0  501 -0.00000000000E+00  0.00000000000E+00  0.89471924550E+01  0.89471924550E+01  0.00000000000E+00 0.  1.
          2   -1    0    0  501    0  0.00000000000E+00 -0.00000000000E+00 -0.20255462384E+04  0.20255462384E+04  0.00000000000E+00 0. -1.
         23    2    1    2    0    0  0.28317602827E+02  0.50646802677E+01 -0.35208784959E+03  0.36504064158E+03  0.91985208384E+02 0.  0.
          5    1    1    2  502    0  0.38928498662E+02  0.12930878152E+02 -0.26345293538E+03  0.26666000296E+03  0.41800000000E+01 0.  1.
         -5    1    1    2    0  502 -0.67246101488E+02 -0.17995558420E+02 -0.14010582609E+04  0.14027927863E+04  0.41800000000E+01 0.  1.
        -11    1    3    3    0    0 -0.25002374830E+02  0.28666000433E+02 -0.13449899204E+03  0.13977423650E+03  0.00000000000E+00 0.  1.
         11    1    3    3    0    0  0.53319977657E+02 -0.23601320165E+02 -0.21758885754E+03  0.22526640508E+03  0.00000000000E+00 0. -1.
</event>
<event>
 7    1  0.6610867E-006  0.1748996E+03  0.7561462E-02  0.1172833E+00
         -2   -1    0    0    0  501 -0.00000000000E+00  0.00000000000E+00  0.60098139508E+02  0.60098139508E+02  0.00000000000E+00 0.  1.
          2   -1    0    0  501    0  0.00000000000E+00 -0.00000000000E+00 -0.60867499939E+03  0.60867499939E+03  0.00000000000E+00 0. -1.
         23    2    1    2    0    0  0.15308007813E+03 -0.22275864117E+02 -0.20994723354E+03  0.27597625568E+03  0.90306856797E+02 0.  0.
          5    1    1    2  502    0  0.13477531826E+01 -0.12035665068E+02  0.55633789403E+01  0.13967721987E+02  0.41800000000E+01 0. -1.
         -5    1    1    2    0  502 -0.15442783131E+03  0.34311529185E+02 -0.34419300528E+03  0.37882916124E+03  0.41800000000E+01 0. -1.
        -11    1    3    3    0    0  0.11917414522E+03 -0.55325064532E+02 -0.14613793688E+03  0.19651879363E+03  0.00000000000E+00 0. -1.
         11    1    3    3    0    0  0.33905932902E+02  0.33049200415E+02 -0.63809296661E+02  0.79457462044E+02  0.00000000000E+00 0.  1.
</event>
<event>
 7    1  0.6610867E-006  0.1023828E+03  0.7561462E-02  0.1275364E+00
         -3   -1    0    0    0  501 -0.00000000000E+00  0.00000000000E+00  0.52005146028E+02  0.52005146028E+02  0.00000000000E+00 0.  1.
          3   -1    0    0  501    0  0.00000000000E+00 -0.00000000000E+00 -0.26489231315E+03  0.26489231315E+03  0.00000000000E+00 0. -1.
         23    2    1    2    0    0 -0.13943704374E+02  0.38333505307E+02 -0.52041258423E+02  0.10909207226E+03  0.86769252225E+02 0.  0.
          5    1    1    2  502    0 -0.31254210353E+02 -0.63240434005E+02 -0.53526683771E+02  0.88649627374E+02  0.41800000000E+01 0.  1.
         -5    1    1    2    0  502  0.45197914727E+02  0.24906928698E+02 -0.10731922493E+03  0.11915575954E+03  0.41800000000E+01 0.  1.
        -11    1    3    3    0    0 -0.62977085378E+00 -0.21256258495E+02 -0.42186038743E+02  0.47242851325E+02  0.00000000000E+00 0. -1.
         11    1    3    3    0    0 -0.13313933520E+02  0.59589763802E+02 -0.98552196803E+01  0.61849220938E+02  0.00000000000E+00 0.  1.
</event>
<event>
 7    1  0.6610867E-006  0.1534875E+03  0.7561462E-02  0.1196252E+00
         -4   -1    0    0    0  501 -0.00000000000E+00  0.00000000000E+00  0.13027474423E+03  0.13027474423E+03  0.00000000000E+00 0.  1.
          4   -1    0    0  501    0  0.00000000000E+00 -0.00000000000E+00 -0.28021952678E+03  0.28021952678E+03  0.00000000000E+00 0. -1.
         23    2    1    2    0    0  0.97049021226E+02 -0.26729027539E+02  0.44623046362E+02  0.14428518472E+03  0.93241862001E+02 0.  0.
          5    1    1    2  502    0  0.34562509170E+02 -0.20162780119E+02 -0.59576045290E+02  0.71887984495E+02  0.41800000000E+01 0. -1.
         -5    1    1    2    0  502 -0.13161153040E+03  0.46891807659E+02 -0.13499178362E+03  0.19432110180E+03  0.41800000000E+01 0.  1.
        -11    1    3    3    0    0  0.91752523645E+02  0.77524220192E+01  0.60522076625E+01  0.92278138581E+02  0.00000000000E+00 0.  1.
         11    1    3    3    0    0  0.52964975808E+01 -0.34481449558E+02  0.38570838699E+02  0.52007046140E+02  0.00000000000E+00 0. -1.
</event>
<event>
 7    1  0.6610867E-006  0.1547671E+03  0.7561462E-02  0.1194735E+00
          2   -1    0    0  501    0  0.00000000000E+00  0.00000000000E+00  0.18765695827E+04  0.18765695827E+04  0.00000000000E+00 0. -1.
         -2   -1    0    0    0  501 -0.00000000000E+00 -0.00000000000E+00 -0.18372415952E+02  0.18372415952E+02  0.00000000000E+00 0.  1.
         23    2    1    2    0    0  0.85783915799E+02  0.86259258761E+02  0.42956453725E+03  0.45568722998E+03  0.91244835317E+02 0.  0.
          5    1    1    2  502    0  0.24510703864E+02 -0.14136900601E+02  0.55422426654E+03  0.55496183345E+03  0.41800000000E+01 0. -1.
         -5    1    1    2    0  502 -0.11029461966E+03 -0.72122358160E+02  0.87440836292E+03  0.88429293518E+03  0.41800000000E+01 0. -1.
        -11    1    3    3    0    0 -0.15109856880E+02  0.29935805411E+02  0.13905251370E+03  0.14303867235E+03  0.00000000000E+00 0. -1.
         11    1    3    3    0    0  0.10089377268E+03  0.56323453350E+02  0.29051202354E+03  0.31264855763E+03  0.00000000000E+00 0.  1.
</event>
<event>
 7    1  0.6610867E-006  0.9589141E+02  0.7561462E-02  0.1289181E+00
         -1   -1    0    0    0  501 -0.00000000000E+00  0.00000000000E+00  0.25353947307E+02  0.25353947307E+02  0.00000000000E+00 0.  1.
          1   -1    0    0  501    0  0.00000000000E+00 -0.00000000000E+00 -0.71284405079E+03  0.71284405079E+03  0.00000000000E+00 0. -1.
         23    2    1    2    0    0 -0.66670541528E+02 -0.24264267910E+02 -0.18618975903E+03  0.21667827248E+03  0.85141832202E+02 0.  0.
          5    1    1    2  502    0  0.91215642352E+02  0.26109673924E+02 -0.22673479539E+03  0.24582137483E+03  0.41800000000E+01 0.  1.
         -5    1    1    2    0  502 -0.24545100824E+02 -0.18454060136E+01 -0.27456554907E+03  0.27569835080E+03  0.41800000000E+01 0.  1.
        -11    1    3    3    0    0 -0.33067102281E+02 -0.60274293461E+01 -0.81585240837E+01  0.34587926695E+02  0.00000000000E+00 0.  1.
         11    1    3    3    0    0 -0.33603439247E+02 -0.18236838564E+02 -0.17803123495E+03  0.18209034579E+03  0.00000000000E+00 0. -1.
</event>
<event>
 7    1  0.6610867E-006  0.5743389E+02  0.7561462E-02  0.1408927E+00
         -3   -1    0    0    0  501 -0.00000000000E+00  0.00000000000E+00  0.64171029511E+02  0.64171029511E+02  0.00000000000E+00 0.  1.
          3   -1    0    0  501    0  0.00000000000E+00 -0.00000000000E+00 -0.21397826230E+03  0.21397826230E+03  0.00000000000E+00 0. -1.
         23    2    1    2    0    0  0.31275131412E+02  0.54171164890E+01 -0.20552269548E+02  0.95494492596E+02  0.87688786836E+02 0.  0.
          5    1    1    2  502    0 -0.14725766662E+02 -0.25743785486E+02 -0.14745846970E+03  0.15046947658E+03  0.41800000000E+01 0.  1.
         -5    1    1    2    0  502 -0.16549364750E+02  0.20326668997E+02  0.18203506457E+02  0.32185322640E+02  0.41800000000E+01 0.  1.
        -11    1    3    3    0    0  0.83359255824E+01  0.26154388527E+02 -0.47247186757E+02  0.54642806946E+02  0.00000000000E+00 0. -1.
         11    1    3    3    0    0  0.22939205829E+02 -0.20737272038E+02  0.26694917209E+02  0.40851685650E+02  0.00000000000E+00 0.  1.
</event>
<event>
 7    1  0.6610867E-006  0.9412074E+02  0.7561462E-02  0.1293169E+00
         -1   -1    0    0    0  501 -0.00000000000E+00  0.00000000000E+00  0.12025469577E+03  0.12025469577E+03  0.00000000000E+00 0.  1.
          1   -1    0    0  501    0  0.00000000000E+00 -0.00000000000E+00 -0.11614424292E+03  0.11614424292E+03  0.00000000000E+00 0. -1.
         23    2    1    2    0    0  0.19434222221E+02  0.35888067599E+02  0.41533871493E+02  0.10731126779E+03  0.90138800329E+02 0.  0.
          5    1    1    2  502    0  0.22219644450E+02  0.20344121869E+02 -0.49356489188E+02  0.57975264718E+02  0.41800000000E+01 0. -1.
         -5    1    1    2    0  502 -0.41653866671E+02 -0.56232189468E+02  0.11933070545E+02  0.71112406186E+02  0.41800000000E+01 0.  1.
        -11    1    3    3    0    0 -0.10775535356E+02 -0.20834902018E+02  0.35786454728E+02  0.42788732703E+02  0.00000000000E+00 0.  1.
         11    1    3    3    0    0  0.30209757577E+02  0.56722969616E+02  0.57474167645E+01  0.64522535089E+02  0.00000000000E+00 0. -1.
</event>
<event>
 6    1  0.6610867E-006  0.2092976E+03  0.7561462E-02  0.1142123E+00
         -2   -1    0    0    0  501 -0.00000000000E+00  0.00000000000E+00  0.52461570041E+03  0.52461570041E+03  0.00000000000E+00 0. -1.
          2   -1    0    0  501    0  0.00000000000E+00 -0.00000000000E+00 -0.12923767049E+03  0.12923767049E+03  0.00000000000E+00 0.  1.
          5    1    1    2  502    0 -0.68120803158E+02  0.18025564343E+03  0.29386170669E+03  0.35143237738E+03  0.41800000000E+01 0.  1.
         -5    1    1    2    0  502  0.67670831027E+02 -0.18469272250E+03  0.15658452014E+01  0.19675026655E+03  0.41800000000E+01 0. -1.
        -11    1    1    2    0    0  0.90513533627E+01  0.13730063100E+02  0.26882569668E+02  0.31513714196E+02  0.00000000000E+00 0.  1.
         11    1    1    2    0    0 -0.86013812313E+01 -0.92929840350E+01  0.73067908359E+02  0.74157012772E+02  0.00000000000E+00 0. -1.
</event>
<event>
 7    1  0.6610867E-006  0.2054002E+03  0.7561462E-02  0.1145261E+00
          2   -1    0    0  501    0  0.00000000000E+00  0.00000000000E+00  0.66103795510E+03  0.66103795510E+03  0.00000000000E+00 0. -1.
         -2   -1    0    0    0  501 -0.00000000000E+00 -0.00000000000E+00 -0.12244649235E+03  0.12244649235E+03  0.00000000000E+00 0.  1.
         23    2    1    2    0    0  0.17943001653E+03  0.50171679034E+02  0.73916035612E+01  0.20682668322E+03  0.89500351266E+02 0.  0.
          5    1    1    2  502    0 -0.67963685817E+02  0.27985593786E+02  0.98131325274E+02  0.12267634429E+03  0.41800000000E+01 0. -1.
         -5    1    1    2    0  502 -0.11146633072E+03 -0.78157272820E+02  0.43306853392E+03  0.45398141994E+03  0.41800000000E+01 0. -1.
        -11    1    3    3    0    0  0.12512285902E+03 -0.27481429868E+01  0.28003870395E+02  0.12824780269E+03  0.00000000000E+00 0. -1.
         11    1    3    3    0    0  0.54307157516E+02  0.52919822021E+02 -0.20612266834E+02  0.78578880523E+02  0.00000000000E+00 0.  1.
</event>
<event>
 7    1  0.6610867E-006  0.1112049E+03  0.7561462E-02  0.1258355E+00
         -2   -1    0    0    0  501 -0.00000000000E+00  0.00000000000E+00  0.44878897787E+02  0.44878897787E+02  0.00000000000E+00 0.  1.
          2   -1    0    0  501    0  0.00000000000E+00 -0.00000000000E+00 -0.54920972884E+03  0.54920972884E+03  0.00000000000E+00 0. -1.
         23    2    1    2    0    0 -0.56977043739E+02  0.47740359736E+02 -0.93103291576E+02  0.15787722680E+03  0.10359281047E+03 0.  0.
          5    1    1    2  502    0 -0.27052176112E+02 -0.70261740213E+01 -0.21709852021E+02  0.35636742676E+02  0.41800000000E+01 0. -1.
         -5    1    1    2    0  502  0.84029219851E+02 -0.40714185714E+02 -0.38951768746E+03  0.40057465715E+03  0.41800000000E+01 0. -1.
        -11    1    3    3    0    0 -0.66631966757E+02  0.56714831273E+02 -0.28623058587E+02  0.92063405124E+02  0.00000000000E+00 0.  1.
         11    1    3    3    0    0  0.96549230187E+01 -0.89744715369E+01 -0.64480232988E+02  0.65813821680E+02  0.00000000000E+00 0. -1.
</event>
<event>
 7    1  0.6610867E-006  0.2733768E+03  0.7561462E-02  0.1099362E+00
         -2   -1    0    0    0  501 -0.00000000000E+00  0.00000000000E+00  0.73703824221E+02  0.73703824221E+02  0.00000000000E+00 0.  1.
          2   -1    0    0  501    0  0.00000000000E+00 -0.00000000000E+00 -0.12315770968E+04  0.12315770968E+04  0.00000000000E+00 0. -1.
         23    2    1    2    0    0  0.91852869685E+02 -0.24818775123E+03 -0.36111562102E+03  0.45645862368E+03  0.88971196788E+02 0.  0.
          5    1    1    2  502    0 -0.28089856908E+02  0.17371683762E+03 -0.64101543226E+03  0.66474418879E+03  0.41800000000E+01 0. -1.
         -5    1    1    2    0  502 -0.63763012777E+02  0.74470913613E+02 -0.15574221926E+03  0.18407810851E+03  0.41800000000E+01 0. -1.
        -11    1    3    3    0    0  0.55157419942E+02 -0.62648934317E+02 -0.15947478449E+03  0.17999843564E+03  0.00000000000E+00 0.  1.
         11    1    3    3    0    0  0.36695449742E+02 -0.18553881692E+03 -0.20164083653E+03  0.27646018804E+03  0.00000000000E+00 0. -1.
</event>
<event>
 7    1  0.6610867E-006  0.1252511E+03  0.7561462E-02  0.1234677E+00
          2   -1    0    0  501    0  0.00000000000E+00  0.00000000000E+00  0.46435040627E+03  0.46435040627E+03  0.00000000000E+00 0. -1.
         -2   -1    0    0    0  501 -0.00000000000E+00 -0.00000000000E+00 -0.41286296283E+02  0.41286296283E+02  0.00000000000E+00 0.  1.
         23    2    1    2    0    0 -0.16918131352E+02  0.91058540967E+02  0.17105445537E+03  0.21490661327E+03  0.91363803959E+02 0.  0.
          5    1    1    2  502    0 -0.46460012483E+02 -0.33188806907E+02  0.79057672225E+02  0.97609515936E+02  0.41800000000E+01 0. -1.
         -5    1    1    2    0  502  0.63378143835E+02 -0.57869734061E+02  0.17295198239E+03  0.19312057335E+03  0.41800000000E+01 0.  1.
        -11    1    3    3    0    0 -0.31171009404E+02  0.25602365884E+02  0.13051263566E+03  0.13660403008E+03  0.00000000000E+00 0. -1.
         11    1    3    3    0    0  0.14252878052E+02  0.65456175084E+02  0.40541819708E+02  0.78302583192E+02  0.00000000000E+00 0.  1.
</event>
<event>
 7    1  0.6610867E-006  0.8064708E+02  0.7561462E-02  0.1327225E+00
         -3   -1    0    0    0  501 -0.00000000000E+00  0.00000000000E+00  0.23502001158E+03  0.23502001158E+03  0.00000000000E+00 0.  1.
          3   -1    0    0  501    0  0.00000000000E+00 -0.00000000000E+00 -0.70657756744E+02  0.70657756744E+02  0.00000000000E+00 0. -1.
         23    2    1    2    0    0  0.52305883733E+02 -0.42172410874E+02  0.89650286152E+02  0.14523831109E+03  0.92426054174E+02 0.  0.
          5    1    1    2  502    0 -0.65663929440E+01  0.16488523691E+02  0.10028647851E+03  0.10193056020E+03  0.41800000000E+01 0. -1.
         -5    1    1    2    0  502 -0.45739490789E+02  0.25683887183E+02 -0.25574509832E+02  0.58508897030E+02  0.41800000000E+01 0. -1.
        -11    1    3    3    0    0  0.39732483868E+02 -0.57949640333E+02  0.10027160924E+03  0.12243866509E+03  0.00000000000E+00 0.  1.
         11    1    3    3    0    0  0.12573399865E+02  0.15777229458E+02 -0.10621323093E+02  0.22799646001E+02  0.00000000000E+00 0. -1.
</event>
<event>
 7    1  0.6610867E-006  0.1356838E+03  0.7561462E-02  0.1219258E+00
         -1   -1    0    0    0  501 -0.00000000000E+00  0.00000000000E+00  0.49095174048E+02  0.49095174048E+02  0.00000000000E+00 0.  1.
          1   -1    0    0  501    0  0.00000000000E+00 -0.00000000000E+00 -0.54820502821E+03  0.54820502821E+03  0.00000000000E+00 0. -1.
         23    2    1    2    0    0  0.55537039641E+01 -0.98495763803E+02 -0.79514623038E+02  0.14848091889E+03  0.77406387868E+02 0.  0.
          5    1    1    2  502    0  0.29624381673E+02  0.11492797382E+03 -0.34035745058E+03  0.36048121965E+03  0.41800000000E+01 0. -1.
         -5    1    1    2    0  502 -0.35178085637E+02 -0.16432210022E+02 -0.79237780548E+02  0.88338063718E+02  0.41800000000E+01 0. -1.
        -11    1    3    3    0    0 -0.25239793632E+02 -0.51820025614E+02 -0.87670560284E+01  0.58302860209E+02  0.00000000000E+00 0. -1.
         11    1    3    3    0    0  0.30793497596E+02 -0.46675738190E+02 -0.70747567010E+02  0.90178058681E+02  0.00000000000E+00 0.  1.
</event>
<event>
 7    1  0.6610867E-006  0.9943681E+02  0.7561462E-02  0.1281485E+00
         -1   -1    0    0    0  501 -0.00000000000E+00  0.00000000000E+00  0.27818276361E+03  0.27818276361E+03  0.00000000000E+00 0.  1.
          1   -1    0    0  501    0  0.00000000000E+00 -0.00000000000E+00 -0.42341299179E+02  0.42341299179E+02  0.00000000000E+00 0. -1.
         23    2    1    2    0    0  0.34650171606E+01 -0.51945304147E+01  0.11157323724E+03  0.14408961694E+03  0.90962854791E+02 0.  0.
          5    1    1    2  502    0 -0.40272775593E+02 -0.38456578718E+02  0.23597068932E+02  0.60622594491E+02  0.41800000000E+01 0. -1.
         -5    1    1    2    0  502  0.36807758433E+02  0.43651109133E+02  0.10067115826E+03  0.11581185136E+03  0.41800000000E+01 0. -1.
        -11    1    3    3    0    0  0.28274438269E+02 -0.36287824501E+02  0.35009768738E+02  0.57809462665E+02  0.00000000000E+00 0. -1.
         11    1    3    3    0    0 -0.24809421109E+02  0.31093294087E+02  0.76563468499E+02  0.86280154274E+02  0.00000000000E+00 0.  1.
</event>
<event>
 7    1  0.6610867E-006  0.1770270E+03  0.7561462E-02  0.1170712E+00
         -1   -1    0    0    0  501 -0.00000000000E+00  0.00000000000E+00  0.28657502471E+03  0.28657502471E+03  0.00000000000E+00 0.  1.
          1   -1    0    0  501    0  0.00000000000E+00 -0.00000000000E+00 -0.12744256482E+03  0.12744256482E+03  0.00000000000E+00 0. -1.
         23    2    1    2    0    0 -0.51105852285E+01  0.13840915923E+03  0.13738094499E+03  0.21374900688E+03  0.87360748942E+02 0.  0.
          5    1    1    2  502    0  0.59027472641E+02 -0.18136497415E+02 -0.14372446404E+02  0.63539079947E+02  0.41800000000E+01 0. -1.
         -5    1    1    2    0  502 -0.53916887412E+02 -0.12027266182E+03  0.36123961310E+02  0.13672950271E+03  0.41800000000E+01 0.  1.
        -11    1    3    3    0    0 -0.35775930247E+02  0.27230037459E+02  0.59536282907E+02  0.74605369160E+02  0.00000000000E+00 0. -1.
         11    1    3    3    0    0  0.30665345019E+02  0.11117912178E+03  0.77844662079E+02  0.13914363772E+03  0.00000000000E+00 0.  1.
</event>
<event>
 7    1  0.6610867E-006  0.9546503E+02  0.7561462E-02  0.1290132E+00
          2   -1    0    0  501    0  0.00000000000E+00  0.00000000000E+00  0.67510481853E+02  0.67510481853E+02  0.00000000000E+00 0. -1.
         -2   -1    0    0    0  501 -0.00000000000E+00 -0.00000000000E+00 -0.36417745776E+03  0.36417745776E+03  0.00000000000E+00 0.  1.
         23    2    1    2    0    0  0.51163386702E+02 -0.14546727296E+02 -0.27399149823E+03  0.29386826592E+03  0.91966935357E+02 0.  0.
          5    1    1    2  502    0  0.28519895114E+01  0.29204936736E+02  0.42496244600E+02  0.51811826632E+02  0.41800000000E+01 0.  1.
         -5    1    1    2    0  502 -0.54015376214E+02 -0.14658209440E+02 -0.65171722282E+02  0.86007847064E+02  0.41800000000E+01 0.  1.
        -11    1    3    3    0    0  0.69535408521E+02  0.14275306212E+02 -0.16440682490E+03  0.17907697083E+03  0.00000000000E+00 0.  1.
         11    1    3    3    0    0 -0.18372021819E+02 -0.28822033508E+02 -0.10958467332E+03  0.11479129509E+03  0.00000000000E+00 0. -1.
</event>
<event>
 7    1  0.6610867E-006  0.9921852E+02  0.7561462E-02  0.1281948E+00
         -4   -1    0    0    0  501 -0.00000000000E+00  0.00000000000E+00  0.43360895911E+02  0.43360895911E+02  0.00000000000E+00 0.  1.
          4   -1    0    0  501    0  0.00000000000E+00 -0.00000000000E+00 -0.45244639053E+03  0.45244639053E+03  0.00000000000E+00 0. -1.
         23    2    1    2    0    0 -0.19272049456E+02 -0.85790432401E+02 -0.17457011381E+03  0.21585001631E+03  0.91570162836E+02 0.  0.
          5    1    1    2  502    0  0.16218117111E+01  0.50865273619E+02 -0.23511729022E+03  0.24059825206E+03  0.41800000000E+01 0. -1.
         -5    1    1    2    0  502  0.17650237745E+02  0.34925158782E+02  0.60190941820E+00  0.39359018069E+02  0.41800000000E+01 0. -1.
        -11    1    3    3    0    0  0.22037086618E+02 -0.44264260498E+02 -0.13849793787E+03  0.14705997667E+03  0.00000000000E+00 0. -1.
         11    1    3    3    0    0 -0.41309136074E+02 -0.41526171903E+02 -0.36072175943E+02  0.68790039638E+02  0.00000000000E+00 0.  1.
</event>
<event>
 7    1  0.6610867E-006  0.1284010E+03  0.7561462E-02  0.1229848E+00
         -2   -1    0    0    0  501 -0.00000000000E+00  0.00000000000E+00  0.19357520342E+02  0.19357520342E+02  0.00000000000E+00 0.  1.
          2   -1    0    0  501    0  0.00000000000E+00 -0.00000000000E+00 -0.90863703266E+03  0.90863703266E+03  0.00000000000E+00 0. -1.
         23    2    1    2    0    0  0.21860369647E+02 -0.68645280220E+02 -0.31831921132E+03  0.33906941122E+03  0.91928749979E+02 0.  0.
          5    1    1    2  502    0  0.35350930273E+02 -0.15700177868E+02 -0.22115181429E+03  0.22454794860E+03  0.41800000000E+01 0.  1.
         -5    1    1    2    0  502 -0.57211299920E+02  0.84345458088E+02 -0.34980848671E+03  0.36437719318E+03  0.41800000000E+01 0.  1.
        -11    1    3    3    0    0  0.52130555434E+02 -0.14915105179E+02 -0.17007454678E+03  0.17850884190E+03  0.00000000000E+00 0. -1.
         11    1    3    3    0    0 -0.30270185788E+02 -0.53730175041E+02 -0.14824466454E+03  0.16056056932E+03  0.00000000000E+00 0.  1.
</event>
<event>
 7    1  0.6610867E-006  0.1100625E+03  0.7561462E-02  0.1260454E+00
          1   -1    0    0  501    0  0.00000000000E+00  0.00000000000E+00  0.52803622205E+03  0.52803622205E+03  0.00000000000E+00 0. -1.
         -1   -1    0    0    0  501 -0.00000000000E+00 -0.00000000000E+00 -0.26268060063E+02  0.26268060063E+02  0.00000000000E+00 0.  1.
         23    2    1    2    0    0  0.12875013826E+02  0.43020366879E+02  0.18246511175E+03  0.20844292541E+03  0.90213181955E+02 0.  0.
          5    1    1    2  502    0 -0.29453782012E+02  0.36382868494E+02  0.16399786054E+03  0.17059897144E+03  0.41800000000E+01 0. -1.
         -5    1    1    2    0  502  0.16578768186E+02 -0.79403235374E+02  0.15530518970E+03  0.17526238526E+03  0.41800000000E+01 0. -1.
        -11    1    3    3    0    0  0.22044784375E+02  0.64707084475E+02  0.89945544555E+02  0.11297424611E+03  0.00000000000E+00 0.  1.
         11    1    3    3    0    0 -0.91697705493E+01 -0.21686717596E+02  0.92519567196E+02  0.95468679294E+02  0.00000000000E+00 0. -1.
</event>
<event>
 7    1  0.6610867E-006  0.1551844E+03  0.7561462E-02  0.1194243E+00
          1   -1    0    0  501    0  0.00000000000E+00  0.00000000000E+00  0.17319454049E+04  0.17319454049E+04  0.00000000000E+00 0.  1.
         -1   -1    0    0    0  501 -0.00000000000E+00 -0.00000000000E+00 -0.29132799121E+02  0.29132799121E+02  0.00000000000E+00 0. -1.
         23    2    1    2    0    0  0.44978389169E+02  0.13085265922E+03  0.36386488401E+03  0.40920012515E+03  0.12610160462E+03 0.  0.
          5    1    1    2  502    0 -0.45691935488E+02 -0.12010121997E+03  0.63749887715E+03  0.65033402707E+03  0.41800000000E+01 0.  1.
         -5    1    1    2    0  502  0.71354631931E+00 -0.10751439248E+02  0.70144884461E+03  0.70154405179E+03  0.41800000000E+01 0.  1.
        -11    1    3    3    0    0  0.43754631083E+02  0.46114833785E+01  0.18569595673E+03  0.19083689859E+03  0.00000000000E+00 0.  1.
         11    1    3    3    0    0  0.12237580855E+01  0.12624117584E+03  0.17816892728E+03  0.21836322655E+03  0.00000000000E+00 0. -1.
</event>
<event>
 7    1  0.6610867E-006  0.9878214E+02  0.7561462E-02  0.1282878E+00
          3   -1    0    0  501    0  0.00000000000E+00  0.00000000000E+00  0.25561973278E+02  0.25561973278E+02  0.00000000000E+00 0. -1.
         -3   -1    0    0    0  501 -0.00000000000E+00 -0.00000000000E+00 -0.60459201970E+03  0.60459201970E+03  0.00000000000E+00 0.  1.
         23    2    1    2    0    0 -0.10775585346E+02  0.60691829590E+02 -0.26904174948E+03  0.29024276364E+03  0.89765179546E+02 0.  0.
          5    1    1    2  502    0  0.40046887864E+02 -0.50142751237E+02 -0.59975456767E+02  0.87935070044E+02  0.41800000000E+01 0.  1.
         -5    1    1    2    0  502 -0.29271302517E+02 -0.10549078354E+02 -0.25001284017E+03  0.25197615930E+03  0.41800000000E+01 0.  1.
        -11    1    3    3    0    0  0.32895844721E+02  0.88256409294E+01 -0.14429546138E+03  0.14826061079E+03  0.00000000000E+00 0.  1.
         11    1    3    3    0    0 -0.43671430067E+02  0.51866188661E+02 -0.12474628811E+03  0.14198215285E+03  0.00000000000E+00 0. -1.
</event>
<event>
 7    1  0.6610867E-006  0.1298732E+03  0.7561462E-02  0.1227644E+00
          2   -1    0    0  501    0  0.00000000000E+00  0.00000000000E+00  0.62438664292E+02  0.62438664292E+02  0.00000000000E+00 0. -1.
         -2   -1    0    0    0  501 -0.00000000000E+00 -0.00000000000E+00 -0.45600682319E+03  0.45600682319E+03  0.00000000000E+00 0.  1.
         23    2    1    2    0    0 -0.11865137641E+03 -0.34194908304E+02 -0.24060872987E+03  0.28543952953E+03  0.91300182068E+02 0.  0.
          5    1    1    2  502    0  0.39227549831E+02  0.38461006494E+02  0.57873033699E+01  0.55398691019E+02  0.41800000000E+01 0. -1.
         -5    1    1    2    0  502  0.79423826583E+02 -0.42660981905E+01 -0.15874673239E+03  0.17760726693E+03  0.41800000000E+01 0. -1.
        -11    1    3    3    0    0 -0.49205141368E+02 -0.24222452332E+02 -0.28048772052E+02  0.61600379444E+02  0.00000000000E+00 0. -1.
         11    1    3    3    0    0 -0.69446235046E+02 -0.99724559722E+01 -0.21255995782E+03  0.22383915008E+03  0.00000000000E+00 0.  1.
</event>
<event>
 7    1  0.6610867E-006  0.1151800E+03  0.7561462E-02  0.1251267E+00
          2   -1    0    0  501    0  0.00000000000E+00  0.00000000000E+00  0.21304583122E+04  0.21304583122E+04  0.00000000000E+00 0.  1.
         -2   -1    0    0    0  501 -0.00000000000E+00 -0.00000000000E+00 -0.13437062018E+02  0.13437062018E+02  0.00000000000E+00 0. -1.
         23    2    1    2    0    0  0.69300322850E+02 -0.14670053384E+02  0.32956596435E+03  0.35067104412E+03  0.96637006942E+02 0.  0.
          5    1    1    2  502    0  0.15365367427E+02  0.22401000212E+02  0.11233506407E+04  0.11236868041E+04  0.41800000000E+01 0.  1.
         -5    1    1    2    0  502 -0.84665690277E+02 -0.77309468283E+01  0.66410464510E+03  0.66953752598E+03  0.41800000000E+01 0.  1.
        -11    1    3    3    0    0  0.82666784055E+02  0.16088778521E+02  0.26263786028E+03  0.27581024570E+03  0.00000000000E+00 0.  1.
         11    1    3    3    0    0 -0.13366461205E+02 -0.30758831905E+02  0.66928104072E+02  0.74860798420E+02  0.00000000000E+00 0. -1.
</event>
<event>
 7    1  0.6610867E-006  0.1690181E+03  0.7561462E-02  0.1178876E+00
          2   -1    0    0  501    0  0.00000000000E+00  0.00000000000E+00  0.13395737684E+04  0.13395737684E+04  0.00000000000E+00 0. -1.
         -2   -1    0    0    0  501 -0.00000000000E+00 -0.00000000000E+00 -0.25187779359E+02  0.25187779359E+02  0.00000000000E+00 0.  1.
         23    2    1    2    0    0 -0.12357933693E+03 -0.80799755923E+02  0.60816177799E+03  0.63250433586E+03  0.91654424867E+02 0.  0.
          5    1    1    2  502    0  0.85535724957E+02  0.11080542249E+03  0.44400995672E+03  0.46557117175E+03  0.41800000000E+01 0.  1.
         -5    1    1    2    0  502  0.38043611972E+02 -0.30005666563E+02  0.26221425430E+03  0.26668604012E+03  0.41800000000E+01 0.  1.
        -11    1    3    3    0    0 -0.76537304814E+02 -0.36699966685E+02  0.49530822110E+03  0.50252868622E+03  0.00000000000E+00 0. -1.
         11    1    3    3    0    0 -0.47042032115E+02 -0.44099789238E+02  0.11285355689E+03  0.12997564964E+03  0.00000000000E+00 0.  1.
</event>
<event>
 7    1  0.6610867E-006  0.3096916E+03  0.7561462E-02  0.1080494E+00
          1   -1    0    0  501    0  0.00000000000E+00  0.00000000000E+00  0.26512011162E+04  0.26512011162E+04  0.00000000000E+00 0. -1.
         -1   -1    0    0    0  501 -0.00000000000E+00 -0.00000000000E+00 -0.38653510207E+02  0.38653510207E+02  0.00000000000E+00 0.  1.
         23    2    1    2    0    0 -0.25525098169E+03  0.14087700627E+03  0.96879291710E+03  0.10157649936E+04  0.90660970195E+02 0.  0.
          5    1    1    2  502    0  0.69174133720E+01  0.18054875877E+02  0.61793180926E+02  0.64882191391E+02  0.41800000000E+01 0.  1.
         -5    1    1    2    0  502  0.24833356832E+03 -0.15893188215E+03  0.15819615079E+04  0.16092074414E+04  0.41800000000E+01 0.  1.
        -11    1    3    3    0    0 -0.12270614998E+02 -0.12403187965E+02  0.71773070739E+02  0.73863257086E+02  0.00000000000E+00 0.  1.
         11    1    3    3    0    0 -0.24298036669E+03  0.15328019424E+03  0.89701984636E+03  0.94190173654E+03  0.00000000000E+00 0. -1.
</event>
<event>
 7    1  0.6610867E-006  0.8829178E+02  0.7561462E-02  0.1307042E+00
         -3   -1    0    0    0  501 -0.00000000000E+00  0.00000000000E+00  0.49153409755E+03  0.49153409755E+03  0.00000000000E+00 0.  1.
          3   -1    0    0  501    0  0.00000000000E+00 -0.00000000000E+00 -0.50462271179E+02  0.50462271179E+02  0.00000000000E+00 0. -1.
         23    2    1    2    0    0 -0.40518441180E+02  0.20940374746E+02  0.38350971933E+03  0.39694177248E+03  0.91666910871E+02 0.  0.
          5    1    1    2  502    0 -0.20524576803E+02 -0.26775627671E+02  0.73996442047E+02  0.81431801686E+02  0.41800000000E+01 0. -1.
         -5    1    1    2    0  502  0.61043017983E+02  0.58352529252E+01 -0.16434335005E+02  0.63622794565E+02  0.41800000000E+01 0. -1.
        -11    1    3    3    0    0 -0.54032861251E+02  0.32745230622E+02  0.36750725641E+03  0.37289862395E+03  0.00000000000E+00 0.  1.
         11    1    3    3    0    0  0.13514420071E+02 -0.11804855876E+02  0.16002462918E+02  0.24043148536E+02  0.00000000000E+00 0. -1.
</event>
<event>
 7    1  0.6610867E-006  0.1265993E+03  0.7561462E-02  0.1232591E+00
         -3   -1    0    0    0  501 -0.00000000000E+00  0.00000000000E+00  0.98261576146E+02  0.98261576146E+02  0.00000000000E+00 0.  1.
          3   -1    0    0  501    0  0.00000000000E+00 -0.00000000000E+00 -0.20369145142E+03  0.20369145142E+03  0.00000000000E+00 0. -1.
         23    2    1    2    0    0  0.83828410224E+02 -0.49615032482E+02 -0.62992975614E+02  0.14855459845E+03  0.92798167734E+02 0.  0.
          5    1    1    2  502    0 -0.97175539203E+02  0.17733175783E+02 -0.58690405369E+02  0.11497646292E+03  0.41800000000E+01 0. -1.
         -5    1    1    2    0  502  0.13347128979E+02  0.31881856700E+02  0.16253505711E+02  0.38421966198E+02  0.41800000000E+01 0.  1.
        -11    1    3    3    0    0  0.75142766728E+02 -0.66618712773E+02 -0.21240305912E+02  0.10264326027E+03  0.00000000000E+00 0.  1.
         11    1    3    3    0    0  0.86856434960E+01  0.17003680291E+02 -0.41752669702E+02  0.45911338182E+02  0.00000000000E+00 0. -1.
</event>
<event>
 7    1  0.6610867E-006  0.9659514E+02  0.7561462E-02  0.1287623E+00
          1   -1    0    0  501    0  0.00000000000E+00  0.00000000000E+00  0.24877639786E+03  0.24877639786E+03  0.00000000000E+00 0. -1.
         -1   -1    0    0    0  501 -0.00000000000E+00 -0.00000000000E+00 -0.73038183134E+02  0.73038183134E+02  0.00000000000E+00 0.  1.
         23    2    1    2    0    0  0.55075288335E+02 -0.17222757866E+00  0.11060578620E+02  0.10780464560E+03  0.92011891444E+02 0.  0.
          5    1    1    2  502    0 -0.16244444327E+02  0.48933977128E+02  0.18321910785E+02  0.54877872625E+02  0.41800000000E+01 0. -1.
         -5    1    1    2    0  502 -0.38830844008E+02 -0.48761749549E+02  0.14635572532E+03  0.15913206276E+03  0.41800000000E+01 0. -1.
        -11    1    3    3    0    0  0.36475184628E+02  0.27475191164E+02 -0.30215648463E+02  0.54756831858E+02  0.00000000000E+00 0.  1.
         11    1    3    3    0    0  0.18600103707E+02 -0.27647418742E+02  0.41276227084E+02  0.53047813746E+02  0.00000000000E+00 0. -1.
</event>
<event>
 7    1  0.6610867E-006  0.1025268E+03  0.7561462E-02  0.1275070E+00
         -1   -1    0    0    0  501 -0.00000000000E+00  0.00000000000E+00  0.26721744026E+02  0.26721744026E+02  0.00000000000E+00 0.  1.
          1   -1    0    0  501    0  0.00000000000E+00 -0.00000000000E+00 -0.57337898375E+03  0.57337898375E+03  0.00000000000E+00 0. -1.
         23    2    1    2    0    0  0.34710047601E+02  0.44284226000E+02 -0.18953553325E+03  0.21754770734E+03  0.90760159364E+02 0.  0.
          5    1    1    2  502    0  0.33195451002E+02 -0.77429030881E+01 -0.23881676404E+03  0.24127330914E+03  0.41800000000E+01 0.  1.
         -5    1    1    2    0  502 -0.67905498603E+02 -0.36541322912E+02 -0.11830494243E+03  0.14127971130E+03  0.41800000000E+01 0.  1.
        -11    1    3    3    0    0 -0.22395641234E+02  0.24145355208E+02 -0.12409264771E+03  0.12838827104E+03  0.00000000000E+00 0. -1.
         11    1    3    3    0    0  0.57105688834E+02  0.20138870792E+02 -0.65442885543E+02  0.89159436305E+02  0.00000000000E+00 0.  1.
</event>
<event>
 7    1  0.6610867E-006  0.5547162E+02  0.7561462E-02  0.1417882E+00
          1   -1    0    0  501    0  0.00000000000E+00  0.00000000000E+00  0.10469057565E+03  0.10469057565E+03  0.00000000000E+00 0. -1.
         -1   -1    0    0    0  501 -0.00000000000E+00 -0.00000000000E+00 -0.12402779741E+03  0.12402779741E+03  0.00000000000E+00 0.  1.
         23    2    1    2    0    0 -0.19578775011E+02 -0.60610572764E+01 -0.37816657790E+02  0.10062254596E+03  0.90965555583E+02 0.  0.
          5    1    1    2  502    0  0.26835040561E+02 -0.10298711671E+01  0.70172064877E+02  0.75251386204E+02  0.41800000000E+01 0.  1.
         -5    1    1    2    0  502 -0.72562655498E+01  0.70909284435E+01 -0.51692628848E+02  0.52844440891E+02  0.41800000000E+01 0.  1.
        -11    1    3    3    0    0 -0.42217960506E+02 -0.19457717300E+02  0.85951783276E+01  0.47274052527E+02  0.00000000000E+00 0. -1.
         11    1    3    3    0    0  0.22639185495E+02  0.13396660024E+02 -0.46411836117E+02  0.53348493432E+02  0.00000000000E+00 0.  1.
</event>
<event>
 7    1  0.6610867E-006  0.1722846E+03  0.7561462E-02  0.1175486E+00
          1   -1    0    0  501    0  0.00000000000E+00  0.00000000000E+00  0.75146448446E+02  0.75146448446E+02  0.00000000000E+00 0. -1.
         -1   -1    0    0    0  501 -0.00000000000E+00 -0.00000000000E+00 -0.61481467154E+03  0.61481467154E+03  0.00000000000E+00 0.  1.
         23    2    1    2    0    0 -0.10013190581E+03 -0.92408643915E+02 -0.45932025676E+03  0.48829492088E+03  0.94292499431E+02 0.  0.
          5    1    1    2  502    0  0.32582796858E+02  0.10869014413E+03 -0.35940195362E+02  0.11909809454E+03  0.41800000000E+01 0. -1.
         -5    1    1    2    0  502  0.67549108952E+02 -0.16281500210E+02 -0.44407770971E+02  0.82568104568E+02  0.41800000000E+01 0. -1.
        -11    1    3    3    0    0 -0.11192585688E+03 -0.60144646191E+02 -0.40056239525E+03  0.42023208872E+03  0.00000000000E+00 0.  1.
         11    1    3    3    0    0  0.11793951072E+02 -0.32263997725E+02 -0.58757861514E+02  0.68062832154E+02  0.00000000000E+00 0. -1.
</event>
<event>
 7    1  0.6610867E-006  0.7887119E+02  0.7561462E-02  0.1332286E+00
         -2   -1    0    0    0  501 -0.00000000000E+00  0.00000000000E+00  0.95884983013E+01  0.95884983013E+01  0.00000000000E+00 0.  1.
          2   -1    0    0  501    0  0.00000000000E+00 -0.00000000000E+00 -0.20834135385E+04  0.20834135385E+04  0.00000000000E+00 0. -1.
         23    2    1    2    0    0  0.41341387145E+02  0.38290201183E+01 -0.54374954215E+03  0.55271733300E+03  0.90050618716E+02 0.  0.
          5    1    1    2  502    0 -0.27098230906E+02 -0.22061778426E+02 -0.15067669629E+04  0.15071778890E+04  0.41800000000E+01 0. -1.
         -5    1    1    2    0  502 -0.14243156238E+02  0.18232758307E+02 -0.23308535130E+02  0.33106814782E+02  0.41800000000E+01 0.  1.
        -11    1    3    3    0    0 -0.94738145623E+01  0.37106571992E+02 -0.22376694664E+03  0.22702047761E+03  0.00000000000E+00 0. -1.
         11    1    3    3    0    0  0.50815201707E+02 -0.33277551874E+02 -0.31998259551E+03  0.32569685539E+03  0.00000000000E+00 0.  1.
</event>
<event>
 7    1  0.6610867E-006  0.6805080E+02  0.7561462E-02  0.1366850E+00
         -1   -1    0    0    0  501 -0.00000000000E+00  0.00000000000E+00  0.16338759733E+02  0.16338759733E+02  0.00000000000E+00 0.  1.
          1   -1    0    0  501    0  0.00000000000E+00 -0.00000000000E+00 -0.79604375584E+03  0.79604375584E+03  0.00000000000E+00 0. -1.
         23    2    1    2    0    0  0.12598832165E+02 -0.28367608036E+02 -0.31129671001E+03  0.32656553532E+03  0.93680069573E+02 0.  0.
          5    1    1    2  502    0 -0.12930028792E+02  0.49388288426E+01 -0.46051398016E+03  0.46074089899E+03  0.41800000000E+01 0. -1.
         -5    1    1    2    0  502  0.33119662687E+00  0.23428779193E+02 -0.78943059351E+01  0.25076081271E+02  0.41800000000E+01 0. -1.
        -11    1    3    3    0    0  0.14670036083E+02  0.33170145321E+02 -0.95456800082E+02  0.10211498020E+03  0.00000000000E+00 0.  1.
         11    1    3    3    0    0 -0.20712039176E+01 -0.61537753357E+02 -0.21583990993E+03  0.22445055512E+03  0.00000000000E+00 0. -1.
</event>
<event>
 7    1  0.6610867E-006  0.8614211E+02  0.7561462E-02  0.1312473E+00
          1   -1    0    0  501    0  0.00000000000E+00  0.00000000000E+00  0.53862281724E+03  0.53862281724E+03  0.00000000000E+00 0. -1.
         -1   -1    0    0    0  501 -0.00000000000E+00 -0.00000000000E+00 -0.28293255834E+02  0.28293255834E+02  0.00000000000E+00 0.  1.
         23    2    1    2    0    0 -0.30044298716E+02  0.96148308945E+01  0.11002533571E+03  0.14633797698E+03  0.91181819187E+02 0.  0.
          5    1    1    2  502    0  0.36915770978E+02  0.42472920966E+02  0.31712826254E+03  0.32210950073E+03  0.41800000000E+01 0. -1.
         -5    1    1    2    0  502 -0.68714722618E+01 -0.52087751860E+02  0.83175963149E+02  0.98468595352E+02  0.41800000000E+01 0. -1.
        -11    1    3    3    0    0  0.15767374551E+02  0.70367804298E+01 -0.84970566140E+01  0.19243865260E+02  0.00000000000E+00 0.  1.
         11    1    3    3    0    0 -0.45811673267E+02  0.25780504648E+01  0.11852239233E+03  0.12709411172E+03  0.00000000000E+00 0. -1.
</event>
<event>
 7    1  0.6610867E-006  0.1004363E+03  0.7561462E-02  0.1279381E+00
         -2   -1    0    0    0  501 -0.00000000000E+00  0.00000000000E+00  0.18766534645E+02  0.18766534645E+02  0.00000000000E+00 0.  1.
          2   -1    0    0  501    0  0.00000000000E+00 -0.00000000000E+00 -0.77950283517E+03  0.77950283517E+03  0.00000000000E+00 0. -1.
         23    2    1    2    0    0 -0.25649097700E+02  0.15621468492E+02 -0.18164834588E+03  0.20506429425E+03  0.90295828952E+02 0.  0.
          5    1    1    2  502    0 -0.17410801826E+02  0.35057228972E+02 -0.40322473371E+03  0.40514170805E+03  0.41800000000E+01 0. -1.
         -5    1    1    2    0  502  0.43059899525E+02 -0.50678697463E+02 -0.17586322093E+03  0.18806336752E+03  0.41800000000E+01 0. -1.
        -11    1    3    3    0    0  0.76001167835E+01  0.47920844003E+02 -0.10080555088E+03  0.11187460906E+03  0.00000000000E+00 0.  1.
         11    1    3    3    0    0 -0.33249214483E+02 -0.32299375512E+02 -0.80842795000E+02  0.93189685189E+02  0.00000000000E+00 0. -1.
</event>
<event>
 7    1  0.6610867E-006  0.1259697E+03  0.7561462E-02  0.1233562E+00
          1   -1    0    0  501    0  0.00000000000E+00  0.00000000000E+00  0.54086841143E+02  0.54086841143E+02  0.00000000000E+00 0. -1.
         -1   -1    0    0    0  501 -0.00000000000E+00 -0.00000000000E+00 -0.34643380823E+03  0.34643380823E+03  0.00000000000E+00 0.  1.
         23    2    1    2    0    0 -0.64294366590E+02  0.38965794922E+02 -0.83782911937E+02  0.14595979741E+03  0.92911718197E+02 0.  0.
          5    1    1    2  502    0 -0.19169993116E+02  0.27254559597E+02 -0.23534210646E+02  0.41007695932E+02  0.41800000000E+01 0.  1.
         -5    1    1    2    0  502  0.83464359706E+02 -0.66220354519E+02 -0.18502984450E+03  0.21355315603E+03  0.41800000000E+01 0.  1.
        -11    1    3    3    0    0  0.20202755531E+02  0.67190310808E+01 -0.40366807566E+02  0.45637439266E+02  0.00000000000E+00 0.  1.
         11    1    3    3    0    0 -0.84497122121E+02  0.32246763841E+02 -0.43416104371E+02  0.10032235814E+03  0.00000000000E+00 0. -1.
</event>
<event>
 7    1  0.6610867E-006  0.1020503E+03  0.7561462E-02  0.1276043E+00
         -1   -1    0    0    0  501 -0.00000000000E+00  0.00000000000E+00  0.18801252072E+02  0.18801252072E+02  0.00000000000E+00 0.  1.
          1   -1    0    0  501    0  0.00000000000E+00 -0.00000000000E+00 -0.14545078104E+04  0.14545078104E+04  0.00000000000E+00 0. -1.
         23    2    1    2    0    0  0.29798765383E+02  0.37855643526E+02 -0.15850794250E+03  0.18909545447E+03  0.91166369365E+02 0.  0.
          5    1    1    2  502    0 -0.70313062352E+02  0.78475151999E+01 -0.79289744634E+03  0.79605863041E+03  0.41800000000E+01 0.  1.
         -5    1    1    2    0  502  0.40514296969E+02 -0.45703158725E+02 -0.48430116948E+03  0.48815497758E+03  0.41800000000E+01 0.  1.
        -11    1    3    3    0    0  0.11813457570E+01 -0.13321857824E+02  0.58454624397E+01  0.14595783802E+02  0.00000000000E+00 0.  1.
         11    1    3    3    0    0  0.28617419626E+02  0.51177501349E+02 -0.16435340494E+03  0.17449967067E+03  0.00000000000E+00 0. -1.
</event>
<event>
 7    1  0.6610867E-006  0.2850374E+03  0.7561462E-02  0.1092969E+00
          1   -1    0    0  501    0  0.00000000000E+00  0.00000000000E+00  0.58012016301E+03  0.58012016301E+03  0.00000000000E+00 0. -1.
         -1   -1    0    0    0  501 -0.00000000000E+00 -0.00000000000E+00 -0.16817631000E+03  0.16817631000E+03  0.00000000000E+00 0.  1.
         23    2    1    2    0    0 -0.26579332717E+03  0.10907096206E+01  0.66591822996E+02  0.28953611027E+03  0.93538258721E+02 0.  0.
          5    1    1    2  502    0  0.10122778707E+03 -0.63103364889E+02  0.18829710172E+03  0.22294028450E+03  0.41800000000E+01 0. -1.
         -5    1    1    2    0  502  0.16456554010E+03  0.62012655268E+02  0.15705492829E+03  0.23582007824E+03  0.41800000000E+01 0.  1.
        -11    1    3    3    0    0 -0.23084682334E+03 -0.23549012101E+02  0.78813921749E+02  0.24506416727E+03  0.00000000000E+00 0. -1.
         11    1    3    3    0    0 -0.34946503828E+02  0.24639721721E+02 -0.12222098753E+02  0.44471943000E+02  0.00000000000E+00 0.  1.
</event>
<event>
 7    1  0.6610867E-006  0.3026733E+03  0.7561462E-02  0.1083912E+00
          2   -1    0    0  501    0  0.00000000000E+00  0.00000000000E+00  0.16436592045E+04  0.16436592045E+04  0.00000000000E+00 0. -1.
         -2   -1    0    0    0  501 -0.00000000000E+00 -0.00000000000E+00 -0.63257031422E+02  0.63257031422E+02  0.00000000000E+00 0.  1.
         23    2    1    2    0    0 -0.30084232882E+03  0.28395705896E+01  0.66075961499E+03  0.73125947258E+03  0.87309664193E+02 0.  0.
          5    1    1    2  502    0  0.15533533762E+03  0.10325819663E+02  0.65576771843E+03  0.67400627787E+03  0.41800000000E+01 0. -1.
         -5    1    1    2    0  502  0.14550699120E+03 -0.13165390252E+02  0.26387483969E+03  0.30165048551E+03  0.41800000000E+01 0. -1.
        -11    1    3    3    0    0 -0.80637831650E+02 -0.16811341251E+02  0.27010866995E+03  0.28238940254E+03  0.00000000000E+00 0. -1.
         11    1    3    3    0    0 -0.22020449717E+03  0.19650911841E+02  0.39065094504E+03  0.44887007004E+03  0.00000000000E+00 0.  1.
</event>
<event>
 7    1  0.6610867E-006  0.1359404E+03  0.7561462E-02  0.1218898E+00
         -3   -1    0    0    0  501 -0.00000000000E+00  0.00000000000E+00  0.81512977477E+02  0.81512977477E+02  0.00000000000E+00 0.  1.
          3   -1    0    0  501    0  0.00000000000E+00 -0.00000000000E+00 -0.23905414480E+03  0.23905414480E+03  0.00000000000E+00 0. -1.
         23    2    1    2    0    0  0.76077829400E+02  0.44008621952E+02 -0.67906217801E+02  0.14334336342E+03  0.90617164417E+02 0.  0.
          5    1    1    2  502    0  0.13685844092E+02 -0.56341592838E+02 -0.55320614604E+02  0.80246621189E+02  0.41800000000E+01 0. -1.
         -5    1    1    2    0  502 -0.89763673492E+02  0.12332970886E+02 -0.34314334914E+02  0.96977137668E+02  0.41800000000E+01 0. -1.
        -11    1    3    3    0    0  0.45601507142E+02  0.69628746581E+02 -0.30299642653E+02  0.88576115003E+02  0.00000000000E+00 0.  1.
         11    1    3    3    0    0  0.30476322258E+02 -0.25620124629E+02 -0.37606575148E+02  0.54767248413E+02  0.00000000000E+00 0. -1.
</event>
<event>
 7    1  0.6610867E-006  0.1317808E+03  0.7561462E-02  0.1224837E+00
          4   -1    0    0  501    0  0.00000000000E+00  0.00000000000E+00  0.99710455675E+02  0.99710455675E+02  0.00000000000E+00 0.  1.
         -4   -1    0    0    0  501 -0.00000000000E+00 -0.00000000000E+00 -0.18174224472E+03  0.18174224472E+03  0.00000000000E+00 0. -1.
         23    2    1    2    0    0 -0.24004531596E+02 -0.78577744327E+02 -0.46247184201E+02  0.12757362593E+03  0.85939214246E+02 0.  0.
          5    1    1    2  502    0  0.52291908008E+02  0.10062646710E+03 -0.25084146007E+02  0.11621882939E+03  0.41800000000E+01 0.  1.
         -5    1    1    2    0  502 -0.28287376412E+02 -0.22048722772E+02 -0.10700458840E+02  0.37660245080E+02  0.41800000000E+01 0.  1.
        -11    1    3    3    0    0 -0.50097519874E+02 -0.28835583919E+02 -0.52669814174E+01  0.58043031371E+02  0.00000000000E+00 0.  1.
         11    1    3    3    0    0  0.26092988278E+02 -0.49742160408E+02 -0.40980202783E+02  0.69530594557E+02  0.00000000000E+00 0. -1.
</event>
<event>
 7    1  0.6610867E-006  0.1125696E+03  0.7561462E-02  0.1255884E+00
          2   -1    0    0  501    0  0.00000000000E+00  0.00000000000E+00  0.16373130226E+03  0.16373130226E+03  0.00000000000E+00 0. -1.
         -2   -1    0    0    0  501 -0.00000000000E+00 -0.00000000000E+00 -0.10572361211E+03  0.10572361211E+03  0.00000000000E+00 0.  1.
         23    2    1    2    0    0  0.25389975240E+01  0.53056974030E+01  0.73688364301E+01  0.77823980925E+02  0.77250730245E+02 0.  0.
          5    1    1    2  502    0 -0.69908468219E+02 -0.30538101705E+02  0.82848281900E+02  0.11269906742E+03  0.41800000000E+01 0. -1.
         -5    1    1    2    0  502  0.67369470695E+02  0.25232404302E+02 -0.32209428183E+02  0.78931866015E+02  0.41800000000E+01 0.  1.
        -11    1    3    3    0    0  0.32959887817E+01  0.40920689009E+02  0.94971612090E+01  0.42137422822E+02  0.00000000000E+00 0.  1.
         11    1    3    3    0    0 -0.75699125770E+00 -0.35614991606E+02 -0.21283247789E+01  0.35686558103E+02  0.00000000000E+00 0. -1.
</event>
<event>
 7    1  0.6610867E-006  0.1110900E+03  0.7561462E-02  0.1258565E+00
          1   -1    0    0  501    0  0.00000000000E+00  0.00000000000E+00  0.65829047947E+02  0.65829047947E+02  0.00000000000E+00 0. -1.
         -1   -1    0    0    0  501 -0.00000000000E+00 -0.00000000000E+00 -0.23534090182E+03  0.23534090182E+03  0.00000000000E+00 0.  1.
         23    2    1    2    0    0  0.44951009432E+02 -0.41332555268E+02 -0.10861920774E+03  0.15361862998E+03  0.89841960202E+02 0.  0.
          5    1    1    2  502    0 -0.82387006215E+02  0.48209830201E+02 -0.37265630817E+02  0.10255733109E+03  0.41800000000E+01 0. -1.
         -5    1    1    2    0  502  0.37435996783E+02 -0.68772749330E+01 -0.23627015313E+02  0.44993988690E+02  0.41800000000E+01 0.  1.
        -11    1    3    3    0    0  0.25091079044E+02 -0.57497887189E+02 -0.11141136246E+03  0.12785953607E+03  0.00000000000E+00 0.  1.
         11    1    3    3    0    0  0.19859930387E+02  0.16165331921E+02  0.27921547188E+01  0.25759093910E+02  0.00000000000E+00 0. -1.
</event>
<event>
 7    1  0.6610867E-006  0.1652200E+03  0.7561462E-02  0.1182926E+00
          2   -1    0    0  501    0  0.00000000000E+00  0.00000000000E+00  0.71432330924E+03  0.71432330924E+03  0.00000000000E+00 0. -1.
         -2   -1    0    0    0  501 -0.00000000000E+00 -0.00000000000E+00 -0.48099225303E+02  0.48099225303E+02  0.00000000000E+00 0.  1.
         23    2    1    2    0    0 -0.12088565160E+03  0.86779938069E+02  0.34691418760E+03  0.38851499113E+03  0.91925765498E+02 0.  0.
          5    1    1    2  502    0  0.87651921943E+02 -0.10987023428E+03  0.17789128432E+03  0.22675341064E+03  0.41800000000E+01 0.  1.
         -5    1    1    2    0  502  0.33233729661E+02  0.23090296209E+02  0.14141861202E+03  0.14715413277E+03  0.41800000000E+01 0.  1.
        -11    1    3    3    0    0 -0.37870249741E+02  0.33002664341E+02  0.22977187581E+03  0.23519873848E+03  0.00000000000E+00 0. -1.
         11    1    3    3    0    0 -0.83015401862E+02  0.53777273728E+02  0.11714231178E+03  0.15331625265E+03  0.00000000000E+00 0.  1.
</event>
<event>
 7    1  0.6610867E-006  0.1348590E+03  0.7561462E-02  0.1220419E+00
          1   -1    0    0  501    0  0.00000000000E+00  0.00000000000E+00  0.11645112743E+03  0.11645112743E+03  0.00000000000E+00 0.  1.
         -1   -1    0    0    0  501 -0.00000000000E+00 -0.00000000000E+00 -0.22702331317E+03  0.22702331317E+03  0.00000000000E+00 0. -1.
         23    2    1    2    0    0  0.11228365072E+01  0.91342992359E+02 -0.13440984365E+03  0.18675729539E+03  0.92018901835E+02 0.  0.
          5    1    1    2  502    0  0.50292877758E+02 -0.83050631703E+02 -0.44881742195E+01  0.97285132920E+02  0.41800000000E+01 0. -1.
         -5    1    1    2    0  502 -0.51415714265E+02 -0.82923606563E+01  0.28325832138E+02  0.59432012291E+02  0.41800000000E+01 0. -1.
        -11    1    3    3    0    0  0.36892917455E+02  0.68627721618E+02 -0.50771773617E+02  0.92997981317E+02  0.00000000000E+00 0.  1.
         11    1    3    3    0    0 -0.35770080947E+02  0.22715270741E+02 -0.83638070035E+02  0.93759314071E+02  0.00000000000E+00 0. -1.
</event>
<event>
 7    1  0.6610867E-006  0.7358371E+02  0.7561462E-02  0.1348314E+00
         -3   -1    0    0    0  501 -0.00000000000E+00  0.00000000000E+00  0.15896843517E+03  0.15896843517E+03  0.00000000000E+00 0.  1.
          3   -1    0    0  501    0  0.00000000000E+00 -0.00000000000E+00 -0.58210220700E+03  0.58210220700E+03  0.00000000000E+00 0. -1.
         23    2    1    2    0    0  0.19481260854E+02 -0.40134680489E+02  0.13459269177E+03  0.17064277140E+03  0.94939194482E+02 0.  0.
          5    1    1    2  502    0  0.16389704285E+02  0.32217586227E+02 -0.50340653467E+03  0.50471992908E+03  0.41800000000E+01 0. -1.
         -5    1    1    2    0  502 -0.35870965138E+02  0.79170942617E+01 -0.54319928940E+02  0.65707941693E+02  0.41800000000E+01 0.  1.
        -11    1    3    3    0    0 -0.18092699901E+02  0.96935502482E+00  0.10694265067E+03  0.10846665833E+03  0.00000000000E+00 0.  1.
         11    1    3    3    0    0  0.37573960755E+02 -0.41104035514E+02  0.27650041109E+02  0.62176113063E+02  0.00000000000E+00 0. -1.
</event>
<event>
 7    1  0.6610867E-006  0.1217942E+03  0.7561462E-02  0.1240166E+00
         -2   -1    0    0    0  501 -0.00000000000E+00  0.00000000000E+00  0.83052544268E+03  0.83052544268E+03  0.00000000000E+00 0.  1.
          2   -1    0    0  501    0  0.00000000000E+00 -0.00000000000E+00 -0.22895160157E+02  0.22895160157E+02  0.00000000000E+00 0. -1.
         23    2    1    2    0    0  0.41833176913E+02 -0.74053696433E+02  0.49861316007E+03  0.50936646833E+03  0.60042909754E+02 0.  0.
          5    1    1    2  502    0  0.27874114729E+02 -0.12301904472E+02  0.12834435115E+03  0.13197745261E+03  0.41800000000E+01 0. -1.
         -5    1    1    2    0  502 -0.69707291642E+02  0.86355600905E+02  0.18067277130E+03  0.21207668189E+03  0.41800000000E+01 0. -1.
        -11    1    3    3    0    0  0.45994519618E+02 -0.24621822009E+02  0.20169680987E+03  0.20833466602E+03  0.00000000000E+00 0. -1.
         11    1    3    3    0    0 -0.41613427051E+01 -0.49431874424E+02  0.29691635021E+03  0.30103180231E+03  0.00000000000E+00 0.  1.
</event>
<event>
 7    1  0.6610867E-006  0.9096293E+02  0.7561462E-02  0.1300536E+00
         -2   -1    0    0    0  501 -0.00000000000E+00  0.00000000000E+00  0.47735956516E+03  0.47735956516E+03  0.00000000000E+00 0.  1.
          2   -1    0    0  501    0  0.00000000000E+00 -0.00000000000E+00 -0.24927505489E+02  0.24927505489E+02  0.00000000000E+00 0. -1.
         23    2    1    2    0    0 -0.22849164653E+01  0.81529908744E+01  0.19875283295E+03  0.21931838686E+03  0.92337284479E+02 0.  0.
          5    1    1    2  502    0 -0.53218342933E+02  0.11096083943E+02  0.18309504707E+03  0.19104079084E+03  0.41800000000E+01 0. -1.
         -5    1    1    2    0  502  0.55503259399E+02 -0.19249074817E+02  0.70584179646E+02  0.91927892946E+02  0.41800000000E+01 0. -1.
        -11    1    3    3    0    0  0.28145129857E+02  0.21362511982E+02  0.17496585497E+03  0.17849805506E+03  0.00000000000E+00 0.  1.
         11    1    3    3    0    0 -0.30430046323E+02 -0.13209521107E+02  0.23786977978E+02  0.40820331802E+02  0.00000000000E+00 0. -1.
</event>
<event>
 7    1  0.6610867E-006  0.1615986E+03  0.7561462E-02  0.1186904E+00
         -1   -1    0    0    0  501 -0.00000000000E+00  0.00000000000E+00  0.15642825911E+03  0.15642825911E+03  0.00000000000E+00 0.  1.
          1   -1    0    0  501    0  0.00000000000E+00 -0.00000000000E+00 -0.16804592246E+03  0.16804592246E+03  0.00000000000E+00 0. -1.
         23    2    1    2    0    0 -0.69520280288E+02  0.98055278182E+02  0.33482709723E+01  0.15034986441E+03  0.90254993545E+02 0.  0.
          5    1    1    2  502    0 -0.30925696115E+02  0.24716920876E+01 -0.31844061021E+01  0.31466184774E+02  0.41800000000E+01 0. -1.
         -5    1    1    2    0  502  0.10044597640E+03 -0.10052697027E+03 -0.11781528222E+02  0.14265813238E+03  0.41800000000E+01 0. -1.
        -11    1    3    3    0    0 -0.60013097858E+02  0.96227154312E+01  0.79021895189E+01  0.61291216059E+02  0.00000000000E+00 0.  1.
         11    1    3    3    0    0 -0.95071824296E+01  0.88432562751E+02 -0.45539185466E+01  0.89058648354E+02  0.00000000000E+00 0. -1.
</event>
<event>
 7    1  0.6610867E-006  0.1108040E+03  0.7561462E-02  0.1259088E+00
         -2   -1    0    0    0  501 -0.00000000000E+00  0.00000000000E+00  0.29886599049E+02  0.29886599049E+02  0.00000000000E+00 0.  1.
          2   -1    0    0  501    0  0.00000000000E+00 -0.00000000000E+00 -0.55735826983E+03  0.55735826983E+03  0.00000000000E+00 0. -1.
         23    2    1    2    0    0 -0.43074951222E+02 -0.25179548948E+02 -0.12438788770E+03  0.16225805627E+03  0.91465125113E+02 0.  0.
          5    1    1    2  502    0  0.53321716048E+02  0.69537136917E+02 -0.29106035908E+03  0.30399378915E+03  0.41800000000E+01 0.  1.
         -5    1    1    2    0  502 -0.10246764826E+02 -0.44357587968E+02 -0.11202342400E+03  0.12099302346E+03  0.41800000000E+01 0.  1.
        -11    1    3    3    0    0 -0.52683897899E+02  0.82986268712E+01 -0.11408567260E+03  0.12593649590E+03  0.00000000000E+00 0. -1.
         11    1    3    3    0    0  0.96089466768E+01 -0.33478175819E+02 -0.10302215097E+02  0.36321560379E+02  0.00000000000E+00 0.  1.
</event>
<event>
 7    1  0.6610867E-006  0.1113665E+03  0.7561462E-02  0.1258060E+00
         -1   -1    0    0    0  501 -0.00000000000E+00  0.00000000000E+00  0.25912359128E+03  0.25912359128E+03  0.00000000000E+00 0.  1.
          1   -1    0    0  501    0  0.00000000000E+00 -0.00000000000E+00 -0.84409510838E+02  0.84409510838E+02  0.00000000000E+00 0. -1.
         23    2    1    2    0    0 -0.10196260705E+02 -0.76244520421E+02  0.15461705528E+03  0.19532269559E+03  0.91254210874E+02 0.  0.
          5    1    1    2  502    0 -0.17218955750E+02  0.93708689752E+02  0.46522032667E+02  0.10611118177E+03  0.41800000000E+01 0. -1.
         -5    1    1    2    0  502  0.27415216456E+02 -0.17464169331E+02 -0.26425007508E+02  0.42099224762E+02  0.41800000000E+01 0. -1.
        -11    1    3    3    0    0 -0.17239345432E+02  0.76852275364E+00  0.97925887412E+02  0.99434727754E+02  0.00000000000E+00 0.  1.
         11    1    3    3    0    0  0.70430847271E+01 -0.77013043174E+02  0.56691167873E+02  0.95887967839E+02  0.00000000000E+00 0. -1.
</event>
<event>
 7    1  0.6610867E-006  0.1010079E+03  0.7561462E-02  0.1278191E+00
          2   -1    0    0  501    0  0.00000000000E+00  0.00000000000E+00  0.87750857759E+03  0.87750857759E+03  0.00000000000E+00 0. -1.
         -2   -1    0    0    0  501 -0.00000000000E+00 -0.00000000000E+00 -0.16760632624E+02  0.16760632624E+02  0.00000000000E+00 0.  1.
         23    2    1    2    0    0 -0.31461151481E+01 -0.57525339340E+00  0.16495221886E+03  0.18731015985E+03  0.88688401282E+02 0.  0.
          5    1    1    2  502    0 -0.11461067771E+02 -0.54673232163E+02  0.19471285494E+03  0.20261067758E+03  0.41800000000E+01 0.  1.
         -5    1    1    2    0  502  0.14607182919E+02  0.55248485556E+02  0.50108287117E+03  0.50434837278E+03  0.41800000000E+01 0.  1.
        -11    1    3    3    0    0  0.34784993705E+02 -0.25657988665E+02  0.77320623984E+02  0.88582205113E+02  0.00000000000E+00 0. -1.
         11    1    3    3    0    0 -0.37931108854E+02  0.25082735271E+02  0.87631594872E+02  0.98727954741E+02  0.00000000000E+00 0.  1.
</event>
<event>
 7    1  0.6610867E-006  0.9437925E+02  0.7561462E-02  0.1292580E+00
          1   -1    0    0  501    0  0.00000000000E+00  0.00000000000E+00  0.92590109879E+02  0.92590109879E+02  0.00000000000E+00 0. -1.
         -1   -1    0    0    0  501 -0.00000000000E+00 -0.00000000000E+00 -0.17482688982E+03  0.17482688982E+03  0.00000000000E+00 0.  1.
         23    2    1    2    0    0  0.26784684330E+02  0.45869026042E+02 -0.78029976165E+02  0.13145489291E+03  0.91489479310E+02 0.  0.
          5    1    1    2  502    0  0.24937644886E+02  0.32728570901E+02 -0.58223486008E+01  0.41766225935E+02  0.41800000000E+01 0. -1.
         -5    1    1    2    0  502 -0.51722329216E+02 -0.78597596942E+02  0.16155448262E+01  0.94195880853E+02  0.41800000000E+01 0. -1.
        -11    1    3    3    0    0  0.20477753714E+02  0.32134077363E+02  0.12167584585E+02  0.39999842997E+02  0.00000000000E+00 0. -1.
         11    1    3    3    0    0  0.63069306161E+01  0.13734948678E+02 -0.90197560750E+02  0.91455049911E+02  0.00000000000E+00 0.  1.
</event>
<event>
 7    1  0.6610867E-006  0.1728815E+03  0.7561462E-02  0.1174876E+00
         -1   -1    0    0    0  501 -0.00000000000E+00  0.00000000000E+00  0.17280867692E+03  0.17280867692E+03  0.00000000000E+00 0. -1.
          1   -1    0    0  501    0  0.00000000000E+00 -0.00000000000E+00 -0.19535064118E+03  0.19535064118E+03  0.00000000000E+00 0.  1.
         23    2    1    2    0    0  0.14407837062E+03 -0.12241641276E+02  0.28985299482E+02  0.17014324480E+03  0.84853647554E+02 0.  0.
          5    1    1    2  502    0 -0.90549214845E+02 -0.49736811588E+02 -0.52606609234E+02  0.11600792417E+03  0.41800000000E+01 0. -1.
         -5    1    1    2    0  502 -0.53529155773E+02  0.61978452864E+02  0.10793454862E+01  0.82008149131E+02  0.41800000000E+01 0. -1.
        -11    1    3    3    0    0  0.97975280850E+01 -0.23653898543E+02  0.24297459647E+02  0.35296813144E+02  0.00000000000E+00 0.  1.
         11    1    3    3    0    0  0.13428084253E+03  0.11412257267E+02  0.46878398347E+01  0.13484643165E+03  0.00000000000E+00 0. -1.
</event>
<event>
 7    1  0.6610867E-006  0.8491309E+02  0.7561462E-02  0.1315660E+00
          1   -1    0    0  501    0  0.00000000000E+00  0.00000000000E+00  0.38355322157E+03  0.38355322157E+03  0.00000000000E+00 0. -1.
         -1   -1    0    0    0  501 -0.00000000000E+00 -0.00000000000E+00 -0.39959869614E+02  0.39959869614E+02  0.00000000000E+00 0.  1.
         23    2    1    2    0    0 -0.28518717907E+02 -0.92911921166E+01  0.61653534269E+02  0.11361185774E+03  0.90591679579E+02 0.  0.
          5    1    1    2  502    0  0.74174781971E+02 -0.81255073720E+01  0.12671034310E+03  0.14710848242E+03  0.41800000000E+01 0. -1.
         -5    1    1    2    0  502 -0.45656064064E+02  0.17416699489E+02  0.15522947459E+03  0.16279275103E+03  0.41800000000E+01 0. -1.
        -11    1    3    3    0    0 -0.14014173373E+02 -0.22448542148E+02 -0.17726313665E+02  0.31852100340E+02  0.00000000000E+00 0.  1.
         11    1    3    3    0    0 -0.14504544534E+02  0.13157350032E+02  0.79379847933E+02  0.81759757399E+02  0.00000000000E+00 0. -1.
</event>
<event>
 7    1  0.6610867E-006  0.1225245E+03  0.7561462E-02  0.1238990E+00
         -1   -1    0    0    0  501 -0.00000000000E+00  0.00000000000E+00  0.26398690272E+02  0.26398690272E+02  0.00000000000E+00 0.  1.
          1   -1    0    0  501    0  0.00000000000E+00 -0.00000000000E+00 -0.68561627085E+03  0.68561627085E+03  0.00000000000E+00 0. -1.
         23    2    1    2    0    0 -0.27283727103E+02 -0.70809441162E+02 -0.23853133588E+03  0.26661273982E+03  0.91797473356E+02 0.  0.
          5    1    1    2  502    0  0.36891550410E+02 -0.28271701488E+02 -0.13193447595E+03  0.13994446734E+03  0.41800000000E+01 0. -1.
         -5    1    1    2    0  502 -0.96078233070E+01  0.99081142650E+02 -0.28875176875E+03  0.30545775396E+03  0.41800000000E+01 0. -1.
        -11    1    3    3    0    0  0.14969647479E+02 -0.48926429444E+02 -0.19673383391E+03  0.20327834919E+03  0.00000000000E+00 0. -1.
         11    1    3    3    0    0 -0.42253374582E+02 -0.21883011718E+02 -0.41797501966E+02  0.63334390626E+02  0.00000000000E+00 0.  1.
</event>
<event>
 7    1  0.6610867E-006  0.1037365E+03  0.7561462E-02  0.1272629E+00
         -1   -1    0    0    0  501 -0.00000000000E+00  0.00000000000E+00  0.80540664060E+02  0.80540664060E+02  0.00000000000E+00 0.  1.
          1   -1    0    0  501    0  0.00000000000E+00 -0.00000000000E+00 -0.39085416318E+03  0.39085416318E+03  0.00000000000E+00 0. -1.
         23    2    1    2    0    0  0.30838409257E+02 -0.69920476605E+02  0.97567158459E+01  0.11935462054E+03  0.91161677287E+02 0.  0.
          5    1    1    2  502    0 -0.21881509116E+01  0.58412663433E+02 -0.41683295853E+02  0.71915205672E+02  0.41800000000E+01 0.  1.
         -5    1    1    2    0  502 -0.28650258345E+02  0.11507813173E+02 -0.27838691911E+03  0.28012500103E+03  0.41800000000E+01 0.  1.
        -11    1    3    3    0    0  0.48154559678E+02 -0.26252378812E+01  0.12477186756E+02  0.49813990816E+02  0.00000000000E+00 0.  1.
         11    1    3    3    0    0 -0.17316150421E+02 -0.67295238724E+02 -0.27204709102E+01  0.69540629723E+02  0.00000000000E+00 0. -1.
</event>
<event>
 7    1  0.6610867E-006  0.8191683E+02  0.7561462E-02  0.1323698E+00
         -1   -1    0    0    0  501 -0.00000000000E+00  0.00000000000E+00  0.70269113342E+02  0.70269113342E+02  0.00000000000E+00 0.  1.
          1   -1    0    0  501    0  0.00000000000E+00 -0.00000000000E+00 -0.17240496110E+03  0.17240496110E+03  0.00000000000E+00 0. -1.
         23    2    1    2    0    0  0.83860541431E+01 -0.33951699002E+01 -0.28542083315E+02  0.97259756870E+02  0.92536245352E+02 0.  0.
          5    1    1    2  502    0  0.30657057219E+02 -0.14870705474E+02 -0.92122059590E+02  0.98310423159E+02  0.41800000000E+01 0. -1.
         -5    1    1    2    0  502 -0.39043111362E+02  0.18265875374E+02  0.18528295146E+02  0.47103894415E+02  0.41800000000E+01 0. -1.
        -11    1    3    3    0    0 -0.11550758603E+02  0.38288013556E+02 -0.31575054187E+02  0.50954647024E+02  0.00000000000E+00 0. -1.
         11    1    3    3    0    0  0.19936812747E+02 -0.41683183457E+02  0.30329708722E+01  0.46305109846E+02  0.00000000000E+00 0.  1.
</event>
<event>
 7    1  0.6610867E-006  0.1946733E+03  0.7561462E-02  0.1154313E+00
         -1   -1    0    0    0  501 -0.00000000000E+00  0.00000000000E+00  0.22626195791E+02  0.22626195791E+02  0.00000000000E+00 0.  1.
          1   -1    0    0  501    0  0.00000000000E+00 -0.00000000000E+00 -0.21962617207E+04  0.21962617207E+04  0.00000000000E+00 0. -1.
         23    2    1    2    0    0  0.18123668689E+03 -0.60165264749E+02 -0.85548962334E+03  0.88112036313E+03  0.89688365584E+02 0.  0.
          5    1    1    2  502    0 -0.18046826287E+02  0.15964815524E+02 -0.30644840475E+02  0.39206401537E+02  0.41800000000E+01 0. -1.
         -5    1    1    2    0  502 -0.16318986060E+03  0.44200449225E+02 -0.12875010611E+04  0.12985611518E+04  0.41800000000E+01 0. -1.
        -11    1    3    3    0    0  0.93453226316E+01 -0.15617663510E+02 -0.20306232280E+02  0.27268838223E+02  0.00000000000E+00 0.  1.
         11    1    3    3    0    0  0.17189136425E+03 -0.44547601239E+02 -0.83518339106E+03  0.85385152490E+03  0.00000000000E+00 0. -1.
</event>
<event>
 7    1  0.6610867E-006  0.8136119E+02  0.7561462E-02  0.1325232E+00
          2   -1    0    0  501    0  0.00000000000E+00  0.00000000000E+00  0.39575206585E+03  0.39575206585E+03  0.00000000000E+00 0. -1.
         -2   -1    0    0    0  501 -0.00000000000E+00 -0.00000000000E+00 -0.52942118912E+02  0.52942118912E+02  0.00000000000E+00 0.  1.
         23    2    1    2    0    0  0.28171392838E+02 -0.58663195572E+02  0.52474851912E+02  0.12593175651E+03  0.94181735630E+02 0.  0.
          5    1    1    2  502    0  0.12465075221E+02 -0.53027805249E+00  0.22564529236E+03  0.22602860363E+03  0.41800000000E+01 0. -1.
         -5    1    1    2    0  502 -0.40636468059E+02  0.59193473624E+02  0.64689802663E+02  0.96733824614E+02  0.41800000000E+01 0. -1.
        -11    1    3    3    0    0  0.35399121097E+02 -0.25311857935E+02 -0.18416642959E+02  0.47254213192E+02  0.00000000000E+00 0.  1.
         11    1    3    3    0    0 -0.72277282590E+01 -0.33351337637E+02  0.70891494872E+02  0.78677543321E+02  0.00000000000E+00 0. -1.
</event>
<event>
 7    1  0.6610867E-006  0.9277343E+02  0.7561462E-02  0.1296271E+00
         -1   -1    0    0    0  501 -0.00000000000E+00  0.00000000000E+00  0.30725386460E+03  0.30725386460E+03  0.00000000000E+00 0.  1.
          1   -1    0    0  501    0  0.00000000000E+00 -0.00000000000E+00 -0.63056010609E+02  0.63056010609E+02  0.00000000000E+00 0. -1.
         23    2    1    2    0    0 -0.76946287774E+02 -0.36036314781E+02  0.13461023306E+03  0.18355621343E+03  0.91398148016E+02 0.  0.
          5    1    1    2  502    0  0.49190222545E+02  0.79348225177E+01 -0.17987878065E+02  0.53138268317E+02  0.41800000000E+01 0. -1.
         -5    1    1    2    0  502  0.27756065229E+02  0.28101492264E+02  0.12757549900E+03  0.13361539346E+03  0.41800000000E+01 0. -1.
        -11    1    3    3    0    0 -0.63539959239E+02 -0.70991288638E+01  0.23756720613E+02  0.68206347395E+02  0.00000000000E+00 0. -1.
         11    1    3    3    0    0 -0.13406328535E+02 -0.28937185918E+02  0.11085351244E+03  0.11534986604E+03  0.00000000000E+00 0.  1.
</event>
<event>
 7    1  0.6610867E-006  0.1223961E+03  0.7561462E-02  0.1239196E+00
          1   -1    0    0  501    0  0.00000000000E+00  0.00000000000E+00  0.28628079386E+02  0.28628079386E+02  0.00000000000E+00 0. -1.
         -1   -1    0    0    0  501 -0.00000000000E+00 -0.00000000000E+00 -0.87623056398E+03  0.87623056398E+03  0.00000000000E+00 0.  1.
         23    2    1    2    0    0 -0.28465233167E+02  0.94004194459E+02 -0.56418327076E+03  0.57986318266E+03  0.91057616474E+02 0.  0.
          5    1    1    2  502    0 -0.28015830396E+01  0.68194858057E+01 -0.16919570274E+03  0.16940782886E+03  0.41800000000E+01 0. -1.
         -5    1    1    2    0  502  0.31266816206E+02 -0.10082368026E+03 -0.11422351109E+03  0.15558763185E+03  0.41800000000E+01 0. -1.
        -11    1    3    3    0    0  0.18611559975E+02  0.79150524929E+02 -0.40948921214E+03  0.41748366510E+03  0.00000000000E+00 0.  1.
         11    1    3    3    0    0 -0.47076793141E+02  0.14853669530E+02 -0.15469405862E+03  0.16237951756E+03  0.00000000000E+00 0. -1.
</event>
<event>
 7    1  0.6610867E-006  0.1347807E+03  0.7561462E-02  0.1220530E+00
          2   -1    0    0  501    0  0.00000000000E+00  0.00000000000E+00  0.22678365947E+04  0.22678365947E+04  0.00000000000E+00 0. -1.
         -2   -1    0    0    0  501 -0.00000000000E+00 -0.00000000000E+00 -0.14393033142E+02  0.14393033142E+02  0.00000000000E+00 0.  1.
         23    2    1    2    0    0 -0.89324756172E+02 -0.67371681919E+02  0.51723100846E+03  0.53692130580E+03  0.90767378092E+02 0.  0.
          5    1    1    2  502    0  0.90671921588E+02  0.27792213816E+02  0.16136251131E+04  0.16164149476E+04  0.41800000000E+01 0. -1.
         -5    1    1    2    0  502 -0.13471654159E+01  0.39579468103E+02  0.12258743994E+03  0.12889337447E+03  0.41800000000E+01 0.  1.
        -11    1    3    3    0    0 -0.37434054277E+02 -0.73575510223E+02  0.21691639997E+03  0.23209349129E+03  0.00000000000E+00 0.  1.
         11    1    3    3    0    0 -0.51890701895E+02  0.62038283032E+01  0.30031460849E+03  0.30482781451E+03  0.00000000000E+00 0. -1.
</event>
<event>
 7    1  0.6610867E-006  0.1169842E+03  0.7561462E-02  0.1248157E+00
          1   -1    0    0  501    0  0.00000000000E+00  0.00000000000E+00  0.69614720153E+02  0.69614720153E+02  0.00000000000E+00 0. -1.
         -1   -1    0    0    0  501 -0.00000000000E+00 -0.00000000000E+00 -0.34790044722E+03  0.34790044722E+03  0.00000000000E+00 0.  1.
         23    2    1    2    0    0 -0.26261437361E+02 -0.90820616766E+01 -0.27147016194E+03  0.29635834620E+03  0.11558578462E+03 0.  0.
          5    1    1    2  502    0  0.15388787245E+02 -0.52277884663E+02  0.11941499280E+02  0.55945185698E+02  0.41800000000E+01 0. -1.
         -5    1    1    2    0  502  0.10872650116E+02  0.61359946339E+02 -0.18757064409E+02  0.65211635469E+02  0.41800000000E+01 0.  1.
        -11    1    3    3    0    0  0.95641953671E+01  0.48284333316E+02 -0.88182569191E+02  0.10099017866E+03  0.00000000000E+00 0.  1.
         11    1    3    3    0    0 -0.35825632729E+02 -0.57366394993E+02 -0.18328759275E+03  0.19536816754E+03  0.00000000000E+00 0. -1.
</event>
<event>
 7    1  0.6610867E-006  0.9321908E+02  0.7561462E-02  0.1295238E+00
          2   -1    0    0  501    0  0.00000000000E+00  0.00000000000E+00  0.49081120023E+03  0.49081120023E+03  0.00000000000E+00 0.  1.
         -2   -1    0    0    0  501 -0.00000000000E+00 -0.00000000000E+00 -0.39198295721E+02  0.39198295721E+02  0.00000000000E+00 0. -1.
         23    2    1    2    0    0  0.75527170823E+01 -0.13535123015E+02  0.41234526048E+02  0.10071008556E+03  0.90564850273E+02 0.  0.
          5    1    1    2  502    0  0.57812118776E+02 -0.29702663692E+01  0.17148397108E+03  0.18103946613E+03  0.41800000000E+01 0. -1.
         -5    1    1    2    0  502 -0.65364835858E+02  0.16505389384E+02  0.23889440739E+03  0.24825994426E+03  0.41800000000E+01 0. -1.
        -11    1    3    3    0    0 -0.63328353905E+01 -0.34846462649E+02 -0.15404109213E+02  0.38622109522E+02  0.00000000000E+00 0. -1.
         11    1    3    3    0    0  0.13885552473E+02  0.21311339634E+02  0.56638635261E+02  0.62087976040E+02  0.00000000000E+00 0.  1.
</event>
<event>
 7    1  0.6610867E-006  0.9747905E+02  0.7561462E-02  0.1285688E+00
         -2   -1    0    0    0  501 -0.00000000000E+00  0.00000000000E+00  0.16951894647E+03  0.16951894647E+03  0.00000000000E+00 0.  1.
          2   -1    0    0  501    0  0.00000000000E+00 -0.00000000000E+00 -0.79567053684E+02  0.79567053684E+02  0.00000000000E+00 0. -1.
         23    2    1    2    0    0 -0.11199381336E+02 -0.17912948815E+02  0.77677178226E+02  0.12163051910E+03  0.91180805447E+02 0.  0.
          5    1    1    2  502    0  0.50849364823E+02 -0.17969986159E+02  0.39808390615E+02  0.67162181834E+02  0.41800000000E+01 0. -1.
         -5    1    1    2    0  502 -0.39649983487E+02  0.35882934973E+02 -0.27533676059E+02  0.60293299215E+02  0.41800000000E+01 0. -1.
        -11    1    3    3    0    0 -0.26100396332E+02 -0.47443318957E+02  0.68474014479E+02  0.87297135469E+02  0.00000000000E+00 0.  1.
         11    1    3    3    0    0  0.14901014997E+02  0.29530370142E+02  0.92031637476E+01  0.34333383632E+02  0.00000000000E+00 0. -1.
</event>
<event>
 7    1  0.6610867E-006  0.1101027E+03  0.7561462E-02  0.1260380E+00
          2   -1    0    0  501    0  0.00000000000E+00  0.00000000000E+00  0.57040235670E+02  0.57040235670E+02  0.00000000000E+00 0. -1.
         -2   -1    0    0    0  501 -0.00000000000E+00 -0.00000000000E+00 -0.25428747572E+03  0.25428747572E+03  0.00000000000E+00 0.  1.
         23    2    1    2    0    0 -0.13040294007E+02  0.41876904418E+02 -0.12148230149E+03  0.15862690604E+03  0.92091375017E+02 0.  0.
          5    1    1    2  502    0 -0.38435746417E+02  0.16734052734E+02  0.23933942445E+01  0.42196396286E+02  0.41800000000E+01 0.  1.
         -5    1    1    2    0  502  0.51476040424E+02 -0.58610957152E+02 -0.78158332803E+02  0.11050440906E+03  0.41800000000E+01 0.  1.
        -11    1    3    3    0    0  0.31553860725E+02  0.45329952684E+02 -0.82585198327E+02  0.99351727311E+02  0.00000000000E+00 0. -1.
         11    1    3    3    0    0 -0.44594154732E+02 -0.34530482658E+01 -0.38897103161E+02  0.59275178725E+02  0.00000000000E+00 0.  1.
</event>
<event>
 7    1  0.6610867E-006  0.2193887E+03  0.7561462E-02  0.1134340E+00
          2   -1    0    0  501    0  0.00000000000E+00  0.00000000000E+00  0.10483980787E+04  0.10483980787E+04  0.00000000000E+00 0.  1.
         -2   -1    0    0    0  501 -0.00000000000E+00 -0.00000000000E+00 -0.61667092554E+02  0.61667092554E+02  0.00000000000E+00 0. -1.
         23    2    1    2    0    0 -0.14770527244E+03 -0.12965954353E+03  0.22284501502E+03  0.31144232763E+03  0.93316547227E+02 0.  0.
          5    1    1    2  502    0  0.36754343684E+02  0.10397663848E+03  0.26846501226E+03  0.29026360146E+03  0.41800000000E+01 0.  1.
         -5    1    1    2    0  502  0.11095092875E+03  0.25682905055E+02  0.49542095884E+03  0.50835924213E+03  0.41800000000E+01 0.  1.
        -11    1    3    3    0    0 -0.65146003705E+02 -0.55337891373E+01  0.93406836765E+02  0.11401518221E+03  0.00000000000E+00 0.  1.
         11    1    3    3    0    0 -0.82559268733E+02 -0.12412575439E+03  0.12943817826E+03  0.19742714542E+03  0.00000000000E+00 0. -1.
</event>
<event>
 7    1  0.6610867E-006  0.1067771E+03  0.7561462E-02  0.1266657E+00
         -4   -1    0    0    0  501 -0.00000000000E+00  0.00000000000E+00  0.18053788515E+03  0.18053788515E+03  0.00000000000E+00 0.  1.
          4   -1    0    0  501    0  0.00000000000E+00 -0.00000000000E+00 -0.88149769538E+02  0.88149769538E+02  0.00000000000E+00 0. -1.
         23    2    1    2    0    0 -0.52366933448E+02  0.82914135753E+01  0.89419823937E+02  0.13279582294E+03  0.82630396457E+02 0.  0.
          5    1    1    2  502    0  0.31777069098E+02  0.57613509257E+02  0.86147202098E+01  0.66488979340E+02  0.41800000000E+01 0.  1.
         -5    1    1    2    0  502  0.20589864350E+02 -0.65904922833E+02 -0.56464285355E+01  0.69402852411E+02  0.41800000000E+01 0.  1.
        -11    1    3    3    0    0 -0.18745364951E+02 -0.24927166104E+02 -0.52007848068E+00  0.31193313366E+02  0.00000000000E+00 0. -1.
         11    1    3    3    0    0 -0.33621568496E+02  0.33218579679E+02  0.89939902418E+02  0.10160250957E+03  0.00000000000E+00 0.  1.
</event>
<event>
 7    1  0.6610867E-006  0.1100438E+03  0.7561462E-02  0.1260489E+00
         -1   -1    0    0    0  501 -0.00000000000E+00  0.00000000000E+00  0.18069820938E+03  0.18069820938E+03  0.00000000000E+00 0.  1.
          1   -1    0    0  501    0  0.00000000000E+00 -0.00000000000E+00 -0.88464941119E+02  0.88464941119E+02  0.00000000000E+00 0. -1.
         23    2    1    2    0    0 -0.63208186467E+02 -0.67422410289E+01  0.34959055490E+02  0.11760192366E+03  0.92559949418E+02 0.  0.
          5    1    1    2  502    0  0.19419597467E+01 -0.47371230645E+02  0.50559118091E+02  0.69437032789E+02  0.41800000000E+01 0.  1.
         -5    1    1    2    0  502  0.61266226721E+02  0.54113471673E+02  0.67150946851E+01  0.82124194059E+02  0.41800000000E+01 0.  1.
        -11    1    3    3    0    0 -0.68935640705E+02 -0.23580964143E+02  0.54643736697E+02  0.91072072500E+02  0.00000000000E+00 0.  1.
         11    1    3    3    0    0  0.57274542375E+01  0.16838723114E+02 -0.19684681207E+02  0.26529851156E+02  0.00000000000E+00 0. -1.
</event>
<event>
 7    1  0.6610867E-006  0.9387979E+02  0.7561462E-02  0.1293719E+00
          1   -1    0    0  501    0  0.00000000000E+00  0.00000000000E+00  0.56863753996E+03  0.56863753996E+03  0.00000000000E+00 0. -1.
         -1   -1    0    0    0  501 -0.00000000000E+00 -0.00000000000E+00 -0.28027321602E+02  0.28027321602E+02  0.00000000000E+00 0.  1.
         23    2    1    2    0    0  0.20923740283E+02  0.26262076980E+02  0.11839003872E+03  0.15502769091E+03  0.94286181847E+02 0.  0.
          5    1    1    2  502    0 -0.19436053157E+02  0.47355617563E+02  0.23207277078E+03  0.23768794251E+03  0.41800000000E+01 0.  1.
         -5    1    1    2    0  502 -0.14876871258E+01 -0.73617694543E+02  0.19014740887E+03  0.20394922814E+03  0.41800000000E+01 0.  1.
        -11    1    3    3    0    0 -0.10912485681E+02  0.28714715695E+02  0.11919230418E+03  0.12308705300E+03  0.00000000000E+00 0. -1.
         11    1    3    3    0    0  0.31836225963E+02 -0.24526387149E+01 -0.80226546189E+00  0.31940637910E+02  0.00000000000E+00 0.  1.
</event>
<event>
 7    1  0.6610867E-006  0.1292203E+03  0.7561462E-02  0.1228617E+00
         -1   -1    0    0    0  501 -0.00000000000E+00  0.00000000000E+00  0.39670622365E+02  0.39670622365E+02  0.00000000000E+00 0.  1.
          1   -1    0    0  501    0  0.00000000000E+00 -0.00000000000E+00 -0.49896209478E+03  0.49896209478E+03  0.00000000000E+00 0. -1.
         23    2    1    2    0    0  0.69766886723E+02  0.50211278918E+02 -0.16802350696E+03  0.21019331406E+03  0.92524263685E+02 0.  0.
          5    1    1    2  502    0 -0.74977524151E+02 -0.84663298807E+02 -0.24893806870E+03  0.27345408708E+03  0.41800000000E+01 0. -1.
         -5    1    1    2    0  502  0.52106374282E+01  0.34452019888E+02 -0.42329896754E+02  0.54985316003E+02  0.41800000000E+01 0. -1.
        -11    1    3    3    0    0 -0.11963765271E+02  0.19482452544E+02 -0.90778060868E+02  0.93612787436E+02  0.00000000000E+00 0. -1.
         11    1    3    3    0    0  0.81730651994E+02  0.30728826374E+02 -0.77245446091E+02  0.11658052662E+03  0.00000000000E+00 0.  1.
</event>
<event>
 7    1  0.6610867E-006  0.9582468E+02  0.7561462E-02  0.1289329E+00
          1   -1    0    0  501    0  0.00000000000E+00  0.00000000000E+00  0.29633658063E+03  0.29633658063E+03  0.00000000000E+00 0. -1.
         -1   -1    0    0    0  501 -0.00000000000E+00 -0.00000000000E+00 -0.64222968192E+02  0.64222968192E+02  0.00000000000E+00 0.  1.
         23    2    1    2    0    0  0.43057877650E+02 -0.71549609847E+02  0.95083983935E+02  0.15709436258E+03  0.93082475560E+02 0.  0.
          5    1    1    2  502    0 -0.83657521443E+01 -0.99282210497E+00 -0.22709470918E+02  0.24579747233E+02  0.41800000000E+01 0.  1.
         -5    1    1    2    0  502 -0.34692125506E+02  0.72542431952E+02  0.15973909942E+03  0.17888543901E+03  0.41800000000E+01 0.  1.
        -11    1    3    3    0    0  0.54161807003E+02 -0.37411007203E+02  0.10115332186E+03  0.12068587043E+03  0.00000000000E+00 0.  1.
         11    1    3    3    0    0 -0.11103929353E+02 -0.34138602644E+02 -0.60693379292E+01  0.36408492148E+02  0.00000000000E+00 0. -1.
</event>
<event>
 7    1  0.6610867E-006  0.1739731E+03  0.7561462E-02  0.1173767E+00
         -1   -1    0    0    0  501 -0.00000000000E+00  0.00000000000E+00  0.89834525823E+02  0.89834525823E+02  0.00000000000E+00 0.  1.
          1   -1    0    0  501    0  0.00000000000E+00 -0.00000000000E+00 -0.36524325813E+03  0.36524325813E+03  0.00000000000E+00 0. -1.
         23    2    1    2    0    0 -0.13983868595E+03  0.11441943190E+01 -0.88824154723E+02  0.19046893364E+03  0.93981471319E+02 0.  0.
          5    1    1    2  502    0 -0.20540516121E+02  0.13844124809E+02 -0.15148427805E+02  0.29334618784E+02  0.41800000000E+01 0. -1.
         -5    1    1    2    0  502  0.16037920208E+03 -0.14988319128E+02 -0.17143614978E+03  0.23527423153E+03  0.41800000000E+01 0. -1.
        -11    1    3    3    0    0 -0.11150536991E+03  0.35631239909E+02 -0.86908023815E+02  0.14579450394E+03  0.00000000000E+00 0. -1.
         11    1    3    3    0    0 -0.28333316043E+02 -0.34487045590E+02 -0.19161309081E+01  0.44674429701E+02  0.00000000000E+00 0.  1.
</event>
<event>
 7    1  0.6610867E-006  0.1472916E+03  0.7561462E-02  0.1203841E+00
         -2   -1    0    0    0  501 -0.00000000000E+00  0.00000000000E+00  0.30533879182E+02  0.30533879182E+02  0.00000000000E+00 0.  1.
          2   -1    0    0  501    0  0.00000000000E+00 -0.00000000000E+00 -0.85700061410E+03  0.85700061410E+03  0.00000000000E+00 0. -1.
         23    2    1    2    0    0 -0.11829544490E+03 -0.15454569965E+02 -0.37951542800E+03  0.40832072888E+03  0.91984789624E+02 0.  0.
          5    1    1    2  502    0  0.77779233327E+02 -0.47725998343E+02 -0.17962273577E+03  0.20151719445E+03  0.41800000000E+01 0.  1.
         -5    1    1    2    0  502  0.40516211573E+02  0.63180568307E+02 -0.26732857114E+03  0.27769656995E+03  0.41800000000E+01 0.  1.
        -11    1    3    3    0    0 -0.69527372058E+02  0.14230574596E+02 -0.97553992781E+02  0.12063725057E+03  0.00000000000E+00 0.  1.
         11    1    3    3    0    0 -0.48768072841E+02 -0.29685144560E+02 -0.28196143522E+03  0.28768347830E+03  0.00000000000E+00 0. -1.
</event>
<event>
 7    1  0.6610867E-006  0.6458790E+02  0.7561462E-02  0.1379528E+00
          2   -1    0    0  501    0  0.00000000000E+00  0.00000000000E+00  0.57939745392E+03  0.57939745392E+03  0.00000000000E+00 0. -1.
         -2   -1    0    0    0  501 -0.00000000000E+00 -0.00000000000E+00 -0.31721513137E+02  0.31721513137E+02  0.00000000000E+00 0.  1.
         23    2    1    2    0    0  0.22055702090E+02  0.39954740433E+02  0.81299958561E+02  0.12610664982E+03  0.84913889252E+02 0.  0.
          5    1    1    2  502    0 -0.21536633012E+02 -0.31689142694E+01  0.57489973981E+01  0.22899605896E+02  0.41800000000E+01 0. -1.
         -5    1    1    2    0  502 -0.51906907871E+00 -0.36785826164E+02  0.46062698483E+03  0.46211271135E+03  0.41800000000E+01 0. -1.
        -11    1    3    3    0    0 -0.16856560144E+02  0.20308580914E+02  0.78053969020E+02  0.82395413455E+02  0.00000000000E+00 0. -1.
         11    1    3    3    0    0  0.38912262234E+02  0.19646159519E+02  0.32459895410E+01  0.43711236360E+02  0.00000000000E+00 0.  1.
</event>
<event>
 7    1  0.6610867E-006  0.2426638E+03  0.7561462E-02  0.1118031E+00
         -1   -1    0    0    0  501 -0.00000000000E+00  0.00000000000E+00  0.10930393818E+03  0.10930393818E+03  0.00000000000E+00 0.  1.
          1   -1    0    0  501    0  0.00000000000E+00 -0.00000000000E+00 -0.62503231524E+03  0.62503231524E+03  0.00000000000E+00 0. -1.
         23    2    1    2    0    0 -0.13226244160E+03  0.18253999115E+03 -0.13334804023E+03  0.27315487848E+03  0.77573745445E+02 0.  0.
          5    1    1    2  502    0  0.66976203455E+01 -0.10927206017E+03 -0.19861357418E+03  0.22682606883E+03  0.41800000000E+01 0.  1.
         -5    1    1    2    0  502  0.12556482125E+03 -0.73267930979E+02 -0.18376676265E+03  0.23435530611E+03  0.41800000000E+01 0.  1.
        -11    1    3    3    0    0 -0.82486523410E+02  0.14900884118E+03 -0.12770022844E+03  0.21287322433E+03  0.00000000000E+00 0. -1.
         11    1    3    3    0    0 -0.49775918188E+02  0.33531149970E+02 -0.56478117891E+01  0.60281654156E+02  0.00000000000E+00 0.  1.
</event>
<event>
 7    1  0.6610867E-006  0.1231699E+03  0.7561462E-02  0.1237957E+00
          1   -1    0    0  501    0  0.00000000000E+00  0.00000000000E+00  0.33246310155E+02  0.33246310155E+02  0.00000000000E+00 0. -1.
         -1   -1    0    0    0  501 -0.00000000000E+00 -0.00000000000E+00 -0.56017633431E+03  0.56017633431E+03  0.00000000000E+00 0.  1.
         23    2    1    2    0    0  0.62114741395E+02 -0.54491678481E+02 -0.27085195484E+03  0.29668914879E+03  0.88521666538E+02 0.  0.
          5    1    1    2  502    0  0.32380907230E+02  0.41583486583E+02 -0.11265268427E+03  0.12444199123E+03  0.41800000000E+01 0.  1.
         -5    1    1    2    0  502 -0.94495648625E+02  0.12908191898E+02 -0.14342538506E+03  0.17229150445E+03  0.41800000000E+01 0.  1.
        -11    1    3    3    0    0  0.94939953195E+01 -0.43142687268E+02 -0.21353811177E+03  0.21805951617E+03  0.00000000000E+00 0.  1.
         11    1    3    3    0    0  0.52620746076E+02 -0.11348991213E+02 -0.57313843067E+02  0.78629632622E+02  0.00000000000E+00 0. -1.
</event>
<event>
 7    1  0.6610867E-006  0.1023593E+03  0.7561462E-02  0.1275412E+00
         -1   -1    0    0    0  501 -0.00000000000E+00  0.00000000000E+00  0.51430403853E+02  0.51430403853E+02  0.00000000000E+00 0.  1.
          1   -1    0    0  501    0  0.00000000000E+00 -0.00000000000E+00 -0.64036147746E+03  0.64036147746E+03  0.00000000000E+00 0. -1.
         23    2    1    2    0    0  0.96502777029E+01 -0.27991542383E+02 -0.37206668277E+01  0.93377099875E+02  0.88480422211E+02 0.  0.
          5    1    1    2  502    0 -0.16342652287E+02  0.68296260882E+02 -0.48560996557E+03  0.49067909329E+03  0.41800000000E+01 0. -1.
         -5    1    1    2    0  502  0.66923745840E+01 -0.40304718499E+02 -0.99600441210E+02  0.10773568814E+03  0.41800000000E+01 0.  1.
        -11    1    3    3    0    0  0.36236371287E+02 -0.47916999740E+02 -0.20434410192E+01  0.60110640650E+02  0.00000000000E+00 0.  1.
         11    1    3    3    0    0 -0.26586093584E+02  0.19925457357E+02 -0.16772258084E+01  0.33266459225E+02  0.00000000000E+00 0. -1.
</event>
<event>
 7    1  0.6610867E-006  0.1050470E+03  0.7561462E-02  0.1270027E+00
          1   -1    0    0  501    0  0.00000000000E+00  0.00000000000E+00  0.56386711363E+03  0.56386711363E+03  0.00000000000E+00 0. -1.
         -1   -1    0    0    0  501 -0.00000000000E+00 -0.00000000000E+00 -0.22695688081E+02  0.22695688081E+02  0.00000000000E+00 0.  1.
         23    2    1    2    0    0 -0.29297876185E+02 -0.32145002930E+01  0.24574805574E+03  0.26439678650E+03  0.92977713707E+02 0.  0.
          5    1    1    2  502    0  0.71495285368E+02 -0.23957835014E+02  0.14421929531E+03  0.16279505898E+03  0.41800000000E+01 0. -1.
         -5    1    1    2    0  502 -0.42197409183E+02  0.27172335307E+02  0.15120407449E+03  0.15937095623E+03  0.41800000000E+01 0. -1.
        -11    1    3    3    0    0 -0.31809136093E+02  0.34204479854E+02  0.66485370828E+02  0.81253136032E+02  0.00000000000E+00 0.  1.
         11    1    3    3    0    0  0.25112599076E+01 -0.37418980147E+02  0.17926268492E+03  0.18314365046E+03  0.00000000000E+00 0. -1.
</event>
<event>
 7    1  0.6610867E-006  0.8790206E+02  0.7561462E-02  0.1308013E+00
          3   -1    0    0  501    0  0.00000000000E+00  0.00000000000E+00  0.28339833491E+02  0.28339833491E+02  0.00000000000E+00 0. -1.
         -3   -1    0    0    0  501 -0.00000000000E+00 -0.00000000000E+00 -0.53923590571E+03  0.53923590571E+03  0.00000000000E+00 0.  1.
         23    2    1    2    0    0  0.11801844023E+02 -0.57967045009E+02 -0.22494367236E+03  0.24990331651E+03  0.91392286550E+02 0.  0.
          5    1    1    2  502    0 -0.18329930691E+02  0.46456507850E+01 -0.25459454049E+03  0.25533002346E+03  0.41800000000E+01 0. -1.
         -5    1    1    2    0  502  0.65280866680E+01  0.53321394224E+02 -0.31357859365E+02  0.62342399228E+02  0.41800000000E+01 0. -1.
        -11    1    3    3    0    0 -0.23421309018E+02 -0.62779229028E+02 -0.18322092464E+03  0.19508894520E+03  0.00000000000E+00 0.  1.
         11    1    3    3    0    0  0.35223153041E+02  0.48121840192E+01 -0.41722747715E+02  0.54814371309E+02  0.00000000000E+00 0. -1.
</event>
<event>
 7    1  0.6610867E-006  0.1807892E+03  0.7561462E-02  0.1167041E+00
         -2   -1    0    0    0  501 -0.00000000000E+00  0.00000000000E+00  0.42030257432E+02  0.42030257432E+02  0.00000000000E+00 0. -1.
          2   -1    0    0  501    0  0.00000000000E+00 -0.00000000000E+00 -0.89227134412E+03  0.89227134412E+03  0.00000000000E+00 0.  1.
         23    2    1    2    0    0 -0.57769301827E+02  0.14870661342E+03 -0.37535416553E+03  0.41795265629E+03  0.91338514376E+02 0.  0.
          5    1    1    2  502    0 -0.24969232662E+02 -0.10390039290E+03 -0.28460495252E+03  0.30403323112E+03  0.41800000000E+01 0.  1.
         -5    1    1    2    0  502  0.82738534489E+02 -0.44806220520E+02 -0.19028196864E+03  0.21231571415E+03  0.41800000000E+01 0.  1.
        -11    1    3    3    0    0 -0.37578423034E+02  0.73047572064E+02 -0.29306055365E+03  0.30435599841E+03  0.00000000000E+00 0.  1.
         11    1    3    3    0    0 -0.20190878792E+02  0.75659041352E+02 -0.82293611886E+02  0.11359665788E+03  0.00000000000E+00 0. -1.
</event>
<event>
 7    1  0.6610867E-006  0.1310656E+03  0.7561462E-02  0.1225883E+00
          4   -1    0    0  501    0  0.00000000000E+00  0.00000000000E+00  0.28525448833E+03  0.28525448833E+03  0.00000000000E+00 0. -1.
         -4   -1    0    0    0  501 -0.00000000000E+00 -0.00000000000E+00 -0.69764918654E+02  0.69764918654E+02  0.00000000000E+00 0.  1.
         23    2    1    2    0    0 -0.32259496877E+02  0.54445189072E+02  0.51420709082E+02  0.12603395166E+03  0.96101581136E+02 0.  0.
          5    1    1    2  502    0 -0.83384689605E+01 -0.95902918879E+02  0.12915289050E+03  0.16113609601E+03  0.41800000000E+01 0. -1.
         -5    1    1    2    0  502  0.40597965838E+02  0.41457729808E+02  0.34915970090E+02  0.67849359307E+02  0.41800000000E+01 0.  1.
        -11    1    3    3    0    0 -0.61641639590E+02  0.26656597139E+02  0.53013515614E+02  0.85561081925E+02  0.00000000000E+00 0.  1.
         11    1    3    3    0    0  0.29382142713E+02  0.27788591932E+02 -0.15928065316E+01  0.40472869736E+02  0.00000000000E+00 0. -1.
</event>
<event>
 7    1  0.6610867E-006  0.1078024E+03  0.7561462E-02  0.1264694E+00
         -2   -1    0    0    0  501 -0.00000000000E+00  0.00000000000E+00  0.22491074973E+02  0.22491074973E+02  0.00000000000E+00 0.  1.
          2   -1    0    0  501    0  0.00000000000E+00 -0.00000000000E+00 -0.60644859247E+03  0.60644859247E+03  0.00000000000E+00 0. -1.
         23    2    1    2    0    0  0.37723690160E+01 -0.14437848018E+02 -0.14253194270E+03  0.16989028965E+03  0.91239649292E+02 0.  0.
          5    1    1    2  502    0 -0.27783924922E+02 -0.49118029640E+02 -0.16780090195E+03  0.17708512759E+03  0.41800000000E+01 0. -1.
         -5    1    1    2    0  502  0.24011555906E+02  0.63555877659E+02 -0.27362467285E+03  0.28196425021E+03  0.41800000000E+01 0. -1.
        -11    1    3    3    0    0  0.17742559801E+02 -0.49833038009E+02 -0.67470672675E+02  0.85734600814E+02  0.00000000000E+00 0.  1.
         11    1    3    3    0    0 -0.13970190786E+02  0.35395189991E+02 -0.75061270025E+02  0.84155688833E+02  0.00000000000E+00 0. -1.
</event>
<event>
 7    1  0.7022463E-006  0.1351070E+03  0.7561462E-02  0.1220069E+00
         -2   -1    0    0    0  501 -0.00000000000E+00  0.00000000000E+00  0.95388390105E+01  0.95388390105E+01  0.00000000000E+00 0.  1.
          2   -1    0    0  501    0  0.00000000000E+00 -0.00000000000E+00 -0.20637340856E+04  0.20637340856E+04  0.00000000000E+00 0. -1.
         23    2    1    2    0    0  0.40362891455E+02 -0.65376067449E+02 -0.67950616459E+03  0.69076763876E+03  0.97612037352E+02 0.  0.
          5    1    1    2  502    0 -0.42305770078E+02 -0.29488617135E+02 -0.46225172884E+03  0.46513814071E+03  0.41800000000E+01 0. -1.
         -5    1    1    2    0  502  0.19428786231E+01  0.94864684584E+02 -0.91243735312E+03  0.91736714511E+03  0.41800000000E+01 0. -1.
        -11    1    3    3    0    0  0.72515817784E+02 -0.47848899633E+02 -0.51045138232E+03  0.51779211537E+03  0.00000000000E+00 0.  1.
         11    1    3    3    0    0 -0.32152926329E+02 -0.17527167816E+02 -0.16905478227E+03  0.17297552339E+03  0.00000000000E+00 0. -1.
</event>
<event>
 7    1  0.6610867E-006  0.1306538E+03  0.7561462E-02  0.1226489E+00
          1   -1    0    0  501    0  0.00000000000E+00  0.00000000000E+00  0.24996783408E+03  0.24996783408E+03  0.00000000000E+00 0. -1.
         -1   -1    0    0    0  501 -0.00000000000E+00 -0.00000000000E+00 -0.13895343202E+03  0.13895343202E+03  0.00000000000E+00 0.  1.
         23    2    1    2    0    0 -0.37459954662E+02 -0.90456292339E+02 -0.69332081489E+02  0.14881041496E+03  0.88045516917E+02 0.  0.
          5    1    1    2  502    0 -0.93076076556E+00  0.10560934929E+03  0.16485491448E+03  0.19582853776E+03  0.41800000000E+01 0. -1.
         -5    1    1    2    0  502  0.38390715427E+02 -0.15153056950E+02  0.15491569071E+02  0.44282313379E+02  0.41800000000E+01 0.  1.
        -11    1    3    3    0    0 -0.35447447249E+02 -0.14749299284E+02  0.94401539578E+01  0.39537069347E+02  0.00000000000E+00 0. -1.
         11    1    3    3    0    0 -0.20125074131E+01 -0.75706993054E+02 -0.78772235447E+02  0.10927334561E+03  0.00000000000E+00 0.  1.
</event>
<event>
 7    1  0.6610867E-006  0.8633601E+02  0.7561462E-02  0.1311975E+00
         -2   -1    0    0    0  501 -0.00000000000E+00  0.00000000000E+00  0.54576872853E+02  0.54576872853E+02  0.00000000000E+00 0.  1.
          2   -1    0    0  501    0  0.00000000000E+00 -0.00000000000E+00 -0.22455883921E+03  0.22455883921E+03  0.00000000000E+00 0. -1.
         23    2    1    2    0    0  0.20818443202E+02  0.19591270532E+02 -0.68877090109E+02  0.11578431351E+03  0.88570470556E+02 0.  0.
          5    1    1    2  502    0  0.20517623240E+02 -0.37706858910E+02 -0.10910995210E+03  0.11732533452E+03  0.41800000000E+01 0. -1.
         -5    1    1    2    0  502 -0.41336066442E+02  0.18115588378E+02  0.80050758534E+01  0.46026064035E+02  0.41800000000E+01 0. -1.
        -11    1    3    3    0    0 -0.30145685465E+02  0.16641494586E+01 -0.26371823983E+01  0.30306541812E+02  0.00000000000E+00 0.  1.
         11    1    3    3    0    0  0.50964128668E+02  0.17927121074E+02 -0.66239907711E+02  0.85477771698E+02  0.00000000000E+00 0. -1.
</event>
<event>
 7    1  0.6610867E-006  0.1066045E+03  0.7561462E-02  0.1266990E+00
          2   -1    0    0  501    0  0.00000000000E+00  0.00000000000E+00  0.96324864281E+03  0.96324864281E+03  0.00000000000E+00 0. -1.
         -2   -1    0    0    0  501 -0.00000000000E+00 -0.00000000000E+00 -0.12984719353E+02  0.12984719353E+02  0.00000000000E+00 0.  1.
         23    2    1    2    0    0 -0.20563562551E+02  0.16854259689E+02  0.32037539167E+03  0.33349392518E+03  0.88717982226E+02 0.  0.
          5    1    1    2  502    0 -0.52747350032E+01 -0.65906918382E+02  0.24271083275E+03  0.25159007424E+03  0.41800000000E+01 0. -1.
         -5    1    1    2    0  502  0.25838297554E+02  0.49052658693E+02  0.38717769903E+03  0.39114936274E+03  0.41800000000E+01 0. -1.
        -11    1    3    3    0    0  0.33682867414E+02 -0.24734315234E+01  0.14600887496E+03  0.14986408839E+03  0.00000000000E+00 0. -1.
         11    1    3    3    0    0 -0.54246429965E+02  0.19327691212E+02  0.17436651671E+03  0.18362983680E+03  0.00000000000E+00 0.  1.
</event>
<event>
 7    1  0.6610867E-006  0.1567817E+03  0.7561462E-02  0.1192379E+00
         -2   -1    0    0    0  501 -0.00000000000E+00  0.00000000000E+00  0.18009771737E+03  0.18009771737E+03  0.00000000000E+00 0.  1.
          2   -1    0    0  501    0  0.00000000000E+00 -0.00000000000E+00 -0.15181972028E+03  0.15181972028E+03  0.00000000000E+00 0. -1.
         23    2    1    2    0    0 -0.11125232567E+03 -0.31539468209E+02  0.55292415762E+02  0.15943629211E+03  0.94820155974E+02 0.  0.
          5    1    1    2  502    0 -0.13633221945E+02 -0.23712726520E+02  0.12344591318E+02  0.30298836189E+02  0.41800000000E+01 0.  1.
         -5    1    1    2    0  502  0.12488554761E+03  0.55252194729E+02 -0.39359009991E+02  0.14218230935E+03  0.41800000000E+01 0.  1.
        -11    1    3    3    0    0 -0.10324434740E+03  0.12958636416E+02  0.34068229146E+02  0.10948956921E+03  0.00000000000E+00 0. -1.
         11    1    3    3    0    0 -0.80079782680E+01 -0.44498104625E+02  0.21224186616E+02  0.49946722902E+02  0.00000000000E+00 0.  1.
</event>
<event>
 7    1  0.6610867E-006  0.1097100E+03  0.7561462E-02  0.1261108E+00
          2   -1    0    0  501    0  0.00000000000E+00  0.00000000000E+00  0.52233237221E+03  0.52233237221E+03  0.00000000000E+00 0. -1.
         -2   -1    0    0    0  501 -0.00000000000E+00 -0.00000000000E+00 -0.33288488033E+02  0.33288488033E+02  0.00000000000E+00 0.  1.
         23    2    1    2    0    0  0.44503801115E+02  0.59819935331E+02  0.20218080464E+03  0.23391163561E+03  0.90986606344E+02 0.  0.
          5    1    1    2  502    0 -0.71694714225E+02 -0.56811846760E+01  0.21947265547E+03  0.23099378088E+03  0.41800000000E+01 0.  1.
         -5    1    1    2    0  502  0.27190913110E+02 -0.54138750655E+02  0.67390424070E+02  0.90715443749E+02  0.41800000000E+01 0.  1.
        -11    1    3    3    0    0  0.20000910321E+02 -0.20506439078E+01 -0.98017249453E+00  0.20129637161E+02  0.00000000000E+00 0.  1.
         11    1    3    3    0    0  0.24502890794E+02  0.61870579239E+02  0.20316097713E+03  0.21378199845E+03  0.00000000000E+00 0. -1.
</event>
<event>
 7    1  0.6610867E-006  0.1014404E+03  0.7561462E-02  0.1277296E+00
          2   -1    0    0  501    0  0.00000000000E+00  0.00000000000E+00  0.10325946512E+04  0.10325946512E+04  0.00000000000E+00 0. -1.
         -2   -1    0    0    0  501 -0.00000000000E+00 -0.00000000000E+00 -0.13953250497E+02  0.13953250497E+02  0.00000000000E+00 0.  1.
         23    2    1    2    0    0 -0.43850916892E+02  0.18964094561E+02  0.36247882187E+03  0.37686354758E+03  0.91393092715E+02 0.  0.
          5    1    1    2  502    0 -0.26552918477E+02  0.85936065706E+01  0.40380697078E+02  0.49264395359E+02  0.41800000000E+01 0. -1.
         -5    1    1    2    0  502  0.70403835369E+02 -0.27557701131E+02  0.61578188173E+03  0.62041995873E+03  0.41800000000E+01 0. -1.
        -11    1    3    3    0    0  0.25391198105E+02 -0.45872677547E+01  0.54208798281E+02  0.60036237205E+02  0.00000000000E+00 0.  1.
         11    1    3    3    0    0 -0.69242114998E+02  0.23551362315E+02  0.30827002359E+03  0.31682731037E+03  0.00000000000E+00 0. -1.
</event>
<event>
 7    1  0.6610867E-006  0.1365047E+03  0.7561462E-02  0.1218111E+00
         -1   -1    0    0    0  501 -0.00000000000E+00  0.00000000000E+00  0.45881917510E+02  0.45881917510E+02  0.00000000000E+00 0.  1.
          1   -1    0    0  501    0  0.00000000000E+00 -0.00000000000E+00 -0.65168483827E+03  0.65168483827E+03  0.00000000000E+00 0. -1.
         23    2    1    2    0    0  0.22389448058E+01  0.90461388795E+02 -0.80958212589E+02  0.15048602113E+03  0.88901825810E+02 0.  0.
          5    1    1    2  502    0 -0.12445823596E+02  0.30007078498E+02 -0.92359772699E+02  0.97995526928E+02  0.41800000000E+01 0.  1.
         -5    1    1    2    0  502  0.10206878790E+02 -0.12046846729E+03 -0.43248493547E+03  0.44908520772E+03  0.41800000000E+01 0.  1.
        -11    1    3    3    0    0 -0.17630035610E+02 -0.76225966812E+01  0.35125648676E+01  0.19525886605E+02  0.00000000000E+00 0.  1.
         11    1    3    3    0    0  0.19868980416E+02  0.98083985476E+02 -0.84470777456E+02  0.13096013452E+03  0.00000000000E+00 0. -1.
</event>
<event>
 7    1  0.6610867E-006  0.1021990E+03  0.7561462E-02  0.1275739E+00
          2   -1    0    0  501    0  0.00000000000E+00  0.00000000000E+00  0.68318386591E+03  0.68318386591E+03  0.00000000000E+00 0. -1.
         -2   -1    0    0    0  501 -0.00000000000E+00 -0.00000000000E+00 -0.21148139648E+02  0.21148139648E+02  0.00000000000E+00 0.  1.
         23    2    1    2    0    0  0.18497024390E+02  0.40504715965E+02  0.20336216947E+03  0.22682642191E+03  0.90062654738E+02 0.  0.
          5    1    1    2  502    0 -0.70695360998E+02 -0.27040283085E+02  0.21706704142E+03  0.22992299547E+03  0.41800000000E+01 0. -1.
         -5    1    1    2    0  502  0.52198336608E+02 -0.13464432880E+02  0.24160651538E+03  0.24758258818E+03  0.41800000000E+01 0. -1.
        -11    1    3    3    0    0  0.40223493004E+02  0.21243447886E+02  0.18906862038E+03  0.19446376701E+03  0.00000000000E+00 0. -1.
         11    1    3    3    0    0 -0.21726468614E+02  0.19261268079E+02  0.14293549085E+02  0.32362654895E+02  0.00000000000E+00 0.  1.
</event>
<event>
 7    1  0.9627327E-006  0.4323605E+03  0.7561462E-02  0.1033117E+00
          2   -1    0    0  501    0  0.00000000000E+00  0.00000000000E+00  0.67096155673E+03  0.67096155673E+03  0.00000000000E+00 0. -1.
         -2   -1    0    0    0  501 -0.00000000000E+00 -0.00000000000E+00 -0.30248071454E+03  0.30248071454E+03  0.00000000000E+00 0.  1.
         23    2    1    2    0    0  0.18353650492E+03 -0.38866683751E+03  0.26880116448E+03  0.51482305264E+03  0.89672461140E+02 0.  0.
          5    1    1    2  502    0 -0.60826138594E+02  0.75105316475E+02  0.72289482494E+02  0.12076369230E+03  0.41800000000E+01 0. -1.
         -5    1    1    2    0  502 -0.12271036633E+03  0.31356152104E+03  0.27390195215E+02  0.33785552633E+03  0.41800000000E+01 0. -1.
        -11    1    3    3    0    0  0.91562513798E+02 -0.23423370242E+03  0.20373631275E+03  0.32366279739E+03  0.00000000000E+00 0.  1.
         11    1    3    3    0    0  0.91973991124E+02 -0.15443313509E+03  0.65064851732E+02  0.19116025525E+03  0.00000000000E+00 0. -1.
</event>
<event>
 7    1  0.6610867E-006  0.1187590E+03  0.7561462E-02  0.1245159E+00
         -1   -1    0    0    0  501 -0.00000000000E+00  0.00000000000E+00  0.69023323476E+02  0.69023323476E+02  0.00000000000E+00 0.  1.
          1   -1    0    0  501    0  0.00000000000E+00 -0.00000000000E+00 -0.30643160906E+03  0.30643160906E+03  0.00000000000E+00 0. -1.
         23    2    1    2    0    0 -0.54028842234E+01  0.50584998179E+02 -0.21131902375E+02  0.12048182817E+03  0.10715073692E+03 0.  0.
          5    1    1    2  502    0  0.73917829178E+01  0.40519792733E+02 -0.91276821741E+02  0.10022685591E+03  0.41800000000E+01 0. -1.
         -5    1    1    2    0  502 -0.19888986944E+01 -0.91104790912E+02 -0.12499956146E+03  0.15474624846E+03  0.41800000000E+01 0. -1.
        -11    1    3    3    0    0  0.20584604550E+02 -0.20595945604E+02 -0.32746181459E+02  0.43820444087E+02  0.00000000000E+00 0. -1.
         11    1    3    3    0    0 -0.25987488774E+02  0.71180943783E+02  0.11614279084E+02  0.76661384081E+02  0.00000000000E+00 0.  1.
</event>
<event>
 7    1  0.6610867E-006  0.1759749E+03  0.7561462E-02  0.1171756E+00
         -1   -1    0    0    0  501 -0.00000000000E+00  0.00000000000E+00  0.11305252450E+03  0.11305252450E+03  0.00000000000E+00 0.  1.
          1   -1    0    0  501    0  0.00000000000E+00 -0.00000000000E+00 -0.31769132696E+03  0.31769132696E+03  0.00000000000E+00 0. -1.
         23    2    1    2    0    0 -0.12459636871E+03 -0.87733461449E+02 -0.13278980878E+03  0.22090625458E+03  0.89134867721E+02 0.  0.
          5    1    1    2  502    0  0.30498320923E+02  0.93029817039E+02 -0.13511778751E+02  0.98917819438E+02  0.41800000000E+01 0.  1.
         -5    1    1    2    0  502  0.94098047791E+02 -0.52963555893E+01 -0.58337214929E+02  0.11091977743E+03  0.41800000000E+01 0.  1.
        -11    1    3    3    0    0 -0.45747495145E+02 -0.61235834324E+02 -0.11125333654E+03  0.13498135282E+03  0.00000000000E+00 0. -1.
         11    1    3    3    0    0 -0.78848873568E+02 -0.26497627126E+02 -0.21536472234E+02  0.85924901761E+02  0.00000000000E+00 0.  1.
</event>
<event>
 7    1  0.6610867E-006  0.9856122E+02  0.7561462E-02  0.1283351E+00
          2   -1    0    0  501    0  0.00000000000E+00  0.00000000000E+00  0.18168451472E+03  0.18168451472E+03  0.00000000000E+00 0. -1.
         -2   -1    0    0    0  501 -0.00000000000E+00 -0.00000000000E+00 -0.74282525935E+02  0.74282525935E+02  0.00000000000E+00 0.  1.
         23    2    1    2    0    0 -0.39311207528E+02 -0.23588186411E+02  0.26205617841E+02  0.99948729543E+02  0.84860123470E+02 0.  0.
          5    1    1    2  502    0  0.42196342526E+02 -0.30921927131E+02 -0.62473424210E+01  0.52850719838E+02  0.41800000000E+01 0. -1.
         -5    1    1    2    0  502 -0.28851349980E+01  0.54510113542E+02  0.87443713369E+02  0.10316759128E+03  0.41800000000E+01 0. -1.
        -11    1    3    3    0    0 -0.26297424699E+02  0.26982503651E+02  0.29164884692E+02  0.47646621582E+02  0.00000000000E+00 0. -1.
         11    1    3    3    0    0 -0.13013782829E+02 -0.50570690062E+02 -0.29592668512E+01  0.52302107961E+02  0.00000000000E+00 0.  1.
</event>
<event>
 7    1  0.6610867E-006  0.8934361E+02  0.7561462E-02  0.1304449E+00
         -1   -1    0    0    0  501 -0.00000000000E+00  0.00000000000E+00  0.11174693012E+03  0.11174693012E+03  0.00000000000E+00 0.  1.
          1   -1    0    0  501    0  0.00000000000E+00 -0.00000000000E+00 -0.12600298176E+03  0.12600298176E+03  0.00000000000E+00 0. -1.
         23    2    1    2    0    0 -0.33817432572E+02 -0.28468853018E+02  0.14331701708E+02  0.10203586586E+03  0.90839561369E+02 0.  0.
          5    1    1    2  502    0 -0.54168181058E+01  0.38144879142E+02  0.40192073182E+02  0.55832328178E+02  0.41800000000E+01 0. -1.
         -5    1    1    2    0  502  0.39234250677E+02 -0.96760261233E+01 -0.68779826534E+02  0.79881717845E+02  0.41800000000E+01 0. -1.
        -11    1    3    3    0    0 -0.51959555504E+02 -0.49340444271E+02  0.18046719630E+01  0.71676576997E+02  0.00000000000E+00 0. -1.
         11    1    3    3    0    0  0.18142122933E+02  0.20871591253E+02  0.12527029745E+02  0.30359288861E+02  0.00000000000E+00 0.  1.
</event>
<event>
 7    1  0.6610867E-006  0.1132421E+03  0.7561462E-02  0.1254681E+00
          1   -1    0    0  501    0  0.00000000000E+00  0.00000000000E+00  0.99804368912E+03  0.99804368912E+03  0.00000000000E+00 0. -1.
         -1   -1    0    0    0  501 -0.00000000000E+00 -0.00000000000E+00 -0.22962432236E+02  0.22962432236E+02  0.00000000000E+00 0.  1.
         23    2    1    2    0    0  0.57395876654E+02  0.40444340778E+01  0.14239535281E+03  0.17864768138E+03  0.91257402194E+02 0.  0.
          5    1    1    2  502    0  0.30942748360E+02 -0.19036753491E+02  0.29226147693E+03  0.29454048101E+03  0.41800000000E+01 0. -1.
         -5    1    1    2    0  502 -0.88338625015E+02  0.14992319413E+02  0.54042442714E+03  0.54781795896E+03  0.41800000000E+01 0.  1.
        -11    1    3    3    0    0  0.69421473882E+02 -0.20920448987E+02  0.68573739153E+02  0.99796612784E+02  0.00000000000E+00 0.  1.
         11    1    3    3    0    0 -0.12025597228E+02  0.24964883065E+02  0.73821613658E+02  0.78851068592E+02  0.00000000000E+00 0. -1.
</event>
<event>
 7    1  0.6610867E-006  0.1201982E+03  0.7561462E-02  0.1242771E+00
          2   -1    0    0  501    0  0.00000000000E+00  0.00000000000E+00  0.14291638766E+03  0.14291638766E+03  0.00000000000E+00 0. -1.
         -2   -1    0    0    0  501 -0.00000000000E+00 -0.00000000000E+00 -0.10767316227E+03  0.10767316227E+03  0.00000000000E+00 0.  1.
         23    2    1    2    0    0 -0.50843462618E+02  0.10668484919E+02  0.88661531961E+01  0.11259542833E+03  0.99499987671E+02 0.  0.
          5    1    1    2  502    0  0.58516492364E+02 -0.59677055002E+02  0.27833828506E+02  0.88191412176E+02  0.41800000000E+01 0.  1.
         -5    1    1    2    0  502 -0.76730297463E+01  0.49008570083E+02 -0.14567563052E+01  0.49802709425E+02  0.41800000000E+01 0.  1.
        -11    1    3    3    0    0  0.17379390847E+01  0.44416904363E+02  0.20650873754E+02  0.49013675768E+02  0.00000000000E+00 0. -1.
         11    1    3    3    0    0 -0.52581401702E+02 -0.33748419445E+02 -0.11784720558E+02  0.63581752560E+02  0.00000000000E+00 0.  1.
</event>
<event>
 7    1  0.6610867E-006  0.8488829E+02  0.7561462E-02  0.1315725E+00
          2   -1    0    0  501    0  0.00000000000E+00  0.00000000000E+00  0.21269291311E+03  0.21269291311E+03  0.00000000000E+00 0. -1.
         -2   -1    0    0    0  501 -0.00000000000E+00 -0.00000000000E+00 -0.67656516004E+02  0.67656516004E+02  0.00000000000E+00 0.  1.
         23    2    1    2    0    0 -0.11599637911E+02 -0.55526313169E+02  0.52000515003E+02  0.11956055244E+03  0.91503820061E+02 0.  0.
          5    1    1    2  502    0 -0.33247127466E+01  0.94007054519E+00  0.10302913689E+03  0.10317176404E+03  0.41800000000E+01 0. -1.
         -5    1    1    2    0  502  0.14924350658E+02  0.54586242624E+02 -0.99932547881E+01  0.57617112628E+02  0.41800000000E+01 0.  1.
        -11    1    3    3    0    0  0.92972534022E+01 -0.77050923549E+02  0.39132491460E+02  0.86917406936E+02  0.00000000000E+00 0. -1.
         11    1    3    3    0    0 -0.20896891313E+02  0.21524610380E+02  0.12868023543E+02  0.32643145505E+02  0.00000000000E+00 0.  1.
</event>
<event>
 7    1  0.6610867E-006  0.1510540E+03  0.7561462E-02  0.1199184E+00
          1   -1    0    0  501    0  0.00000000000E+00  0.00000000000E+00  0.61852552314E+02  0.61852552314E+02  0.00000000000E+00 0. -1.
         -1   -1    0    0    0  501 -0.00000000000E+00 -0.00000000000E+00 -0.39817255714E+03  0.39817255714E+03  0.00000000000E+00 0.  1.
         23    2    1    2    0    0 -0.53781671846E+02  0.62352451145E+02 -0.17653649575E+03  0.21375855050E+03  0.88018675245E+02 0.  0.
          5    1    1    2  502    0  0.11074574009E+03 -0.55841768186E+02 -0.78977261186E+02  0.14709793407E+03  0.41800000000E+01 0. -1.
         -5    1    1    2    0  502 -0.56964068242E+02 -0.65106829593E+01 -0.80806247895E+02  0.99168624888E+02  0.41800000000E+01 0.  1.
        -11    1    3    3    0    0 -0.51336500872E+02  0.84158205905E+02 -0.14344514048E+03  0.17405329147E+03  0.00000000000E+00 0.  1.
         11    1    3    3    0    0 -0.24451709743E+01 -0.21805754760E+02 -0.33091355267E+02  0.39705259036E+02  0.00000000000E+00 0. -1.
</event>
<event>
 7    1  0.6610867E-006  0.1615779E+03  0.7561462E-02  0.1186927E+00
         -1   -1    0    0    0  501 -0.00000000000E+00  0.00000000000E+00  0.24082400209E+03  0.24082400209E+03  0.00000000000E+00 0.  1.
          1   -1    0    0  501    0  0.00000000000E+00 -0.00000000000E+00 -0.13478928169E+03  0.13478928169E+03  0.00000000000E+00 0. -1.
         23    2    1    2    0    0  0.71793283351E+02  0.10901774848E+03  0.11136773703E+03  0.19474060666E+03  0.92097698190E+02 0.  0.
          5    1    1    2  502    0 -0.71153975155E+01 -0.11460362168E+03 -0.11771413161E+02  0.11550176428E+03  0.41800000000E+01 0. -1.
         -5    1    1    2    0  502 -0.64677885836E+02  0.55858731952E+01  0.64383965306E+01  0.65370912839E+02  0.41800000000E+01 0. -1.
        -11    1    3    3    0    0  0.37677835056E+02  0.10150122902E+03  0.11694076729E+03  0.15936518378E+03  0.00000000000E+00 0.  1.
         11    1    3    3    0    0  0.34115448295E+02  0.75165194637E+01 -0.55730302652E+01  0.35375422875E+02  0.00000000000E+00 0. -1.
</event>
<event>
 7    1  0.6610867E-006  0.9814464E+02  0.7561462E-02  0.1284247E+00
          2   -1    0    0  501    0  0.00000000000E+00  0.00000000000E+00  0.16842744480E+04  0.16842744480E+04  0.00000000000E+00 0. -1.
         -2   -1    0    0    0  501 -0.00000000000E+00 -0.00000000000E+00 -0.43668999498E+02  0.43668999498E+02  0.00000000000E+00 0.  1.
         23    2    1    2    0    0  0.42377282176E+02  0.30307536166E+02  0.22448848735E+02  0.10470077768E+03  0.87999552523E+02 0.  0.
          5    1    1    2  502    0 -0.52372175684E+02 -0.57537712323E+02  0.65160585726E+03  0.65624774189E+03  0.41800000000E+01 0. -1.
         -5    1    1    2    0  502  0.99948935079E+01  0.27230176157E+02  0.96655074254E+03  0.96699492796E+03  0.41800000000E+01 0.  1.
        -11    1    3    3    0    0 -0.19423134195E+02  0.17084825158E+02  0.31605383439E+02  0.40841763612E+02  0.00000000000E+00 0. -1.
         11    1    3    3    0    0  0.61800416371E+02  0.13222711008E+02 -0.91565347040E+01  0.63859014068E+02  0.00000000000E+00 0.  1.
</event>
<event>
 7    1  0.6610867E-006  0.1246476E+03  0.7561462E-02  0.1235621E+00
         -4   -1    0    0    0  501 -0.00000000000E+00  0.00000000000E+00  0.95330387426E+02  0.95330387426E+02  0.00000000000E+00 0.  1.
          4   -1    0    0  501    0  0.00000000000E+00 -0.00000000000E+00 -0.28108384773E+03  0.28108384773E+03  0.00000000000E+00 0. -1.
         23    2    1    2    0    0 -0.74311324574E+02  0.28987794955E+02  0.19977613331E+02  0.12276956582E+03  0.91163567505E+02 0.  0.
          5    1    1    2  502    0  0.72377950004E+01  0.35038120534E+02 -0.12675000835E+03  0.13176908812E+03  0.41800000000E+01 0. -1.
         -5    1    1    2    0  502  0.67073529573E+02 -0.64025915489E+02 -0.78981065278E+02  0.12187558121E+03  0.41800000000E+01 0. -1.
        -11    1    3    3    0    0 -0.56814707304E+02 -0.26195478697E+02  0.38829347544E+01  0.62683261343E+02  0.00000000000E+00 0. -1.
         11    1    3    3    0    0 -0.17496617269E+02  0.55183273653E+02  0.16094678576E+02  0.60086304474E+02  0.00000000000E+00 0.  1.
</event>
<event>
 7    1  0.6610867E-006  0.8226833E+02  0.7561462E-02  0.1322735E+00
          1   -1    0    0  501    0  0.00000000000E+00  0.00000000000E+00  0.26996242823E+03  0.26996242823E+03  0.00000000000E+00 0. -1.
         -1   -1    0    0    0  501 -0.00000000000E+00 -0.00000000000E+00 -0.53677639480E+02  0.53677639480E+02  0.00000000000E+00 0.  1.
         23    2    1    2    0    0 -0.56043507352E+01 -0.22499481360E+02  0.41985772288E+02  0.10785513016E+03  0.96603771240E+02 0.  0.
          5    1    1    2  502    0 -0.63544401800E+01 -0.27476105169E+02 -0.52427483500E+01  0.28987481359E+02  0.41800000000E+01 0. -1.
         -5    1    1    2    0  502  0.11958790915E+02  0.49975586529E+02  0.17954176481E+03  0.18679745620E+03  0.41800000000E+01 0. -1.
        -11    1    3    3    0    0 -0.31616546002E+02 -0.41562725917E+02  0.52387280979E+02  0.73969543564E+02  0.00000000000E+00 0. -1.
         11    1    3    3    0    0  0.26012195266E+02  0.19063244558E+02 -0.10401508691E+02  0.33885586592E+02  0.00000000000E+00 0.  1.
</event>
<event>
 7    1  0.6610867E-006  0.1008111E+03  0.7561462E-02  0.1278599E+00
         -2   -1    0    0    0  501 -0.00000000000E+00  0.00000000000E+00  0.85776061380E+01  0.85776061380E+01  0.00000000000E+00 0.  1.
          2   -1    0    0  501    0  0.00000000000E+00 -0.00000000000E+00 -0.21501508877E+04  0.21501508877E+04  0.00000000000E+00 0. -1.
         23    2    1    2    0    0 -0.25893557573E+01 -0.18811834234E+02 -0.33386576705E+03  0.34659836090E+03  0.91123451984E+02 0.  0.
          5    1    1    2  502    0 -0.52093873568E+02  0.29715177968E+02 -0.12924533444E+04  0.12938507964E+04  0.41800000000E+01 0. -1.
         -5    1    1    2    0  502  0.54683229325E+02 -0.10903343735E+02 -0.51525417005E+03  0.51827933649E+03  0.41800000000E+01 0. -1.
        -11    1    3    3    0    0  0.29395241906E+02  0.19805405399E+02 -0.20996415054E+03  0.21293491692E+03  0.00000000000E+00 0.  1.
         11    1    3    3    0    0 -0.31984597663E+02 -0.38617239633E+02 -0.12390161651E+03  0.13366344399E+03  0.00000000000E+00 0. -1.
</event>
<event>
 7    1  0.7011408E-006  0.6793980E+02  0.7561462E-02  0.1367242E+00
         -2   -1    0    0    0  501 -0.00000000000E+00  0.00000000000E+00  0.11294003190E+03  0.11294003190E+03  0.00000000000E+00 0.  1.
          2   -1    0    0  501    0  0.00000000000E+00 -0.00000000000E+00 -0.14390937167E+03  0.14390937167E+03  0.00000000000E+00 0. -1.
         23    2    1    2    0    0  0.58839375916E+02  0.33013238971E+02 -0.29372095192E+01  0.11198688514E+03  0.89333583483E+02 0.  0.
          5    1    1    2  502    0 -0.27195333526E+02 -0.11252092799E+02  0.49784674667E+02  0.57984325379E+02  0.41800000000E+01 0.  1.
         -5    1    1    2    0  502 -0.31644042390E+02 -0.21761146173E+02 -0.77816804917E+02  0.86878193058E+02  0.41800000000E+01 0.  1.
        -11    1    3    3    0    0  0.14294841657E+02  0.93635861722E+01 -0.43839394064E+02  0.47052223283E+02  0.00000000000E+00 0. -1.
         11    1    3    3    0    0  0.44544534259E+02  0.23649652799E+02  0.40902184544E+02  0.64934661856E+02  0.00000000000E+00 0.  1.
</event>
<event>
 7    1  0.6610867E-006  0.1148785E+03  0.7561462E-02  0.1251793E+00
         -2   -1    0    0    0  501 -0.00000000000E+00  0.00000000000E+00  0.14650980393E+03  0.14650980393E+03  0.00000000000E+00 0. -1.
          2   -1    0    0  501    0  0.00000000000E+00 -0.00000000000E+00 -0.15520911419E+03  0.15520911419E+03  0.00000000000E+00 0.  1.
         23    2    1    2    0    0  0.87333025192E+02  0.27471588125E+02  0.20991436697E+02  0.14389073941E+03  0.10900531653E+03 0.  0.
          5    1    1    2  502    0 -0.81889457434E+02  0.24183261669E+02  0.17804100427E+02  0.87322229563E+02  0.41800000000E+01 0. -1.
         -5    1    1    2    0  502 -0.54435677579E+01 -0.51654849794E+02 -0.47494847376E+02  0.70505949142E+02  0.41800000000E+01 0. -1.
        -11    1    3    3    0    0  0.62292481064E+02  0.14493461240E+02 -0.40872427219E+02  0.75901046914E+02  0.00000000000E+00 0.  1.
         11    1    3    3    0    0  0.25040544128E+02  0.12978126885E+02  0.61863863916E+02  0.67989692500E+02  0.00000000000E+00 0. -1.
</event>
<event>
 7    1  0.6610867E-006  0.1247483E+03  0.7561462E-02  0.1235463E+00
         -4   -1    0    0    0  501 -0.00000000000E+00  0.00000000000E+00  0.23260974844E+02  0.23260974844E+02  0.00000000000E+00 0. -1.
          4   -1    0    0  501    0  0.00000000000E+00 -0.00000000000E+00 -0.71306187973E+03  0.71306187973E+03  0.00000000000E+00 0.  1.
         23    2    1    2    0    0 -0.60827377912E+01  0.55654488343E+02 -0.26491329087E+03  0.29335537749E+03  0.11288890136E+03 0.  0.
          5    1    1    2  502    0 -0.45033197888E+01  0.33606507508E+02 -0.14501613729E+03  0.14898600508E+03  0.41800000000E+01 0. -1.
         -5    1    1    2    0  502  0.10586057580E+02 -0.89260995850E+02 -0.27987147673E+03  0.29398147200E+03  0.41800000000E+01 0.  1.
        -11    1    3    3    0    0  0.17040980517E+02  0.85732639397E+02 -0.17039753111E+03  0.19150926631E+03  0.00000000000E+00 0. -1.
         11    1    3    3    0    0 -0.23123718308E+02 -0.30078151054E+02 -0.94515759758E+02  0.10184611118E+03  0.00000000000E+00 0.  1.
</event>
<event>
 7    1  0.6610867E-006  0.1055980E+03  0.7561462E-02  0.1268946E+00
         -1   -1    0    0    0  501 -0.00000000000E+00  0.00000000000E+00  0.19564613640E+03  0.19564613640E+03  0.00000000000E+00 0.  1.
          1   -1    0    0  501    0  0.00000000000E+00 -0.00000000000E+00 -0.69010360734E+02  0.69010360734E+02  0.00000000000E+00 0. -1.
         23    2    1    2    0    0  0.23474039988E+00 -0.35455182967E+02  0.29170499072E+02  0.10216219641E+03  0.91263745582E+02 0.  0.
          5    1    1    2  502    0  0.53075762713E+02  0.31250130171E+02  0.14035821334E+02  0.63309429817E+02  0.41800000000E+01 0. -1.
         -5    1    1    2    0  502 -0.53310503113E+02  0.42050527969E+01  0.83429455262E+02  0.99184870905E+02  0.41800000000E+01 0. -1.
        -11    1    3    3    0    0  0.52077457381E+01 -0.65329854573E+02  0.99393098619E+01  0.66286502357E+02  0.00000000000E+00 0. -1.
         11    1    3    3    0    0 -0.49730053383E+01  0.29874671605E+02  0.19231189210E+02  0.35875694057E+02  0.00000000000E+00 0.  1.
</event>
<event>
 7    1  0.6610867E-006  0.1163949E+03  0.7561462E-02  0.1249166E+00
          1   -1    0    0  501    0  0.00000000000E+00  0.00000000000E+00  0.16113822777E+03  0.16113822777E+03  0.00000000000E+00 0. -1.
         -1   -1    0    0    0  501 -0.00000000000E+00 -0.00000000000E+00 -0.95986141664E+02  0.95986141664E+02  0.00000000000E+00 0.  1.
         23    2    1    2    0    0 -0.43548300099E+02  0.11600727600E+02 -0.14223130262E+02  0.10226963766E+03  0.90695920697E+02 0.  0.
          5    1    1    2  502    0 -0.21887843599E+02 -0.51092817413E+02  0.25786787806E+02  0.61416484057E+02  0.41800000000E+01 0. -1.
         -5    1    1    2    0  502  0.65436143698E+02  0.39492089814E+02  0.53588428564E+02  0.93438247714E+02  0.41800000000E+01 0. -1.
        -11    1    3    3    0    0 -0.21193460592E+02  0.50987394714E+02 -0.14069216274E+02  0.56980874319E+02  0.00000000000E+00 0. -1.
         11    1    3    3    0    0 -0.22354839507E+02 -0.39386667114E+02 -0.15391398834E+00  0.45288763345E+02  0.00000000000E+00 0.  1.
</event>
<event>
 7    1  0.6610867E-006  0.1986584E+03  0.7561462E-02  0.1150876E+00
          3   -1    0    0  501    0  0.00000000000E+00  0.00000000000E+00  0.94725424752E+03  0.94725424752E+03  0.00000000000E+00 0. -1.
         -3   -1    0    0    0  501 -0.00000000000E+00 -0.00000000000E+00 -0.55078368257E+02  0.55078368257E+02  0.00000000000E+00 0.  1.
         23    2    1    2    0    0  0.15085080462E+03 -0.12170767387E+03  0.31773192866E+03  0.38329895239E+03  0.91628517828E+02 0.  0.
          5    1    1    2  502    0 -0.82932893768E+00 -0.44685923713E+01  0.16446760844E+03  0.16458348255E+03  0.41800000000E+01 0. -1.
         -5    1    1    2    0  502 -0.15002147568E+03  0.12617626624E+03  0.40997634216E+03  0.45445018084E+03  0.41800000000E+01 0. -1.
        -11    1    3    3    0    0  0.93789082243E+02 -0.89014486719E+02  0.12576430116E+03  0.18037912917E+03  0.00000000000E+00 0.  1.
         11    1    3    3    0    0  0.57061722372E+02 -0.32693187149E+02  0.19196762750E+03  0.20291982322E+03  0.00000000000E+00 0. -1.
</event>
<event>
 7    1  0.6610867E-006  0.8157434E+02  0.7561462E-02  0.1324642E+00
         -2   -1    0    0    0  501 -0.00000000000E+00  0.00000000000E+00  0.24845318811E+03  0.24845318811E+03  0.00000000000E+00 0.  1.
          2   -1    0    0  501    0  0.00000000000E+00 -0.00000000000E+00 -0.58644882059E+02  0.58644882059E+02  0.00000000000E+00 0. -1.
         23    2    1    2    0    0  0.41391802984E+02 -0.46114911679E+02  0.11370923781E+03  0.14810560644E+03  0.71872202290E+02 0.  0.
          5    1    1    2  502    0 -0.48039527217E+02  0.36079512837E+02 -0.18917045478E+02  0.63125703413E+02  0.41800000000E+01 0. -1.
         -5    1    1    2    0  502  0.66477242333E+01  0.10035398842E+02  0.95016113719E+02  0.95866760317E+02  0.41800000000E+01 0. -1.
        -11    1    3    3    0    0  0.43817785137E+02  0.18489244356E+00  0.78450925970E+02  0.89858668280E+02  0.00000000000E+00 0.  1.
         11    1    3    3    0    0 -0.24259821532E+01 -0.46299804123E+02  0.35258311844E+02  0.58246938163E+02  0.00000000000E+00 0. -1.
</event>
<event>
 7    1  0.6610867E-006  0.7030202E+02  0.7561462E-02  0.1359069E+00
         -2   -1    0    0    0  501 -0.00000000000E+00  0.00000000000E+00  0.91621586476E+02  0.91621586476E+02  0.00000000000E+00 0.  1.
          2   -1    0    0  501    0  0.00000000000E+00 -0.00000000000E+00 -0.13858567223E+03  0.13858567223E+03  0.00000000000E+00 0. -1.
         23    2    1    2    0    0 -0.23023923544E+02  0.17261927137E+02 -0.17257938425E+02  0.98455938180E+02  0.92561655887E+02 0.  0.
          5    1    1    2  502    0  0.18434309930E+02 -0.33953870841E+02 -0.74236025300E+02  0.83792296663E+02  0.41800000000E+01 0. -1.
         -5    1    1    2    0  502  0.45896136134E+01  0.16691943704E+02  0.44529877972E+02  0.47959023863E+02  0.41800000000E+01 0. -1.
        -11    1    3    3    0    0  0.91626377668E+01 -0.27395136826E+02 -0.30322226270E+02  0.41879408526E+02  0.00000000000E+00 0. -1.
         11    1    3    3    0    0 -0.32186561311E+02  0.44657063963E+02  0.13064287845E+02  0.56576529654E+02  0.00000000000E+00 0.  1.
</event>
<event>
 7    1  0.6610867E-006  0.1433262E+03  0.7561462E-02  0.1208922E+00
         -1   -1    0    0    0  501 -0.00000000000E+00  0.00000000000E+00  0.40870672823E+03  0.40870672823E+03  0.00000000000E+00 0.  1.
          1   -1    0    0  501    0  0.00000000000E+00 -0.00000000000E+00 -0.63103854493E+02  0.63103854493E+02  0.00000000000E+00 0. -1.
         23    2    1    2    0    0  0.72459886750E+02  0.89645860631E+02  0.19682482177E+03  0.24580789823E+03  0.91622578289E+02 0.  0.
          5    1    1    2  502    0 -0.89670235046E+02 -0.90829727332E+02  0.70773262658E+02  0.14600382710E+03  0.41800000000E+01 0. -1.
         -5    1    1    2    0  502  0.17210348297E+02  0.11838667007E+01  0.78004789306E+02  0.79998857389E+02  0.41800000000E+01 0. -1.
        -11    1    3    3    0    0 -0.18258410223E+02  0.12679382223E+02  0.62694893810E+02  0.66519064841E+02  0.00000000000E+00 0.  1.
         11    1    3    3    0    0  0.90718296973E+02  0.76966478408E+02  0.13412992796E+03  0.17928883339E+03  0.00000000000E+00 0. -1.
</event>
<event>
 7    1  0.6610867E-006  0.1429859E+03  0.7561462E-02  0.1209367E+00
         -2   -1    0    0    0  501 -0.00000000000E+00  0.00000000000E+00  0.63774458077E+02  0.63774458077E+02  0.00000000000E+00 0.  1.
          2   -1    0    0  501    0  0.00000000000E+00 -0.00000000000E+00 -0.11716391671E+04  0.11716391671E+04  0.00000000000E+00 0. -1.
         23    2    1    2    0    0  0.12393453580E+03  0.23682893479E+02 -0.64347400688E+02  0.16678939781E+03  0.88076481758E+02 0.  0.
          5    1    1    2  502    0 -0.99497425223E+02 -0.37307201459E+02 -0.10329751971E+04  0.10384347813E+04  0.41800000000E+01 0. -1.
         -5    1    1    2    0  502 -0.24437110581E+02  0.13624307980E+02 -0.10542111247E+02  0.30189446020E+02  0.41800000000E+01 0.  1.
        -11    1    3    3    0    0  0.10626656951E+03 -0.16409479045E+02 -0.31545023033E+02  0.11205776758E+03  0.00000000000E+00 0.  1.
         11    1    3    3    0    0  0.17667966294E+02  0.40092372524E+02 -0.32802377656E+02  0.54731630228E+02  0.00000000000E+00 0. -1.
</event>
<event>
 7    1  0.6610867E-006  0.8847968E+02  0.7561462E-02  0.1306576E+00
         -2   -1    0    0    0  501 -0.00000000000E+00  0.00000000000E+00  0.20504867939E+02  0.20504867939E+02  0.00000000000E+00 0.  1.
          2   -1    0    0  501    0  0.00000000000E+00 -0.00000000000E+00 -0.75178645987E+03  0.75178645987E+03  0.00000000000E+00 0. -1.
         23    2    1    2    0    0 -0.67908460932E+01 -0.38920160994E+02 -0.18093212139E+03  0.20652570522E+03  0.91408642055E+02 0.  0.
          5    1    1    2  502    0  0.32914028709E+02  0.58922549503E+02 -0.50540506197E+03  0.50990876556E+03  0.41800000000E+01 0.  1.
         -5    1    1    2    0  502 -0.26123182616E+02 -0.20002388509E+02 -0.44944408565E+02  0.55856857030E+02  0.41800000000E+01 0.  1.
        -11    1    3    3    0    0  0.22243074056E+02 -0.41436353472E+02 -0.16832774328E+03  0.17477401091E+03  0.00000000000E+00 0. -1.
         11    1    3    3    0    0 -0.29033920149E+02  0.25161924788E+01 -0.12604378112E+02  0.31751694307E+02  0.00000000000E+00 0.  1.
</event>
<event>
 7    1  0.6610867E-006  0.1531497E+03  0.7561462E-02  0.1196655E+00
         -1   -1    0    0    0  501 -0.00000000000E+00  0.00000000000E+00  0.54937551394E+02  0.54937551394E+02  0.00000000000E+00 0.  1.
          1   -1    0    0  501    0  0.00000000000E+00 -0.00000000000E+00 -0.50981336780E+03  0.50981336780E+03  0.00000000000E+00 0. -1.
         23    2    1    2    0    0  0.11261408113E+03  0.46807120243E+02 -0.15365545578E+03  0.21653478149E+03  0.91675922321E+02 0.  0.
          5    1    1    2  502    0 -0.12886855573E+03 -0.53299350803E+02 -0.19096366684E+03  0.23650057062E+03  0.41800000000E+01 0. -1.
         -5    1    1    2    0  502  0.16254474599E+02  0.64922305599E+01 -0.11025669379E+03  0.11171556708E+03  0.41800000000E+01 0. -1.
        -11    1    3    3    0    0  0.91561732159E+02 -0.61795048907E+01 -0.11722598292E+03  0.14887467262E+03  0.00000000000E+00 0.  1.
         11    1    3    3    0    0  0.21052348968E+02  0.52986625134E+02 -0.36429472859E+02  0.67660108875E+02  0.00000000000E+00 0. -1.
</event>
<event>
 7    1  0.6610867E-006  0.9899066E+02  0.7561462E-02  0.1282433E+00
         -2   -1    0    0    0  501 -0.00000000000E+00  0.00000000000E+00  0.47319572954E+02  0.47319572954E+02  0.00000000000E+00 0.  1.
          2   -1    0    0  501    0  0.00000000000E+00 -0.00000000000E+00 -0.32961511127E+03  0.32961511127E+03  0.00000000000E+00 0. -1.
         23    2    1    2    0    0 -0.57716024083E+02 -0.32826617340E+01 -0.91704820411E+02  0.14174409236E+03  0.91321948771E+02 0.  0.
          5    1    1    2  502    0  0.93293314945E+02 -0.71235152676E+01 -0.98937006637E+02  0.13623652508E+03  0.41800000000E+01 0. -1.
         -5    1    1    2    0  502 -0.35577290862E+02  0.10406177002E+02 -0.91653711268E+02  0.98954066789E+02  0.41800000000E+01 0. -1.
        -11    1    3    3    0    0 -0.31808810080E+02 -0.18674693504E+02 -0.10312108753E+03  0.10951941960E+03  0.00000000000E+00 0. -1.
         11    1    3    3    0    0 -0.25907214003E+02  0.15392031770E+02  0.11416267118E+02  0.32224672757E+02  0.00000000000E+00 0.  1.
</event>
<event>
 7    1  0.6610867E-006  0.1038747E+03  0.7561462E-02  0.1272353E+00
         -1   -1    0    0    0  501 -0.00000000000E+00  0.00000000000E+00  0.16905035348E+02  0.16905035348E+02  0.00000000000E+00 0.  1.
          1   -1    0    0  501    0  0.00000000000E+00 -0.00000000000E+00 -0.87182607641E+03  0.87182607641E+03  0.00000000000E+00 0. -1.
         23    2    1    2    0    0 -0.22763631696E+01 -0.45924737152E+02 -0.24802166159E+03  0.26811641600E+03  0.90870262468E+02 0.  0.
          5    1    1    2  502    0 -0.33312371472E+02 -0.30214915162E+02 -0.18838526138E+03  0.19372437714E+03  0.41800000000E+01 0. -1.
         -5    1    1    2    0  502  0.35588734642E+02  0.76139652314E+02 -0.41851411810E+03  0.42689031862E+03  0.41800000000E+01 0.  1.
        -11    1    3    3    0    0 -0.32627608300E+02 -0.29152492565E+02 -0.47349815816E+02  0.64470409522E+02  0.00000000000E+00 0. -1.
         11    1    3    3    0    0  0.30351245131E+02 -0.16772244587E+02 -0.20067184577E+03  0.20364600648E+03  0.00000000000E+00 0.  1.
</event>
<event>
 7    1  0.6610867E-006  0.1329071E+03  0.7561462E-02  0.1223205E+00
          3   -1    0    0  501    0  0.00000000000E+00  0.00000000000E+00  0.18544989221E+03  0.18544989221E+03  0.00000000000E+00 0. -1.
         -3   -1    0    0    0  501 -0.00000000000E+00 -0.00000000000E+00 -0.15372142785E+03  0.15372142785E+03  0.00000000000E+00 0.  1.
         23    2    1    2    0    0  0.43881085451E+02 -0.11118583717E+03 -0.32626351690E+02  0.15456994394E+03  0.92409678593E+02 0.  0.
          5    1    1    2  502    0 -0.21394613325E+02  0.62241738167E+02  0.10006415290E+03  0.11984185640E+03  0.41800000000E+01 0.  1.
         -5    1    1    2    0  502 -0.22486472127E+02  0.48944099000E+02 -0.35709336852E+02  0.64759519717E+02  0.41800000000E+01 0.  1.
        -11    1    3    3    0    0  0.65446372118E+02 -0.54417444505E+02  0.10694511029E+01  0.85121264179E+02  0.00000000000E+00 0. -1.
         11    1    3    3    0    0 -0.21565286666E+02 -0.56768392663E+02 -0.33695802793E+02  0.69448679760E+02  0.00000000000E+00 0.  1.
</event>
<event>
 7    1  0.6610867E-006  0.1043017E+03  0.7561462E-02  0.1271502E+00
          1   -1    0    0  501    0  0.00000000000E+00  0.00000000000E+00  0.20691214675E+02  0.20691214675E+02  0.00000000000E+00 0. -1.
         -1   -1    0    0    0  501 -0.00000000000E+00 -0.00000000000E+00 -0.74714088311E+03  0.74714088311E+03  0.00000000000E+00 0.  1.
         23    2    1    2    0    0 -0.24075956163E+02 -0.18523211603E+02 -0.44618704994E+03  0.45673733258E+03  0.92754225806E+02 0.  0.
          5    1    1    2  502    0  0.61238059507E+02 -0.13271440921E+02 -0.23855589895E+03  0.24668323899E+03  0.41800000000E+01 0. -1.
         -5    1    1    2    0  502 -0.37162103344E+02  0.31794652524E+02 -0.41706719552E+02  0.64411526219E+02  0.41800000000E+01 0.  1.
        -11    1    3    3    0    0 -0.34094966731E+02  0.31067334119E+02 -0.24359190689E+03  0.24792067906E+03  0.00000000000E+00 0.  1.
         11    1    3    3    0    0  0.10019010568E+02 -0.49590545723E+02 -0.20259514305E+03  0.20881665352E+03  0.00000000000E+00 0. -1.
</event>
<event>
 7    1  0.6610867E-006  0.1743880E+03  0.7561462E-02  0.1173348E+00
         -2   -1    0    0    0  501 -0.00000000000E+00  0.00000000000E+00  0.27015604635E+02  0.27015604635E+02  0.00000000000E+00 0.  1.
          2   -1    0    0  501    0  0.00000000000E+00 -0.00000000000E+00 -0.25384446998E+04  0.25384446998E+04  0.00000000000E+00 0. -1.
         23    2    1    2    0    0 -0.16812767761E+03  0.49910568874E+01 -0.39700181162E+03  0.44066814665E+03  0.91028294575E+02 0.  0.
          5    1    1    2  502    0  0.11941851555E+03  0.24240605484E+02 -0.18633472104E+04  0.18673319704E+04  0.41800000000E+01 0.  1.
         -5    1    1    2    0  502  0.48709162057E+02 -0.29231662371E+02 -0.25108007312E+03  0.25746018735E+03  0.41800000000E+01 0.  1.
        -11    1    3    3    0    0 -0.14434081328E+03  0.12664843344E+02 -0.38788290602E+03  0.41406257669E+03  0.00000000000E+00 0. -1.
         11    1    3    3    0    0 -0.23786864333E+02 -0.76737864570E+01 -0.91189056019E+01  0.26605569958E+02  0.00000000000E+00 0.  1.
</event>
<event>
 7    1  0.6610867E-006  0.2025168E+03  0.7561462E-02  0.1147633E+00
          2   -1    0    0  501    0  0.00000000000E+00  0.00000000000E+00  0.88842708438E+03  0.88842708438E+03  0.00000000000E+00 0. -1.
         -2   -1    0    0    0  501 -0.00000000000E+00 -0.00000000000E+00 -0.50580755907E+02  0.50580755907E+02  0.00000000000E+00 0.  1.
         23    2    1    2    0    0  0.82641066592E+02 -0.65591848157E+02  0.19649746778E+03  0.24077574697E+03  0.90718625722E+02 0.  0.
          5    1    1    2  502    0 -0.45204234753E+01 -0.92795076707E+02  0.29691122466E+03  0.31113519283E+03  0.41800000000E+01 0. -1.
         -5    1    1    2    0  502 -0.78120643117E+02  0.15838692486E+03  0.34443763603E+03  0.38709690048E+03  0.41800000000E+01 0.  1.
        -11    1    3    3    0    0  0.32548203293E+02  0.18544803589E+02  0.31658981040E+02  0.49046777246E+02  0.00000000000E+00 0. -1.
         11    1    3    3    0    0  0.50092863299E+02 -0.84136651746E+02  0.16483848674E+03  0.19172896973E+03  0.00000000000E+00 0.  1.
</event>
<event>
 7    1  0.6610867E-006  0.1136718E+03  0.7561462E-02  0.1253918E+00
          2   -1    0    0  501    0  0.00000000000E+00  0.00000000000E+00  0.93922573062E+03  0.93922573062E+03  0.00000000000E+00 0. -1.
         -2   -1    0    0    0  501 -0.00000000000E+00 -0.00000000000E+00 -0.19636124030E+02  0.19636124030E+02  0.00000000000E+00 0.  1.
         23    2    1    2    0    0  0.74919353256E+01 -0.47291370877E+02  0.18292574948E+03  0.21012084032E+03  0.91631516748E+02 0.  0.
          5    1    1    2  502    0  0.43833307289E+02 -0.12409286578E+02  0.41683633849E+03  0.41933918814E+03  0.41800000000E+01 0. -1.
         -5    1    1    2    0  502 -0.51325242614E+02  0.59700657455E+02  0.31982751862E+03  0.32940182619E+03  0.41800000000E+01 0. -1.
        -11    1    3    3    0    0 -0.89439945590E+01  0.26077020179E+02  0.39296555692E+02  0.48002346915E+02  0.00000000000E+00 0.  1.
         11    1    3    3    0    0  0.16435929885E+02 -0.73368391056E+02  0.14362919379E+03  0.16211849341E+03  0.00000000000E+00 0. -1.
</event>
<event>
 7    1  0.6610867E-006  0.9165816E+02  0.7561462E-02  0.1298885E+00
          2   -1    0    0  501    0  0.00000000000E+00  0.00000000000E+00  0.10367436235E+04  0.10367436235E+04  0.00000000000E+00 0. -1.
         -2   -1    0    0    0  501 -0.00000000000E+00 -0.00000000000E+00 -0.18850637755E+02  0.18850637755E+02  0.00000000000E+00 0.  1.
         23    2    1    2    0    0  0.55886056855E+02 -0.37784968705E+02  0.24540156961E+03  0.27013781605E+03  0.90562431978E+02 0.  0.
          5    1    1    2  502    0 -0.52967681190E+02  0.29804628899E+02  0.13746627814E+03  0.15036070358E+03  0.41800000000E+01 0. -1.
         -5    1    1    2    0  502 -0.29183756659E+01  0.79803398061E+01  0.63502513801E+03  0.63509574164E+03  0.41800000000E+01 0. -1.
        -11    1    3    3    0    0 -0.19730190708E+02  0.11336431751E+02  0.48923051746E+02  0.53956094210E+02  0.00000000000E+00 0. -1.
         11    1    3    3    0    0  0.75616247564E+02 -0.49121400456E+02  0.19647851786E+03  0.21618172184E+03  0.00000000000E+00 0.  1.
</event>
<event>
 7    1  0.6610867E-006  0.1215636E+03  0.7561462E-02  0.1240540E+00
         -3   -1    0    0    0  501 -0.00000000000E+00  0.00000000000E+00  0.68018526313E+03  0.68018526313E+03  0.00000000000E+00 0.  1.
          3   -1    0    0  501    0  0.00000000000E+00 -0.00000000000E+00 -0.30022267534E+02  0.30022267534E+02  0.00000000000E+00 0. -1.
         23    2    1    2    0    0  0.33302591883E+02 -0.86690688217E+02  0.32283515554E+03  0.34871913480E+03  0.93585037652E+02 0.  0.
          5    1    1    2  502    0  0.19415191760E+02  0.25132844045E+02  0.24055970728E+03  0.24268303338E+03  0.41800000000E+01 0. -1.
         -5    1    1    2    0  502 -0.52717783642E+02  0.61557844172E+02  0.86768132775E+02  0.11880536249E+03  0.41800000000E+01 0.  1.
        -11    1    3    3    0    0 -0.78526717930E+00  0.18934601066E+02  0.71489234156E+02  0.73958409680E+02  0.00000000000E+00 0. -1.
         11    1    3    3    0    0  0.34087859062E+02 -0.10562528928E+03  0.25134592138E+03  0.27476072512E+03  0.00000000000E+00 0.  1.
</event>
<event>
 7    1  0.6610867E-006  0.1131433E+03  0.7561462E-02  0.1254857E+00
          4   -1    0    0  501    0  0.00000000000E+00  0.00000000000E+00  0.31978739367E+02  0.31978739367E+02  0.00000000000E+00 0. -1.
         -4   -1    0    0    0  501 -0.00000000000E+00 -0.00000000000E+00 -0.45664799001E+03  0.45664799001E+03  0.00000000000E+00 0.  1.
         23    2    1    2    0    0  0.34968643220E+02  0.18794785127E+02 -0.26048944173E+03  0.27844181484E+03  0.89994694525E+02 0.  0.
          5    1    1    2  502    0 -0.40602901696E+01 -0.69722391138E+02 -0.10447958337E+03  0.12574240941E+03  0.41800000000E+01 0. -1.
         -5    1    1    2    0  502 -0.30908353050E+02  0.50927606011E+02 -0.59700225540E+02  0.84442505125E+02  0.41800000000E+01 0. -1.
        -11    1    3    3    0    0  0.22976248684E+02  0.54388211799E+02 -0.18377044253E+03  0.19302217783E+03  0.00000000000E+00 0.  1.
         11    1    3    3    0    0  0.11992394536E+02 -0.35593426672E+02 -0.76718999202E+02  0.85419637013E+02  0.00000000000E+00 0. -1.
</event>
<event>
 7    1  0.6610867E-006  0.7165769E+02  0.7561462E-02  0.1354545E+00
         -2   -1    0    0    0  501 -0.00000000000E+00  0.00000000000E+00  0.96073026715E+02  0.96073026715E+02  0.00000000000E+00 0.  1.
          2   -1    0    0  501    0  0.00000000000E+00 -0.00000000000E+00 -0.15190019400E+03  0.15190019400E+03  0.00000000000E+00 0. -1.
         23    2    1    2    0    0  0.18133039264E+02  0.16393027154E+02  0.21980152787E+02  0.98645041263E+02  0.93006336327E+02 0.  0.
          5    1    1    2  502    0  0.23204043204E+02 -0.23271991340E+02  0.22831047334E+02  0.40233596959E+02  0.41800000000E+01 0.  1.
         -5    1    1    2    0  502 -0.41337082468E+02  0.68789641855E+01 -0.10063836740E+03  0.10909458249E+03  0.41800000000E+01 0.  1.
        -11    1    3    3    0    0  0.72884158617E+01  0.40757788025E+02  0.46608723173E+02  0.62343334577E+02  0.00000000000E+00 0.  1.
         11    1    3    3    0    0  0.10844623402E+02 -0.24364760871E+02 -0.24628570386E+02  0.36301706685E+02  0.00000000000E+00 0. -1.
</event>
<event>
 7    1  0.6610867E-006  0.1637902E+03  0.7561462E-02  0.1184483E+00
         -2   -1    0    0    0  501 -0.00000000000E+00  0.00000000000E+00  0.26630699711E+03  0.26630699711E+03  0.00000000000E+00 0.  1.
          2   -1    0    0  501    0  0.00000000000E+00 -0.00000000000E+00 -0.11804109815E+03  0.11804109815E+03  0.00000000000E+00 0. -1.
         23    2    1    2    0    0  0.51847788263E+01  0.13548621176E+03  0.10769752366E+03  0.19546090847E+03  0.90679736599E+02 0.  0.
          5    1    1    2  502    0  0.44774325933E+02 -0.47056308228E+02  0.56256993187E+02  0.86031146041E+02  0.41800000000E+01 0. -1.
         -5    1    1    2    0  502 -0.49959104759E+02 -0.88429903530E+02 -0.15688617883E+02  0.10285604075E+03  0.41800000000E+01 0. -1.
        -11    1    3    3    0    0  0.35669035350E+02  0.12270482878E+03  0.97926231900E+02  0.16099162085E+03  0.00000000000E+00 0.  1.
         11    1    3    3    0    0 -0.30484256524E+02  0.12781382979E+02  0.97712917594E+01  0.34469287625E+02  0.00000000000E+00 0. -1.
</event>
<event>
 7    1  0.6610867E-006  0.7722990E+02  0.7561462E-02  0.1337102E+00
         -3   -1    0    0    0  501 -0.00000000000E+00  0.00000000000E+00  0.22054200205E+03  0.22054200205E+03  0.00000000000E+00 0.  1.
          3   -1    0    0  501    0  0.00000000000E+00 -0.00000000000E+00 -0.82823116812E+02  0.82823116812E+02  0.00000000000E+00 0. -1.
         23    2    1    2    0    0 -0.13342026286E+02 -0.92619938336E+01  0.15006352627E+03  0.17662365294E+03  0.91722727100E+02 0.  0.
          5    1    1    2  502    0 -0.23317576104E+02  0.18984608793E+02  0.47140804934E+02  0.56070068809E+02  0.41800000000E+01 0.  1.
         -5    1    1    2    0  502  0.36659602390E+02 -0.97226149591E+01 -0.59485445962E+02  0.70671397116E+02  0.41800000000E+01 0.  1.
        -11    1    3    3    0    0 -0.26977788205E+02 -0.42318885516E+02  0.52110901284E+02  0.72348014212E+02  0.00000000000E+00 0. -1.
         11    1    3    3    0    0  0.13635761919E+02  0.33056891682E+02  0.97952624986E+02  0.10427563873E+03  0.00000000000E+00 0.  1.
</event>
<event>
 7    1  0.6610867E-006  0.1069214E+03  0.7561462E-02  0.1266380E+00
         -2   -1    0    0    0  501 -0.00000000000E+00  0.00000000000E+00  0.77197173690E+02  0.77197173690E+02  0.00000000000E+00 0.  1.
          2   -1    0    0  501    0  0.00000000000E+00 -0.00000000000E+00 -0.24104598241E+03  0.24104598241E+03  0.00000000000E+00 0. -1.
         23    2    1    2    0    0  0.14464216421E+02 -0.32403441212E+02  0.13986024745E+02  0.97943647289E+02  0.90211709867E+02 0.  0.
          5    1    1    2  502    0  0.28630126442E+02  0.59386454682E+02 -0.14577827012E+03  0.16004752912E+03  0.41800000000E+01 0.  1.
         -5    1    1    2    0  502 -0.43094342863E+02 -0.26983013470E+02 -0.32056563351E+02  0.60251979690E+02  0.41800000000E+01 0.  1.
        -11    1    3    3    0    0 -0.33791919193E+02  0.69485701503E+01  0.21872027926E+01  0.34568197609E+02  0.00000000000E+00 0. -1.
         11    1    3    3    0    0  0.48256135614E+02 -0.39352011362E+02  0.11798821953E+02  0.63375449680E+02  0.00000000000E+00 0.  1.
</event>
<event>
 7    1  0.6610867E-006  0.1917296E+03  0.7561462E-02  0.1156911E+00
         -4   -1    0    0    0  501 -0.00000000000E+00  0.00000000000E+00  0.15227970136E+03  0.15227970136E+03  0.00000000000E+00 0.  1.
          4   -1    0    0  501    0  0.00000000000E+00 -0.00000000000E+00 -0.32608601822E+03  0.32608601822E+03  0.00000000000E+00 0. -1.
         23    2    1    2    0    0  0.14869581032E+03  0.10534803943E+03 -0.14826053738E+02  0.20609585678E+03  0.95115912920E+02 0.  0.
          5    1    1    2  502    0  0.38281337448E+01  0.28003708012E+01  0.15348109602E+02  0.16599203383E+02  0.41800000000E+01 0. -1.
         -5    1    1    2    0  502 -0.15252394407E+03 -0.10814841023E+03 -0.17432837273E+03  0.25567065942E+03  0.41800000000E+01 0. -1.
        -11    1    3    3    0    0  0.22675728887E+02 -0.42897373057E+01  0.25363740412E+02  0.34291542024E+02  0.00000000000E+00 0.  1.
         11    1    3    3    0    0  0.12602008144E+03  0.10963777674E+03 -0.40189794150E+02  0.17180431475E+03  0.00000000000E+00 0. -1.
</event>
<event>
 7    1  0.6610867E-006  0.1397578E+03  0.7561462E-02  0.1213655E+00
         -1   -1    0    0    0  501 -0.00000000000E+00  0.00000000000E+00  0.14181193042E+03  0.14181193042E+03  0.00000000000E+00 0.  1.
          1   -1    0    0  501    0  0.00000000000E+00 -0.00000000000E+00 -0.20982577682E+03  0.20982577682E+03  0.00000000000E+00 0. -1.
         23    2    1    2    0    0 -0.67410971645E+02  0.11152203906E+03  0.10943924875E+01  0.15824046050E+03  0.89763251667E+02 0.  0.
          5    1    1    2  502    0  0.47966440381E+02 -0.87327180370E+02 -0.10564327679E+03  0.14527487796E+03  0.41800000000E+01 0. -1.
         -5    1    1    2    0  502  0.19444531263E+02 -0.24194858690E+02  0.36535037907E+02  0.48122368790E+02  0.41800000000E+01 0. -1.
        -11    1    3    3    0    0  0.36079401486E+01  0.61503601460E+02 -0.26544371643E+02  0.67084378886E+02  0.00000000000E+00 0. -1.
         11    1    3    3    0    0 -0.71018911793E+02  0.50018437600E+02  0.27638764131E+02  0.91156081612E+02  0.00000000000E+00 0.  1.
</event>
<event>
 7    1  0.6610867E-006  0.1251303E+03  0.7561462E-02  0.1234866E+00
         -1   -1    0    0    0  501 -0.00000000000E+00  0.00000000000E+00  0.13149142441E+02  0.13149142441E+02  0.00000000000E+00 0.  1.
          1   -1    0    0  501    0  0.00000000000E+00 -0.00000000000E+00 -0.12219178402E+04  0.12219178402E+04  0.00000000000E+00 0. -1.
         23    2    1    2    0    0  0.49338925345E+02  0.41203857997E+02 -0.51047312492E+03  0.52274910254E+03  0.92475539841E+02 0.  0.
          5    1    1    2  502    0  0.34201327582E+02  0.16776197114E+02 -0.16431117810E+03  0.16872109307E+03  0.41800000000E+01 0. -1.
         -5    1    1    2    0  502 -0.83540252928E+02 -0.57980055111E+02 -0.53398439473E+03  0.54359678703E+03  0.41800000000E+01 0. -1.
        -11    1    3    3    0    0  0.58440803522E+02  0.63368208803E+02 -0.43849119623E+03  0.44688408628E+03  0.00000000000E+00 0.  1.
         11    1    3    3    0    0 -0.91018781763E+01 -0.22164350806E+02 -0.71981928696E+02  0.75865016257E+02  0.00000000000E+00 0. -1.
</event>
<event>
 7    1  0.6610867E-006  0.1854214E+03  0.7561462E-02  0.1162657E+00
          1   -1    0    0  501    0  0.00000000000E+00  0.00000000000E+00  0.84842367743E+03  0.84842367743E+03  0.00000000000E+00 0. -1.
         -1   -1    0    0    0  501 -0.00000000000E+00 -0.00000000000E+00 -0.44284989141E+02  0.44284989141E+02  0.00000000000E+00 0.  1.
         23    2    1    2    0    0 -0.14931556482E+03  0.52867689525E+02  0.44349231863E+03  0.47942515971E+03  0.89849410579E+02 0.  0.
          5    1    1    2  502    0 -0.11683362060E+02 -0.21409554807E+02  0.11660638502E+03  0.11920315186E+03  0.41800000000E+01 0. -1.
         -5    1    1    2    0  502  0.16099892688E+03 -0.31458134718E+02  0.24403998464E+03  0.29408035500E+03  0.41800000000E+01 0. -1.
        -11    1    3    3    0    0 -0.43013385247E+00  0.31600941201E+02  0.70960906521E+02  0.77680465718E+02  0.00000000000E+00 0.  1.
         11    1    3    3    0    0 -0.14888543097E+03  0.21266748324E+02  0.37253141211E+03  0.40174469399E+03  0.00000000000E+00 0. -1.
</event>
<event>
 7    1  0.6610867E-006  0.1372045E+03  0.7561462E-02  0.1217141E+00
         -1   -1    0    0    0  501 -0.00000000000E+00  0.00000000000E+00  0.12946998030E+03  0.12946998030E+03  0.00000000000E+00 0.  1.
          1   -1    0    0  501    0  0.00000000000E+00 -0.00000000000E+00 -0.15953992700E+03  0.15953992700E+03  0.00000000000E+00 0. -1.
         23    2    1    2    0    0  0.67461297352E+02  0.59873936665E+02  0.12505753418E+02  0.12902350368E+03  0.91404352751E+02 0.  0.
          5    1    1    2  502    0 -0.50983198416E+02 -0.94767661591E+02 -0.79730456880E+01  0.10798721249E+03  0.41800000000E+01 0.  1.
         -5    1    1    2    0  502 -0.16478098935E+02  0.34893724927E+02 -0.34602654431E+02  0.51999191123E+02  0.41800000000E+01 0.  1.
        -11    1    3    3    0    0 -0.78538972376E+01  0.51530996972E+02  0.10773835972E+02  0.53227839448E+02  0.00000000000E+00 0.  1.
         11    1    3    3    0    0  0.75315194589E+02  0.83429396926E+01  0.17319174457E+01  0.75795664235E+02  0.00000000000E+00 0. -1.
</event>
<event>
 7    1  0.6610867E-006  0.1099790E+03  0.7561462E-02  0.1260609E+00
         -2   -1    0    0    0  501 -0.00000000000E+00  0.00000000000E+00  0.10974982293E+03  0.10974982293E+03  0.00000000000E+00 0. -1.
          2   -1    0    0  501    0  0.00000000000E+00 -0.00000000000E+00 -0.12596846202E+03  0.12596846202E+03  0.00000000000E+00 0.  1.
         23    2    1    2    0    0  0.46481595817E+01 -0.46108920942E+02 -0.60901204874E+00  0.10140811983E+03  0.90197549273E+02 0.  0.
          5    1    1    2  502    0  0.42443719536E+01 -0.38047073901E+02  0.18808974255E+02  0.42858423189E+02  0.41800000000E+01 0. -1.
         -5    1    1    2    0  502 -0.88925315354E+01  0.84155994843E+02 -0.34418601299E+02  0.91451741921E+02  0.41800000000E+01 0. -1.
        -11    1    3    3    0    0 -0.14002449062E+02 -0.67154773919E+02 -0.14390086818E+02  0.70092131073E+02  0.00000000000E+00 0.  1.
         11    1    3    3    0    0  0.18650608644E+02  0.21045852977E+02  0.13781074769E+02  0.31315988762E+02  0.00000000000E+00 0. -1.
</event>
<event>
 7    1  0.6610867E-006  0.1112290E+03  0.7561462E-02  0.1258311E+00
          2   -1    0    0  501    0  0.00000000000E+00  0.00000000000E+00  0.80801797097E+02  0.80801797097E+02  0.00000000000E+00 0. -1.
         -2   -1    0    0    0  501 -0.00000000000E+00 -0.00000000000E+00 -0.36269585921E+03  0.36269585921E+03  0.00000000000E+00 0.  1.
         23    2    1    2    0    0  0.47263070174E+02  0.17510372662E+02 -0.26109854562E+03  0.28079402564E+03  0.90179949848E+02 0.  0.
          5    1    1    2  502    0 -0.14316790727E+02  0.46028395926E+02  0.44496133684E+02  0.65734024988E+02  0.41800000000E+01 0. -1.
         -5    1    1    2    0  502 -0.32946279447E+02 -0.63538768588E+02 -0.65291650171E+02  0.96969605677E+02  0.41800000000E+01 0.  1.
        -11    1    3    3    0    0  0.68495580108E+02 -0.82561026566E+01 -0.15748666848E+03  0.17193562305E+03  0.00000000000E+00 0.  1.
         11    1    3    3    0    0 -0.21232509934E+02  0.25766475319E+02 -0.10361187715E+03  0.10885840259E+03  0.00000000000E+00 0. -1.
</event>
<event>
 7    1  0.6610867E-006  0.9500684E+02  0.7561462E-02  0.1291161E+00
         -1   -1    0    0    0  501 -0.00000000000E+00  0.00000000000E+00  0.28128738787E+02  0.28128738787E+02  0.00000000000E+00 0.  1.
          1   -1    0    0  501    0  0.00000000000E+00 -0.00000000000E+00 -0.60201600190E+03  0.60201600190E+03  0.00000000000E+00 0. -1.
         23    2    1    2    0    0  0.19660106090E+02 -0.39511381695E+02 -0.89562985131E+02  0.12798706268E+03  0.80071785618E+02 0.  0.
          5    1    1    2  502    0 -0.17821413475E+02 -0.27511613658E+02 -0.35399013393E+03  0.35552915349E+03  0.41800000000E+01 0. -1.
         -5    1    1    2    0  502 -0.18386926158E+01  0.67022995353E+02 -0.13033414406E+03  0.14662852452E+03  0.41800000000E+01 0. -1.
        -11    1    3    3    0    0 -0.27911003053E+02 -0.30554209435E+02 -0.53426470983E+02  0.67579372646E+02  0.00000000000E+00 0. -1.
         11    1    3    3    0    0  0.47571109143E+02 -0.89571722593E+01 -0.36136514148E+02  0.60407690030E+02  0.00000000000E+00 0.  1.
</event>
<event>
 7    1  0.6610867E-006  0.1010915E+03  0.7561462E-02  0.1278017E+00
          2   -1    0    0  501    0  0.00000000000E+00  0.00000000000E+00  0.27400918886E+02  0.27400918886E+02  0.00000000000E+00 0. -1.
         -2   -1    0    0    0  501 -0.00000000000E+00 -0.00000000000E+00 -0.46546118143E+03  0.46546118143E+03  0.00000000000E+00 0.  1.
         23    2    1    2    0    0 -0.97326960725E+01 -0.17449385075E+02 -0.23479906744E+03  0.25335999506E+03  0.93067065132E+02 0.  0.
          5    1    1    2  502    0  0.23557838705E+02  0.63153565916E+02 -0.16461978544E+03  0.17793395070E+03  0.41800000000E+01 0.  1.
         -5    1    1    2    0  502 -0.13825142632E+02 -0.45704180841E+02 -0.38641409661E+02  0.61568154558E+02  0.41800000000E+01 0.  1.
        -11    1    3    3    0    0 -0.24867087861E+02 -0.47193412597E+02 -0.19091649868E+03  0.19822890737E+03  0.00000000000E+00 0.  1.
         11    1    3    3    0    0  0.15134391789E+02  0.29744027522E+02 -0.43882568766E+02  0.55131087687E+02  0.00000000000E+00 0. -1.
</event>
<event>
 7    1  0.6610867E-006  0.1652868E+03  0.7561462E-02  0.1182854E+00
          2   -1    0    0  501    0  0.00000000000E+00  0.00000000000E+00  0.13609420426E+03  0.13609420426E+03  0.00000000000E+00 0. -1.
         -2   -1    0    0    0  501 -0.00000000000E+00 -0.00000000000E+00 -0.22370057629E+03  0.22370057629E+03  0.00000000000E+00 0.  1.
         23    2    1    2    0    0  0.11968056475E+03 -0.61889177305E+02 -0.66229971278E+02  0.17470760890E+03  0.89345574416E+02 0.  0.
          5    1    1    2  502    0 -0.10310035822E+03 -0.10503270168E+02  0.10321420221E+02  0.10423054574E+03  0.41800000000E+01 0. -1.
         -5    1    1    2    0  502 -0.16580206530E+02  0.72392447473E+02 -0.31697820976E+02  0.80856625915E+02  0.41800000000E+01 0. -1.
        -11    1    3    3    0    0  0.22530832410E+02 -0.49688486019E+02 -0.52718040523E+02  0.75866829699E+02  0.00000000000E+00 0.  1.
         11    1    3    3    0    0  0.97149732338E+02 -0.12200691286E+02 -0.13511930755E+02  0.98840779206E+02  0.00000000000E+00 0. -1.
</event>
<event>
 7    1  0.6610867E-006  0.2253799E+03  0.7561462E-02  0.1129934E+00
         -3   -1    0    0    0  501 -0.00000000000E+00  0.00000000000E+00  0.19488005182E+03  0.19488005182E+03  0.00000000000E+00 0.  1.
          3   -1    0    0  501    0  0.00000000000E+00 -0.00000000000E+00 -0.27730046175E+03  0.27730046175E+03  0.00000000000E+00 0. -1.
         23    2    1    2    0    0  0.17485220098E+03 -0.10766286899E+03 -0.21622883408E+02  0.22415261912E+03  0.87248278041E+02 0.  0.
          5    1    1    2  502    0 -0.14613722549E+03  0.13265461754E+03 -0.68514407352E+02  0.20896179709E+03  0.41800000000E+01 0. -1.
         -5    1    1    2    0  502 -0.28714975490E+02 -0.24991748549E+02  0.77168808336E+01  0.39066097357E+02  0.41800000000E+01 0. -1.
        -11    1    3    3    0    0  0.72164984979E+02 -0.81951113109E+02 -0.40805651056E+02  0.11657131360E+03  0.00000000000E+00 0. -1.
         11    1    3    3    0    0  0.10268721600E+03 -0.25711755882E+02  0.19182767648E+02  0.10758130551E+03  0.00000000000E+00 0.  1.
</event>
<event>
 7    1  0.6610867E-006  0.9569078E+02  0.7561462E-02  0.1289628E+00
          1   -1    0    0  501    0  0.00000000000E+00  0.00000000000E+00  0.10586545770E+03  0.10586545770E+03  0.00000000000E+00 0. -1.
         -1   -1    0    0    0  501 -0.00000000000E+00 -0.00000000000E+00 -0.20105288028E+03  0.20105288028E+03  0.00000000000E+00 0.  1.
         23    2    1    2    0    0  0.31808304816E+01  0.80770889957E+02 -0.10133042062E+03  0.15785337887E+03  0.90087628062E+02 0.  0.
          5    1    1    2  502    0 -0.34301547697E+02 -0.51645386553E+02 -0.49077229121E+02  0.79182630323E+02  0.41800000000E+01 0. -1.
         -5    1    1    2    0  502  0.31120717215E+02 -0.29125503405E+02  0.55220227164E+02  0.69882328787E+02  0.41800000000E+01 0. -1.
        -11    1    3    3    0    0 -0.12661747232E+02  0.52512122339E+02 -0.11150211818E+03  0.12389739785E+03  0.00000000000E+00 0.  1.
         11    1    3    3    0    0  0.15842577714E+02  0.28258767618E+02  0.10171697555E+02  0.33955981020E+02  0.00000000000E+00 0. -1.
</event>
<event>
 7    1  0.6610867E-006  0.2004278E+03  0.7561462E-02  0.1149379E+00
          2   -1    0    0  501    0  0.00000000000E+00  0.00000000000E+00  0.64718596838E+03  0.64718596838E+03  0.00000000000E+00 0. -1.
         -2   -1    0    0    0  501 -0.00000000000E+00 -0.00000000000E+00 -0.77790084978E+02  0.77790084978E+02  0.00000000000E+00 0.  1.
         23    2    1    2    0    0 -0.46666207493E+02 -0.16300722372E+03  0.11334303261E+03  0.22260080337E+03  0.89192963359E+02 0.  0.
          5    1    1    2  502    0  0.86898865346E+02  0.86203064129E+02  0.29512833270E+03  0.31953182350E+03  0.41800000000E+01 0.  1.
         -5    1    1    2    0  502 -0.40232657853E+02  0.76804159590E+02  0.16092451809E+03  0.18284342649E+03  0.41800000000E+01 0.  1.
        -11    1    3    3    0    0 -0.68283068786E+02 -0.15342082399E+03  0.98730694753E+02  0.19480317452E+03  0.00000000000E+00 0.  1.
         11    1    3    3    0    0  0.21616861293E+02 -0.95863997273E+01  0.14612337853E+02  0.27797628845E+02  0.00000000000E+00 0. -1.
</event>
<event>
 7    1  0.6610867E-006  0.1131148E+03  0.7561462E-02  0.1254908E+00
         -1   -1    0    0    0  501 -0.00000000000E+00  0.00000000000E+00  0.25890298609E+02  0.25890298609E+02  0.00000000000E+00 0.  1.
          1   -1    0    0  501    0  0.00000000000E+00 -0.00000000000E+00 -0.72876500669E+03  0.72876500669E+03  0.00000000000E+00 0. -1.
         23    2    1    2    0    0  0.77099465170E+02  0.10779123738E+02 -0.22656110145E+03  0.25608806745E+03  0.90502201976E+02 0.  0.
          5    1    1    2  502    0 -0.44303952966E+02  0.53623393841E+02 -0.16819720419E+03  0.18206065064E+03  0.41800000000E+01 0.  1.
         -5    1    1    2    0  502 -0.32795512204E+02 -0.64402517579E+02 -0.30811640244E+03  0.31650658720E+03  0.41800000000E+01 0.  1.
        -11    1    3    3    0    0  0.34717183421E+02  0.20975627842E+02 -0.20204318610E+03  0.20607452253E+03  0.00000000000E+00 0. -1.
         11    1    3    3    0    0  0.42382281749E+02 -0.10196504104E+02 -0.24517915353E+02  0.50013544920E+02  0.00000000000E+00 0.  1.
</event>
<event>
 7    1  0.6610867E-006  0.1130463E+03  0.7561462E-02  0.1255030E+00
         -1   -1    0    0    0  501 -0.00000000000E+00  0.00000000000E+00  0.32293272615E+02  0.32293272615E+02  0.00000000000E+00 0.  1.
          1   -1    0    0  501    0  0.00000000000E+00 -0.00000000000E+00 -0.53083152595E+03  0.53083152595E+03  0.00000000000E+00 0. -1.
         23    2    1    2    0    0  0.20555071125E+02 -0.46595732036E+02 -0.10875796990E+03  0.15060215634E+03  0.90879262119E+02 0.  0.
          5    1    1    2  502    0  0.39234656064E+02  0.54849858800E+02 -0.13906242032E+03  0.15460819639E+03  0.41800000000E+01 0.  1.
         -5    1    1    2    0  502 -0.59789727189E+02 -0.82541267641E+01 -0.25071786312E+03  0.25791444584E+03  0.41800000000E+01 0.  1.
        -11    1    3    3    0    0 -0.30032897565E+02 -0.12044971626E+01 -0.12012666140E+02  0.32368656095E+02  0.00000000000E+00 0.  1.
         11    1    3    3    0    0  0.50587968690E+02 -0.45391234873E+02 -0.96745303764E+02  0.11823350024E+03  0.00000000000E+00 0. -1.
</event>
<event>
 7    1  0.6610867E-006  0.1280393E+03  0.7561462E-02  0.1230394E+00
          1   -1    0    0  501    0  0.00000000000E+00  0.00000000000E+00  0.17830109265E+03  0.17830109265E+03  0.00000000000E+00 0. -1.
         -1   -1    0    0    0  501 -0.00000000000E+00 -0.00000000000E+00 -0.98876918409E+02  0.98876918409E+02  0.00000000000E+00 0.  1.
         23    2    1    2    0    0 -0.73323741128E+02 -0.30563840858E+02  0.38762558128E+02  0.12351797022E+03  0.86276495491E+02 0.  0.
          5    1    1    2  502    0  0.63571553384E+02 -0.39690834944E+02  0.80810856694E+01  0.75494907933E+02  0.41800000000E+01 0.  1.
         -5    1    1    2    0  502  0.97521877446E+01  0.70254675802E+02  0.32580530443E+02  0.78165132903E+02  0.41800000000E+01 0.  1.
        -11    1    3    3    0    0 -0.45457601430E+02  0.21978083382E+02 -0.34134482185E+01  0.50607127024E+02  0.00000000000E+00 0.  1.
         11    1    3    3    0    0 -0.27866139699E+02 -0.52541924240E+02  0.42176006347E+02  0.72910843199E+02  0.00000000000E+00 0. -1.
</event>
<event>
 7    1  0.6610867E-006  0.8869179E+02  0.7561462E-02  0.1306051E+00
          2   -1    0    0  501    0  0.00000000000E+00  0.00000000000E+00  0.15660786633E+03  0.15660786633E+03  0.00000000000E+00 0. -1.
         -2   -1    0    0    0  501 -0.00000000000E+00 -0.00000000000E+00 -0.11608333955E+03  0.11608333955E+03  0.00000000000E+00 0.  1.
         23    2    1    2    0    0  0.31680221222E+02  0.52654555785E+02 -0.33034277711E+02  0.11509928651E+03  0.91544762764E+02 0.  0.
          5    1    1    2  502    0 -0.17216058122E+00 -0.34975282028E+02  0.10422645973E+03  0.11001784992E+03  0.41800000000E+01 0.  1.
         -5    1    1    2    0  502 -0.31508060641E+02 -0.17679273757E+02 -0.30667655238E+02  0.47574069447E+02  0.41800000000E+01 0.  1.
        -11    1    3    3    0    0  0.36476263003E+02 -0.13919765350E+02  0.31616341241E+01  0.39169804192E+02  0.00000000000E+00 0.  1.
         11    1    3    3    0    0 -0.47960417810E+01  0.66574321136E+02 -0.36195911835E+02  0.75929482318E+02  0.00000000000E+00 0. -1.
</event>
<event>
 7    1  0.6610867E-006  0.1394073E+03  0.7561462E-02  0.1214129E+00
          1   -1    0    0  501    0  0.00000000000E+00  0.00000000000E+00  0.31387385270E+03  0.31387385270E+03  0.00000000000E+00 0. -1.
         -1   -1    0    0    0  501 -0.00000000000E+00 -0.00000000000E+00 -0.14805546313E+03  0.14805546313E+03  0.00000000000E+00 0.  1.
         23    2    1    2    0    0  0.93210061949E+02 -0.68179380130E+02 -0.76202381972E+02  0.16602950852E+03  0.91773913266E+02 0.  0.
          5    1    1    2  502    0 -0.43506509836E+02 -0.39403383830E+01  0.62203542194E+01  0.44322769219E+02  0.41800000000E+01 0.  1.
         -5    1    1    2    0  502 -0.49703552114E+02  0.72119718513E+02  0.23580041732E+03  0.25157703810E+03  0.41800000000E+01 0.  1.
        -11    1    3    3    0    0  0.45749818079E+02 -0.85295443560E+02 -0.54785846574E+02  0.11121981627E+03  0.00000000000E+00 0.  1.
         11    1    3    3    0    0  0.47460243871E+02  0.17116063430E+02 -0.21416535398E+02  0.54809692246E+02  0.00000000000E+00 0. -1.
</event>
<event>
 7    1  0.6610867E-006  0.1352618E+03  0.7561462E-02  0.1219851E+00
          1   -1    0    0  501    0  0.00000000000E+00  0.00000000000E+00  0.12619262990E+03  0.12619262990E+03  0.00000000000E+00 0. -1.
         -1   -1    0    0    0  501 -0.00000000000E+00 -0.00000000000E+00 -0.16270013527E+03  0.16270013527E+03  0.00000000000E+00 0.  1.
         23    2    1    2    0    0  0.12967568439E+02  0.83772458471E+02  0.13823123328E+01  0.13311595789E+03  0.10262536153E+03 0.  0.
          5    1    1    2  502    0 -0.68870819179E+02 -0.53694572091E+02 -0.19924756502E+02  0.89670313527E+02  0.41800000000E+01 0. -1.
         -5    1    1    2    0  502  0.55903250741E+02 -0.30077886380E+02 -0.17965061193E+02  0.66106493752E+02  0.41800000000E+01 0. -1.
        -11    1    3    3    0    0 -0.90636491720E+01  0.94526910080E+02 -0.23876287746E+02  0.97916104815E+02  0.00000000000E+00 0.  1.
         11    1    3    3    0    0  0.22031217611E+02 -0.10754451609E+02  0.25258600079E+02  0.35199853078E+02  0.00000000000E+00 0. -1.
</event>
<event>
 7    1  0.6610867E-006  0.1123642E+03  0.7561462E-02  0.1256253E+00
          2   -1    0    0  501    0  0.00000000000E+00  0.00000000000E+00  0.34448863914E+03  0.34448863914E+03  0.00000000000E+00 0. -1.
         -2   -1    0    0    0  501 -0.00000000000E+00 -0.00000000000E+00 -0.45075169058E+02  0.45075169058E+02  0.00000000000E+00 0.  1.
         23    2    1    2    0    0  0.44880794115E+02  0.32820366511E+02  0.87861719989E+02  0.13758535399E+03  0.90103194471E+02 0.  0.
          5    1    1    2  502    0 -0.40398927275E+02  0.36126337478E+02  0.14928989715E+03  0.15887772461E+03  0.41800000000E+01 0. -1.
         -5    1    1    2    0  502 -0.44818668400E+01 -0.68946703989E+02  0.62261852940E+02  0.93100729604E+02  0.41800000000E+01 0. -1.
        -11    1    3    3    0    0  0.15522014608E+02  0.59494748553E+02  0.32696138947E+02  0.69639037507E+02  0.00000000000E+00 0.  1.
         11    1    3    3    0    0  0.29358779507E+02 -0.26674382042E+02  0.55165581042E+02  0.67946316480E+02  0.00000000000E+00 0. -1.
</event>
<event>
 7    1  0.6610867E-006  0.1009546E+03  0.7561462E-02  0.1278301E+00
         -1   -1    0    0    0  501 -0.00000000000E+00  0.00000000000E+00  0.10238322186E+03  0.10238322186E+03  0.00000000000E+00 0.  1.
          1   -1    0    0  501    0  0.00000000000E+00 -0.00000000000E+00 -0.18849083033E+03  0.18849083033E+03  0.00000000000E+00 0. -1.
         23    2    1    2    0    0 -0.24675329618E+02 -0.62076893449E+02  0.18245253444E+02  0.11480910688E+03  0.91574172988E+02 0.  0.
          5    1    1    2  502    0  0.30923641587E+02  0.32506680091E+01 -0.11196152986E+03  0.11627422337E+03  0.41800000000E+01 0. -1.
         -5    1    1    2    0  502 -0.62483119686E+01  0.58826225440E+02  0.76086679375E+01  0.59790721937E+02  0.41800000000E+01 0. -1.
        -11    1    3    3    0    0 -0.54337208584E+02 -0.16382200999E+02  0.20348488569E+02  0.60290710174E+02  0.00000000000E+00 0.  1.
         11    1    3    3    0    0  0.29661878966E+02 -0.45694692450E+02 -0.21032351250E+01  0.54518396710E+02  0.00000000000E+00 0. -1.
</event>
<event>
 7    1  0.6610867E-006  0.9365993E+02  0.7561462E-02  0.1294223E+00
          1   -1    0    0  501    0  0.00000000000E+00  0.00000000000E+00  0.62657837259E+03  0.62657837259E+03  0.00000000000E+00 0. -1.
         -1   -1    0    0    0  501 -0.00000000000E+00 -0.00000000000E+00 -0.21352413012E+02  0.21352413012E+02  0.00000000000E+00 0.  1.
         23    2    1    2    0    0  0.63403908684E+01  0.36265392884E+02  0.21369934814E+03  0.23526125317E+03  0.91241802769E+02 0.  0.
          5    1    1    2  502    0  0.16062501346E+02 -0.58614342885E+02  0.36802186407E+03  0.37302977089E+03  0.41800000000E+01 0. -1.
         -5    1    1    2    0  502 -0.22402892214E+02  0.22348950000E+02  0.23504747375E+02  0.39639761538E+02  0.41800000000E+01 0. -1.
        -11    1    3    3    0    0 -0.33190325698E+02 -0.89959581427E+01  0.11172357196E+03  0.11689602865E+03  0.00000000000E+00 0. -1.
         11    1    3    3    0    0  0.39530716567E+02  0.45261351027E+02  0.10197577618E+03  0.11836522452E+03  0.00000000000E+00 0.  1.
</event>
<event>
 7    1  0.6610867E-006  0.1094168E+03  0.7561462E-02  0.1261654E+00
         -2   -1    0    0    0  501 -0.00000000000E+00  0.00000000000E+00  0.15129356541E+03  0.15129356541E+03  0.00000000000E+00 0.  1.
          2   -1    0    0  501    0  0.00000000000E+00 -0.00000000000E+00 -0.14394513288E+03  0.14394513288E+03  0.00000000000E+00 0. -1.
         23    2    1    2    0    0 -0.53278299247E+02 -0.37609332213E+02  0.76061553415E+02  0.13832606422E+03  0.95371385099E+02 0.  0.
          5    1    1    2  502    0  0.47433395961E+02 -0.17246066790E+02  0.18259325367E+02  0.53835204420E+02  0.41800000000E+01 0. -1.
         -5    1    1    2    0  502  0.58449032868E+01  0.54855399003E+02 -0.86972446257E+02  0.10307742965E+03  0.41800000000E+01 0. -1.
        -11    1    3    3    0    0 -0.54580182854E+02 -0.65321451082E+02  0.69315667359E+02  0.10977499749E+03  0.00000000000E+00 0.  1.
         11    1    3    3    0    0  0.13018836069E+01  0.27712118869E+02  0.67458860558E+01  0.28551066737E+02  0.00000000000E+00 0. -1.
</event>
<event>
 7    1  0.6610867E-006  0.1602633E+03  0.7561462E-02  0.1188400E+00
         -2   -1    0    0    0  501 -0.00000000000E+00  0.00000000000E+00  0.63380304580E+02  0.63380304580E+02  0.00000000000E+00 0.  1.
          2   -1    0    0  501    0  0.00000000000E+00 -0.00000000000E+00 -0.63840401970E+03  0.63840401970E+03  0.00000000000E+00 0. -1.
         23    2    1    2    0    0  0.65111975117E+02  0.13290866829E+03 -0.13181220220E+03  0.21806039394E+03  0.90948311395E+02 0.  0.
          5    1    1    2  502    0  0.18395535014E+02 -0.21370896076E+02 -0.12700386506E+02  0.31207100553E+02  0.41800000000E+01 0. -1.
         -5    1    1    2    0  502 -0.83507510131E+02 -0.11153777221E+03 -0.43051112641E+03  0.45251682979E+03  0.41800000000E+01 0. -1.
        -11    1    3    3    0    0  0.44472456229E+02  0.48822846405E+02 -0.11076235064E+03  0.12895645782E+03  0.00000000000E+00 0. -1.
         11    1    3    3    0    0  0.20639518888E+02  0.84085821883E+02 -0.21049851568E+02  0.89103936124E+02  0.00000000000E+00 0.  1.
</event>
<event>
 7    1  0.6610867E-006  0.2042748E+03  0.7561462E-02  0.1146182E+00
          2   -1    0    0  501    0  0.00000000000E+00  0.00000000000E+00  0.88453604763E+03  0.88453604763E+03  0.00000000000E+00 0.  1.
         -2   -1    0    0    0  501 -0.00000000000E+00 -0.00000000000E+00 -0.68901674958E+02  0.68901674958E+02  0.00000000000E+00 0. -1.
         23    2    1    2    0    0 -0.57405156192E+02  0.17428007909E+03  0.15434040326E+03  0.25585168190E+03  0.89276117333E+02 0.  0.
          5    1    1    2  502    0 -0.34746477340E+02 -0.68080426828E+02  0.16781725993E+03  0.18445153113E+03  0.41800000000E+01 0.  1.
         -5    1    1    2    0  502  0.92151633532E+02 -0.10619965226E+03  0.49347670948E+03  0.51313450956E+03  0.41800000000E+01 0.  1.
        -11    1    3    3    0    0 -0.66918637887E+02  0.16494721879E+03  0.10930502200E+03  0.20888579874E+03  0.00000000000E+00 0. -1.
         11    1    3    3    0    0  0.95134816946E+01  0.93328603030E+01  0.45035381255E+02  0.46965883151E+02  0.00000000000E+00 0.  1.
</event>
<event>
 7    1  0.6610867E-006  0.1296683E+03  0.7561462E-02  0.1227949E+00
          1   -1    0    0  501    0  0.00000000000E+00  0.00000000000E+00  0.92346853572E+03  0.92346853572E+03  0.00000000000E+00 0. -1.
         -1   -1    0    0    0  501 -0.00000000000E+00 -0.00000000000E+00 -0.29238293366E+02  0.29238293366E+02  0.00000000000E+00 0.  1.
         23    2    1    2    0    0  0.91452411241E+02 -0.48838919375E+02  0.25205772089E+03  0.29030054216E+03  0.99962625767E+02 0.  0.
          5    1    1    2  502    0 -0.58278289669E-01  0.62235609288E+02  0.16584941874E+03  0.17719135576E+03  0.41800000000E+01 0.  1.
         -5    1    1    2    0  502 -0.91394132951E+02 -0.13396689912E+02  0.47632310272E+03  0.48521493116E+03  0.41800000000E+01 0.  1.
        -11    1    3    3    0    0  0.35495740536E+02 -0.26267149575E+02  0.16503081432E+02  0.47140878649E+02  0.00000000000E+00 0.  1.
         11    1    3    3    0    0  0.55956670705E+02 -0.22571769800E+02  0.23555463946E+03  0.24315966351E+03  0.00000000000E+00 0. -1.
</event>
<event>
 7    1  0.6610867E-006  0.8221933E+02  0.7561462E-02  0.1322869E+00
         -2   -1    0    0    0  501 -0.00000000000E+00  0.00000000000E+00  0.60037961721E+01  0.60037961721E+01  0.00000000000E+00 0.  1.
          2   -1    0    0  501    0  0.00000000000E+00 -0.00000000000E+00 -0.38392998071E+04  0.38392998071E+04  0.00000000000E+00 0. -1.
         23    2    1    2    0    0 -0.61028865544E+01 -0.29618463828E+02 -0.48477193107E+03  0.49450930466E+03  0.92850032955E+02 0.  0.
          5    1    1    2  502    0 -0.22967547733E+02 -0.29572085171E+01 -0.29073716496E+04  0.29074668759E+04  0.41800000000E+01 0. -1.
         -5    1    1    2    0  502  0.29070434287E+02  0.32575672345E+02 -0.44115243030E+03  0.44332742272E+03  0.41800000000E+01 0.  1.
        -11    1    3    3    0    0 -0.34507693094E+02 -0.50941628895E+02 -0.28009257406E+03  0.28677112909E+03  0.00000000000E+00 0.  1.
         11    1    3    3    0    0  0.28404806539E+02  0.21323165067E+02 -0.20467935701E+03  0.20773817556E+03  0.00000000000E+00 0. -1.
</event>
<event>
 7    1  0.6610867E-006  0.1032567E+03  0.7561462E-02  0.1273593E+00
          2   -1    0    0  501    0  0.00000000000E+00  0.00000000000E+00  0.43727682164E+03  0.43727682164E+03  0.00000000000E+00 0. -1.
         -2   -1    0    0    0  501 -0.00000000000E+00 -0.00000000000E+00 -0.86446085942E+02  0.86446085942E+02  0.00000000000E+00 0.  1.
         23    2    1    2    0    0  0.33276072848E+02 -0.19131137163E+02 -0.46443676276E+02  0.10545462962E+03  0.86546902946E+02 0.  0.
          5    1    1    2  502    0  0.40957345060E+02 -0.20282095148E+02  0.16303131240E+03  0.16936808649E+03  0.41800000000E+01 0.  1.
         -5    1    1    2    0  502 -0.74233417908E+02  0.39413232311E+02  0.23424309957E+03  0.24890019147E+03  0.41800000000E+01 0.  1.
        -11    1    3    3    0    0 -0.11298544641E+02  0.16087150397E+02 -0.44459035548E+02  0.48611308980E+02  0.00000000000E+00 0.  1.
         11    1    3    3    0    0  0.44574617489E+02 -0.35218287560E+02 -0.19846407274E+01  0.56843320643E+02  0.00000000000E+00 0. -1.
</event>
<event>
 7    1  0.6610867E-006  0.1137042E+03  0.7561462E-02  0.1253860E+00
         -2   -1    0    0    0  501 -0.00000000000E+00  0.00000000000E+00  0.33350491681E+02  0.33350491681E+02  0.00000000000E+00 0. -1.
          2   -1    0    0  501    0  0.00000000000E+00 -0.00000000000E+00 -0.43947385620E+03  0.43947385620E+03  0.00000000000E+00 0.  1.
         23    2    1    2    0    0 -0.31387549848E+02 -0.39302302940E+02 -0.18765218261E+03  0.21610081284E+03  0.94638102113E+02 0.  0.
          5    1    1    2  502    0  0.76557328708E+02  0.55788475724E+01 -0.10715220298E+03  0.13187575639E+03  0.41800000000E+01 0. -1.
         -5    1    1    2    0  502 -0.45169778860E+02  0.33723455368E+02 -0.11131897893E+03  0.12484777865E+03  0.41800000000E+01 0. -1.
        -11    1    3    3    0    0 -0.44508453473E+02 -0.56785857285E+02 -0.17826256014E+03  0.19231010469E+03  0.00000000000E+00 0.  1.
         11    1    3    3    0    0  0.13120903625E+02  0.17483554345E+02 -0.93896224746E+01  0.23790708158E+02  0.00000000000E+00 0. -1.
</event>
<event>
 7    1  0.6610867E-006  0.1727884E+03  0.7561462E-02  0.1174971E+00
          2   -1    0    0  501    0  0.00000000000E+00  0.00000000000E+00  0.11834422195E+04  0.11834422195E+04  0.00000000000E+00 0. -1.
         -2   -1    0    0    0  501 -0.00000000000E+00 -0.00000000000E+00 -0.28085094193E+02  0.28085094193E+02  0.00000000000E+00 0.  1.
         23    2    1    2    0    0 -0.97109056743E+02 -0.98674450790E+02  0.38826724674E+03  0.42207290625E+03  0.90704284102E+02 0.  0.
          5    1    1    2  502    0  0.18221116443E+02  0.10340526104E+03  0.49812752015E+03  0.50909051830E+03  0.41800000000E+01 0. -1.
         -5    1    1    2    0  502  0.78887940300E+02 -0.47308102525E+01  0.26896235839E+03  0.28036388912E+03  0.41800000000E+01 0. -1.
        -11    1    3    3    0    0 -0.11200303843E+03 -0.80896177860E+02  0.35940727771E+03  0.38504865080E+03  0.00000000000E+00 0. -1.
         11    1    3    3    0    0  0.14893981691E+02 -0.17778272929E+02  0.28859969036E+02  0.37024255451E+02  0.00000000000E+00 0.  1.
</event>
<event>
 7    1  0.6610867E-006  0.1300827E+03  0.7561462E-02  0.1227333E+00
         -1   -1    0    0    0  501 -0.00000000000E+00  0.00000000000E+00  0.13541990991E+03  0.13541990991E+03  0.00000000000E+00 0.  1.
          1   -1    0    0  501    0  0.00000000000E+00 -0.00000000000E+00 -0.16116621477E+03  0.16116621477E+03  0.00000000000E+00 0. -1.
         23    2    1    2    0    0 -0.28090507957E+02 -0.87193225242E+02  0.26703963013E+02  0.13302711538E+03  0.92689679143E+02 0.  0.
          5    1    1    2  502    0  0.70570006833E+01  0.10931988685E+03 -0.85985639021E+01  0.10996384233E+03  0.41800000000E+01 0. -1.
         -5    1    1    2    0  502  0.21033507273E+02 -0.22126661607E+02 -0.43851703969E+02  0.53595166975E+02  0.41800000000E+01 0. -1.
        -11    1    3    3    0    0  0.48332155722E+01  0.13207280195E+02 -0.13955705916E+02  0.19812974298E+02  0.00000000000E+00 0. -1.
         11    1    3    3    0    0 -0.32923723529E+02 -0.10040050544E+03  0.40659668930E+02  0.11321414108E+03  0.00000000000E+00 0.  1.
</event>
<event>
 7    1  0.6610867E-006  0.1474411E+03  0.7561462E-02  0.1203653E+00
         -2   -1    0    0    0  501 -0.00000000000E+00  0.00000000000E+00  0.16876471452E+03  0.16876471452E+03  0.00000000000E+00 0.  1.
          2   -1    0    0  501    0  0.00000000000E+00 -0.00000000000E+00 -0.17145974630E+03  0.17145974630E+03  0.00000000000E+00 0. -1.
         23    2    1    2    0    0  0.10589822339E+03 -0.69880214303E+02  0.33276639342E+02  0.15847860319E+03  0.88940737998E+02 0.  0.
          5    1    1    2  502    0 -0.55628119932E+02  0.95189915583E+02 -0.53542088718E+02  0.12263700673E+03  0.41800000000E+01 0.  1.
         -5    1    1    2    0  502 -0.50270103457E+02 -0.25309701280E+02  0.17570417592E+02  0.59108850901E+02  0.41800000000E+01 0.  1.
        -11    1    3    3    0    0  0.73442944944E+02 -0.57885890563E+02 -0.19352400356E+02  0.95494281965E+02  0.00000000000E+00 0.  1.
         11    1    3    3    0    0  0.32455278445E+02 -0.11994323740E+02  0.52629039698E+02  0.62984321227E+02  0.00000000000E+00 0. -1.
</event>
<event>
 7    1  0.6610867E-006  0.1703129E+03  0.7561462E-02  0.1177522E+00
          1   -1    0    0  501    0  0.00000000000E+00  0.00000000000E+00  0.24816595289E+03  0.24816595289E+03  0.00000000000E+00 0. -1.
         -1   -1    0    0    0  501 -0.00000000000E+00 -0.00000000000E+00 -0.19423247364E+03  0.19423247364E+03  0.00000000000E+00 0.  1.
         23    2    1    2    0    0  0.13445855796E+03 -0.60455077523E+02 -0.95491259265E+02  0.19804331171E+03  0.91480339480E+02 0.  0.
          5    1    1    2  502    0 -0.42119287932E+01 -0.27847416071E+02  0.17677465302E+01  0.28527464903E+02  0.41800000000E+01 0. -1.
         -5    1    1    2    0  502 -0.13024662917E+03  0.88302493594E+02  0.14765699199E+03  0.21582764991E+03  0.41800000000E+01 0. -1.
        -11    1    3    3    0    0  0.76390520535E+02 -0.85725930005E+01 -0.92286845836E+02  0.12010771371E+03  0.00000000000E+00 0.  1.
         11    1    3    3    0    0  0.58068037426E+02 -0.51882484523E+02 -0.32044134289E+01  0.77935598003E+02  0.00000000000E+00 0. -1.
</event>
<event>
 7    1  0.6610867E-006  0.1761842E+03  0.7561462E-02  0.1171548E+00
         -1   -1    0    0    0  501 -0.00000000000E+00  0.00000000000E+00  0.23893530673E+02  0.23893530673E+02  0.00000000000E+00 0.  1.
          1   -1    0    0  501    0  0.00000000000E+00 -0.00000000000E+00 -0.19060181163E+04  0.19060181163E+04  0.00000000000E+00 0. -1.
         23    2    1    2    0    0 -0.10414062405E+03  0.97989507852E+02 -0.38575324788E+03  0.42152808288E+03  0.91832146743E+02 0.  0.
          5    1    1    2  502    0  0.34761577602E+02  0.25661221755E+02 -0.51318744747E+03  0.51502009108E+03  0.41800000000E+01 0. -1.
         -5    1    1    2    0  502  0.69379046449E+02 -0.12365072961E+03 -0.98318389024E+03  0.99336347298E+03  0.41800000000E+01 0. -1.
        -11    1    3    3    0    0  0.15083020000E+02  0.49232191984E+01 -0.64933732999E+02  0.66844036838E+02  0.00000000000E+00 0. -1.
         11    1    3    3    0    0 -0.11922364405E+03  0.93066288654E+02 -0.32081951488E+03  0.35468404604E+03  0.00000000000E+00 0.  1.
</event>
<event>
 7    1  0.6610867E-006  0.7069077E+02  0.7561462E-02  0.1357760E+00
          2   -1    0    0  501    0  0.00000000000E+00  0.00000000000E+00  0.32691826512E+03  0.32691826512E+03  0.00000000000E+00 0. -1.
         -2   -1    0    0    0  501 -0.00000000000E+00 -0.00000000000E+00 -0.45719881161E+02  0.45719881161E+02  0.00000000000E+00 0.  1.
         23    2    1    2    0    0  0.61218692815E+00  0.50738677509E+02  0.90588303671E+02  0.13906871844E+03  0.92515293427E+02 0.  0.
          5    1    1    2  502    0  0.23256372509E+02 -0.45210397919E+02  0.20044903491E+03  0.20683840780E+03  0.41800000000E+01 0.  1.
         -5    1    1    2    0  502 -0.23868559437E+02 -0.55282795907E+01 -0.98389546211E+01  0.26731020049E+02  0.41800000000E+01 0.  1.
        -11    1    3    3    0    0  0.15784203169E+02  0.47427558839E+02  0.29574698153E+01  0.50072557702E+02  0.00000000000E+00 0.  1.
         11    1    3    3    0    0 -0.15172016241E+02  0.33111186707E+01  0.87630833855E+02  0.88996160737E+02  0.00000000000E+00 0. -1.
</event>
<event>
 7    1  0.6610867E-006  0.1087558E+03  0.7561462E-02  0.1262891E+00
          2   -1    0    0  501    0  0.00000000000E+00  0.00000000000E+00  0.17526766547E+03  0.17526766547E+03  0.00000000000E+00 0. -1.
         -2   -1    0    0    0  501 -0.00000000000E+00 -0.00000000000E+00 -0.16864802365E+03  0.16864802365E+03  0.00000000000E+00 0.  1.
         23    2    1    2    0    0  0.51029209006E+02  0.11282569522E+02 -0.12648651506E+03  0.16286314835E+03  0.88285276532E+02 0.  0.
          5    1    1    2  502    0 -0.63876342642E+02 -0.47146061577E+02  0.64119953273E+02  0.10213608118E+03  0.41800000000E+01 0. -1.
         -5    1    1    2    0  502  0.12847133636E+02  0.35863492055E+02  0.68986203609E+02  0.78916459585E+02  0.41800000000E+01 0.  1.
        -11    1    3    3    0    0  0.47293450699E+02  0.45285923680E+02 -0.10030619413E+03  0.11978655160E+03  0.00000000000E+00 0.  1.
         11    1    3    3    0    0  0.37357583062E+01 -0.34003354158E+02 -0.26180320933E+02  0.43076596758E+02  0.00000000000E+00 0. -1.
</event>
<event>
 7    1  0.6610867E-006  0.1506723E+03  0.7561462E-02  0.1199649E+00
         -2   -1    0    0    0  501 -0.00000000000E+00  0.00000000000E+00  0.22798804457E+02  0.22798804457E+02  0.00000000000E+00 0.  1.
          2   -1    0    0  501    0  0.00000000000E+00 -0.00000000000E+00 -0.17986599637E+04  0.17986599637E+04  0.00000000000E+00 0. -1.
         23    2    1    2    0    0  0.81644638579E+02 -0.91427108937E+02 -0.31280248589E+03  0.34795558049E+03  0.90570014662E+02 0.  0.
          5    1    1    2  502    0 -0.10630586908E+03  0.35662564956E+02 -0.10437172822E+04  0.10497313913E+04  0.41800000000E+01 0. -1.
         -5    1    1    2    0  502  0.24661230506E+02  0.55764543980E+02 -0.41934139119E+03  0.42377179640E+03  0.41800000000E+01 0. -1.
        -11    1    3    3    0    0  0.30070125797E+02 -0.10103192303E+02 -0.18624034486E+03  0.18892261118E+03  0.00000000000E+00 0. -1.
         11    1    3    3    0    0  0.51574512781E+02 -0.81323916634E+02 -0.12656214103E+03  0.15903296931E+03  0.00000000000E+00 0.  1.
</event>
<event>
 7    1  0.6610867E-006  0.8721642E+02  0.7561462E-02  0.1309736E+00
         -1   -1    0    0    0  501 -0.00000000000E+00  0.00000000000E+00  0.11676868603E+02  0.11676868603E+02  0.00000000000E+00 0.  1.
          1   -1    0    0  501    0  0.00000000000E+00 -0.00000000000E+00 -0.12588684700E+04  0.12588684700E+04  0.00000000000E+00 0. -1.
         23    2    1    2    0    0 -0.24428584141E+02 -0.46880819313E+02 -0.51372445927E+03  0.52461247492E+03  0.92254332400E+02 0.  0.
          5    1    1    2  502    0 -0.61453438144E+01  0.34029395914E+02 -0.46229179263E+02  0.57882419199E+02  0.41800000000E+01 0.  1.
         -5    1    1    2    0  502  0.30573927955E+02  0.12851423399E+02 -0.68723796282E+03  0.68805044444E+03  0.41800000000E+01 0.  1.
        -11    1    3    3    0    0  0.17221468115E+02 -0.60066419047E+02 -0.28835766492E+03  0.29505032889E+03  0.00000000000E+00 0.  1.
         11    1    3    3    0    0 -0.41650052256E+02  0.13185599734E+02 -0.22536679435E+03  0.22956214603E+03  0.00000000000E+00 0. -1.
</event>
<event>
 7    1  0.6610867E-006  0.1521081E+03  0.7561462E-02  0.1197906E+00
         -1   -1    0    0    0  501 -0.00000000000E+00  0.00000000000E+00  0.37211602287E+02  0.37211602287E+02  0.00000000000E+00 0.  1.
          1   -1    0    0  501    0  0.00000000000E+00 -0.00000000000E+00 -0.64854003720E+03  0.64854003720E+03  0.00000000000E+00 0. -1.
         23    2    1    2    0    0  0.55360391790E+02 -0.93949923779E+02 -0.31531038814E+03  0.34639179366E+03  0.93141143885E+02 0.  0.
          5    1    1    2  502    0 -0.25706312463E+02  0.11929059016E+03 -0.18543115988E+03  0.22202082528E+03  0.41800000000E+01 0. -1.
         -5    1    1    2    0  502 -0.29654079327E+02 -0.25340666381E+02 -0.11058688689E+03  0.11733902055E+03  0.41800000000E+01 0. -1.
        -11    1    3    3    0    0  0.62485928372E+02 -0.15854552157E+02 -0.15710751888E+03  0.16981940571E+03  0.00000000000E+00 0. -1.
         11    1    3    3    0    0 -0.71255365821E+01 -0.78095371623E+02 -0.15820286927E+03  0.17657238795E+03  0.00000000000E+00 0.  1.
</event>
<event>
 7    1  0.6610867E-006  0.1737424E+03  0.7561462E-02  0.1174000E+00
         -2   -1    0    0    0  501 -0.00000000000E+00  0.00000000000E+00  0.35209241945E+02  0.35209241945E+02  0.00000000000E+00 0.  1.
          2   -1    0    0  501    0  0.00000000000E+00 -0.00000000000E+00 -0.92973034360E+03  0.92973034360E+03  0.00000000000E+00 0. -1.
         23    2    1    2    0    0  0.96783682100E+02  0.93204912303E+02 -0.34698858446E+03  0.38745048857E+03  0.10799336346E+03 0.  0.
          5    1    1    2  502    0 -0.86654662496E+02 -0.12361362071E+03 -0.46176733407E+03  0.48583526114E+03  0.41800000000E+01 0. -1.
         -5    1    1    2    0  502 -0.10129019604E+02  0.30408708408E+02 -0.85765183132E+02  0.91653835833E+02  0.41800000000E+01 0. -1.
        -11    1    3    3    0    0  0.48798189437E+02  0.10406981485E+03 -0.29121087499E+03  0.31307437354E+03  0.00000000000E+00 0. -1.
         11    1    3    3    0    0  0.47985492664E+02 -0.10864902549E+02 -0.55777709466E+02  0.74376115030E+02  0.00000000000E+00 0.  1.
</event>
<event>
 7    1  0.6610867E-006  0.1460063E+03  0.7561462E-02  0.1205468E+00
          1   -1    0    0  501    0  0.00000000000E+00  0.00000000000E+00  0.11278759366E+03  0.11278759366E+03  0.00000000000E+00 0. -1.
         -1   -1    0    0    0  501 -0.00000000000E+00 -0.00000000000E+00 -0.23139600123E+03  0.23139600123E+03  0.00000000000E+00 0.  1.
         23    2    1    2    0    0 -0.11101497673E+03 -0.13902029132E+02 -0.19431496486E+02  0.14566782323E+03  0.91235630090E+02 0.  0.
          5    1    1    2  502    0 -0.23999951937E+02  0.94390623805E+01 -0.46740883092E+02  0.53546952704E+02  0.41800000000E+01 0. -1.
         -5    1    1    2    0  502  0.13501492867E+03  0.44629667511E+01 -0.52436027998E+02  0.14496881895E+03  0.41800000000E+01 0.  1.
        -11    1    3    3    0    0 -0.72856659716E+02 -0.41308768718E+02  0.17920207416E+02  0.85648357088E+02  0.00000000000E+00 0. -1.
         11    1    3    3    0    0 -0.38158317014E+02  0.27406739586E+02 -0.37351703903E+02  0.60019466147E+02  0.00000000000E+00 0.  1.
</event>
<event>
 6    1  0.6610867E-006  0.5502951E+02  0.7561462E-02  0.1419959E+00
          2   -1    0    0  501    0  0.00000000000E+00  0.00000000000E+00  0.53652831175E+03  0.53652831175E+03  0.00000000000E+00 0. -1.
         -2   -1    0    0    0  501 -0.00000000000E+00 -0.00000000000E+00 -0.13555704446E+02  0.13555704446E+02  0.00000000000E+00 0.  1.
          5    1    1    2  502    0  0.43609602642E+02 -0.23324873265E+02  0.46026295385E+03  0.46293121114E+03  0.41800000000E+01 0. -1.
         -5    1    1    2    0  502 -0.26377894220E+02  0.18142135325E+02  0.31127944203E+02  0.44848095700E+02  0.41800000000E+01 0.  1.
        -11    1    1    2    0    0 -0.45384453715E-01  0.10228974139E+02  0.11040490869E+02  0.15050794342E+02  0.00000000000E+00 0. -1.
         11    1    1    2    0    0 -0.17186323968E+02 -0.50462361997E+01  0.20541218385E+02  0.27253915023E+02  0.00000000000E+00 0.  1.
</event>
<event>
 7    1  0.6610867E-006  0.1112645E+03  0.7561462E-02  0.1258246E+00
          2   -1    0    0  501    0  0.00000000000E+00  0.00000000000E+00  0.40106986259E+03  0.40106986259E+03  0.00000000000E+00 0. -1.
         -2   -1    0    0    0  501 -0.00000000000E+00 -0.00000000000E+00 -0.42008464206E+02  0.42008464206E+02  0.00000000000E+00 0.  1.
         23    2    1    2    0    0  0.17278574011E+02 -0.53669467254E+02  0.95508481178E+02  0.14364602602E+03  0.91287184090E+02 0.  0.
          5    1    1    2  502    0 -0.47659525441E+02 -0.14528031861E+02  0.18219534075E+03  0.18893149199E+03  0.41800000000E+01 0. -1.
         -5    1    1    2    0  502  0.30380951430E+02  0.68197499116E+02  0.81357576458E+02  0.11050080879E+03  0.41800000000E+01 0.  1.
        -11    1    3    3    0    0  0.40337528219E+02 -0.61372918483E+02  0.41353901842E+02  0.84284616055E+02  0.00000000000E+00 0.  1.
         11    1    3    3    0    0 -0.23058954208E+02  0.77034512284E+01  0.54154579336E+02  0.59361409965E+02  0.00000000000E+00 0. -1.
</event>
<event>
 7    1  0.6610867E-006  0.1267039E+03  0.7561462E-02  0.1232430E+00
          2   -1    0    0  501    0  0.00000000000E+00  0.00000000000E+00  0.43279111319E+03  0.43279111319E+03  0.00000000000E+00 0.  1.
         -2   -1    0    0    0  501 -0.00000000000E+00 -0.00000000000E+00 -0.53939939399E+02  0.53939939399E+02  0.00000000000E+00 0. -1.
         23    2    1    2    0    0  0.84849481649E+02  0.39739661550E+02  0.95187833208E+02  0.16286145184E+03  0.93190416188E+02 0.  0.
          5    1    1    2  502    0 -0.34018537401E+02  0.45121906557E+02  0.11740593057E+03  0.13036438267E+03  0.41800000000E+01 0. -1.
         -5    1    1    2    0  502 -0.50830944248E+02 -0.84861568107E+02  0.16625741002E+03  0.19350521807E+03  0.41800000000E+01 0. -1.
        -11    1    3    3    0    0  0.23045321319E+02  0.25387225245E+02  0.93282345877E+02  0.99384073637E+02  0.00000000000E+00 0.  1.
         11    1    3    3    0    0  0.61804160330E+02  0.14352436306E+02  0.19054873307E+01  0.63477378206E+02  0.00000000000E+00 0. -1.
</event>
<event>
 7    1  0.6610867E-006  0.1789255E+03  0.7561462E-02  0.1168847E+00
         -1   -1    0    0    0  501 -0.00000000000E+00  0.00000000000E+00  0.75843948193E+02  0.75843948193E+02  0.00000000000E+00 0.  1.
          1   -1    0    0  501    0  0.00000000000E+00 -0.00000000000E+00 -0.46801790012E+03  0.46801790012E+03  0.00000000000E+00 0. -1.
         23    2    1    2    0    0  0.12962034627E+03  0.73506385421E+02 -0.96044336021E+02  0.18953925561E+03  0.67052159325E+02 0.  0.
          5    1    1    2  502    0 -0.85955464207E+02  0.22521813798E+02 -0.13839688230E+03  0.16451973546E+03  0.41800000000E+01 0. -1.
         -5    1    1    2    0  502 -0.43664882059E+02 -0.96028199219E+02 -0.15773273360E+03  0.18980285725E+03  0.41800000000E+01 0. -1.
        -11    1    3    3    0    0  0.11155101168E+03  0.28955604241E+02 -0.65055145268E+02  0.13234132820E+03  0.00000000000E+00 0.  1.
         11    1    3    3    0    0  0.18069334588E+02  0.44550781180E+02 -0.30989190752E+02  0.57197927407E+02  0.00000000000E+00 0. -1.
</event>
<event>
 7    1  0.6610867E-006  0.1311568E+03  0.7561462E-02  0.1225749E+00
          3   -1    0    0  501    0  0.00000000000E+00  0.00000000000E+00  0.34783481983E+02  0.34783481983E+02  0.00000000000E+00 0. -1.
         -3   -1    0    0    0  501 -0.00000000000E+00 -0.00000000000E+00 -0.60373668100E+03  0.60373668100E+03  0.00000000000E+00 0.  1.
         23    2    1    2    0    0  0.86934305413E+02 -0.20188458007E+02 -0.28038548671E+03  0.30886203999E+03  0.93886054870E+02 0.  0.
          5    1    1    2  502    0 -0.11416492287E+03  0.43735336358E+02 -0.20780142509E+03  0.24113339447E+03  0.41800000000E+01 0. -1.
         -5    1    1    2    0  502  0.27230617461E+02 -0.23546878351E+02 -0.80766287221E+02  0.88524728516E+02  0.41800000000E+01 0.  1.
        -11    1    3    3    0    0  0.89890087697E+02 -0.69248991403E+01 -0.28115003929E+03  0.29525163282E+03  0.00000000000E+00 0. -1.
         11    1    3    3    0    0 -0.29557822841E+01 -0.13263558867E+02  0.76455257877E+00  0.13610407171E+02  0.00000000000E+00 0.  1.
</event>
<event>
 7    1  0.6610867E-006  0.9474735E+02  0.7561462E-02  0.1291746E+00
         -1   -1    0    0    0  501 -0.00000000000E+00  0.00000000000E+00  0.12818206886E+03  0.12818206886E+03  0.00000000000E+00 0.  1.
          1   -1    0    0  501    0  0.00000000000E+00 -0.00000000000E+00 -0.10814432912E+03  0.10814432912E+03  0.00000000000E+00 0. -1.
         23    2    1    2    0    0  0.36785471970E+02 -0.25654241816E+02  0.16841291261E+02  0.10340155904E+03  0.91634830983E+02 0.  0.
          5    1    1    2  502    0  0.12072763277E+02  0.35280593385E+02 -0.48303249454E+02  0.61164926147E+02  0.41800000000E+01 0. -1.
         -5    1    1    2    0  502 -0.48858235247E+02 -0.96263515685E+01  0.51499697942E+02  0.71759912793E+02  0.41800000000E+01 0. -1.
        -11    1    3    3    0    0  0.62892924152E+02  0.33421415741E+01  0.93694505768E+01  0.63674770693E+02  0.00000000000E+00 0. -1.
         11    1    3    3    0    0 -0.26107452182E+02 -0.28996383390E+02  0.74718406843E+01  0.39726788347E+02  0.00000000000E+00 0.  1.
</event>
<event>
 7    1  0.6610867E-006  0.1410355E+03  0.7561462E-02  0.1211942E+00
         -1   -1    0    0    0  501 -0.00000000000E+00  0.00000000000E+00  0.72871572707E+02  0.72871572707E+02  0.00000000000E+00 0.  1.
          1   -1    0    0  501    0  0.00000000000E+00 -0.00000000000E+00 -0.41532404233E+03  0.41532404233E+03  0.00000000000E+00 0. -1.
         23    2    1    2    0    0  0.90794149695E+02 -0.19533657797E+02 -0.19328629761E+02  0.12947311510E+03  0.88116685143E+02 0.  0.
          5    1    1    2  502    0 -0.12113239797E+03  0.23920884389E+02 -0.23806364557E+03  0.26821080942E+03  0.41800000000E+01 0.  1.
         -5    1    1    2    0  502  0.30338248280E+02 -0.43872265919E+01 -0.85060194290E+02  0.90511690508E+02  0.41800000000E+01 0.  1.
        -11    1    3    3    0    0  0.10843927278E+03 -0.17083821630E+02 -0.12890162893E+02  0.11053094201E+03  0.00000000000E+00 0.  1.
         11    1    3    3    0    0 -0.17645123084E+02 -0.24498361670E+01 -0.64384668674E+01  0.18942173094E+02  0.00000000000E+00 0. -1.
</event>
<event>
 7    1  0.6610867E-006  0.1745938E+03  0.7561462E-02  0.1173140E+00
         -1   -1    0    0    0  501 -0.00000000000E+00  0.00000000000E+00  0.79344987005E+02  0.79344987005E+02  0.00000000000E+00 0.  1.
          1   -1    0    0  501    0  0.00000000000E+00 -0.00000000000E+00 -0.94447604569E+03  0.94447604569E+03  0.00000000000E+00 0. -1.
         23    2    1    2    0    0 -0.52784834489E+02 -0.30065436875E+02 -0.13929919946E+03  0.17718567895E+03  0.91106139253E+02 0.  0.
          5    1    1    2  502    0  0.70838611918E+02  0.12688005207E+03 -0.73349785937E+03  0.74776549710E+03  0.41800000000E+01 0. -1.
         -5    1    1    2    0  502 -0.18053777429E+02 -0.96814615193E+02  0.76660001439E+01  0.98869856644E+02  0.41800000000E+01 0.  1.
        -11    1    3    3    0    0 -0.62464072671E+01 -0.52992966305E+02 -0.46081484124E+02  0.70503725155E+02  0.00000000000E+00 0.  1.
         11    1    3    3    0    0 -0.46538427222E+02  0.22927529431E+02 -0.93217715331E+02  0.10668195380E+03  0.00000000000E+00 0. -1.
</event>
<event>
 7    1  0.6610867E-006  0.8421715E+02  0.7561462E-02  0.1317493E+00
         -1   -1    0    0    0  501 -0.00000000000E+00  0.00000000000E+00  0.23222896577E+03  0.23222896577E+03  0.00000000000E+00 0.  1.
          1   -1    0    0  501    0  0.00000000000E+00 -0.00000000000E+00 -0.79890679652E+02  0.79890679652E+02  0.00000000000E+00 0. -1.
         23    2    1    2    0    0  0.10476443572E+02 -0.45933075332E+02  0.14552061951E+03  0.17827510817E+03  0.91575980525E+02 0.  0.
          5    1    1    2  502    0 -0.59340353282E+02  0.13005667663E+02 -0.26066688727E+02  0.66237222015E+02  0.41800000000E+01 0.  1.
         -5    1    1    2    0  502  0.48863909711E+02  0.32927407669E+02  0.32884355326E+02  0.67607315235E+02  0.41800000000E+01 0.  1.
        -11    1    3    3    0    0  0.16293713485E+01 -0.31499962161E+02  0.15547109830E+03  0.15863847224E+03  0.00000000000E+00 0.  1.
         11    1    3    3    0    0  0.88470722232E+01 -0.14433113171E+02 -0.99504787838E+01  0.19636635933E+02  0.00000000000E+00 0. -1.
</event>
<event>
 7    1  0.6610867E-006  0.1153184E+03  0.7561462E-02  0.1251026E+00
          1   -1    0    0  501    0  0.00000000000E+00  0.00000000000E+00  0.12006417669E+04  0.12006417669E+04  0.00000000000E+00 0. -1.
         -1   -1    0    0    0  501 -0.00000000000E+00 -0.00000000000E+00 -0.13512653999E+02  0.13512653999E+02  0.00000000000E+00 0.  1.
         23    2    1    2    0    0 -0.44581026741E+02 -0.44701407312E+02  0.44774692900E+03  0.46161249434E+03  0.92860641514E+02 0.  0.
          5    1    1    2  502    0  0.30927766587E+02  0.83051400864E+02  0.35218970845E+03  0.36319295845E+03  0.41800000000E+01 0.  1.
         -5    1    1    2    0  502  0.13653260154E+02 -0.38349993552E+02  0.38719247541E+03  0.38934896806E+03  0.41800000000E+01 0.  1.
        -11    1    3    3    0    0  0.21009617391E+02 -0.24686882271E+02  0.63518064083E+02  0.71311924978E+02  0.00000000000E+00 0.  1.
         11    1    3    3    0    0 -0.65590644133E+02 -0.20014525041E+02  0.38422886492E+03  0.39030056936E+03  0.00000000000E+00 0. -1.
</event>
<event>
 7    1  0.6610867E-006  0.2097686E+03  0.7561462E-02  0.1141749E+00
         -2   -1    0    0    0  501 -0.00000000000E+00  0.00000000000E+00  0.26066084851E+03  0.26066084851E+03  0.00000000000E+00 0.  1.
          2   -1    0    0  501    0  0.00000000000E+00 -0.00000000000E+00 -0.10478770313E+04  0.10478770313E+04  0.00000000000E+00 0. -1.
         23    2    1    2    0    0  0.84129512249E+02  0.39718528238E+01  0.22121503018E+03  0.25388755735E+03  0.91810956604E+02 0.  0.
          5    1    1    2  502    0  0.20616410857E+02  0.13348135553E+03 -0.48039571413E+03  0.49903889951E+03  0.41800000000E+01 0. -1.
         -5    1    1    2    0  502 -0.10474592311E+03 -0.13745320835E+03 -0.52803549889E+03  0.55561142301E+03  0.41800000000E+01 0.  1.
        -11    1    3    3    0    0  0.14179798856E+02  0.32916678950E+02  0.13250892592E+03  0.13727049901E+03  0.00000000000E+00 0. -1.
         11    1    3    3    0    0  0.69949713393E+02 -0.28944826126E+02  0.88706104254E+02  0.11661705834E+03  0.00000000000E+00 0.  1.
</event>
<event>
 7    1  0.6610867E-006  0.6913605E+02  0.7561462E-02  0.1363056E+00
          2   -1    0    0  501    0  0.00000000000E+00  0.00000000000E+00  0.10134291323E+03  0.10134291323E+03  0.00000000000E+00 0. -1.
         -2   -1    0    0    0  501 -0.00000000000E+00 -0.00000000000E+00 -0.13092206176E+03  0.13092206176E+03  0.00000000000E+00 0.  1.
         23    2    1    2    0    0 -0.33107309001E+02 -0.20217895892E+02 -0.15428641595E+02  0.10053384234E+03  0.91455744762E+02 0.  0.
          5    1    1    2  502    0  0.17261477800E+02  0.16520108353E+02  0.55242715818E+02  0.60333263187E+02  0.41800000000E+01 0. -1.
         -5    1    1    2    0  502  0.15845831201E+02  0.36977875395E+01 -0.69393222761E+02  0.71397869467E+02  0.41800000000E+01 0. -1.
        -11    1    3    3    0    0 -0.38573330303E+02  0.28646572555E+02  0.27151943081E+01  0.48123800868E+02  0.00000000000E+00 0. -1.
         11    1    3    3    0    0  0.54660213024E+01 -0.48864468447E+02 -0.18143835903E+02  0.52410041469E+02  0.00000000000E+00 0.  1.
</event>
<event>
 7    1  0.6610867E-006  0.8784167E+02  0.7561462E-02  0.1308164E+00
         -2   -1    0    0    0  501 -0.00000000000E+00  0.00000000000E+00  0.28762534789E+03  0.28762534789E+03  0.00000000000E+00 0.  1.
          2   -1    0    0  501    0  0.00000000000E+00 -0.00000000000E+00 -0.47910072380E+02  0.47910072380E+02  0.00000000000E+00 0. -1.
         23    2    1    2    0    0  0.18391532606E+02 -0.16249124167E+02  0.16095657588E+03  0.18569603970E+03  0.89295673650E+02 0.  0.
          5    1    1    2  502    0 -0.57933748463E+02 -0.25545205886E+02  0.17779791213E+02  0.65897421272E+02  0.41800000000E+01 0. -1.
         -5    1    1    2    0  502  0.39542215856E+02  0.41794330053E+02  0.60978908416E+02  0.83941959299E+02  0.41800000000E+01 0. -1.
        -11    1    3    3    0    0  0.24932181246E+02  0.10464944532E+02  0.15527561732E+03  0.15761232838E+03  0.00000000000E+00 0.  1.
         11    1    3    3    0    0 -0.65406486394E+01 -0.26714068699E+02  0.56809585671E+01  0.28083711317E+02  0.00000000000E+00 0. -1.
</event>
<event>
 7    1  0.6610867E-006  0.1212977E+03  0.7561462E-02  0.1240971E+00
         -2   -1    0    0    0  501 -0.00000000000E+00  0.00000000000E+00  0.56472995574E+02  0.56472995574E+02  0.00000000000E+00 0.  1.
          2   -1    0    0  501    0  0.00000000000E+00 -0.00000000000E+00 -0.81873758880E+03  0.81873758880E+03  0.00000000000E+00 0. -1.
         23    2    1    2    0    0 -0.53650145230E+02  0.28870309120E+02 -0.15899654827E+02  0.10976948694E+03  0.89915006581E+02 0.  0.
          5    1    1    2  502    0  0.89864932330E+02 -0.35948418014E+02 -0.69682669795E+03  0.70352890076E+03  0.41800000000E+01 0. -1.
         -5    1    1    2    0  502 -0.36214787101E+02  0.70781088934E+01 -0.49538240443E+02  0.61912196670E+02  0.41800000000E+01 0.  1.
        -11    1    3    3    0    0 -0.78502159077E+02  0.14365872388E+02 -0.12842597935E+02  0.80832540421E+02  0.00000000000E+00 0.  1.
         11    1    3    3    0    0  0.24852013848E+02  0.14504436733E+02 -0.30570568928E+01  0.28936946523E+02  0.00000000000E+00 0. -1.
</event>
<event>
 7    1  0.6610867E-006  0.1138103E+03  0.7561462E-02  0.1253672E+00
          1   -1    0    0  501    0  0.00000000000E+00  0.00000000000E+00  0.13463889301E+03  0.13463889301E+03  0.00000000000E+00 0. -1.
         -1   -1    0    0    0  501 -0.00000000000E+00 -0.00000000000E+00 -0.14690925292E+03  0.14690925292E+03  0.00000000000E+00 0.  1.
         23    2    1    2    0    0 -0.27428667624E+02 -0.65171090221E+02 -0.60213433176E+02  0.13007046389E+03  0.91066268369E+02 0.  0.
          5    1    1    2  502    0 -0.50432772973E+01 -0.35180772056E+02  0.24441152774E+02  0.43335478735E+02  0.41800000000E+01 0. -1.
         -5    1    1    2    0  502  0.32471944922E+02  0.10035186228E+03  0.23501920490E+02  0.10814220331E+03  0.41800000000E+01 0. -1.
        -11    1    3    3    0    0 -0.41971903611E+02 -0.49465999936E+02  0.13551362699E+01  0.64887304126E+02  0.00000000000E+00 0. -1.
         11    1    3    3    0    0  0.14543235987E+02 -0.15705090284E+02 -0.61568569446E+02  0.65183159769E+02  0.00000000000E+00 0.  1.
</event>
<event>
 7    1  0.6610867E-006  0.1256153E+03  0.7561462E-02  0.1234111E+00
         -2   -1    0    0    0  501 -0.00000000000E+00  0.00000000000E+00  0.32862911158E+02  0.32862911158E+02  0.00000000000E+00 0.  1.
          2   -1    0    0  501    0  0.00000000000E+00 -0.00000000000E+00 -0.63455128980E+03  0.63455128980E+03  0.00000000000E+00 0. -1.
         23    2    1    2    0    0  0.80541826736E+02 -0.48048825820E+02 -0.23599529120E+03  0.26970512421E+03  0.90837222745E+02 0.  0.
          5    1    1    2  502    0  0.27548868286E+02  0.22374980840E+02 -0.15948889165E+03  0.16344344242E+03  0.41800000000E+01 0. -1.
         -5    1    1    2    0  502 -0.10809069502E+03  0.25673844981E+02 -0.20620419579E+03  0.23426563433E+03  0.41800000000E+01 0. -1.
        -11    1    3    3    0    0  0.51045135548E+02 -0.38624670736E+01 -0.35513667494E+02  0.62303652332E+02  0.00000000000E+00 0.  1.
         11    1    3    3    0    0  0.29496691187E+02 -0.44186358747E+02 -0.20048162371E+03  0.20740147187E+03  0.00000000000E+00 0. -1.
</event>
<event>
 7    1  0.6610867E-006  0.1012236E+03  0.7561462E-02  0.1277744E+00
          1   -1    0    0  501    0  0.00000000000E+00  0.00000000000E+00  0.76453150188E+02  0.76453150188E+02  0.00000000000E+00 0. -1.
         -1   -1    0    0    0  501 -0.00000000000E+00 -0.00000000000E+00 -0.21229753181E+03  0.21229753181E+03  0.00000000000E+00 0.  1.
         23    2    1    2    0    0 -0.29043253623E+02 -0.58692408989E+02 -0.45450377913E+02  0.12112243185E+03  0.91195379216E+02 0.  0.
          5    1    1    2  502    0 -0.40309500970E+02  0.33471216570E+02 -0.75873430842E+02  0.92300748181E+02  0.41800000000E+01 0.  1.
         -5    1    1    2    0  502  0.69352754593E+02  0.25221192418E+02 -0.14520572868E+02  0.75327501970E+02  0.41800000000E+01 0.  1.
        -11    1    3    3    0    0 -0.29637337677E+02 -0.16785878240E+02  0.22830916617E+02  0.41004734440E+02  0.00000000000E+00 0. -1.
         11    1    3    3    0    0  0.59408405396E+00 -0.41906530748E+02 -0.68281294530E+02  0.80117697408E+02  0.00000000000E+00 0.  1.
</event>
<event>
 7    1  0.6610867E-006  0.1040162E+03  0.7561462E-02  0.1272070E+00
          1   -1    0    0  501    0  0.00000000000E+00  0.00000000000E+00  0.49076575993E+03  0.49076575993E+03  0.00000000000E+00 0.  1.
         -1   -1    0    0    0  501 -0.00000000000E+00 -0.00000000000E+00 -0.30594577877E+02  0.30594577877E+02  0.00000000000E+00 0. -1.
         23    2    1    2    0    0 -0.21357645988E+02  0.27923631928E+02  0.96849603075E+02  0.13550285606E+03  0.88007386745E+02 0.  0.
          5    1    1    2  502    0  0.48897385376E+02 -0.56406031308E+02  0.13716535225E+03  0.15621907989E+03  0.41800000000E+01 0. -1.
         -5    1    1    2    0  502 -0.27539739388E+02  0.28482399381E+02  0.22615622672E+03  0.22963840185E+03  0.41800000000E+01 0. -1.
        -11    1    3    3    0    0  0.33432244998E+02  0.41055619313E+01  0.24371543589E+02  0.41575747513E+02  0.00000000000E+00 0.  1.
         11    1    3    3    0    0 -0.54789890986E+02  0.23818069996E+02  0.72478059486E+02  0.93927108544E+02  0.00000000000E+00 0. -1.
</event>
<event>
 7    1  0.6610867E-006  0.3328758E+03  0.7561462E-02  0.1069871E+00
          1   -1    0    0  501    0  0.00000000000E+00  0.00000000000E+00  0.11711069196E+04  0.11711069196E+04  0.00000000000E+00 0. -1.
         -1   -1    0    0    0  501 -0.00000000000E+00 -0.00000000000E+00 -0.12122693911E+03  0.12122693911E+03  0.00000000000E+00 0.  1.
         23    2    1    2    0    0 -0.29336485903E+03  0.14212728730E+03  0.25403353508E+03  0.42326328425E+03  0.91409324151E+02 0.  0.
          5    1    1    2  502    0  0.62073655793E+02  0.96679431615E+01  0.24064761794E+03  0.24874757545E+03  0.41800000000E+01 0.  1.
         -5    1    1    2    0  502  0.23129120324E+03 -0.15179523046E+03  0.55519882750E+03  0.62032299905E+03  0.41800000000E+01 0.  1.
        -11    1    3    3    0    0 -0.14905126061E+03  0.67196901487E+02  0.70477948956E+02  0.17804168936E+03  0.00000000000E+00 0.  1.
         11    1    3    3    0    0 -0.14431359842E+03  0.74930385812E+02  0.18355558613E+03  0.24522159490E+03  0.00000000000E+00 0. -1.
</event>
<event>
 7    1  0.6610867E-006  0.1372919E+03  0.7561462E-02  0.1217020E+00
         -2   -1    0    0    0  501 -0.00000000000E+00  0.00000000000E+00  0.15865973342E+03  0.15865973342E+03  0.00000000000E+00 0.  1.
          2   -1    0    0  501    0  0.00000000000E+00 -0.00000000000E+00 -0.15880492919E+03  0.15880492919E+03  0.00000000000E+00 0. -1.
         23    2    1    2    0    0 -0.70450383417E+02  0.45467698249E+02  0.77598616630E+02  0.14798949936E+03  0.94067946234E+02 0.  0.
          5    1    1    2  502    0  0.69223449113E+02 -0.85609647740E+02 -0.55167124389E+02  0.12321437297E+03  0.41800000000E+01 0. -1.
         -5    1    1    2    0  502  0.12269343039E+01  0.40141949490E+02 -0.22576688010E+02  0.46260790289E+02  0.41800000000E+01 0. -1.
        -11    1    3    3    0    0  0.91099701525E+00  0.52333126859E+02  0.20020228867E+02  0.56039233099E+02  0.00000000000E+00 0.  1.
         11    1    3    3    0    0 -0.71361380432E+02 -0.68654286097E+01  0.57578387764E+02  0.91950266256E+02  0.00000000000E+00 0. -1.
</event>
<event>
 7    1  0.6610867E-006  0.1008017E+03  0.7561462E-02  0.1278619E+00
          2   -1    0    0  501    0  0.00000000000E+00  0.00000000000E+00  0.72832267310E+02  0.72832267310E+02  0.00000000000E+00 0. -1.
         -2   -1    0    0    0  501 -0.00000000000E+00 -0.00000000000E+00 -0.18678064476E+03  0.18678064476E+03  0.00000000000E+00 0.  1.
         23    2    1    2    0    0 -0.50569491481E+00  0.38439262437E+02 -0.68642026938E+02  0.12112571531E+03  0.92097114091E+02 0.  0.
          5    1    1    2  502    0 -0.16872592030E+02  0.28030526494E+02 -0.59664848005E+02  0.68174491306E+02  0.41800000000E+01 0.  1.
         -5    1    1    2    0  502  0.17378286945E+02 -0.66469788931E+02  0.14358497493E+02  0.70312705452E+02  0.41800000000E+01 0.  1.
        -11    1    3    3    0    0 -0.39725440256E+02  0.44998867676E+02 -0.40502039991E+02  0.72411490380E+02  0.00000000000E+00 0.  1.
         11    1    3    3    0    0  0.39219745341E+02 -0.65596052386E+01 -0.28139986947E+02  0.48714224933E+02  0.00000000000E+00 0. -1.
</event>
<event>
 7    1  0.6610867E-006  0.9810140E+02  0.7561462E-02  0.1284340E+00
         -1   -1    0    0    0  501 -0.00000000000E+00  0.00000000000E+00  0.27953898226E+02  0.27953898226E+02  0.00000000000E+00 0.  1.
          1   -1    0    0  501    0  0.00000000000E+00 -0.00000000000E+00 -0.56731897675E+03  0.56731897675E+03  0.00000000000E+00 0. -1.
         23    2    1    2    0    0  0.44521274752E+02  0.12887024735E+02 -0.13317183028E+03  0.16773731984E+03  0.90845213273E+02 0.  0.
          5    1    1    2  502    0 -0.85161775279E+02 -0.84017631981E+01 -0.33026268469E+03  0.34119500420E+03  0.41800000000E+01 0.  1.
         -5    1    1    2    0  502  0.40640500528E+02 -0.44852615372E+01 -0.75930563550E+02  0.86340550932E+02  0.41800000000E+01 0.  1.
        -11    1    3    3    0    0  0.39507376826E+02  0.31261005270E+02 -0.22047239736E+02  0.54992399967E+02  0.00000000000E+00 0.  1.
         11    1    3    3    0    0  0.50138979258E+01 -0.18373980535E+02 -0.11112459055E+03  0.11274491988E+03  0.00000000000E+00 0. -1.
</event>
<event>
 7    1  0.6610867E-006  0.1317576E+03  0.7561462E-02  0.1224871E+00
         -1   -1    0    0    0  501 -0.00000000000E+00  0.00000000000E+00  0.14484304140E+03  0.14484304140E+03  0.00000000000E+00 0.  1.
          1   -1    0    0  501    0  0.00000000000E+00 -0.00000000000E+00 -0.21646419767E+03  0.21646419767E+03  0.00000000000E+00 0. -1.
         23    2    1    2    0    0 -0.33272609817E+02 -0.82266225029E+02  0.76477542323E+02  0.14810413128E+03  0.90615787131E+02 0.  0.
          5    1    1    2  502    0 -0.24116498078E+02  0.76005451995E+02 -0.37159269987E+02  0.88072231484E+02  0.41800000000E+01 0. -1.
         -5    1    1    2    0  502  0.57389107895E+02  0.62607730334E+01 -0.11093942861E+03  0.12513087631E+03  0.41800000000E+01 0. -1.
        -11    1    3    3    0    0 -0.37341630403E+02 -0.10044241977E+03  0.71505312540E+02  0.12882580010E+03  0.00000000000E+00 0.  1.
         11    1    3    3    0    0  0.40690205860E+01  0.18176194743E+02  0.49722297833E+01  0.19278331175E+02  0.00000000000E+00 0. -1.
</event>
<event>
 6    1  0.6610867E-006  0.1564198E+03  0.7561462E-02  0.1192799E+00
         -2   -1    0    0    0  501 -0.00000000000E+00  0.00000000000E+00  0.63689655277E+02  0.63689655277E+02  0.00000000000E+00 0. -1.
          2   -1    0    0  501    0  0.00000000000E+00 -0.00000000000E+00 -0.50161587041E+03  0.50161587041E+03  0.00000000000E+00 0.  1.
          5    1    1    2  502    0 -0.12678342779E+03  0.51259918543E+02 -0.99991226328E+02  0.16946189706E+03  0.41800000000E+01 0.  1.
         -5    1    1    2    0  502  0.11875386017E+02 -0.42261512018E+01 -0.85065844365E+02  0.86096198665E+02  0.41800000000E+01 0.  1.
        -11    1    1    2    0    0  0.10847710419E+03 -0.76399239828E+02 -0.13975130408E+03  0.19270327702E+03  0.00000000000E+00 0. -1.
         11    1    1    2    0    0  0.64309375801E+01  0.29365472487E+02 -0.11311784036E+03  0.11704415295E+03  0.00000000000E+00 0.  1.
</event>
<event>
 7    1  0.6610867E-006  0.1020625E+03  0.7561462E-02  0.1276018E+00
          1   -1    0    0  501    0  0.00000000000E+00  0.00000000000E+00  0.20050976295E+03  0.20050976295E+03  0.00000000000E+00 0. -1.
         -1   -1    0    0    0  501 -0.00000000000E+00 -0.00000000000E+00 -0.70747662070E+02  0.70747662070E+02  0.00000000000E+00 0.  1.
         23    2    1    2    0    0 -0.47257539965E+02  0.21455483296E+01  0.35202161441E+02  0.10746649406E+03  0.89844180185E+02 0.  0.
          5    1    1    2  502    0  0.78015304626E+02  0.15448515385E+01  0.16723184294E+02  0.79911899083E+02  0.41800000000E+01 0. -1.
         -5    1    1    2    0  502 -0.30757764660E+02 -0.36903998680E+01  0.77836755145E+02  0.83879031883E+02  0.41800000000E+01 0. -1.
        -11    1    3    3    0    0  0.20076877932E+02  0.16367783023E+02  0.28199753725E+02  0.38291140734E+02  0.00000000000E+00 0. -1.
         11    1    3    3    0    0 -0.67334417897E+02 -0.14222234693E+02  0.70024077160E+01  0.69175353321E+02  0.00000000000E+00 0.  1.
</event>
<event>
 7    1  0.6610867E-006  0.1378580E+03  0.7561462E-02  0.1216241E+00
          4   -1    0    0  501    0  0.00000000000E+00  0.00000000000E+00  0.17536762032E+03  0.17536762032E+03  0.00000000000E+00 0. -1.
         -4   -1    0    0    0  501 -0.00000000000E+00 -0.00000000000E+00 -0.15544757707E+03  0.15544757707E+03  0.00000000000E+00 0.  1.
         23    2    1    2    0    0  0.11633158972E+03  0.40529132898E+02 -0.59325809206E+01  0.15335570815E+03  0.91143449165E+02 0.  0.
          5    1    1    2  502    0 -0.21896618116E+02  0.27550208435E+02 -0.31680528251E+02  0.47535293624E+02  0.41800000000E+01 0. -1.
         -5    1    1    2    0  502 -0.94434971606E+02 -0.68079341333E+02  0.57533152414E+02  0.12992419561E+03  0.41800000000E+01 0. -1.
        -11    1    3    3    0    0  0.46365687057E+02  0.99105320080E+01 -0.46899141365E+02  0.66689767144E+02  0.00000000000E+00 0.  1.
         11    1    3    3    0    0  0.69965902665E+02  0.30618600890E+02  0.40966560444E+02  0.86665941008E+02  0.00000000000E+00 0. -1.
</event>
<event>
 7    1  0.6610867E-006  0.2656106E+03  0.7561462E-02  0.1103818E+00
          1   -1    0    0  501    0  0.00000000000E+00  0.00000000000E+00  0.18884969136E+03  0.18884969136E+03  0.00000000000E+00 0. -1.
         -1   -1    0    0    0  501 -0.00000000000E+00 -0.00000000000E+00 -0.46243888689E+03  0.46243888689E+03  0.00000000000E+00 0.  1.
         23    2    1    2    0    0 -0.56618338129E+02  0.25180853176E+03 -0.23694945045E+03  0.36215133941E+03  0.91626293637E+02 0.  0.
          5    1    1    2  502    0  0.20399499369E+02 -0.16007394826E+03  0.37452441010E+02  0.16571048918E+03  0.41800000000E+01 0. -1.
         -5    1    1    2    0  502  0.36218838759E+02 -0.91734583504E+02 -0.74092186087E+02  0.12342674966E+03  0.41800000000E+01 0. -1.
        -11    1    3    3    0    0 -0.77322727740E+02  0.17106859450E+03 -0.18701326306E+03  0.26498533697E+03  0.00000000000E+00 0.  1.
         11    1    3    3    0    0  0.20704389611E+02  0.80739937265E+02 -0.49936187388E+02  0.97166002437E+02  0.00000000000E+00 0. -1.
</event>
<event>
 7    1  0.6610867E-006  0.8922851E+02  0.7561462E-02  0.1304731E+00
          1   -1    0    0  501    0  0.00000000000E+00  0.00000000000E+00  0.66683032196E+02  0.66683032196E+02  0.00000000000E+00 0. -1.
         -1   -1    0    0    0  501 -0.00000000000E+00 -0.00000000000E+00 -0.16491252774E+03  0.16491252774E+03  0.00000000000E+00 0.  1.
         23    2    1    2    0    0  0.17300361587E+02  0.19098591632E+01 -0.56302087517E+02  0.11062614453E+03  0.93623013845E+02 0.  0.
          5    1    1    2  502    0 -0.46497148259E+02 -0.32133806559E+02 -0.52695540869E+02  0.77387717033E+02  0.41800000000E+01 0.  1.
         -5    1    1    2    0  502  0.29196786671E+02  0.30223947396E+02  0.10768132843E+02  0.43581698372E+02  0.41800000000E+01 0. -1.
        -11    1    3    3    0    0 -0.30637297332E+02  0.67445002592E+01 -0.53925621147E+02  0.62386736472E+02  0.00000000000E+00 0. -1.
         11    1    3    3    0    0  0.47937658920E+02 -0.48346410960E+01 -0.23764663705E+01  0.48239408057E+02  0.00000000000E+00 0.  1.
</event>
<event>
 7    1  0.6610867E-006  0.1608713E+03  0.7561462E-02  0.1187717E+00
          1   -1    0    0  501    0  0.00000000000E+00  0.00000000000E+00  0.25907035874E+03  0.25907035874E+03  0.00000000000E+00 0. -1.
         -1   -1    0    0    0  501 -0.00000000000E+00 -0.00000000000E+00 -0.24527305666E+03  0.24527305666E+03  0.00000000000E+00 0.  1.
         23    2    1    2    0    0 -0.16553783526E+02  0.11973034214E+03 -0.14654085953E+03  0.21052299010E+03  0.90754191483E+02 0.  0.
          5    1    1    2  502    0 -0.34838020073E+02 -0.11357628565E+03  0.19711768907E+03  0.23018713268E+03  0.41800000000E+01 0. -1.
         -5    1    1    2    0  502  0.51391803599E+02 -0.61540564894E+01 -0.36779527467E+02  0.63633292616E+02  0.41800000000E+01 0.  1.
        -11    1    3    3    0    0  0.37605468867E+02  0.53336284991E+02 -0.57947169673E+02  0.87274309270E+02  0.00000000000E+00 0. -1.
         11    1    3    3    0    0 -0.54159252393E+02  0.66394057151E+02 -0.88593689857E+02  0.12324868083E+03  0.00000000000E+00 0.  1.
</event>
<event>
 7    1  0.6610867E-006  0.1099781E+03  0.7561462E-02  0.1260610E+00
         -1   -1    0    0    0  501 -0.00000000000E+00  0.00000000000E+00  0.56110914699E+03  0.56110914699E+03  0.00000000000E+00 0.  1.
          1   -1    0    0  501    0  0.00000000000E+00 -0.00000000000E+00 -0.27910229732E+02  0.27910229732E+02  0.00000000000E+00 0. -1.
         23    2    1    2    0    0 -0.27567499739E+01  0.52706117222E+02  0.29854858788E+03  0.31863258109E+03  0.98030239951E+02 0.  0.
          5    1    1    2  502    0 -0.31500066446E+02  0.30575926286E+02  0.72319824017E+02  0.84704018796E+02  0.41800000000E+01 0. -1.
         -5    1    1    2    0  502  0.34256816420E+02 -0.83282043508E+02  0.16233050536E+03  0.18568277683E+03  0.41800000000E+01 0.  1.
        -11    1    3    3    0    0 -0.17797882761E+02 -0.10549712648E+02  0.10243254979E+02  0.23086475268E+02  0.00000000000E+00 0.  1.
         11    1    3    3    0    0  0.15041132787E+02  0.63255829871E+02  0.28830533290E+03  0.29554610582E+03  0.00000000000E+00 0. -1.
</event>
<event>
 7    1  0.6610867E-006  0.1142182E+03  0.7561462E-02  0.1252952E+00
          1   -1    0    0  501    0  0.00000000000E+00  0.00000000000E+00  0.16583601733E+03  0.16583601733E+03  0.00000000000E+00 0. -1.
         -1   -1    0    0    0  501 -0.00000000000E+00 -0.00000000000E+00 -0.14224746960E+03  0.14224746960E+03  0.00000000000E+00 0.  1.
         23    2    1    2    0    0  0.55440601166E+02  0.19213908884E+02 -0.80436938058E+02  0.13513453665E+03  0.91369619894E+02 0.  0.
          5    1    1    2  502    0  0.13625017164E+02  0.34885193998E+02  0.68548113714E+02  0.78223616298E+02  0.41800000000E+01 0. -1.
         -5    1    1    2    0  502 -0.69065618330E+02 -0.54099102882E+02  0.35477372072E+02  0.94725333977E+02  0.41800000000E+01 0. -1.
        -11    1    3    3    0    0  0.72096987424E+02  0.34848160274E+02 -0.42004723773E+02  0.90425475887E+02  0.00000000000E+00 0. -1.
         11    1    3    3    0    0 -0.16656386257E+02 -0.15634251389E+02 -0.38432214285E+02  0.44709060765E+02  0.00000000000E+00 0.  1.
</event>
<event>
 7    1  0.6610867E-006  0.8593831E+02  0.7561462E-02  0.1312997E+00
         -1   -1    0    0    0  501 -0.00000000000E+00  0.00000000000E+00  0.39570973620E+02  0.39570973620E+02  0.00000000000E+00 0.  1.
          1   -1    0    0  501    0  0.00000000000E+00 -0.00000000000E+00 -0.31879127358E+03  0.31879127358E+03  0.00000000000E+00 0. -1.
         23    2    1    2    0    0  0.12745945121E+02  0.50517394392E-01 -0.97562339084E+02  0.13743257027E+03  0.95952278212E+02 0.  0.
          5    1    1    2  502    0  0.38360643108E+01  0.43856237164E+02 -0.13413105384E+02  0.46211132032E+02  0.41800000000E+01 0. -1.
         -5    1    1    2    0  502 -0.16582009432E+02 -0.43906754559E+02 -0.16824485549E+03  0.17471854490E+03  0.41800000000E+01 0. -1.
        -11    1    3    3    0    0  0.34874273262E+02 -0.28059291641E+02 -0.90504569954E+02  0.10096839092E+03  0.00000000000E+00 0. -1.
         11    1    3    3    0    0 -0.22128328141E+02  0.28109809035E+02 -0.70577691302E+01  0.36464179346E+02  0.00000000000E+00 0.  1.
</event>
<event>
 7    1  0.6610867E-006  0.1053439E+03  0.7561462E-02  0.1269444E+00
          3   -1    0    0  501    0  0.00000000000E+00  0.00000000000E+00  0.56159008814E+02  0.56159008814E+02  0.00000000000E+00 0. -1.
         -3   -1    0    0    0  501 -0.00000000000E+00 -0.00000000000E+00 -0.22881026134E+03  0.22881026134E+03  0.00000000000E+00 0.  1.
         23    2    1    2    0    0 -0.27115969759E+02 -0.13288655975E+02 -0.52798392067E+02  0.10911788831E+03  0.90593482938E+02 0.  0.
          5    1    1    2  502    0  0.75373500252E+02  0.71153353358E+01 -0.93444686331E+02  0.12033775110E+03  0.41800000000E+01 0. -1.
         -5    1    1    2    0  502 -0.48257530493E+02  0.61733206393E+01 -0.26408174126E+02  0.55513630737E+02  0.41800000000E+01 0. -1.
        -11    1    3    3    0    0 -0.55963100997E+02 -0.60261721577E+01 -0.10266173088E+02  0.57215187965E+02  0.00000000000E+00 0. -1.
         11    1    3    3    0    0  0.28847131238E+02 -0.72624838175E+01 -0.42532218979E+02  0.51902700346E+02  0.00000000000E+00 0.  1.
</event>
<event>
 7    1  0.6610867E-006  0.9790883E+02  0.7561462E-02  0.1284756E+00
         -1   -1    0    0    0  501 -0.00000000000E+00  0.00000000000E+00  0.43450236762E+02  0.43450236762E+02  0.00000000000E+00 0.  1.
          1   -1    0    0  501    0  0.00000000000E+00 -0.00000000000E+00 -0.35627732679E+03  0.35627732679E+03  0.00000000000E+00 0. -1.
         23    2    1    2    0    0  0.55112311692E+01  0.48694683027E+02 -0.84324801005E+02  0.13465486491E+03  0.92842418944E+02 0.  0.
          5    1    1    2  502    0  0.51279348266E+02 -0.14760826304E+02 -0.44877605239E+02  0.69849304963E+02  0.41800000000E+01 0. -1.
         -5    1    1    2    0  502 -0.56790579435E+02 -0.33933856723E+02 -0.18362468378E+03  0.19522339368E+03  0.41800000000E+01 0. -1.
        -11    1    3    3    0    0 -0.33141423899E+01  0.60873682197E+02 -0.13750017577E+02  0.62495213476E+02  0.00000000000E+00 0.  1.
         11    1    3    3    0    0  0.88253735592E+01 -0.12178999170E+02 -0.70574783428E+02  0.72159651434E+02  0.00000000000E+00 0. -1.
</event>
<event>
 7    1  0.6610867E-006  0.1107644E+03  0.7561462E-02  0.1259161E+00
          1   -1    0    0  501    0  0.00000000000E+00  0.00000000000E+00  0.66327699946E+03  0.66327699946E+03  0.00000000000E+00 0. -1.
         -1   -1    0    0    0  501 -0.00000000000E+00 -0.00000000000E+00 -0.26594006851E+02  0.26594006851E+02  0.00000000000E+00 0.  1.
         23    2    1    2    0    0  0.57288442176E+02  0.27631703478E+02  0.17900679452E+03  0.21116341292E+03  0.92201289726E+02 0.  0.
          5    1    1    2  502    0  0.36920322104E+02 -0.24126054714E+02  0.11382512764E+03  0.12214257564E+03  0.41800000000E+01 0.  1.
         -5    1    1    2    0  502 -0.94208764281E+02 -0.35056487638E+01  0.34385107044E+03  0.35656501775E+03  0.41800000000E+01 0.  1.
        -11    1    3    3    0    0  0.35491689281E+02 -0.12137415439E+02  0.15573843137E+03  0.16019187204E+03  0.00000000000E+00 0. -1.
         11    1    3    3    0    0  0.21796752895E+02  0.39769118917E+02  0.23268363153E+02  0.50971540883E+02  0.00000000000E+00 0.  1.
</event>
<event>
 7    1  0.6610867E-006  0.1470493E+03  0.7561462E-02  0.1204146E+00
         -3   -1    0    0    0  501 -0.00000000000E+00  0.00000000000E+00  0.66316326312E+03  0.66316326312E+03  0.00000000000E+00 0.  1.
          3   -1    0    0  501    0  0.00000000000E+00 -0.00000000000E+00 -0.46745364255E+02  0.46745364255E+02  0.00000000000E+00 0. -1.
         23    2    1    2    0    0  0.11871352713E+02 -0.13457882481E+03  0.33040648827E+03  0.36975893049E+03  0.96440811273E+02 0.  0.
          5    1    1    2  502    0 -0.24901740420E+02  0.14000472609E+03  0.29156101319E+03  0.32441750386E+03  0.41800000000E+01 0. -1.
         -5    1    1    2    0  502  0.13030387707E+02 -0.54259012799E+01 -0.55496025924E+01  0.15732193026E+02  0.41800000000E+01 0. -1.
        -11    1    3    3    0    0 -0.71738154616E+01 -0.39675045650E+02  0.20787084714E+02  0.45361611154E+02  0.00000000000E+00 0. -1.
         11    1    3    3    0    0  0.19045168175E+02 -0.94903779161E+02  0.30961940356E+03  0.32439731933E+03  0.00000000000E+00 0.  1.
</event>
<event>
 7    1  0.6610867E-006  0.2470241E+03  0.7561462E-02  0.1115200E+00
         -2   -1    0    0    0  501 -0.00000000000E+00  0.00000000000E+00  0.65493051995E+02  0.65493051995E+02  0.00000000000E+00 0.  1.
          2   -1    0    0  501    0  0.00000000000E+00 -0.00000000000E+00 -0.95655638146E+03  0.95655638146E+03  0.00000000000E+00 0. -1.
         23    2    1    2    0    0  0.28394680281E+02 -0.22253074365E+03 -0.39361406370E+03  0.46220170086E+03  0.91499679777E+02 0.  0.
          5    1    1    2  502    0 -0.56601553342E+02  0.33983427406E+02 -0.13031060903E+03  0.14614012593E+03  0.41800000000E+01 0. -1.
         -5    1    1    2    0  502  0.28206873061E+02  0.18854731624E+03 -0.36713865672E+03  0.41370760666E+03  0.41800000000E+01 0. -1.
        -11    1    3    3    0    0  0.54655326328E+02 -0.16826456391E+03 -0.24833320651E+03  0.30490908419E+03  0.00000000000E+00 0.  1.
         11    1    3    3    0    0 -0.26260646047E+02 -0.54266179733E+02 -0.14528085719E+03  0.15729261667E+03  0.00000000000E+00 0. -1.
</event>
<event>
 7    1  0.6610867E-006  0.2815049E+03  0.7561462E-02  0.1094870E+00
         -2   -1    0    0    0  501 -0.00000000000E+00  0.00000000000E+00  0.13929922740E+03  0.13929922740E+03  0.00000000000E+00 0.  1.
          2   -1    0    0  501    0  0.00000000000E+00 -0.00000000000E+00 -0.10375970442E+04  0.10375970442E+04  0.00000000000E+00 0. -1.
         23    2    1    2    0    0  0.15146564168E+03  0.15888617343E+03 -0.13355713480E+03  0.27310750641E+03  0.92539424494E+02 0.  0.
          5    1    1    2  502    0  0.73896728495E+02 -0.44815068777E+02 -0.59073553498E+03  0.59703857627E+03  0.41800000000E+01 0. -1.
         -5    1    1    2    0  502 -0.22536237017E+03 -0.11407110465E+03 -0.17400514701E+03  0.30675018890E+03  0.41800000000E+01 0.  1.
        -11    1    3    3    0    0  0.53980974211E+02  0.28439820155E+02  0.22596240169E+01  0.61056325208E+02  0.00000000000E+00 0. -1.
         11    1    3    3    0    0  0.97484667465E+02  0.13044635327E+03 -0.13581675882E+03  0.21205118120E+03  0.00000000000E+00 0.  1.
</event>
<event>
 7    1  0.6610867E-006  0.1192144E+03  0.7561462E-02  0.1244399E+00
          2   -1    0    0  501    0  0.00000000000E+00  0.00000000000E+00  0.42705438710E+03  0.42705438710E+03  0.00000000000E+00 0. -1.
         -2   -1    0    0    0  501 -0.00000000000E+00 -0.00000000000E+00 -0.10177558307E+03  0.10177558307E+03  0.00000000000E+00 0.  1.
         23    2    1    2    0    0  0.76480747579E+02  0.37677420806E+02 -0.30309271769E+02  0.13039141128E+03  0.93884905030E+02 0.  0.
          5    1    1    2  502    0 -0.75685810550E+02 -0.61825939554E+02  0.36041012165E+03  0.37344841265E+03  0.41800000000E+01 0. -1.
         -5    1    1    2    0  502 -0.79493702952E+00  0.24148518748E+02 -0.48220458534E+01  0.24990146234E+02  0.41800000000E+01 0.  1.
        -11    1    3    3    0    0  0.21537651917E+02  0.54523397417E+02 -0.41524281737E+02  0.71839663764E+02  0.00000000000E+00 0.  1.
         11    1    3    3    0    0  0.54943095663E+02 -0.16845976611E+02  0.11215009968E+02  0.58551747519E+02  0.00000000000E+00 0. -1.
</event>
<event>
 7    1  0.6610867E-006  0.2194494E+03  0.7561462E-02  0.1134294E+00
          2   -1    0    0  501    0  0.00000000000E+00  0.00000000000E+00  0.51048602585E+03  0.51048602585E+03  0.00000000000E+00 0.  1.
         -2   -1    0    0    0  501 -0.00000000000E+00 -0.00000000000E+00 -0.10003264760E+03  0.10003264760E+03  0.00000000000E+00 0. -1.
         23    2    1    2    0    0  0.17023627902E+03  0.10045750058E+03  0.20691576580E+03  0.30044055262E+03  0.91533007203E+02 0.  0.
          5    1    1    2  502    0 -0.60638414935E+02 -0.93354337705E+02  0.52148786087E+02  0.12300007327E+03  0.41800000000E+01 0.  1.
         -5    1    1    2    0  502 -0.10959786408E+03 -0.71031628702E+01  0.15138882635E+03  0.18707804756E+03  0.41800000000E+01 0.  1.
        -11    1    3    3    0    0  0.96507657660E+02  0.10637300250E+03  0.12985927437E+03  0.19362947810E+03  0.00000000000E+00 0.  1.
         11    1    3    3    0    0  0.73728621355E+02 -0.59155019219E+01  0.77056491433E+02  0.10681107453E+03  0.00000000000E+00 0. -1.
</event>
<event>
 7    1  0.6610867E-006  0.9501081E+02  0.7561462E-02  0.1291152E+00
         -2   -1    0    0    0  501 -0.00000000000E+00  0.00000000000E+00  0.12248881896E+03  0.12248881896E+03  0.00000000000E+00 0.  1.
          2   -1    0    0  501    0  0.00000000000E+00 -0.00000000000E+00 -0.10511104912E+03  0.10511104912E+03  0.00000000000E+00 0. -1.
         23    2    1    2    0    0  0.19965124772E+02  0.23095952995E+02  0.27843904662E+01  0.98021911100E+02  0.93104849355E+02 0.  0.
          5    1    1    2  502    0 -0.25456326821E+02 -0.71967243266E+02  0.22269225576E+02  0.79628509256E+02  0.41800000000E+01 0. -1.
         -5    1    1    2    0  502  0.54912020488E+01  0.48871290271E+02 -0.76758462027E+01  0.49949447721E+02  0.41800000000E+01 0. -1.
        -11    1    3    3    0    0  0.38408578084E+02  0.24757259342E+02 -0.33920699414E+02  0.56910057189E+02  0.00000000000E+00 0. -1.
         11    1    3    3    0    0 -0.18443453312E+02 -0.16613063472E+01  0.36705089880E+02  0.41111853910E+02  0.00000000000E+00 0.  1.
</event>
<event>
 7    1  0.6610867E-006  0.1036366E+03  0.7561462E-02  0.1272829E+00
         -2   -1    0    0    0  501 -0.00000000000E+00  0.00000000000E+00  0.27283157922E+03  0.27283157922E+03  0.00000000000E+00 0.  1.
          2   -1    0    0  501    0  0.00000000000E+00 -0.00000000000E+00 -0.63283886775E+02  0.63283886775E+02  0.00000000000E+00 0. -1.
         23    2    1    2    0    0  0.67073219758E+02 -0.14393592698E+02  0.13365290226E+03  0.17451149659E+03  0.88798490071E+02 0.  0.
          5    1    1    2  502    0 -0.76863952521E+01 -0.38897804911E+02 -0.13134682555E+02  0.41977519992E+02  0.41800000000E+01 0. -1.
         -5    1    1    2    0  502 -0.59386824506E+02  0.53291397609E+02  0.89029472745E+02  0.11962644942E+03  0.41800000000E+01 0. -1.
        -11    1    3    3    0    0  0.14078343051E+01 -0.21415994003E+02 -0.40045764918E+01  0.21832623054E+02  0.00000000000E+00 0. -1.
         11    1    3    3    0    0  0.65665385453E+02  0.70224013045E+01  0.13765747875E+03  0.15267887353E+03  0.00000000000E+00 0.  1.
</event>
<event>
 7    1  0.6610867E-006  0.9767206E+02  0.7561462E-02  0.1285269E+00
         -1   -1    0    0    0  501 -0.00000000000E+00  0.00000000000E+00  0.85370249075E+03  0.85370249075E+03  0.00000000000E+00 0.  1.
          1   -1    0    0  501    0  0.00000000000E+00 -0.00000000000E+00 -0.19984563859E+02  0.19984563859E+02  0.00000000000E+00 0. -1.
         23    2    1    2    0    0  0.72362430425E+02  0.17709091874E+02  0.32908585517E+03  0.34847135254E+03  0.87091045428E+02 0.  0.
          5    1    1    2  502    0  0.84645164611E+00 -0.67327199568E+01  0.38079853807E+03  0.38088193052E+03  0.41800000000E+01 0.  1.
         -5    1    1    2    0  502 -0.73208882071E+02 -0.10976371917E+02  0.12383353365E+03  0.14433377155E+03  0.41800000000E+01 0.  1.
        -11    1    3    3    0    0  0.92001065552E+02  0.17128616221E+02  0.24883384535E+03  0.26584933355E+03  0.00000000000E+00 0.  1.
         11    1    3    3    0    0 -0.19638635127E+02  0.58047565205E+00  0.80252009818E+02  0.82622018987E+02  0.00000000000E+00 0. -1.
</event>
<event>
 7    1  0.6610867E-006  0.2897181E+03  0.7561462E-02  0.1090496E+00
         -1   -1    0    0    0  501 -0.00000000000E+00  0.00000000000E+00  0.14328654555E+03  0.14328654555E+03  0.00000000000E+00 0.  1.
          1   -1    0    0  501    0  0.00000000000E+00 -0.00000000000E+00 -0.17906363881E+04  0.17906363881E+04  0.00000000000E+00 0. -1.
         23    2    1    2    0    0 -0.67772632439E+02 -0.15396131770E+03 -0.27836694974E+02  0.19310092512E+03  0.90641428935E+02 0.  0.
          5    1    1    2  502    0  0.17889228935E+03 -0.31695452288E+02 -0.14617702263E+04  0.14730229869E+04  0.41800000000E+01 0. -1.
         -5    1    1    2    0  502 -0.11111965691E+03  0.18565676999E+03 -0.15774292127E+03  0.26779902167E+03  0.41800000000E+01 0.  1.
        -11    1    3    3    0    0 -0.37088070958E+02 -0.14450801338E+03 -0.46113743693E+02  0.15615559002E+03  0.00000000000E+00 0.  1.
         11    1    3    3    0    0 -0.30684561481E+02 -0.94533043298E+01  0.18277048719E+02  0.36945335104E+02  0.00000000000E+00 0. -1.
</event>
<event>
 7    1  0.6610867E-006  0.1050248E+03  0.7561462E-02  0.1270071E+00
         -1   -1    0    0    0  501 -0.00000000000E+00  0.00000000000E+00  0.24165905514E+02  0.24165905514E+02  0.00000000000E+00 0.  1.
          1   -1    0    0  501    0  0.00000000000E+00 -0.00000000000E+00 -0.53922189245E+03  0.53922189245E+03  0.00000000000E+00 0. -1.
         23    2    1    2    0    0  0.24615563056E+02 -0.23080293050E+02 -0.24955147635E+03  0.26795704051E+03  0.91577346199E+02 0.  0.
          5    1    1    2  502    0 -0.64426108509E+02 -0.32982689764E+01 -0.22011888340E+03  0.22941533790E+03  0.41800000000E+01 0. -1.
         -5    1    1    2    0  502  0.39810545453E+02  0.26378562027E+02 -0.45385627188E+02  0.66015419555E+02  0.41800000000E+01 0. -1.
        -11    1    3    3    0    0  0.52348961340E+02  0.11034295438E+02 -0.13002218924E+03  0.14059850328E+03  0.00000000000E+00 0. -1.
         11    1    3    3    0    0 -0.27733398284E+02 -0.34114588488E+02 -0.11952928711E+03  0.12735853723E+03  0.00000000000E+00 0.  1.
</event>
<event>
 6    1  0.6610867E-006  0.8717316E+02  0.7561462E-02  0.1309845E+00
          2   -1    0    0  501    0  0.00000000000E+00  0.00000000000E+00  0.40747205289E+03  0.40747205289E+03  0.00000000000E+00 0.  1.
         -2   -1    0    0    0  501 -0.00000000000E+00 -0.00000000000E+00 -0.26649694571E+02  0.26649694571E+02  0.00000000000E+00 0. -1.
          5    1    1    2  502    0  0.54233693549E+02 -0.20245962383E+01  0.94769420348E+02  0.10928910256E+03  0.41800000000E+01 0. -1.
         -5    1    1    2    0  502 -0.65001870883E+02  0.33314367052E+02  0.26241760823E+03  0.27242533615E+03  0.41800000000E+01 0.  1.
        -11    1    1    2    0    0  0.14102618716E+01 -0.36170962727E+02  0.17620588531E+02  0.40259315982E+02  0.00000000000E+00 0. -1.
         11    1    1    2    0    0  0.93579154624E+01  0.48811919134E+01  0.60147412102E+01  0.12147992761E+02  0.00000000000E+00 0.  1.
</event>
<event>
 7    1  0.6610867E-006  0.9887601E+02  0.7561462E-02  0.1282677E+00
          1   -1    0    0  501    0  0.00000000000E+00  0.00000000000E+00  0.10456097243E+04  0.10456097243E+04  0.00000000000E+00 0. -1.
         -1   -1    0    0    0  501 -0.00000000000E+00 -0.00000000000E+00 -0.13553626879E+02  0.13553626879E+02  0.00000000000E+00 0.  1.
         23    2    1    2    0    0  0.35329318665E+02  0.11539926632E+02  0.27821286282E+03  0.29410863053E+03  0.87841669201E+02 0.  0.
          5    1    1    2  502    0 -0.66817649485E+02 -0.19312718484E+02  0.68818522131E+03  0.69170365809E+03  0.41800000000E+01 0.  1.
         -5    1    1    2    0  502  0.31488330820E+02  0.77727918524E+01  0.65658013326E+02  0.73351062602E+02  0.41800000000E+01 0.  1.
        -11    1    3    3    0    0  0.48408986601E+01 -0.37400121390E+02  0.10807651909E+03  0.11446718900E+03  0.00000000000E+00 0.  1.
         11    1    3    3    0    0  0.30488420005E+02  0.48940048022E+02  0.17013634373E+03  0.17964144153E+03  0.00000000000E+00 0. -1.
</event>
<event>
 7    1  0.6610867E-006  0.1315800E+03  0.7561462E-02  0.1225130E+00
          2   -1    0    0  501    0  0.00000000000E+00  0.00000000000E+00  0.16473668466E+03  0.16473668466E+03  0.00000000000E+00 0. -1.
         -2   -1    0    0    0  501 -0.00000000000E+00 -0.00000000000E+00 -0.12290403967E+03  0.12290403967E+03  0.00000000000E+00 0.  1.
         23    2    1    2    0    0  0.46678090485E+02  0.63062304846E+02 -0.28742280084E+02  0.12398332785E+03  0.91597207908E+02 0.  0.
          5    1    1    2  502    0 -0.85011060708E+02 -0.23850030863E+02  0.24006474454E+02  0.91594146268E+02  0.41800000000E+01 0. -1.
         -5    1    1    2    0  502  0.38332970223E+02 -0.39212273983E+02  0.46568450620E+02  0.72063250205E+02  0.41800000000E+01 0. -1.
        -11    1    3    3    0    0  0.41297205211E+02 -0.13173081857E+02 -0.17453004408E+02  0.46728969673E+02  0.00000000000E+00 0.  1.
         11    1    3    3    0    0  0.53808852739E+01  0.76235386703E+02 -0.11289275676E+02  0.77254358177E+02  0.00000000000E+00 0. -1.
</event>
<event>
 7    1  0.6610867E-006  0.8560251E+02  0.7561462E-02  0.1313864E+00
          1   -1    0    0  501    0  0.00000000000E+00  0.00000000000E+00  0.32995203359E+03  0.32995203359E+03  0.00000000000E+00 0. -1.
         -1   -1    0    0    0  501 -0.00000000000E+00 -0.00000000000E+00 -0.41950879584E+02  0.41950879584E+02  0.00000000000E+00 0.  1.
         23    2    1    2    0    0 -0.23386445330E+02 -0.93155612182E+01  0.73914257971E+02  0.12267542633E+03  0.94616262808E+02 0.  0.
          5    1    1    2  502    0 -0.30504903392E+02  0.20808143002E+02  0.10999031086E+02  0.38755374220E+02  0.41800000000E+01 0.  1.
         -5    1    1    2    0  502  0.53891348722E+02 -0.11492581783E+02  0.20308786495E+03  0.21047211262E+03  0.41800000000E+01 0.  1.
        -11    1    3    3    0    0 -0.44574022280E+02  0.14530596000E+02  0.77498149121E+02  0.90575630274E+02  0.00000000000E+00 0. -1.
         11    1    3    3    0    0  0.21187576950E+02 -0.23846157218E+02 -0.35838911499E+01  0.32099796056E+02  0.00000000000E+00 0.  1.
</event>
<event>
 7    1  0.6610867E-006  0.1287270E+03  0.7561462E-02  0.1229357E+00
         -1   -1    0    0    0  501 -0.00000000000E+00  0.00000000000E+00  0.61510294173E+02  0.61510294173E+02  0.00000000000E+00 0.  1.
          1   -1    0    0  501    0  0.00000000000E+00 -0.00000000000E+00 -0.48524717077E+03  0.48524717077E+03  0.00000000000E+00 0. -1.
         23    2    1    2    0    0  0.55346532672E+02 -0.10734317910E+03 -0.11392666016E+03  0.19148849515E+03  0.95408401631E+02 0.  0.
          5    1    1    2  502    0 -0.58668295051E+02  0.54906348555E+02 -0.61090492731E+02  0.10102572275E+03  0.41800000000E+01 0. -1.
         -5    1    1    2    0  502  0.33217623791E+01  0.52436830550E+02 -0.24871972371E+03  0.25424324704E+03  0.41800000000E+01 0. -1.
        -11    1    3    3    0    0  0.40773521878E+02 -0.99941817466E+02 -0.38951170102E+02  0.11475208328E+03  0.00000000000E+00 0.  1.
         11    1    3    3    0    0  0.14573010794E+02 -0.74013616387E+01 -0.74975490060E+02  0.76736411875E+02  0.00000000000E+00 0. -1.
</event>
<event>
 7    1  0.6610867E-006  0.1813654E+03  0.7561462E-02  0.1166488E+00
         -2   -1    0    0    0  501 -0.00000000000E+00  0.00000000000E+00  0.79194573512E+02  0.79194573512E+02  0.00000000000E+00 0.  1.
          2   -1    0    0  501    0  0.00000000000E+00 -0.00000000000E+00 -0.47157565630E+03  0.47157565630E+03  0.00000000000E+00 0. -1.
         23    2    1    2    0    0 -0.62916968130E+01  0.15863612712E+03 -0.13131720243E+03  0.22060929881E+03  0.78862213971E+02 0.  0.
          5    1    1    2  502    0 -0.22808505100E+02 -0.16088200352E+03 -0.25094474206E+03  0.29898826554E+03  0.41800000000E+01 0. -1.
         -5    1    1    2    0  502  0.29100201913E+02  0.22458764048E+01 -0.10119138297E+02  0.31172665463E+02  0.41800000000E+01 0. -1.
        -11    1    3    3    0    0  0.22467252005E+02  0.12237616966E+03 -0.66829490192E+02  0.14123344177E+03  0.00000000000E+00 0.  1.
         11    1    3    3    0    0 -0.28758948818E+02  0.36259957452E+02 -0.64487712238E+02  0.79375857043E+02  0.00000000000E+00 0. -1.
</event>
<event>
 7    1  0.6610867E-006  0.1269765E+03  0.7561462E-02  0.1232012E+00
          1   -1    0    0  501    0  0.00000000000E+00  0.00000000000E+00  0.38921648517E+03  0.38921648517E+03  0.00000000000E+00 0. -1.
         -1   -1    0    0    0  501 -0.00000000000E+00 -0.00000000000E+00 -0.62251161366E+02  0.62251161366E+02  0.00000000000E+00 0.  1.
         23    2    1    2    0    0  0.48092419680E+01 -0.96045210051E+02  0.80443168726E+02  0.15877457919E+03  0.97418953078E+02 0.  0.
          5    1    1    2  502    0 -0.25398694592E+02 -0.15502529775E+02  0.11548059169E+03  0.11932586297E+03  0.41800000000E+01 0. -1.
         -5    1    1    2    0  502  0.20589452624E+02  0.11154773983E+03  0.13104156339E+03  0.17336720438E+03  0.41800000000E+01 0. -1.
        -11    1    3    3    0    0  0.28347527279E+02 -0.35456988620E+02 -0.10879882020E+02  0.46681390056E+02  0.00000000000E+00 0.  1.
         11    1    3    3    0    0 -0.23538285311E+02 -0.60588221432E+02  0.91323050746E+02  0.11209318913E+03  0.00000000000E+00 0. -1.
</event>
<event>
 7    1  0.6610867E-006  0.7801556E+02  0.7561462E-02  0.1334779E+00
         -1   -1    0    0    0  501 -0.00000000000E+00  0.00000000000E+00  0.32191040863E+02  0.32191040863E+02  0.00000000000E+00 0.  1.
          1   -1    0    0  501    0  0.00000000000E+00 -0.00000000000E+00 -0.50250760121E+03  0.50250760121E+03  0.00000000000E+00 0. -1.
         23    2    1    2    0    0  0.30677311728E+02  0.51277953137E+02 -0.14981906210E+03  0.18550411737E+03  0.91626962515E+02 0.  0.
          5    1    1    2  502    0  0.20350146411E+02 -0.78146911796E+01 -0.25302061069E+03  0.25399232211E+03  0.41800000000E+01 0. -1.
         -5    1    1    2    0  502 -0.51027458140E+02 -0.43463261957E+02 -0.67476887555E+02  0.95202202591E+02  0.41800000000E+01 0. -1.
        -11    1    3    3    0    0 -0.13651371494E+01  0.25540291601E+02 -0.14121679974E+03  0.14351430111E+03  0.00000000000E+00 0. -1.
         11    1    3    3    0    0  0.32042448878E+02  0.25737661535E+02 -0.86022623552E+01  0.41989816254E+02  0.00000000000E+00 0.  1.
</event>
<event>
 7    1  0.6610867E-006  0.1003351E+03  0.7561462E-02  0.1279593E+00
          2   -1    0    0  501    0  0.00000000000E+00  0.00000000000E+00  0.48102158572E+03  0.48102158572E+03  0.00000000000E+00 0. -1.
         -2   -1    0    0    0  501 -0.00000000000E+00 -0.00000000000E+00 -0.44395009789E+02  0.44395009789E+02  0.00000000000E+00 0.  1.
         23    2    1    2    0    0 -0.36816049276E+02  0.28321601313E+02  0.48642909061E+02  0.11513106516E+03  0.93442468818E+02 0.  0.
          5    1    1    2  502    0 -0.44603639603E+02 -0.12211483988E+02  0.94948352541E+02  0.10569421487E+03  0.41800000000E+01 0.  1.
         -5    1    1    2    0  502  0.81419688879E+02 -0.16110117325E+02  0.29303531433E+03  0.30459131547E+03  0.41800000000E+01 0.  1.
        -11    1    3    3    0    0 -0.50623016033E+02  0.17403292212E+02 -0.95129639229E+01  0.54369668150E+02  0.00000000000E+00 0.  1.
         11    1    3    3    0    0  0.13806966758E+02  0.10918309101E+02  0.58155872984E+02  0.60761397015E+02  0.00000000000E+00 0. -1.
</event>
<event>
 7    1  0.6610867E-006  0.8164751E+02  0.7561462E-02  0.1324440E+00
         -2   -1    0    0    0  501 -0.00000000000E+00  0.00000000000E+00  0.48946177558E+02  0.48946177558E+02  0.00000000000E+00 0.  1.
          2   -1    0    0  501    0  0.00000000000E+00 -0.00000000000E+00 -0.22739120770E+03  0.22739120770E+03  0.00000000000E+00 0. -1.
         23    2    1    2    0    0 -0.87937840309E+01  0.17483893047E+02 -0.64714011591E+02  0.10614007843E+03  0.81821731827E+02 0.  0.
          5    1    1    2  502    0  0.42426512685E+02 -0.18770644873E+02 -0.12583993936E+03  0.13418460726E+03  0.41800000000E+01 0. -1.
         -5    1    1    2    0  502 -0.33632728654E+02  0.12867518264E+01  0.12108920808E+02  0.36012699568E+02  0.41800000000E+01 0. -1.
        -11    1    3    3    0    0 -0.44245777817E+02  0.16833676367E+02 -0.27542818287E+02  0.54769228166E+02  0.00000000000E+00 0. -1.
         11    1    3    3    0    0  0.35451993786E+02  0.65021668020E+00 -0.37171193304E+02  0.51370850264E+02  0.00000000000E+00 0.  1.
</event>
<event>
 7    1  0.6610867E-006  0.8292955E+02  0.7561462E-02  0.1320938E+00
         -4   -1    0    0    0  501 -0.00000000000E+00  0.00000000000E+00  0.44121269408E+02  0.44121269408E+02  0.00000000000E+00 0. -1.
          4   -1    0    0  501    0  0.00000000000E+00 -0.00000000000E+00 -0.28311458410E+03  0.28311458410E+03  0.00000000000E+00 0.  1.
         23    2    1    2    0    0 -0.16434156242E+01  0.28278785275E+02 -0.10645954517E+03  0.14280588424E+03  0.90870761551E+02 0.  0.
          5    1    1    2  502    0 -0.50963782920E+02  0.87625671938E+00 -0.10769759596E+03  0.11922382132E+03  0.41800000000E+01 0. -1.
         -5    1    1    2    0  502  0.52607198545E+02 -0.29155041995E+02 -0.24836173567E+02  0.65206147945E+02  0.41800000000E+01 0. -1.
        -11    1    3    3    0    0 -0.48072569861E+01 -0.12568264393E+02  0.11646102811E+02  0.17796142848E+02  0.00000000000E+00 0. -1.
         11    1    3    3    0    0  0.31638413620E+01  0.40847049668E+02 -0.11810564798E+03  0.12500974139E+03  0.00000000000E+00 0.  1.
</event>
<event>
 7    1  0.6610867E-006  0.1714904E+03  0.7561462E-02  0.1176302E+00
         -1   -1    0    0    0  501 -0.00000000000E+00  0.00000000000E+00  0.46609895678E+03  0.46609895678E+03  0.00000000000E+00 0.  1.
          1   -1    0    0  501    0  0.00000000000E+00 -0.00000000000E+00 -0.91694994867E+02  0.91694994867E+02  0.00000000000E+00 0. -1.
         23    2    1    2    0    0 -0.16062946134E+02  0.13955504802E+03  0.32394727635E+03  0.36363457148E+03  0.86917397854E+02 0.  0.
          5    1    1    2  502    0 -0.11006185057E+02 -0.15436175033E+03  0.32392541531E+02  0.15816268593E+03  0.41800000000E+01 0. -1.
         -5    1    1    2    0  502  0.27069131191E+02  0.14806702307E+02  0.18064144032E+02  0.35996694241E+02  0.41800000000E+01 0.  1.
        -11    1    3    3    0    0 -0.28514054426E+02  0.15690708471E+02  0.29394203666E+02  0.43855089115E+02  0.00000000000E+00 0. -1.
         11    1    3    3    0    0  0.12451108292E+02  0.12386433955E+03  0.29455307269E+03  0.31977948236E+03  0.00000000000E+00 0.  1.
</event>
<event>
 7    1  0.6610867E-006  0.1589358E+03  0.7561462E-02  0.1189903E+00
         -1   -1    0    0    0  501 -0.00000000000E+00  0.00000000000E+00  0.54225816812E+02  0.54225816812E+02  0.00000000000E+00 0.  1.
          1   -1    0    0  501    0  0.00000000000E+00 -0.00000000000E+00 -0.61285530320E+03  0.61285530320E+03  0.00000000000E+00 0. -1.
         23    2    1    2    0    0  0.51790265634E+02  0.12856179385E+03 -0.17993853360E+03  0.24486754316E+03  0.91497930943E+02 0.  0.
          5    1    1    2  502    0 -0.86362156455E+02 -0.81419463023E+02 -0.30968213035E+03  0.33167460753E+03  0.41800000000E+01 0.  1.
         -5    1    1    2    0  502  0.34571890822E+02 -0.47142330826E+02 -0.69008822444E+02  0.90538969321E+02  0.41800000000E+01 0.  1.
        -11    1    3    3    0    0  0.23017914025E+02  0.86684397804E+02 -0.17125866543E+03  0.19332237241E+03  0.00000000000E+00 0. -1.
         11    1    3    3    0    0  0.28772351609E+02  0.41877396044E+02 -0.86798681736E+01  0.51545170754E+02  0.00000000000E+00 0.  1.
</event>
<event>
 7    1  0.6610867E-006  0.1559589E+03  0.7561462E-02  0.1193336E+00
          2   -1    0    0  501    0  0.00000000000E+00  0.00000000000E+00  0.10975583634E+04  0.10975583634E+04  0.00000000000E+00 0. -1.
         -2   -1    0    0    0  501 -0.00000000000E+00 -0.00000000000E+00 -0.28195784062E+02  0.28195784062E+02  0.00000000000E+00 0.  1.
         23    2    1    2    0    0 -0.25491490001E+02 -0.12330058628E+03  0.33175704609E+03  0.36710061712E+03  0.94059953317E+02 0.  0.
          5    1    1    2  502    0 -0.23298976392E+02  0.12507366235E+03  0.49144305084E+03  0.50766131223E+03  0.41800000000E+01 0. -1.
         -5    1    1    2    0  502  0.48790466393E+02 -0.17730760644E+01  0.24616248242E+03  0.25099221813E+03  0.41800000000E+01 0. -1.
        -11    1    3    3    0    0 -0.31260480700E+02 -0.34195076109E+02  0.21596456931E+03  0.22087828341E+03  0.00000000000E+00 0. -1.
         11    1    3    3    0    0  0.57689906996E+01 -0.89105510174E+02  0.11579247678E+03  0.14622233371E+03  0.00000000000E+00 0.  1.
</event>
<event>
 7    1  0.6610867E-006  0.1338786E+03  0.7561462E-02  0.1221812E+00
         -2   -1    0    0    0  501 -0.00000000000E+00  0.00000000000E+00  0.17140423727E+03  0.17140423727E+03  0.00000000000E+00 0.  1.
          2   -1    0    0  501    0  0.00000000000E+00 -0.00000000000E+00 -0.17376041995E+03  0.17376041995E+03  0.00000000000E+00 0. -1.
         23    2    1    2    0    0 -0.38658190002E+02  0.10970696044E+03  0.65043141590E+02  0.16153595300E+03  0.91286258659E+02 0.  0.
          5    1    1    2  502    0  0.37742656390E+02 -0.66145638704E+02  0.25919361229E+02  0.80554573536E+02  0.41800000000E+01 0. -1.
         -5    1    1    2    0  502  0.91553361152E+00 -0.43561321740E+02 -0.93318685494E+02  0.10307413068E+03  0.41800000000E+01 0. -1.
        -11    1    3    3    0    0  0.19913205912E+02  0.79220377561E+02  0.32382106466E+02  0.87869248374E+02  0.00000000000E+00 0. -1.
         11    1    3    3    0    0 -0.58571395914E+02  0.30486582883E+02  0.32661035124E+02  0.73666704627E+02  0.00000000000E+00 0.  1.
</event>
<event>
 7    1  0.6610867E-006  0.1065727E+03  0.7561462E-02  0.1267052E+00
          1   -1    0    0  501    0  0.00000000000E+00  0.00000000000E+00  0.28533683763E+03  0.28533683763E+03  0.00000000000E+00 0. -1.
         -1   -1    0    0    0  501 -0.00000000000E+00 -0.00000000000E+00 -0.44406547676E+02  0.44406547676E+02  0.00000000000E+00 0.  1.
         23    2    1    2    0    0 -0.26128358148E+02  0.33876447144E+02  0.73809178115E+02  0.11665418421E+03  0.79561920222E+02 0.  0.
          5    1    1    2  502    0 -0.16587000867E+02 -0.67591092878E+02  0.56514384450E+02  0.89749832779E+02  0.41800000000E+01 0.  1.
         -5    1    1    2    0  502  0.42715359016E+02  0.33714645734E+02  0.11060672739E+03  0.12333936832E+03  0.41800000000E+01 0.  1.
        -11    1    3    3    0    0 -0.23082146035E+02 -0.22589973021E+02  0.37321400890E+02  0.49355641127E+02  0.00000000000E+00 0. -1.
         11    1    3    3    0    0 -0.30462121135E+01  0.56466420165E+02  0.36487777225E+02  0.67298543084E+02  0.00000000000E+00 0.  1.
</event>
<event>
 7    1  0.6610867E-006  0.9049784E+02  0.7561462E-02  0.1301651E+00
          1   -1    0    0  501    0  0.00000000000E+00  0.00000000000E+00  0.20949252473E+03  0.20949252473E+03  0.00000000000E+00 0. -1.
         -1   -1    0    0    0  501 -0.00000000000E+00 -0.00000000000E+00 -0.87518145743E+02  0.87518145743E+02  0.00000000000E+00 0.  1.
         23    2    1    2    0    0 -0.15256208236E+02 -0.23620138062E+02 -0.33652575128E+02  0.95373954913E+02  0.84693758042E+02 0.  0.
          5    1    1    2  502    0 -0.11090479880E+02 -0.46196537809E+02  0.32888367602E+02  0.57933030070E+02  0.41800000000E+01 0.  1.
         -5    1    1    2    0  502  0.26346688116E+02  0.69816675872E+02  0.12273858652E+03  0.14370368549E+03  0.41800000000E+01 0.  1.
        -11    1    3    3    0    0  0.11848729551E+02  0.99109239442E+01  0.20806051756E+02  0.25913521472E+02  0.00000000000E+00 0. -1.
         11    1    3    3    0    0 -0.27104937787E+02 -0.33531062006E+02 -0.54458626885E+02  0.69460433441E+02  0.00000000000E+00 0.  1.
</event>
<event>
 7    1  0.6610867E-006  0.1173209E+03  0.7561462E-02  0.1247583E+00
          1   -1    0    0  501    0  0.00000000000E+00  0.00000000000E+00  0.11064150765E+03  0.11064150765E+03  0.00000000000E+00 0. -1.
         -1   -1    0    0    0  501 -0.00000000000E+00 -0.00000000000E+00 -0.14458189636E+03  0.14458189636E+03  0.00000000000E+00 0.  1.
         23    2    1    2    0    0  0.15833598329E+02 -0.42568684412E+02 -0.60221281474E+02  0.11957337670E+03  0.92781431033E+02 0.  0.
          5    1    1    2  502    0  0.54517957568E+02  0.21383214155E+02  0.44008641288E+01  0.58875203185E+02  0.41800000000E+01 0. -1.
         -5    1    1    2    0  502 -0.70351555896E+02  0.21185470257E+02  0.21880028629E+02  0.76774824128E+02  0.41800000000E+01 0. -1.
        -11    1    3    3    0    0 -0.38098091648E+02 -0.25210630493E+02 -0.18851834695E+02  0.49420968712E+02  0.00000000000E+00 0.  1.
         11    1    3    3    0    0  0.53931689977E+02 -0.17358053919E+02 -0.41369446780E+02  0.70152407988E+02  0.00000000000E+00 0. -1.
</event>
<event>
 7    1  0.6610867E-006  0.1055144E+03  0.7561462E-02  0.1269109E+00
         -1   -1    0    0    0  501 -0.00000000000E+00  0.00000000000E+00  0.92672972435E+02  0.92672972435E+02  0.00000000000E+00 0.  1.
          1   -1    0    0  501    0  0.00000000000E+00 -0.00000000000E+00 -0.19289340375E+03  0.19289340375E+03  0.00000000000E+00 0. -1.
         23    2    1    2    0    0  0.37055382684E+02  0.63950757795E+02 -0.20571360250E+02  0.11987399002E+03  0.92107501387E+02 0.  0.
          5    1    1    2  502    0 -0.60885194714E+02  0.65317834164E+01 -0.65644688483E+02  0.89868618861E+02  0.41800000000E+01 0. -1.
         -5    1    1    2    0  502  0.23829812030E+02 -0.70482541212E+02 -0.14004382583E+02  0.75823767306E+02  0.41800000000E+01 0. -1.
        -11    1    3    3    0    0  0.12840197861E+01  0.11935031585E+02  0.34232173187E+02  0.36275823448E+02  0.00000000000E+00 0.  1.
         11    1    3    3    0    0  0.35771362898E+02  0.52015726210E+02 -0.54803533436E+02  0.83598166570E+02  0.00000000000E+00 0. -1.
</event>
<event>
 7    1  0.6610867E-006  0.1296051E+03  0.7561462E-02  0.1228043E+00
         -2   -1    0    0    0  501 -0.00000000000E+00  0.00000000000E+00  0.20589576057E+02  0.20589576057E+02  0.00000000000E+00 0.  1.
          2   -1    0    0  501    0  0.00000000000E+00 -0.00000000000E+00 -0.13405040230E+04  0.13405040230E+04  0.00000000000E+00 0. -1.
         23    2    1    2    0    0  0.48165932341E+02 -0.73040085758E+02 -0.23709617701E+03  0.26756801648E+03  0.87881938548E+02 0.  0.
          5    1    1    2  502    0 -0.72837162364E+02  0.18364471889E+02 -0.84042427867E+03  0.84378489357E+03  0.41800000000E+01 0. -1.
         -5    1    1    2    0  502  0.24671230024E+02  0.54675613870E+02 -0.24239399124E+03  0.24974068898E+03  0.41800000000E+01 0. -1.
        -11    1    3    3    0    0  0.44045743081E+02 -0.93299435233E+02 -0.20239301310E+03  0.22717337839E+03  0.00000000000E+00 0.  1.
         11    1    3    3    0    0  0.41201892594E+01  0.20259349475E+02 -0.34703163908E+02  0.40394638083E+02  0.00000000000E+00 0. -1.
</event>
<event>
 7    1  0.6610867E-006  0.1393709E+03  0.7561462E-02  0.1214178E+00
         -2   -1    0    0    0  501 -0.00000000000E+00  0.00000000000E+00  0.31632584604E+02  0.31632584604E+02  0.00000000000E+00 0.  1.
          2   -1    0    0  501    0  0.00000000000E+00 -0.00000000000E+00 -0.67257852526E+03  0.67257852526E+03  0.00000000000E+00 0. -1.
         23    2    1    2    0    0 -0.95285871254E+02  0.95089853497E+01 -0.27519773965E+03  0.30597574818E+03  0.93367791593E+02 0.  0.
          5    1    1    2  502    0 -0.22469166305E+02  0.17649805156E+02 -0.31233294713E+02  0.42536691869E+02  0.41800000000E+01 0. -1.
         -5    1    1    2    0  502  0.11775503756E+03 -0.27158790505E+02 -0.33451490629E+03  0.35569866981E+03  0.41800000000E+01 0. -1.
        -11    1    3    3    0    0 -0.77645143003E+02 -0.31895336036E+02 -0.13737236701E+03  0.16098834713E+03  0.00000000000E+00 0. -1.
         11    1    3    3    0    0 -0.17640728251E+02  0.41404321386E+02 -0.13782537264E+03  0.14498740106E+03  0.00000000000E+00 0.  1.
</event>
<event>
 7    1  0.6610867E-006  0.1216338E+03  0.7561462E-02  0.1240426E+00
         -1   -1    0    0    0  501 -0.00000000000E+00  0.00000000000E+00  0.15493019324E+03  0.15493019324E+03  0.00000000000E+00 0.  1.
          1   -1    0    0  501    0  0.00000000000E+00 -0.00000000000E+00 -0.11008605616E+03  0.11008605616E+03  0.00000000000E+00 0. -1.
         23    2    1    2    0    0 -0.45106561326E+02 -0.24615667830E+02  0.53005940350E+02  0.12953639204E+03  0.10644019059E+03 0.  0.
          5    1    1    2  502    0  0.84464554250E+02 -0.13604228758E+01  0.91485896831E+01  0.85072209142E+02  0.41800000000E+01 0.  1.
         -5    1    1    2    0  502 -0.39357992924E+02  0.25976090706E+02 -0.17310392951E+02  0.50407648224E+02  0.41800000000E+01 0.  1.
        -11    1    3    3    0    0 -0.29283570912E+02 -0.63194078312E+02  0.53517696888E+02  0.87836000246E+02  0.00000000000E+00 0.  1.
         11    1    3    3    0    0 -0.15822990415E+02  0.38578410482E+02 -0.51175653751E+00  0.41700391794E+02  0.00000000000E+00 0. -1.
</event>
<event>
 7    1  0.6610867E-006  0.1055664E+03  0.7561462E-02  0.1269008E+00
          2   -1    0    0  501    0  0.00000000000E+00  0.00000000000E+00  0.28382076787E+03  0.28382076787E+03  0.00000000000E+00 0.  1.
         -2   -1    0    0    0  501 -0.00000000000E+00 -0.00000000000E+00 -0.53464232431E+02  0.53464232431E+02  0.00000000000E+00 0. -1.
         23    2    1    2    0    0  0.12755989109E+02  0.49378789596E+02  0.73316105870E+02  0.13015618961E+03  0.94680527009E+02 0.  0.
          5    1    1    2  502    0  0.32965457460E+02 -0.75211022830E+02  0.10048408931E+03  0.12983814518E+03  0.41800000000E+01 0.  1.
         -5    1    1    2    0  502 -0.45721446569E+02  0.25832233234E+02  0.56556340260E+02  0.77290665503E+02  0.41800000000E+01 0.  1.
        -11    1    3    3    0    0  0.81650106099E+01  0.62135741941E+02  0.89363430068E+02  0.10914824991E+03  0.00000000000E+00 0.  1.
         11    1    3    3    0    0  0.45909784992E+01 -0.12756952345E+02 -0.16047324197E+02  0.21007939704E+02  0.00000000000E+00 0. -1.
</event>
<event>
 7    1  0.6610867E-006  0.8170384E+02  0.7561462E-02  0.1324285E+00
         -1   -1    0    0    0  501 -0.00000000000E+00  0.00000000000E+00  0.62742220069E+02  0.62742220069E+02  0.00000000000E+00 0.  1.
          1   -1    0    0  501    0  0.00000000000E+00 -0.00000000000E+00 -0.25356328411E+03  0.25356328411E+03  0.00000000000E+00 0. -1.
         23    2    1    2    0    0 -0.52273108620E+02 -0.33138539418E+02 -0.71293744369E+02  0.13255858091E+03  0.93050194560E+02 0.  0.
          5    1    1    2  502    0  0.90885087272E+01  0.22787325877E+02  0.23315488923E+02  0.34102018052E+02  0.41800000000E+01 0.  1.
         -5    1    1    2    0  502  0.43184599893E+02  0.10351213541E+02 -0.14284280860E+03  0.14964490522E+03  0.41800000000E+01 0.  1.
        -11    1    3    3    0    0  0.15881797925E+02  0.38922892492E+01 -0.49291653959E+02  0.51933116322E+02  0.00000000000E+00 0. -1.
         11    1    3    3    0    0 -0.68154906544E+02 -0.37030828667E+02 -0.22002090410E+02  0.80625464589E+02  0.00000000000E+00 0.  1.
</event>
<event>
 7    1  0.6610867E-006  0.1658324E+03  0.7561462E-02  0.1182265E+00
         -2   -1    0    0    0  501 -0.00000000000E+00  0.00000000000E+00  0.15187137396E+03  0.15187137396E+03  0.00000000000E+00 0.  1.
          2   -1    0    0  501    0  0.00000000000E+00 -0.00000000000E+00 -0.19470577356E+03  0.19470577356E+03  0.00000000000E+00 0. -1.
         23    2    1    2    0    0  0.12797824939E+03 -0.29282329967E+02 -0.33620633912E+02  0.16500726985E+03  0.94133760751E+02 0.  0.
          5    1    1    2  502    0 -0.59334714002E+02  0.70485980425E+02  0.23187926969E+02  0.95100126600E+02  0.41800000000E+01 0.  1.
         -5    1    1    2    0  502 -0.68643535391E+02 -0.41203650458E+02 -0.32401692653E+02  0.86469751063E+02  0.41800000000E+01 0.  1.
        -11    1    3    3    0    0  0.94633771720E+02  0.22876046703E+02 -0.69706968813E+01  0.97608682389E+02  0.00000000000E+00 0.  1.
         11    1    3    3    0    0  0.33344477673E+02 -0.52158376670E+02 -0.26649937031E+02  0.67398587462E+02  0.00000000000E+00 0. -1.
</event>
<event>
 7    1  0.6610867E-006  0.1351259E+03  0.7561462E-02  0.1220042E+00
          1   -1    0    0  501    0  0.00000000000E+00  0.00000000000E+00  0.66478669127E+03  0.66478669127E+03  0.00000000000E+00 0. -1.
         -1   -1    0    0    0  501 -0.00000000000E+00 -0.00000000000E+00 -0.40087748613E+02  0.40087748613E+02  0.00000000000E+00 0.  1.
         23    2    1    2    0    0  0.75632026627E+02 -0.95055614347E+02  0.27249647053E+03  0.31187353550E+03  0.90857043865E+02 0.  0.
          5    1    1    2  502    0 -0.42752357599E+02  0.63868159907E+02  0.60856520762E+02  0.98121834723E+02  0.41800000000E+01 0. -1.
         -5    1    1    2    0  502 -0.32879669028E+02  0.31187454439E+02  0.29134595136E+03  0.29487906966E+03  0.41800000000E+01 0. -1.
        -11    1    3    3    0    0  0.85348165233E+02 -0.44426868605E+02  0.14166329678E+03  0.17124995071E+03  0.00000000000E+00 0.  1.
         11    1    3    3    0    0 -0.97161386057E+01 -0.50628745742E+02  0.13083317375E+03  0.14062358479E+03  0.00000000000E+00 0. -1.
</event>
<event>
 7    1  0.6610867E-006  0.1698424E+03  0.7561462E-02  0.1178012E+00
          2   -1    0    0  501    0  0.00000000000E+00  0.00000000000E+00  0.88716052115E+02  0.88716052115E+02  0.00000000000E+00 0. -1.
         -2   -1    0    0    0  501 -0.00000000000E+00 -0.00000000000E+00 -0.37553753211E+03  0.37553753211E+03  0.00000000000E+00 0.  1.
         23    2    1    2    0    0  0.11939086700E+03  0.81711845300E+02 -0.16199931790E+03  0.23587215111E+03  0.91983084755E+02 0.  0.
          5    1    1    2  502    0 -0.10883354704E+03 -0.16962797615E+01 -0.57354424262E+02  0.12310410517E+03  0.41800000000E+01 0.  1.
         -5    1    1    2    0  502 -0.10557319958E+02 -0.80015565538E+02 -0.67467737831E+02  0.10527732795E+03  0.41800000000E+01 0.  1.
        -11    1    3    3    0    0  0.24645344272E+02 -0.27485811285E+00 -0.85702318627E+02  0.89175983086E+02  0.00000000000E+00 0.  1.
         11    1    3    3    0    0  0.94745522726E+02  0.81986703413E+02 -0.76296999276E+02  0.14669616802E+03  0.00000000000E+00 0. -1.
</event>
<event>
 7    1  0.6610867E-006  0.8532011E+02  0.7561462E-02  0.1314598E+00
          2   -1    0    0  501    0  0.00000000000E+00  0.00000000000E+00  0.35083282961E+03  0.35083282961E+03  0.00000000000E+00 0. -1.
         -2   -1    0    0    0  501 -0.00000000000E+00 -0.00000000000E+00 -0.54120286940E+02  0.54120286940E+02  0.00000000000E+00 0.  1.
         23    2    1    2    0    0  0.60054263602E+00  0.48813363706E+02  0.37369110693E+02  0.11290910738E+03  0.94704334473E+02 0.  0.
          5    1    1    2  502    0 -0.44975429178E+01  0.23724103321E+02  0.19721584894E+01  0.24585011283E+02  0.41800000000E+01 0.  1.
         -5    1    1    2    0  502  0.38970002818E+01 -0.72537467027E+02  0.25737127349E+03  0.26745899789E+03  0.41800000000E+01 0.  1.
        -11    1    3    3    0    0  0.19038064058E+02  0.51345722766E+02  0.61557139196E+02  0.82390002521E+02  0.00000000000E+00 0. -1.
         11    1    3    3    0    0 -0.18437521422E+02 -0.25323590597E+01 -0.24188028503E+02  0.30519104860E+02  0.00000000000E+00 0.  1.
</event>
<event>
 7    1  0.6610867E-006  0.1348886E+03  0.7561462E-02  0.1220377E+00
          2   -1    0    0  501    0  0.00000000000E+00  0.00000000000E+00  0.11572176989E+04  0.11572176989E+04  0.00000000000E+00 0. -1.
         -2   -1    0    0    0  501 -0.00000000000E+00 -0.00000000000E+00 -0.25563526793E+02  0.25563526793E+02  0.00000000000E+00 0.  1.
         23    2    1    2    0    0  0.36501564487E+02 -0.93238085731E+02  0.22865548119E+03  0.26567315164E+03  0.90957075501E+02 0.  0.
          5    1    1    2  502    0  0.45050005303E+02  0.26418520524E+02  0.37779315988E+03  0.38140868535E+03  0.41800000000E+01 0.  1.
         -5    1    1    2    0  502 -0.81551569790E+02  0.66819565207E+02  0.52520553108E+03  0.53569938875E+03  0.41800000000E+01 0.  1.
        -11    1    3    3    0    0 -0.11787837850E+02 -0.30523509050E+02  0.11732108374E+02  0.34760323542E+02  0.00000000000E+00 0.  1.
         11    1    3    3    0    0  0.48289402337E+02 -0.62714576681E+02  0.21692337281E+03  0.23091282810E+03  0.00000000000E+00 0. -1.
</event>
<event>
 7    1  0.6610867E-006  0.1199976E+03  0.7561462E-02  0.1243101E+00
         -1   -1    0    0    0  501 -0.00000000000E+00  0.00000000000E+00  0.18530425966E+02  0.18530425966E+02  0.00000000000E+00 0.  1.
          1   -1    0    0  501    0  0.00000000000E+00 -0.00000000000E+00 -0.89811355892E+03  0.89811355892E+03  0.00000000000E+00 0. -1.
         23    2    1    2    0    0 -0.54377847043E+02 -0.43000383348E+02 -0.38484855736E+03  0.40165243979E+03  0.91707617277E+02 0.  0.
          5    1    1    2  502    0  0.82894345727E+02  0.48253184014E+02 -0.23866247312E+03  0.25724908318E+03  0.41800000000E+01 0.  1.
         -5    1    1    2    0  502 -0.28516498684E+02 -0.52528006663E+01 -0.25607210246E+03  0.25774246191E+03  0.41800000000E+01 0.  1.
        -11    1    3    3    0    0 -0.63707281481E+02  0.67599822940E+01 -0.22851782886E+03  0.23732828146E+03  0.00000000000E+00 0. -1.
         11    1    3    3    0    0  0.93294344382E+01 -0.49760365642E+02 -0.15633072850E+03  0.16432415833E+03  0.00000000000E+00 0.  1.
</event>
<event>
 7    1  0.6610867E-006  0.1336394E+03  0.7561462E-02  0.1222153E+00
          2   -1    0    0  501    0  0.00000000000E+00  0.00000000000E+00  0.70575757703E+03  0.70575757703E+03  0.00000000000E+00 0.  1.
         -2   -1    0    0    0  501 -0.00000000000E+00 -0.00000000000E+00 -0.49264042949E+02  0.49264042949E+02  0.00000000000E+00 0. -1.
         23    2    1    2    0    0  0.70014212685E+02 -0.82707845034E+02  0.95767021808E+02  0.17038100250E+03  0.90087656966E+02 0.  0.
          5    1    1    2  502    0 -0.37027500008E+02 -0.20636445978E+02  0.69126975579E+02  0.81196735231E+02  0.41800000000E+01 0.  1.
         -5    1    1    2    0  502 -0.32986712677E+02  0.10334429101E+03  0.49159953669E+03  0.50344388225E+03  0.41800000000E+01 0.  1.
        -11    1    3    3    0    0  0.53268537070E+02 -0.30694451570E+02  0.15899268350E+01  0.61499709480E+02  0.00000000000E+00 0. -1.
         11    1    3    3    0    0  0.16745675615E+02 -0.52013393464E+02  0.94177094973E+02  0.10888129302E+03  0.00000000000E+00 0.  1.
</event>
<event>
 7    1  0.6610867E-006  0.7166133E+02  0.7561462E-02  0.1354533E+00
         -1   -1    0    0    0  501 -0.00000000000E+00  0.00000000000E+00  0.99927158279E+02  0.99927158279E+02  0.00000000000E+00 0.  1.
          1   -1    0    0  501    0  0.00000000000E+00 -0.00000000000E+00 -0.14073605972E+03  0.14073605972E+03  0.00000000000E+00 0. -1.
         23    2    1    2    0    0  0.15944822218E+01  0.56964646473E+01  0.16465722389E+02  0.10295757437E+03  0.10146009079E+03 0.  0.
          5    1    1    2  502    0  0.47738004327E+02  0.22881098932E+02  0.47993578844E+01  0.53319489697E+02  0.41800000000E+01 0.  1.
         -5    1    1    2    0  502 -0.49332486549E+02 -0.28577563579E+02 -0.62073981718E+02  0.84386153932E+02  0.41800000000E+01 0.  1.
        -11    1    3    3    0    0 -0.97169039955E+01  0.15361245273E+02  0.56974147092E+02  0.59803340345E+02  0.00000000000E+00 0.  1.
         11    1    3    3    0    0  0.11311386217E+02 -0.96647806261E+01 -0.40508424703E+02  0.43154234029E+02  0.00000000000E+00 0. -1.
</event>
<event>
 7    1  0.6610867E-006  0.8735792E+02  0.7561462E-02  0.1309379E+00
         -3   -1    0    0    0  501 -0.00000000000E+00  0.00000000000E+00  0.62888597846E+02  0.62888597846E+02  0.00000000000E+00 0.  1.
          3   -1    0    0  501    0  0.00000000000E+00 -0.00000000000E+00 -0.21472407657E+03  0.21472407657E+03  0.00000000000E+00 0. -1.
         23    2    1    2    0    0  0.31933343100E+02 -0.13967389857E+02 -0.35758762683E+02  0.10343955538E+03  0.90588222892E+02 0.  0.
          5    1    1    2  502    0  0.16338817535E+02  0.57200079723E+02 -0.31194526347E+02  0.67300646006E+02  0.41800000000E+01 0.  1.
         -5    1    1    2    0  502 -0.48272160635E+02 -0.43232689866E+02 -0.84882189698E+02  0.10687247304E+03  0.41800000000E+01 0.  1.
        -11    1    3    3    0    0  0.27086126299E+02  0.75255362557E+01 -0.62654015999E+02  0.68671811208E+02  0.00000000000E+00 0. -1.
         11    1    3    3    0    0  0.48472168009E+01 -0.21492926113E+02  0.26895253315E+02  0.34767744168E+02  0.00000000000E+00 0.  1.
</event>
<event>
 7    1  0.6610867E-006  0.6150415E+02  0.7561462E-02  0.1391626E+00
          3   -1    0    0  501    0  0.00000000000E+00  0.00000000000E+00  0.31500341483E+02  0.31500341483E+02  0.00000000000E+00 0. -1.
         -3   -1    0    0    0  501 -0.00000000000E+00 -0.00000000000E+00 -0.39847927270E+03  0.39847927270E+03  0.00000000000E+00 0.  1.
         23    2    1    2    0    0  0.26786738711E+02  0.41922545021E+02 -0.20397706247E+03  0.21858148757E+03  0.60796344794E+02 0.  0.
          5    1    1    2  502    0 -0.32775445451E+02 -0.36340729859E+02 -0.18295309543E+03  0.18943121707E+03  0.41800000000E+01 0. -1.
         -5    1    1    2    0  502  0.59887067400E+01 -0.55818151625E+01  0.19951226686E+02  0.21966909551E+02  0.41800000000E+01 0. -1.
        -11    1    3    3    0    0 -0.32230956407E+01  0.33329095892E+02 -0.16637316217E+03  0.16970929871E+03  0.00000000000E+00 0.  1.
         11    1    3    3    0    0  0.30009834351E+02  0.85934491292E+01 -0.37603900307E+02  0.48872188861E+02  0.00000000000E+00 0. -1.
</event>
<event>
 7    1  0.6610867E-006  0.8233233E+02  0.7561462E-02  0.1322560E+00
          2   -1    0    0  501    0  0.00000000000E+00  0.00000000000E+00  0.29502069756E+03  0.29502069756E+03  0.00000000000E+00 0. -1.
         -2   -1    0    0    0  501 -0.00000000000E+00 -0.00000000000E+00 -0.49807547359E+02  0.49807547359E+02  0.00000000000E+00 0.  1.
         23    2    1    2    0    0 -0.45165372818E+02  0.23305072810E+02  0.85447687217E+02  0.13564948099E+03  0.92284544322E+02 0.  0.
          5    1    1    2  502    0  0.15816990745E+02 -0.36989260658E+02 -0.54111309350E+01  0.40806069870E+02  0.41800000000E+01 0.  1.
         -5    1    1    2    0  502  0.29348382073E+02  0.13684187848E+02  0.16517659392E+03  0.16837269406E+03  0.41800000000E+01 0.  1.
        -11    1    3    3    0    0 -0.10938808735E+02 -0.27905637229E+02  0.63574162434E+02  0.70285533752E+02  0.00000000000E+00 0. -1.
         11    1    3    3    0    0 -0.34226564084E+02  0.51210710038E+02  0.21873524782E+02  0.65363947234E+02  0.00000000000E+00 0.  1.
</event>
<event>
 7    1  0.6610867E-006  0.1227585E+03  0.7561462E-02  0.1238615E+00
          2   -1    0    0  501    0  0.00000000000E+00  0.00000000000E+00  0.27476145530E+03  0.27476145530E+03  0.00000000000E+00 0. -1.
         -2   -1    0    0    0  501 -0.00000000000E+00 -0.00000000000E+00 -0.60728355528E+02  0.60728355528E+02  0.00000000000E+00 0.  1.
         23    2    1    2    0    0 -0.57053587480E+02 -0.39493879515E+01  0.43972130058E+02  0.11676879775E+03  0.91818812868E+02 0.  0.
          5    1    1    2  502    0 -0.28298086445E+02 -0.33628387000E+02  0.52067195796E+02  0.68265037806E+02  0.41800000000E+01 0.  1.
         -5    1    1    2    0  502  0.85351673924E+02  0.37577774951E+02  0.11799377392E+03  0.15045597527E+03  0.41800000000E+01 0.  1.
        -11    1    3    3    0    0 -0.19205117475E+02  0.43364564549E+02  0.16200810316E+02  0.50117743870E+02  0.00000000000E+00 0.  1.
         11    1    3    3    0    0 -0.37848470005E+02 -0.47313952501E+02  0.27771319742E+02  0.66651053879E+02  0.00000000000E+00 0. -1.
</event>
<event>
 7    1  0.6610867E-006  0.1776741E+03  0.7561462E-02  0.1170073E+00
         -2   -1    0    0    0  501 -0.00000000000E+00  0.00000000000E+00  0.12274162763E+02  0.12274162763E+02  0.00000000000E+00 0.  1.
          2   -1    0    0  501    0  0.00000000000E+00 -0.00000000000E+00 -0.39525423392E+04  0.39525423392E+04  0.00000000000E+00 0. -1.
         23    2    1    2    0    0 -0.14492543961E+03 -0.52871255440E+02 -0.86104468158E+03  0.87919440201E+03  0.88238881234E+02 0.  0.
          5    1    1    2  502    0  0.18046700641E+02  0.57413731169E+02 -0.56962257335E+03  0.57280831733E+03  0.41800000000E+01 0.  1.
         -5    1    1    2    0  502  0.12687873897E+03 -0.45424757295E+01 -0.25096009215E+04  0.25128137826E+04  0.41800000000E+01 0.  1.
        -11    1    3    3    0    0 -0.21658342224E+02  0.15871974835E+02 -0.58959540822E+02  0.64786038828E+02  0.00000000000E+00 0.  1.
         11    1    3    3    0    0 -0.12326709738E+03 -0.68743230275E+02 -0.80208514076E+03  0.81440836319E+03  0.00000000000E+00 0. -1.
</event>
<event>
 7    1  0.6610867E-006  0.1012137E+03  0.7561462E-02  0.1277764E+00
         -2   -1    0    0    0  501 -0.00000000000E+00  0.00000000000E+00  0.12604413232E+03  0.12604413232E+03  0.00000000000E+00 0.  1.
          2   -1    0    0  501    0  0.00000000000E+00 -0.00000000000E+00 -0.17512165853E+03  0.17512165853E+03  0.00000000000E+00 0. -1.
         23    2    1    2    0    0 -0.98382680462E+02  0.12939085248E+02 -0.79805755516E+01  0.13628889455E+03  0.93082766659E+02 0.  0.
          5    1    1    2  502    0  0.62592318533E+02 -0.18387551005E+02  0.39531847059E+02  0.76394631377E+02  0.41800000000E+01 0. -1.
         -5    1    1    2    0  502  0.35790361930E+02  0.54484657569E+01 -0.80628797719E+02  0.88482264933E+02  0.41800000000E+01 0. -1.
        -11    1    3    3    0    0 -0.15569523233E+02 -0.40226609192E+01 -0.42148787240E+02  0.45112216975E+02  0.00000000000E+00 0. -1.
         11    1    3    3    0    0 -0.82813157229E+02  0.16961746167E+02  0.34168211688E+02  0.91176677573E+02  0.00000000000E+00 0.  1.
</event>
<event>
 7    1  0.6610867E-006  0.1255254E+03  0.7561462E-02  0.1234250E+00
         -2   -1    0    0    0  501 -0.00000000000E+00  0.00000000000E+00  0.25869432234E+03  0.25869432234E+03  0.00000000000E+00 0.  1.
          2   -1    0    0  501    0  0.00000000000E+00 -0.00000000000E+00 -0.91590395026E+02  0.91590395026E+02  0.00000000000E+00 0. -1.
         23    2    1    2    0    0  0.66863525846E+02 -0.66820718829E+02  0.12842547103E+03  0.18879641548E+03  0.10107049686E+03 0.  0.
          5    1    1    2  502    0 -0.34991366164E+02 -0.35045203785E+02  0.78869165387E+01  0.50321346036E+02  0.41800000000E+01 0. -1.
         -5    1    1    2    0  502 -0.31872159682E+02  0.10186592261E+03  0.30791539742E+02  0.11116695585E+03  0.41800000000E+01 0. -1.
        -11    1    3    3    0    0  0.30949266778E+02 -0.31609571751E+02 -0.65814707927E+01  0.44725137207E+02  0.00000000000E+00 0. -1.
         11    1    3    3    0    0  0.35914259068E+02 -0.35211147077E+02  0.13500694183E+03  0.14407127828E+03  0.00000000000E+00 0.  1.
</event>
<event>
 7    1  0.6610867E-006  0.9944302E+02  0.7561462E-02  0.1281472E+00
          2   -1    0    0  501    0  0.00000000000E+00  0.00000000000E+00  0.88122498458E+03  0.88122498458E+03  0.00000000000E+00 0. -1.
         -2   -1    0    0    0  501 -0.00000000000E+00 -0.00000000000E+00 -0.16842744646E+02  0.16842744646E+02  0.00000000000E+00 0.  1.
         23    2    1    2    0    0  0.31037211596E+02 -0.14055740034E+02  0.21788948209E+03  0.23870320909E+03  0.91337414542E+02 0.  0.
          5    1    1    2  502    0  0.37099342133E+02 -0.90671821158E+01  0.41828430215E+03  0.42004500330E+03  0.41800000000E+01 0. -1.
         -5    1    1    2    0  502 -0.68136553729E+02  0.23122922150E+02  0.22820845570E+03  0.23931951683E+03  0.41800000000E+01 0. -1.
        -11    1    3    3    0    0 -0.72496439610E+01  0.29513469647E+02  0.12923953438E+03  0.13276467706E+03  0.00000000000E+00 0. -1.
         11    1    3    3    0    0  0.38286855557E+02 -0.43569209681E+02  0.88649947711E+02  0.10593853204E+03  0.00000000000E+00 0.  1.
</event>
<event>
 7    1  0.6610867E-006  0.1420350E+03  0.7561462E-02  0.1210617E+00
          1   -1    0    0  501    0  0.00000000000E+00  0.00000000000E+00  0.25629959042E+03  0.25629959042E+03  0.00000000000E+00 0. -1.
         -1   -1    0    0    0  501 -0.00000000000E+00 -0.00000000000E+00 -0.12771069260E+03  0.12771069260E+03  0.00000000000E+00 0.  1.
         23    2    1    2    0    0 -0.81902932248E+02 -0.33372355952E+02 -0.49069693197E+02  0.13672814297E+03  0.92005140275E+02 0.  0.
          5    1    1    2  502    0  0.66435665545E+02  0.84210514014E+02  0.72945632103E+02  0.12978307274E+03  0.41800000000E+01 0. -1.
         -5    1    1    2    0  502  0.15467266704E+02 -0.50838158062E+02  0.10471295891E+03  0.11749906731E+03  0.41800000000E+01 0.  1.
        -11    1    3    3    0    0 -0.12840667181E+01 -0.42293183231E+02 -0.33884219341E+02  0.54207956016E+02  0.00000000000E+00 0. -1.
         11    1    3    3    0    0 -0.80618865530E+02  0.89208272789E+01 -0.15185473856E+02  0.82520186954E+02  0.00000000000E+00 0.  1.
</event>
<event>
 7    1  0.6610867E-006  0.9477102E+02  0.7561462E-02  0.1291693E+00
         -1   -1    0    0    0  501 -0.00000000000E+00  0.00000000000E+00  0.32146115768E+02  0.32146115768E+02  0.00000000000E+00 0.  1.
          1   -1    0    0  501    0  0.00000000000E+00 -0.00000000000E+00 -0.54073495144E+03  0.54073495144E+03  0.00000000000E+00 0. -1.
         23    2    1    2    0    0  0.58907693346E+02  0.18354482443E+02 -0.13572216484E+03  0.17477917789E+03  0.91215413348E+02 0.  0.
          5    1    1    2  502    0  0.23447644007E+01  0.11269810723E+02  0.56562469138E+01  0.13489702850E+02  0.41800000000E+01 0.  1.
         -5    1    1    2    0  502 -0.61252457747E+02 -0.29624293166E+02 -0.37852291774E+03  0.38461218647E+03  0.41800000000E+01 0.  1.
        -11    1    3    3    0    0  0.71742673498E+02 -0.15082787362E+02 -0.10178782764E+03  0.12544027874E+03  0.00000000000E+00 0. -1.
         11    1    3    3    0    0 -0.12834980152E+02  0.33437269806E+02 -0.33934337207E+02  0.49338899149E+02  0.00000000000E+00 0.  1.
</event>
<event>
 7    1  0.6610867E-006  0.9614222E+02  0.7561462E-02  0.1288624E+00
         -1   -1    0    0    0  501 -0.00000000000E+00  0.00000000000E+00  0.28210583114E+02  0.28210583114E+02  0.00000000000E+00 0.  1.
          1   -1    0    0  501    0  0.00000000000E+00 -0.00000000000E+00 -0.41491296290E+03  0.41491296290E+03  0.00000000000E+00 0. -1.
         23    2    1    2    0    0 -0.27731859159E+02  0.11091952647E+02 -0.14409478164E+03  0.17319247679E+03  0.91324917156E+02 0.  0.
          5    1    1    2  502    0 -0.42136699547E+02 -0.30246542991E+01 -0.13318639481E+03  0.13978819029E+03  0.41800000000E+01 0. -1.
         -5    1    1    2    0  502  0.69868558707E+02 -0.80672983484E+01 -0.10942120334E+03  0.13014287894E+03  0.41800000000E+01 0.  1.
        -11    1    3    3    0    0  0.25226729140E+02  0.73969089179E+01 -0.85852059958E+01  0.27655160217E+02  0.00000000000E+00 0.  1.
         11    1    3    3    0    0 -0.52958588299E+02  0.36950437295E+01 -0.13550957565E+03  0.14553731657E+03  0.00000000000E+00 0. -1.
</event>
<event>
 7    1  0.6610867E-006  0.1053920E+03  0.7561462E-02  0.1269349E+00
          1   -1    0    0  501    0  0.00000000000E+00  0.00000000000E+00  0.24227984906E+03  0.24227984906E+03  0.00000000000E+00 0. -1.
         -1   -1    0    0    0  501 -0.00000000000E+00 -0.00000000000E+00 -0.86168882073E+02  0.86168882073E+02  0.00000000000E+00 0.  1.
         23    2    1    2    0    0 -0.24392717444E+02  0.90021964785E+02  0.93013878337E+02  0.16014113142E+03  0.91074923009E+02 0.  0.
          5    1    1    2  502    0 -0.94490827533E+01 -0.67542510963E+02  0.94622354965E+02  0.11671391696E+03  0.41800000000E+01 0. -1.
         -5    1    1    2    0  502  0.33841800197E+02 -0.22479453822E+02 -0.31525266312E+02  0.51593682760E+02  0.41800000000E+01 0. -1.
        -11    1    3    3    0    0 -0.34322438618E+02  0.81845715469E+02  0.26828472194E+02  0.92717408579E+02  0.00000000000E+00 0.  1.
         11    1    3    3    0    0  0.99297211742E+01  0.81762493168E+01  0.66185406143E+02  0.67423722841E+02  0.00000000000E+00 0. -1.
</event>
<event>
 7    1  0.6610867E-006  0.1079786E+03  0.7561462E-02  0.1264360E+00
          3   -1    0    0  501    0  0.00000000000E+00  0.00000000000E+00  0.13797855314E+03  0.13797855314E+03  0.00000000000E+00 0. -1.
         -3   -1    0    0    0  501 -0.00000000000E+00 -0.00000000000E+00 -0.14228358936E+03  0.14228358936E+03  0.00000000000E+00 0.  1.
         23    2    1    2    0    0 -0.31947967069E+02 -0.26498593396E+02 -0.79641357058E+02  0.12844750496E+03  0.91832280405E+02 0.  0.
          5    1    1    2  502    0  0.75799631579E+02  0.92582787548E+01  0.70928962965E+02  0.10430575277E+03  0.41800000000E+01 0.  1.
         -5    1    1    2    0  502 -0.43851664510E+02  0.17240314641E+02  0.44073578704E+01  0.47508884776E+02  0.41800000000E+01 0.  1.
        -11    1    3    3    0    0 -0.20754383532E+02 -0.56480261926E+02 -0.25074379776E+02  0.65188104315E+02  0.00000000000E+00 0.  1.
         11    1    3    3    0    0 -0.11193583536E+02  0.29981668530E+02 -0.54566977281E+02  0.63259400644E+02  0.00000000000E+00 0. -1.
</event>
<event>
 7    1  0.6610867E-006  0.9393122E+02  0.7561462E-02  0.1293602E+00
         -1   -1    0    0    0  501 -0.00000000000E+00  0.00000000000E+00  0.22810686518E+03  0.22810686518E+03  0.00000000000E+00 0.  1.
          1   -1    0    0  501    0  0.00000000000E+00 -0.00000000000E+00 -0.85078494937E+02  0.85078494937E+02  0.00000000000E+00 0. -1.
         23    2    1    2    0    0 -0.65960855041E+02 -0.40733451408E+02  0.10879290366E+03  0.16209161608E+03  0.91802764958E+02 0.  0.
          5    1    1    2  502    0  0.97128447550E+00  0.36345921780E+02  0.68285351840E+02  0.77474712646E+02  0.41800000000E+01 0. -1.
         -5    1    1    2    0  502  0.64989570566E+02  0.43875296274E+01 -0.34049885252E+02  0.73619031400E+02  0.41800000000E+01 0. -1.
        -11    1    3    3    0    0 -0.26953469445E+02  0.33133763024E+01 -0.10470467396E+02  0.29104959460E+02  0.00000000000E+00 0. -1.
         11    1    3    3    0    0 -0.39007385596E+02 -0.44046827710E+02  0.11926337106E+03  0.13298665662E+03  0.00000000000E+00 0.  1.
</event>
<event>
 7    1  0.6610867E-006  0.7899454E+02  0.7561462E-02  0.1331929E+00
          1   -1    0    0  501    0  0.00000000000E+00  0.00000000000E+00  0.14821350431E+03  0.14821350431E+03  0.00000000000E+00 0. -1.
         -1   -1    0    0    0  501 -0.00000000000E+00 -0.00000000000E+00 -0.88045767022E+02  0.88045767022E+02  0.00000000000E+00 0.  1.
         23    2    1    2    0    0  0.47605113698E+00  0.12113029146E+02 -0.90678450765E+01  0.92774220598E+02  0.91530749442E+02 0.  0.
          5    1    1    2  502    0 -0.37859289016E+02 -0.32931027789E+02 -0.11831959277E+02  0.51722780439E+02  0.41800000000E+01 0. -1.
         -5    1    1    2    0  502  0.37383237879E+02  0.20817998642E+02  0.81067541639E+02  0.91762270293E+02  0.41800000000E+01 0. -1.
        -11    1    3    3    0    0 -0.35011793283E+00  0.38371792627E+02 -0.37784331353E+02  0.53853251970E+02  0.00000000000E+00 0.  1.
         11    1    3    3    0    0  0.82616906981E+00 -0.26258763480E+02  0.28716486277E+02  0.38920968628E+02  0.00000000000E+00 0. -1.
</event>
<event>
 7    1  0.6610867E-006  0.1169775E+03  0.7561462E-02  0.1248168E+00
         -2   -1    0    0    0  501 -0.00000000000E+00  0.00000000000E+00  0.10521000463E+03  0.10521000463E+03  0.00000000000E+00 0.  1.
          2   -1    0    0  501    0  0.00000000000E+00 -0.00000000000E+00 -0.15160056393E+03  0.15160056393E+03  0.00000000000E+00 0. -1.
         23    2    1    2    0    0  0.45355416323E+02  0.43399839935E+02 -0.16094662578E+02  0.11361285570E+03  0.93317645284E+02 0.  0.
          5    1    1    2  502    0 -0.87760154860E+02 -0.34368250051E+02 -0.91673851172E+01  0.94786785696E+02  0.41800000000E+01 0.  1.
         -5    1    1    2    0  502  0.42404738538E+02 -0.90315898841E+01 -0.21128511597E+02  0.48410927161E+02  0.41800000000E+01 0.  1.
        -11    1    3    3    0    0  0.53507241075E+02  0.58262253465E+02 -0.36471250496E+02  0.87107216343E+02  0.00000000000E+00 0.  1.
         11    1    3    3    0    0 -0.81518247527E+01 -0.14862413530E+02  0.20376587917E+02  0.26505639360E+02  0.00000000000E+00 0. -1.
</event>
<event>
 7    1  0.6610867E-006  0.2202910E+03  0.7561462E-02  0.1133666E+00
         -1   -1    0    0    0  501 -0.00000000000E+00  0.00000000000E+00  0.24194709704E+04  0.24194709704E+04  0.00000000000E+00 0.  1.
          1   -1    0    0  501    0  0.00000000000E+00 -0.00000000000E+00 -0.22014471648E+02  0.22014471648E+02  0.00000000000E+00 0. -1.
         23    2    1    2    0    0  0.40141429087E+02 -0.19706481369E+03  0.98796432270E+03  0.10122337273E+04  0.89987446906E+02 0.  0.
          5    1    1    2  502    0 -0.21506777796E+02  0.20036446154E+03  0.13749407115E+04  0.13896358845E+04  0.41800000000E+01 0.  1.
         -5    1    1    2    0  502 -0.18634651291E+02 -0.32996478448E+01  0.34551464515E+02  0.39615830229E+02  0.41800000000E+01 0.  1.
        -11    1    3    3    0    0  0.66676739271E+02 -0.11006510980E+03  0.61756152790E+03  0.63082672478E+03  0.00000000000E+00 0. -1.
         11    1    3    3    0    0 -0.26535310184E+02 -0.86999703891E+02  0.37040279480E+03  0.38140700250E+03  0.00000000000E+00 0.  1.
</event>
<event>
 7    1  0.6610867E-006  0.1679337E+03  0.7561462E-02  0.1180020E+00
          2   -1    0    0  501    0  0.00000000000E+00  0.00000000000E+00  0.11546197793E+03  0.11546197793E+03  0.00000000000E+00 0. -1.
         -2   -1    0    0    0  501 -0.00000000000E+00 -0.00000000000E+00 -0.33450363740E+03  0.33450363740E+03  0.00000000000E+00 0.  1.
         23    2    1    2    0    0 -0.93231051337E+02  0.11624542246E+03 -0.18378259714E+03  0.25223865404E+03  0.87425787975E+02 0.  0.
          5    1    1    2  502    0  0.10983886921E+02 -0.85974942795E+02  0.26152769316E+02  0.90629886370E+02  0.41800000000E+01 0.  1.
         -5    1    1    2    0  502  0.82247164416E+02 -0.30270479660E+02 -0.61411831645E+02  0.10709707493E+03  0.41800000000E+01 0.  1.
        -11    1    3    3    0    0 -0.46678170323E+00  0.43406344581E+02 -0.14197073328E+02  0.45671495773E+02  0.00000000000E+00 0.  1.
         11    1    3    3    0    0 -0.92764269634E+02  0.72839077874E+02 -0.16958552381E+03  0.20656715826E+03  0.00000000000E+00 0. -1.
</event>
<event>
 7    1  0.6610867E-006  0.1284705E+03  0.7561462E-02  0.1229743E+00
          1   -1    0    0  501    0  0.00000000000E+00  0.00000000000E+00  0.16099539131E+03  0.16099539131E+03  0.00000000000E+00 0. -1.
         -1   -1    0    0    0  501 -0.00000000000E+00 -0.00000000000E+00 -0.14487169993E+03  0.14487169993E+03  0.00000000000E+00 0.  1.
         23    2    1    2    0    0  0.11539199832E+02  0.99006494763E+02 -0.32955612063E+02  0.13855960848E+03  0.90428168160E+02 0.  0.
          5    1    1    2  502    0 -0.62106232410E+02 -0.78815487536E+02  0.11656436481E+02  0.10110593499E+03  0.41800000000E+01 0.  1.
         -5    1    1    2    0  502  0.50567032577E+02 -0.20191007227E+02  0.37422866958E+02  0.66201547775E+02  0.41800000000E+01 0.  1.
        -11    1    3    3    0    0 -0.43922850551E+01  0.53600900016E+02  0.28213648578E+02  0.60731858333E+02  0.00000000000E+00 0. -1.
         11    1    3    3    0    0  0.15931484887E+02  0.45405594747E+02 -0.61169260641E+02  0.77827750143E+02  0.00000000000E+00 0.  1.
</event>
<event>
 7    1  0.6610867E-006  0.1090883E+03  0.7561462E-02  0.1262268E+00
         -4   -1    0    0    0  501 -0.00000000000E+00  0.00000000000E+00  0.22496356055E+03  0.22496356055E+03  0.00000000000E+00 0.  1.
          4   -1    0    0  501    0  0.00000000000E+00 -0.00000000000E+00 -0.74035772190E+02  0.74035772190E+02  0.00000000000E+00 0. -1.
         23    2    1    2    0    0 -0.31838245869E+02  0.22519438619E+02  0.13265512952E+03  0.16670191558E+03  0.93120063657E+02 0.  0.
          5    1    1    2  502    0  0.61151744296E+02 -0.48347023410E+02 -0.16542808123E+02  0.79800422328E+02  0.41800000000E+01 0.  1.
         -5    1    1    2    0  502 -0.29313498427E+02  0.25827584792E+02  0.34815466963E+02  0.52496994828E+02  0.41800000000E+01 0.  1.
        -11    1    3    3    0    0  0.26157127125E+02  0.32764395645E+02  0.59487729641E+02  0.72776994299E+02  0.00000000000E+00 0. -1.
         11    1    3    3    0    0 -0.57995372994E+02 -0.10244957026E+02  0.73167399876E+02  0.93924921281E+02  0.00000000000E+00 0.  1.
</event>
<event>
 7    1  0.6610867E-006  0.9065436E+02  0.7561462E-02  0.1301275E+00
          2   -1    0    0  501    0  0.00000000000E+00  0.00000000000E+00  0.16656013337E+03  0.16656013337E+03  0.00000000000E+00 0. -1.
         -2   -1    0    0    0  501 -0.00000000000E+00 -0.00000000000E+00 -0.10190625329E+03  0.10190625329E+03  0.00000000000E+00 0.  1.
         23    2    1    2    0    0 -0.31356568333E+02 -0.14025509866E+02 -0.44205983675E+02  0.10691657653E+03  0.91088067491E+02 0.  0.
          5    1    1    2  502    0  0.82196093618E+01 -0.40058938167E+02  0.91124036122E+02  0.99966708780E+02  0.41800000000E+01 0. -1.
         -5    1    1    2    0  502  0.23136958971E+02  0.54084448033E+02  0.17735827635E+02  0.61583101346E+02  0.41800000000E+01 0.  1.
        -11    1    3    3    0    0  0.21305879448E+02  0.97702121609E+01 -0.43164785450E+02  0.49118186527E+02  0.00000000000E+00 0.  1.
         11    1    3    3    0    0 -0.52662447781E+02 -0.23795722027E+02 -0.10411982251E+01  0.57798390002E+02  0.00000000000E+00 0. -1.
</event>
<event>
 7    1  0.6610867E-006  0.8374128E+02  0.7561462E-02  0.1318757E+00
         -3   -1    0    0    0  501 -0.00000000000E+00  0.00000000000E+00  0.13586777891E+02  0.13586777891E+02  0.00000000000E+00 0.  1.
          3   -1    0    0  501    0  0.00000000000E+00 -0.00000000000E+00 -0.15472361972E+04  0.15472361972E+04  0.00000000000E+00 0. -1.
         23    2    1    2    0    0 -0.51141082246E+02 -0.34808724953E+02 -0.30330600013E+03  0.32259097955E+03  0.90792911318E+02 0.  0.
          5    1    1    2  502    0  0.43218129032E+02  0.10664098841E+02 -0.12793051245E+03  0.13551833122E+03  0.41800000000E+01 0.  1.
         -5    1    1    2    0  502  0.79229532137E+01  0.24144626112E+02 -0.11024129067E+04  0.11027136643E+04  0.41800000000E+01 0.  1.
        -11    1    3    3    0    0 -0.10188819912E+02  0.23587996810E+02 -0.27183253266E+02  0.37405011734E+02  0.00000000000E+00 0.  1.
         11    1    3    3    0    0 -0.40952262334E+02 -0.58396721763E+02 -0.27612274687E+03  0.28518596782E+03  0.00000000000E+00 0. -1.
</event>
<event>
 7    1  0.6610867E-006  0.1022589E+03  0.7561462E-02  0.1275616E+00
         -2   -1    0    0    0  501 -0.00000000000E+00  0.00000000000E+00  0.24887874494E+02  0.24887874494E+02  0.00000000000E+00 0.  1.
          2   -1    0    0  501    0  0.00000000000E+00 -0.00000000000E+00 -0.58371189153E+03  0.58371189153E+03  0.00000000000E+00 0. -1.
         23    2    1    2    0    0  0.10857337816E+02  0.16372027119E+02 -0.11834871187E+03  0.15028519393E+03  0.90516831891E+02 0.  0.
          5    1    1    2  502    0  0.49333276859E+02  0.22749736548E+02 -0.17634917029E+03  0.18457471381E+03  0.41800000000E+01 0. -1.
         -5    1    1    2    0  502 -0.60190614675E+02 -0.39121763666E+02 -0.26412613488E+03  0.27373985829E+03  0.41800000000E+01 0. -1.
        -11    1    3    3    0    0  0.78265323589E+01 -0.30329194635E+02 -0.11033226925E+02  0.33209136579E+02  0.00000000000E+00 0.  1.
         11    1    3    3    0    0  0.30308054567E+01  0.46701221753E+02 -0.10731548495E+03  0.11707605735E+03  0.00000000000E+00 0. -1.
</event>
<event>
 7    1  0.6610867E-006  0.8702563E+02  0.7561462E-02  0.1310219E+00
         -2   -1    0    0    0  501 -0.00000000000E+00  0.00000000000E+00  0.47221194246E+02  0.47221194246E+02  0.00000000000E+00 0.  1.
          2   -1    0    0  501    0  0.00000000000E+00 -0.00000000000E+00 -0.29966747019E+03  0.29966747019E+03  0.00000000000E+00 0. -1.
         23    2    1    2    0    0 -0.34283537957E+02 -0.19440198227E+00 -0.57621280091E+02  0.11283947612E+03  0.90758672778E+02 0.  0.
          5    1    1    2  502    0  0.26225264735E+02 -0.57264631635E+02 -0.14230426483E+03  0.15567587718E+03  0.41800000000E+01 0.  1.
         -5    1    1    2    0  502  0.80582732224E+01  0.57459033618E+02 -0.52520731025E+02  0.78373311140E+02  0.41800000000E+01 0.  1.
        -11    1    3    3    0    0  0.29246594347E+00  0.14990497974E+02  0.20892693649E+02  0.25715855299E+02  0.00000000000E+00 0.  1.
         11    1    3    3    0    0 -0.34576003901E+02 -0.15184899956E+02 -0.78513973740E+02  0.87123620820E+02  0.00000000000E+00 0. -1.
</event>
<event>
 7    1  0.6610867E-006  0.1485944E+03  0.7561462E-02  0.1202211E+00
          1   -1    0    0  501    0  0.00000000000E+00  0.00000000000E+00  0.29811023394E+03  0.29811023394E+03  0.00000000000E+00 0. -1.
         -1   -1    0    0    0  501 -0.00000000000E+00 -0.00000000000E+00 -0.11673498915E+03  0.11673498915E+03  0.00000000000E+00 0.  1.
         23    2    1    2    0    0  0.70786738177E+02 -0.12500063153E+03  0.15204911339E+03  0.22213787698E+03  0.74768865985E+02 0.  0.
          5    1    1    2  502    0 -0.67162603507E+02  0.11137395200E+03 -0.28357168507E+02  0.13317872916E+03  0.41800000000E+01 0. -1.
         -5    1    1    2    0  502 -0.36241346697E+01  0.13626679527E+02  0.57683299910E+02  0.59528616946E+02  0.41800000000E+01 0. -1.
        -11    1    3    3    0    0  0.33981454368E+01 -0.55308662835E+02  0.21291293083E+02  0.59362570178E+02  0.00000000000E+00 0.  1.
         11    1    3    3    0    0  0.67388592740E+02 -0.69691968696E+02  0.13075782031E+03  0.16277530680E+03  0.00000000000E+00 0. -1.
</event>
<event>
 7    1  0.6610867E-006  0.9681471E+02  0.7561462E-02  0.1287140E+00
          1   -1    0    0  501    0  0.00000000000E+00  0.00000000000E+00  0.55530686537E+02  0.55530686537E+02  0.00000000000E+00 0. -1.
         -1   -1    0    0    0  501 -0.00000000000E+00 -0.00000000000E+00 -0.24436845183E+03  0.24436845183E+03  0.00000000000E+00 0.  1.
         23    2    1    2    0    0  0.25907619725E+02 -0.32072848840E+01 -0.12450309967E+03  0.15683374989E+03  0.91729558169E+02 0.  0.
          5    1    1    2  502    0 -0.58902656883E+02  0.20773774952E+02  0.64280472527E+01  0.62927457481E+02  0.41800000000E+01 0. -1.
         -5    1    1    2    0  502  0.32995037158E+02 -0.17566490068E+02 -0.70762712880E+02  0.80137930997E+02  0.41800000000E+01 0. -1.
        -11    1    3    3    0    0 -0.23282616569E+02  0.27032179853E+02 -0.32781931564E+02  0.48450738064E+02  0.00000000000E+00 0.  1.
         11    1    3    3    0    0  0.49190236294E+02 -0.30239464737E+02 -0.91721168102E+02  0.10838301182E+03  0.00000000000E+00 0. -1.
</event>
<event>
 7    1  0.6610867E-006  0.8992811E+02  0.7561462E-02  0.1303026E+00
          4   -1    0    0  501    0  0.00000000000E+00  0.00000000000E+00  0.41278218470E+02  0.41278218470E+02  0.00000000000E+00 0. -1.
         -4   -1    0    0    0  501 -0.00000000000E+00 -0.00000000000E+00 -0.32445968132E+03  0.32445968132E+03  0.00000000000E+00 0.  1.
         23    2    1    2    0    0  0.39667741304E+02  0.56725302517E+01 -0.13303430232E+03  0.16624551663E+03  0.91289314306E+02 0.  0.
          5    1    1    2  502    0 -0.21021400107E+02  0.39498830320E+02 -0.14303985730E+03  0.14993308520E+03  0.41800000000E+01 0.  1.
         -5    1    1    2    0  502 -0.18646341197E+02 -0.45171360572E+02 -0.71073032346E+01  0.49559297970E+02  0.41800000000E+01 0.  1.
        -11    1    3    3    0    0  0.45543494893E+02  0.34066334511E+02 -0.41990501861E+02  0.70696020543E+02  0.00000000000E+00 0. -1.
         11    1    3    3    0    0 -0.58757535889E+01 -0.28393804260E+02 -0.91043800457E+02  0.95549496086E+02  0.00000000000E+00 0.  1.
</event>
<event>
 7    1  0.6610867E-006  0.1291554E+03  0.7561462E-02  0.1228714E+00
          2   -1    0    0  501    0  0.00000000000E+00  0.00000000000E+00  0.61616722984E+03  0.61616722984E+03  0.00000000000E+00 0. -1.
         -2   -1    0    0    0  501 -0.00000000000E+00 -0.00000000000E+00 -0.83150182180E+02  0.83150182180E+02  0.00000000000E+00 0.  1.
         23    2    1    2    0    0 -0.91686553502E+02 -0.96899847185E+01  0.23200053429E+02  0.14960134213E+03  0.11550757201E+03 0.  0.
          5    1    1    2  502    0  0.29372503859E+02 -0.28937834529E+02  0.45792644773E+03  0.45979804935E+03  0.41800000000E+01 0. -1.
         -5    1    1    2    0  502  0.62314049643E+02  0.38627819248E+02  0.51890546502E+02  0.89918020547E+02  0.41800000000E+01 0.  1.
        -11    1    3    3    0    0 -0.11354849111E+03  0.10029554158E+02  0.32494595770E+01  0.11403688341E+03  0.00000000000E+00 0.  1.
         11    1    3    3    0    0  0.21861937605E+02 -0.19719538876E+02  0.19950593852E+02  0.35564458725E+02  0.00000000000E+00 0. -1.
</event>
<event>
 7    1  0.6610867E-006  0.1266914E+03  0.7561462E-02  0.1232449E+00
          2   -1    0    0  501    0  0.00000000000E+00  0.00000000000E+00  0.35240990941E+03  0.35240990941E+03  0.00000000000E+00 0.  1.
         -2   -1    0    0    0  501 -0.00000000000E+00 -0.00000000000E+00 -0.65330787483E+02  0.65330787483E+02  0.00000000000E+00 0. -1.
         23    2    1    2    0    0  0.66534520621E+02 -0.43272699941E+02  0.32364108773E+02  0.12307996478E+03  0.88328212934E+02 0.  0.
          5    1    1    2  502    0 -0.80498796139E+02 -0.97417834102E+01  0.90984558702E+02  0.12194515507E+03  0.41800000000E+01 0. -1.
         -5    1    1    2    0  502  0.13964275518E+02  0.53014483351E+02  0.16373045445E+03  0.17271557703E+03  0.41800000000E+01 0. -1.
        -11    1    3    3    0    0  0.86115204666E+02 -0.23243371150E+02  0.15941301659E+02  0.90610197415E+02  0.00000000000E+00 0. -1.
         11    1    3    3    0    0 -0.19580684045E+02 -0.20029328791E+02  0.16422807114E+02  0.32469767369E+02  0.00000000000E+00 0.  1.
</event>
<event>
 7    1  0.6610867E-006  0.7331773E+02  0.7561462E-02  0.1349161E+00
         -2   -1    0    0    0  501 -0.00000000000E+00  0.00000000000E+00  0.13675403803E+03  0.13675403803E+03  0.00000000000E+00 0.  1.
          2   -1    0    0  501    0  0.00000000000E+00 -0.00000000000E+00 -0.94190297406E+02  0.94190297406E+02  0.00000000000E+00 0. -1.
         23    2    1    2    0    0  0.17241563668E+02  0.34058817620E+02  0.16409694619E+02  0.97572238537E+02  0.88282439251E+02 0.  0.
          5    1    1    2  502    0  0.46774229472E+01  0.95113441639E+01  0.68014787215E+02  0.68962508896E+02  0.41800000000E+01 0.  1.
         -5    1    1    2    0  502 -0.21918986615E+02 -0.43570161784E+02 -0.41860741210E+02  0.64409588003E+02  0.41800000000E+01 0.  1.
        -11    1    3    3    0    0 -0.82222945759E+01  0.53578250522E+02  0.30870278479E+02  0.62379557152E+02  0.00000000000E+00 0.  1.
         11    1    3    3    0    0  0.25463858244E+02 -0.19519432902E+02 -0.14460583860E+02  0.35192681385E+02  0.00000000000E+00 0. -1.
</event>
<event>
 7    1  0.6610867E-006  0.1469895E+03  0.7561462E-02  0.1204222E+00
          2   -1    0    0  501    0  0.00000000000E+00  0.00000000000E+00  0.26223396104E+03  0.26223396104E+03  0.00000000000E+00 0. -1.
         -2   -1    0    0    0  501 -0.00000000000E+00 -0.00000000000E+00 -0.25158016198E+03  0.25158016198E+03  0.00000000000E+00 0.  1.
         23    2    1    2    0    0 -0.86376161959E+02 -0.35167292849E+01 -0.15061546689E+03  0.19985914988E+03  0.98921444522E+02 0.  0.
          5    1    1    2  502    0  0.52909899893E+02 -0.87733833657E+02  0.18705133679E+03  0.21331281741E+03  0.41800000000E+01 0. -1.
         -5    1    1    2    0  502  0.33466262065E+02  0.91250562942E+02 -0.25782070835E+02  0.10064215573E+03  0.41800000000E+01 0.  1.
        -11    1    3    3    0    0 -0.79553066231E+02  0.88386946829E+01 -0.16267099561E+03  0.18129717506E+03  0.00000000000E+00 0.  1.
         11    1    3    3    0    0 -0.68230957276E+01 -0.12355423968E+02  0.12055528721E+02  0.18561974827E+02  0.00000000000E+00 0. -1.
</event>
<event>
 7    1  0.6610867E-006  0.5696646E+02  0.7561462E-02  0.1411022E+00
          1   -1    0    0  501    0  0.00000000000E+00  0.00000000000E+00  0.23025710241E+03  0.23025710241E+03  0.00000000000E+00 0. -1.
         -1   -1    0    0    0  501 -0.00000000000E+00 -0.00000000000E+00 -0.87242837326E+02  0.87242837326E+02  0.00000000000E+00 0.  1.
         23    2    1    2    0    0  0.13957382056E+02  0.44091701308E+02 -0.20397530003E+02  0.10657738736E+03  0.93828533128E+02 0.  0.
          5    1    1    2  502    0  0.24875247374E+01 -0.12880596177E+02  0.17345846375E+03  0.17400404761E+03  0.41800000000E+01 0.  1.
         -5    1    1    2    0  502 -0.16444906794E+02 -0.31211105131E+02 -0.10046668662E+02  0.36918504766E+02  0.41800000000E+01 0.  1.
        -11    1    3    3    0    0  0.16403603950E+02 -0.36747910083E+01  0.31683209204E+02  0.35866531153E+02  0.00000000000E+00 0. -1.
         11    1    3    3    0    0 -0.24462218934E+01  0.47766492316E+02 -0.52080739206E+02  0.70710856211E+02  0.00000000000E+00 0.  1.
</event>
<event>
 7    1  0.6610867E-006  0.1008068E+03  0.7561462E-02  0.1278609E+00
          1   -1    0    0  501    0  0.00000000000E+00  0.00000000000E+00  0.76699690060E+03  0.76699690060E+03  0.00000000000E+00 0.  1.
         -1   -1    0    0    0  501 -0.00000000000E+00 -0.00000000000E+00 -0.22743121807E+02  0.22743121807E+02  0.00000000000E+00 0. -1.
         23    2    1    2    0    0  0.47220282059E+02  0.48638692971E+02  0.21001738546E+03  0.23688249603E+03  0.86084477337E+02 0.  0.
          5    1    1    2  502    0  0.30719437663E+02 -0.17837330753E+02  0.33176639080E+03  0.33368887408E+03  0.41800000000E+01 0. -1.
         -5    1    1    2    0  502 -0.77939719723E+02 -0.30801362218E+02  0.20247000253E+03  0.21916865230E+03  0.41800000000E+01 0. -1.
        -11    1    3    3    0    0 -0.12514859652E+00  0.31627355507E+02  0.14134437287E+02  0.34642280467E+02  0.00000000000E+00 0. -1.
         11    1    3    3    0    0  0.47345430656E+02  0.17011337464E+02  0.19588294817E+03  0.20224021556E+03  0.00000000000E+00 0.  1.
</event>
<event>
 7    1  0.6610867E-006  0.2570274E+03  0.7561462E-02  0.1108942E+00
         -1   -1    0    0    0  501 -0.00000000000E+00  0.00000000000E+00  0.11896392861E+03  0.11896392861E+03  0.00000000000E+00 0.  1.
          1   -1    0    0  501    0  0.00000000000E+00 -0.00000000000E+00 -0.66724690517E+03  0.66724690517E+03  0.00000000000E+00 0. -1.
         23    2    1    2    0    0 -0.22130910967E+03  0.92033571163E+02 -0.12464295413E+03  0.28675892438E+03  0.96160877963E+02 0.  0.
          5    1    1    2  502    0  0.57962155759E+02  0.18557999992E+02 -0.15141970700E+03  0.16324647296E+03  0.41800000000E+01 0. -1.
         -5    1    1    2    0  502  0.16334695392E+03 -0.11059157116E+03 -0.27222031542E+03  0.33620543644E+03  0.41800000000E+01 0.  1.
        -11    1    3    3    0    0 -0.99149003391E+01  0.35587661327E+02 -0.33020838253E+02  0.49549597843E+02  0.00000000000E+00 0.  1.
         11    1    3    3    0    0 -0.21139420934E+03  0.56445909836E+02 -0.91622115876E+02  0.23720932654E+03  0.00000000000E+00 0. -1.
</event>
<event>
 7    1  0.6610867E-006  0.1222130E+03  0.7561462E-02  0.1239490E+00
         -2   -1    0    0    0  501 -0.00000000000E+00  0.00000000000E+00  0.86546266668E+02  0.86546266668E+02  0.00000000000E+00 0.  1.
          2   -1    0    0  501    0  0.00000000000E+00 -0.00000000000E+00 -0.23481402513E+03  0.23481402513E+03  0.00000000000E+00 0. -1.
         23    2    1    2    0    0  0.58211196497E+02 -0.36274959210E+01  0.13568429996E+02  0.10866239861E+03  0.90673659097E+02 0.  0.
          5    1    1    2  502    0  0.35063072741E+02  0.23189337934E+02 -0.57117591010E+02  0.71042635555E+02  0.41800000000E+01 0.  1.
         -5    1    1    2    0  502 -0.93274269237E+02 -0.19561842013E+02 -0.10471859745E+03  0.14165525764E+03  0.41800000000E+01 0.  1.
        -11    1    3    3    0    0  0.31192128844E+02  0.42864799546E+02 -0.74086783447E+00  0.53017816129E+02  0.00000000000E+00 0. -1.
         11    1    3    3    0    0  0.27019067653E+02 -0.46492295467E+02  0.14309297830E+02  0.55644582477E+02  0.00000000000E+00 0.  1.
</event>
<event>
 7    1  0.6610867E-006  0.8198583E+02  0.7561462E-02  0.1323509E+00
          2   -1    0    0  501    0  0.00000000000E+00  0.00000000000E+00  0.27271902384E+02  0.27271902384E+02  0.00000000000E+00 0.  1.
         -2   -1    0    0    0  501 -0.00000000000E+00 -0.00000000000E+00 -0.50206644658E+03  0.50206644658E+03  0.00000000000E+00 0. -1.
         23    2    1    2    0    0  0.22076896052E+02  0.31172394912E+02 -0.25921102141E+03  0.27717949924E+03  0.90437899349E+02 0.  0.
          5    1    1    2  502    0 -0.35777588269E+02 -0.40988959970E+02 -0.23701309214E+02  0.59492479526E+02  0.41800000000E+01 0. -1.
         -5    1    1    2    0  502  0.13700692217E+02  0.98165650582E+01 -0.19188221358E+03  0.19266637020E+03  0.41800000000E+01 0. -1.
        -11    1    3    3    0    0  0.44635822798E+02  0.46740404719E+02 -0.13104934760E+03  0.14611965514E+03  0.00000000000E+00 0.  1.
         11    1    3    3    0    0 -0.22558926746E+02 -0.15568009807E+02 -0.12816167380E+03  0.13105984411E+03  0.00000000000E+00 0. -1.
</event>
<event>
 6    1  0.6610867E-006  0.2230559E+03  0.7561462E-02  0.1131625E+00
         -1   -1    0    0    0  501 -0.00000000000E+00  0.00000000000E+00  0.36115126318E+03  0.36115126318E+03  0.00000000000E+00 0.  1.
          1   -1    0    0  501    0  0.00000000000E+00 -0.00000000000E+00 -0.49378110472E+03  0.49378110472E+03  0.00000000000E+00 0. -1.
          5    1    1    2  502    0 -0.77207428613E+02 -0.15958623072E+03 -0.19053794337E+03  0.26029009265E+03  0.41800000000E+01 0. -1.
         -5    1    1    2    0  502  0.14060005205E+03  0.14617968454E+03 -0.22541915469E+03  0.30326249770E+03  0.41800000000E+01 0.  1.
        -11    1    1    2    0    0 -0.52771905831E+02  0.63230290218E+01  0.25213862208E+03  0.25767952865E+03  0.00000000000E+00 0.  1.
         11    1    1    2    0    0 -0.10620717610E+02  0.70835171648E+01  0.31188634434E+02  0.33700248899E+02  0.00000000000E+00 0. -1.
</event>
<event>
 7    1  0.6610867E-006  0.9537361E+02  0.7561462E-02  0.1290337E+00
          2   -1    0    0  501    0  0.00000000000E+00  0.00000000000E+00  0.83234130239E+02  0.83234130239E+02  0.00000000000E+00 0. -1.
         -2   -1    0    0    0  501 -0.00000000000E+00 -0.00000000000E+00 -0.17910348455E+03  0.17910348455E+03  0.00000000000E+00 0.  1.
         23    2    1    2    0    0  0.44163106083E+02 -0.29174692908E+02 -0.69652819871E+02  0.12400326599E+03  0.87884879325E+02 0.  0.
          5    1    1    2  502    0 -0.34746102380E+02 -0.45413013749E+02  0.33745001377E+01  0.57432509083E+02  0.41800000000E+01 0. -1.
         -5    1    1    2    0  502 -0.94170037032E+01  0.74587706657E+02 -0.29591034581E+02  0.80901839724E+02  0.41800000000E+01 0. -1.
        -11    1    3    3    0    0  0.32044495078E+02 -0.69282396529E+01  0.14699157568E+02  0.35929311192E+02  0.00000000000E+00 0. -1.
         11    1    3    3    0    0  0.12118611005E+02 -0.22246453255E+02 -0.84351977439E+02  0.88073954794E+02  0.00000000000E+00 0.  1.
</event>
<event>
 7    1  0.6610867E-006  0.1272213E+03  0.7561462E-02  0.1231638E+00
         -2   -1    0    0    0  501 -0.00000000000E+00  0.00000000000E+00  0.80866523325E+02  0.80866523325E+02  0.00000000000E+00 0.  1.
          2   -1    0    0  501    0  0.00000000000E+00 -0.00000000000E+00 -0.41963494590E+03  0.41963494590E+03  0.00000000000E+00 0. -1.
         23    2    1    2    0    0 -0.32238526389E+02  0.46097154390E+02  0.31644348556E+01  0.10695426681E+03  0.90911667646E+02 0.  0.
          5    1    1    2  502    0  0.27720940514E+02 -0.10477246577E+03 -0.30556250377E+03  0.32424009043E+03  0.41800000000E+01 0. -1.
         -5    1    1    2    0  502  0.45175858747E+01  0.58675311378E+02 -0.36370353659E+02  0.69307111992E+02  0.41800000000E+01 0.  1.
        -11    1    3    3    0    0 -0.44324802058E+02  0.55959672833E+02 -0.24265437054E+02  0.75398836174E+02  0.00000000000E+00 0.  1.
         11    1    3    3    0    0  0.12086275669E+02 -0.98625184431E+01  0.27429871910E+02  0.31555430635E+02  0.00000000000E+00 0. -1.
</event>
<event>
 7    1  0.6610867E-006  0.1190015E+03  0.7561462E-02  0.1244753E+00
         -1   -1    0    0    0  501 -0.00000000000E+00  0.00000000000E+00  0.17017725238E+02  0.17017725238E+02  0.00000000000E+00 0.  1.
          1   -1    0    0  501    0  0.00000000000E+00 -0.00000000000E+00 -0.92821440717E+03  0.92821440717E+03  0.00000000000E+00 0. -1.
         23    2    1    2    0    0 -0.97834699121E+01  0.58710877661E+02 -0.31845095652E+03  0.33651629531E+03  0.91046811383E+02 0.  0.
          5    1    1    2  502    0 -0.17618667438E+00  0.36173152955E+02 -0.25999978862E+03  0.26253740784E+03  0.41800000000E+01 0.  1.
         -5    1    1    2    0  502  0.99596565865E+01 -0.94884030616E+02 -0.33274593680E+03  0.34617842925E+03  0.41800000000E+01 0.  1.
        -11    1    3    3    0    0  0.32819406160E+02  0.54051333032E+02 -0.15182928033E+03  0.16447124487E+03  0.00000000000E+00 0.  1.
         11    1    3    3    0    0 -0.42602876072E+02  0.46595446288E+01 -0.16662167619E+03  0.17204505044E+03  0.00000000000E+00 0. -1.
</event>
<event>
 7    1  0.6610867E-006  0.1676154E+03  0.7561462E-02  0.1180358E+00
          1   -1    0    0  501    0  0.00000000000E+00  0.00000000000E+00  0.16478803979E+03  0.16478803979E+03  0.00000000000E+00 0. -1.
         -1   -1    0    0    0  501 -0.00000000000E+00 -0.00000000000E+00 -0.22135603023E+03  0.22135603023E+03  0.00000000000E+00 0.  1.
         23    2    1    2    0    0  0.10059215496E+03 -0.86202345780E+02 -0.11117891020E+03  0.19593746165E+03  0.92092957092E+02 0.  0.
          5    1    1    2  502    0 -0.12012381200E+03  0.94879259607E+02  0.27747881655E+02  0.15562525968E+03  0.41800000000E+01 0. -1.
         -5    1    1    2    0  502  0.19531657041E+02 -0.86769138271E+01  0.26863038107E+02  0.34581348682E+02  0.41800000000E+01 0. -1.
        -11    1    3    3    0    0  0.85967360059E+02 -0.14546983637E+02 -0.71350482159E+02  0.11266274021E+03  0.00000000000E+00 0. -1.
         11    1    3    3    0    0  0.14624794905E+02 -0.71655362142E+02 -0.39828428043E+02  0.83274721435E+02  0.00000000000E+00 0.  1.
</event>
<event>
 7    1  0.6610867E-006  0.2452735E+03  0.7561462E-02  0.1116329E+00
         -1   -1    0    0    0  501 -0.00000000000E+00  0.00000000000E+00  0.18117729893E+03  0.18117729893E+03  0.00000000000E+00 0.  1.
          1   -1    0    0  501    0  0.00000000000E+00 -0.00000000000E+00 -0.34931609132E+03  0.34931609132E+03  0.00000000000E+00 0. -1.
         23    2    1    2    0    0 -0.21456718823E+03  0.62868008029E+02 -0.43435801781E+02  0.24555349639E+03  0.91751762995E+02 0.  0.
          5    1    1    2  502    0 -0.16294144802E+02 -0.17856996746E+01 -0.42433720504E+01  0.17440369392E+02  0.41800000000E+01 0. -1.
         -5    1    1    2    0  502  0.23086133304E+03 -0.61082308354E+02 -0.12045961857E+03  0.26749952447E+03  0.41800000000E+01 0. -1.
        -11    1    3    3    0    0 -0.12060114940E+03 -0.19815750255E+01  0.68216454718E+01  0.12081017640E+03  0.00000000000E+00 0.  1.
         11    1    3    3    0    0 -0.93966038837E+02  0.64849583054E+02 -0.50257447253E+02  0.12474331999E+03  0.00000000000E+00 0. -1.
</event>
<event>
 7    1  0.6610867E-006  0.2421782E+03  0.7561462E-02  0.1118350E+00
         -2   -1    0    0    0  501 -0.00000000000E+00  0.00000000000E+00  0.22365683653E+03  0.22365683653E+03  0.00000000000E+00 0.  1.
          2   -1    0    0  501    0  0.00000000000E+00 -0.00000000000E+00 -0.31880863911E+03  0.31880863911E+03  0.00000000000E+00 0. -1.
         23    2    1    2    0    0 -0.98938191486E+02  0.20655497717E+03  0.39737463833E+02  0.24870581780E+03  0.88440903697E+02 0.  0.
          5    1    1    2  502    0 -0.62376557327E+01 -0.48380201971E+02  0.15599827914E+02  0.51384621462E+02  0.41800000000E+01 0. -1.
         -5    1    1    2    0  502  0.10517584722E+03 -0.15817477520E+03 -0.15048909433E+03  0.24237503638E+03  0.41800000000E+01 0. -1.
        -11    1    3    3    0    0 -0.45298875495E+02  0.16969601231E+02  0.10809467132E+02  0.49566118133E+02  0.00000000000E+00 0.  1.
         11    1    3    3    0    0 -0.53639315990E+02  0.18958537594E+03  0.28927996700E+02  0.19913969966E+03  0.00000000000E+00 0. -1.
</event>
<event>
 7    1  0.6610867E-006  0.1121821E+03  0.7561462E-02  0.1256582E+00
          2   -1    0    0  501    0  0.00000000000E+00  0.00000000000E+00  0.45116489328E+03  0.45116489328E+03  0.00000000000E+00 0. -1.
         -2   -1    0    0    0  501 -0.00000000000E+00 -0.00000000000E+00 -0.29035491012E+02  0.29035491012E+02  0.00000000000E+00 0.  1.
         23    2    1    2    0    0  0.12288569806E+02 -0.29674029382E+02  0.13679660890E+03  0.16700506130E+03  0.90254203924E+02 0.  0.
          5    1    1    2  502    0 -0.51766035483E+01 -0.49005300463E+02  0.95719453935E+02  0.10774044254E+03  0.41800000000E+01 0.  1.
         -5    1    1    2    0  502 -0.71119662580E+01  0.78679329845E+02  0.18961333943E+03  0.20545488044E+03  0.41800000000E+01 0.  1.
        -11    1    3    3    0    0  0.50865235740E+02 -0.78231687432E+01  0.73497490770E+02  0.89723772355E+02  0.00000000000E+00 0. -1.
         11    1    3    3    0    0 -0.38576665933E+02 -0.21850860639E+02  0.63299118134E+02  0.77281288949E+02  0.00000000000E+00 0.  1.
</event>
<event>
 7    1  0.6610867E-006  0.1113734E+03  0.7561462E-02  0.1258047E+00
          4   -1    0    0  501    0  0.00000000000E+00  0.00000000000E+00  0.60157920062E+03  0.60157920062E+03  0.00000000000E+00 0. -1.
         -4   -1    0    0    0  501 -0.00000000000E+00 -0.00000000000E+00 -0.23615211464E+03  0.23615211464E+03  0.00000000000E+00 0.  1.
         23    2    1    2    0    0  0.22828601285E+02 -0.32103249039E+02 -0.21211529483E+03  0.23374432393E+03  0.89954138514E+02 0.  0.
          5    1    1    2  502    0 -0.69100149681E+02 -0.27897688571E+02  0.44535717027E+03  0.45156792758E+03  0.41800000000E+01 0. -1.
         -5    1    1    2    0  502  0.46271548396E+02  0.60000937611E+02  0.13218521054E+03  0.15241906374E+03  0.41800000000E+01 0.  1.
        -11    1    3    3    0    0  0.82570144439E+01 -0.49127171570E+02 -0.20386807405E+03  0.20986626430E+03  0.00000000000E+00 0.  1.
         11    1    3    3    0    0  0.14571586841E+02  0.17023922531E+02 -0.82472207798E+01  0.23878059636E+02  0.00000000000E+00 0. -1.
</event>
<event>
 7    1  0.6610867E-006  0.7282755E+02  0.7561462E-02  0.1350733E+00
         -2   -1    0    0    0  501 -0.00000000000E+00  0.00000000000E+00  0.20037015111E+03  0.20037015111E+03  0.00000000000E+00 0. -1.
          2   -1    0    0  501    0  0.00000000000E+00 -0.00000000000E+00 -0.84478437722E+02  0.84478437722E+02  0.00000000000E+00 0.  1.
         23    2    1    2    0    0  0.10005467886E+02 -0.17830061211E+02  0.12468701333E+03  0.15779227312E+03  0.94517351287E+02 0.  0.
          5    1    1    2  502    0 -0.17037545856E+02 -0.26797705866E+02 -0.54143590039E+02  0.62907835369E+02  0.41800000000E+01 0.  1.
         -5    1    1    2    0  502  0.70320779702E+01  0.44627767077E+02  0.45348290098E+02  0.64148480338E+02  0.41800000000E+01 0.  1.
        -11    1    3    3    0    0  0.33394650014E+02  0.70244169864E+01  0.11823164991E+03  0.12305798683E+03  0.00000000000E+00 0. -1.
         11    1    3    3    0    0 -0.23389182128E+02 -0.24854478197E+02  0.64553634176E+01  0.34734286288E+02  0.00000000000E+00 0.  1.
</event>
<event>
 7    1  0.6610867E-006  0.9158933E+02  0.7561462E-02  0.1299048E+00
         -2   -1    0    0    0  501 -0.00000000000E+00  0.00000000000E+00  0.82364623472E+02  0.82364623472E+02  0.00000000000E+00 0.  1.
          2   -1    0    0  501    0  0.00000000000E+00 -0.00000000000E+00 -0.16216557966E+03  0.16216557966E+03  0.00000000000E+00 0. -1.
         23    2    1    2    0    0  0.19948758990E+02 -0.64720420641E+01 -0.18371785060E+01  0.95651925359E+02  0.93306351801E+02 0.  0.
          5    1    1    2  502    0 -0.25351650556E+02  0.61188484840E+02 -0.63548994059E+02  0.91884078647E+02  0.41800000000E+01 0.  1.
         -5    1    1    2    0  502  0.54028915668E+01 -0.54716442776E+02 -0.14414783627E+02  0.56994199129E+02  0.41800000000E+01 0.  1.
        -11    1    3    3    0    0 -0.15762591646E+02 -0.18207904517E+02 -0.37020858335E+02  0.44164816700E+02  0.00000000000E+00 0. -1.
         11    1    3    3    0    0  0.35711350635E+02  0.11735862453E+02  0.35183679830E+02  0.51487108659E+02  0.00000000000E+00 0.  1.
</event>
<event>
 7    1  0.6610867E-006  0.1046743E+03  0.7561462E-02  0.1270763E+00
         -1   -1    0    0    0  501 -0.00000000000E+00  0.00000000000E+00  0.22235409026E+02  0.22235409026E+02  0.00000000000E+00 0.  1.
          1   -1    0    0  501    0  0.00000000000E+00 -0.00000000000E+00 -0.58373469381E+03  0.58373469381E+03  0.00000000000E+00 0. -1.
         23    2    1    2    0    0 -0.11198426746E+02 -0.15773067816E+02 -0.18844078296E+03  0.20973118463E+03  0.90016924486E+02 0.  0.
          5    1    1    2  502    0  0.62356952962E+02 -0.35726305744E+01 -0.29015680240E+03  0.29683260544E+03  0.41800000000E+01 0. -1.
         -5    1    1    2    0  502 -0.51158526216E+02  0.19345698390E+02 -0.82901699425E+02  0.99406312769E+02  0.41800000000E+01 0.  1.
        -11    1    3    3    0    0 -0.47065685529E+02  0.95053591574E+01 -0.91971487275E+02  0.10375107266E+03  0.00000000000E+00 0.  1.
         11    1    3    3    0    0  0.35867258783E+02 -0.25278426973E+02 -0.96469295683E+02  0.10598011197E+03  0.00000000000E+00 0. -1.
</event>
<event>
 7    1  0.6610867E-006  0.1062300E+03  0.7561462E-02  0.1267715E+00
          2   -1    0    0  501    0  0.00000000000E+00  0.00000000000E+00  0.20751554406E+04  0.20751554406E+04  0.00000000000E+00 0. -1.
         -2   -1    0    0    0  501 -0.00000000000E+00 -0.00000000000E+00 -0.12920205385E+02  0.12920205385E+02  0.00000000000E+00 0.  1.
         23    2    1    2    0    0  0.14392466339E+02 -0.19184218656E+00  0.18308778201E+03  0.20463198206E+03  0.90254818529E+02 0.  0.
          5    1    1    2  502    0 -0.68151131668E+02  0.17480969275E+02  0.10200295232E+04  0.10224616675E+04  0.41800000000E+01 0. -1.
         -5    1    1    2    0  502  0.53758665329E+02 -0.17289127088E+02  0.85911793006E+03  0.86098199642E+03  0.41800000000E+01 0.  1.
        -11    1    3    3    0    0  0.37572596405E+02  0.29439726274E+02  0.13736049185E+03  0.14541768188E+03  0.00000000000E+00 0.  1.
         11    1    3    3    0    0 -0.23180130066E+02 -0.29631568460E+02  0.45727290163E+02  0.59214300172E+02  0.00000000000E+00 0. -1.
</event>
<event>
 7    1  0.6610867E-006  0.1277285E+03  0.7561462E-02  0.1230866E+00
          3   -1    0    0  501    0  0.00000000000E+00  0.00000000000E+00  0.29770481907E+03  0.29770481907E+03  0.00000000000E+00 0. -1.
         -3   -1    0    0    0  501 -0.00000000000E+00 -0.00000000000E+00 -0.58509012404E+02  0.58509012404E+02  0.00000000000E+00 0.  1.
         23    2    1    2    0    0  0.65138763892E+02 -0.10089552203E+02  0.66562062370E+02  0.13306818392E+03  0.94508072675E+02 0.  0.
          5    1    1    2  502    0  0.20981876419E+02  0.43121049573E+02  0.71597243127E+02  0.86274571443E+02  0.41800000000E+01 0.  1.
         -5    1    1    2    0  502 -0.86120640311E+02 -0.33031497370E+02  0.10103650116E+03  0.13687107610E+03  0.41800000000E+01 0.  1.
        -11    1    3    3    0    0  0.78750794913E+02  0.20612254340E+02  0.50941876096E+02  0.96029305259E+02  0.00000000000E+00 0.  1.
         11    1    3    3    0    0 -0.13612031021E+02 -0.30701806543E+02  0.15620186274E+02  0.37038878665E+02  0.00000000000E+00 0. -1.
</event>
<event>
 7    1  0.6610867E-006  0.1087574E+03  0.7561462E-02  0.1262888E+00
          2   -1    0    0  501    0  0.00000000000E+00  0.00000000000E+00  0.12147081882E+04  0.12147081882E+04  0.00000000000E+00 0. -1.
         -2   -1    0    0    0  501 -0.00000000000E+00 -0.00000000000E+00 -0.16581322528E+02  0.16581322528E+02  0.00000000000E+00 0.  1.
         23    2    1    2    0    0  0.27435259640E+02  0.12152734738E+02  0.20720180231E+03  0.23205010653E+03  0.10007138765E+03 0.  0.
          5    1    1    2  502    0 -0.66397094303E+02  0.14644430783E+02  0.78329288335E+03  0.78624948139E+03  0.41800000000E+01 0. -1.
         -5    1    1    2    0  502  0.38961834663E+02 -0.26797165521E+02  0.20763218004E+03  0.21298992284E+03  0.41800000000E+01 0. -1.
        -11    1    3    3    0    0 -0.96577873631E+01  0.48818908497E+02  0.12676727091E+03  0.13618553395E+03  0.00000000000E+00 0.  1.
         11    1    3    3    0    0  0.37093047003E+02 -0.36666173759E+02  0.80434531399E+02  0.95864572577E+02  0.00000000000E+00 0. -1.
</event>
<event>
 7    1  0.6610867E-006  0.1844086E+03  0.7561462E-02  0.1163603E+00
         -1   -1    0    0    0  501 -0.00000000000E+00  0.00000000000E+00  0.49805275614E+02  0.49805275614E+02  0.00000000000E+00 0.  1.
          1   -1    0    0  501    0  0.00000000000E+00 -0.00000000000E+00 -0.75290308458E+03  0.75290308458E+03  0.00000000000E+00 0. -1.
         23    2    1    2    0    0  0.45378492045E+02  0.15236910374E+03 -0.33220567894E+03  0.38023539346E+03  0.94566325945E+02 0.  0.
          5    1    1    2  502    0  0.29778218690E+02 -0.11290832299E+03 -0.20052417572E+03  0.23208284976E+03  0.41800000000E+01 0.  1.
         -5    1    1    2    0  502 -0.75156710735E+02 -0.39460780753E+02 -0.17036795431E+03  0.19039011697E+03  0.41800000000E+01 0.  1.
        -11    1    3    3    0    0  0.56531920071E+02  0.13479370937E+03 -0.32786536378E+03  0.35897200286E+03  0.00000000000E+00 0. -1.
         11    1    3    3    0    0 -0.11153428026E+02  0.17575394369E+02 -0.43403151631E+01  0.21263390597E+02  0.00000000000E+00 0.  1.
</event>
<event>
 7    1  0.6610867E-006  0.1106481E+03  0.7561462E-02  0.1259374E+00
          1   -1    0    0  501    0  0.00000000000E+00  0.00000000000E+00  0.11445480674E+04  0.11445480674E+04  0.00000000000E+00 0. -1.
         -1   -1    0    0    0  501 -0.00000000000E+00 -0.00000000000E+00 -0.18633158006E+02  0.18633158006E+02  0.00000000000E+00 0.  1.
         23    2    1    2    0    0  0.65096926143E+02 -0.13482121984E+02  0.24448664349E+03  0.27044261313E+03  0.94583882058E+02 0.  0.
          5    1    1    2  502    0 -0.18904042151E+02  0.66117735463E+02  0.35162777479E+03  0.35831338540E+03  0.41800000000E+01 0.  1.
         -5    1    1    2    0  502 -0.46192883992E+02 -0.52635613479E+02  0.52980049111E+03  0.53442522687E+03  0.41800000000E+01 0.  1.
        -11    1    3    3    0    0  0.11623399963E+02 -0.24979399789E+02  0.94517739504E+01  0.29127476227E+02  0.00000000000E+00 0.  1.
         11    1    3    3    0    0  0.53473526181E+02  0.11497277805E+02  0.23503486954E+03  0.24131513691E+03  0.00000000000E+00 0. -1.
</event>
<event>
 7    1  0.6610867E-006  0.1185815E+03  0.7561462E-02  0.1245456E+00
         -2   -1    0    0    0  501 -0.00000000000E+00  0.00000000000E+00  0.14580651980E+02  0.14580651980E+02  0.00000000000E+00 0.  1.
          2   -1    0    0  501    0  0.00000000000E+00 -0.00000000000E+00 -0.16593510170E+04  0.16593510170E+04  0.00000000000E+00 0. -1.
         23    2    1    2    0    0 -0.36368113718E+02 -0.37337211389E+02 -0.22472396174E+03  0.24743193613E+03  0.89470648757E+02 0.  0.
          5    1    1    2  502    0  0.46667270370E+02 -0.36409027042E+02 -0.74032407119E+03  0.74269822550E+03  0.41800000000E+01 0.  1.
         -5    1    1    2    0  502 -0.10299156651E+02  0.73746238431E+02 -0.67972233206E+03  0.68380150732E+03  0.41800000000E+01 0.  1.
        -11    1    3    3    0    0 -0.29347783605E+02  0.26188716180E+02 -0.76636597961E+02  0.86141217804E+02  0.00000000000E+00 0.  1.
         11    1    3    3    0    0 -0.70203301129E+01 -0.63525927569E+02 -0.14808736378E+03  0.16129071833E+03  0.00000000000E+00 0. -1.
</event>
<event>
 7    1  0.6610867E-006  0.1073473E+03  0.7561462E-02  0.1265563E+00
          2   -1    0    0  501    0  0.00000000000E+00  0.00000000000E+00  0.10999870205E+04  0.10999870205E+04  0.00000000000E+00 0.  1.
         -2   -1    0    0    0  501 -0.00000000000E+00 -0.00000000000E+00 -0.16965517403E+02  0.16965517403E+02  0.00000000000E+00 0. -1.
         23    2    1    2    0    0  0.22640843425E+02  0.17913095509E+02  0.19054461136E+03  0.21528977376E+03  0.95963279363E+02 0.  0.
          5    1    1    2  502    0  0.15425549220E+02  0.43997220119E+02  0.52246218566E+03  0.52455496451E+03  0.41800000000E+01 0. -1.
         -5    1    1    2    0  502 -0.38066392645E+02 -0.61910315628E+02  0.37001470606E+03  0.37710779962E+03  0.41800000000E+01 0. -1.
        -11    1    3    3    0    0 -0.27356924241E+02 -0.18682625058E+02  0.36717931242E+02  0.49453495909E+02  0.00000000000E+00 0. -1.
         11    1    3    3    0    0  0.49997767667E+02  0.36595720567E+02  0.15382668012E+03  0.16583627786E+03  0.00000000000E+00 0.  1.
</event>
<event>
 7    1  0.6610867E-006  0.1021665E+03  0.7561462E-02  0.1275805E+00
          2   -1    0    0  501    0  0.00000000000E+00  0.00000000000E+00  0.12853272830E+04  0.12853272830E+04  0.00000000000E+00 0. -1.
         -2   -1    0    0    0  501 -0.00000000000E+00 -0.00000000000E+00 -0.11265183449E+02  0.11265183449E+02  0.00000000000E+00 0.  1.
         23    2    1    2    0    0  0.16037012574E+02 -0.14052708096E+02  0.42394088598E+03  0.43705283603E+03  0.10408958785E+03 0.  0.
          5    1    1    2  502    0 -0.50608035900E+02  0.32485827004E+02  0.74232048845E+03  0.74476417893E+03  0.41800000000E+01 0.  1.
         -5    1    1    2    0  502  0.34571023327E+02 -0.18433118908E+02  0.10780072512E+03  0.11477545149E+03  0.41800000000E+01 0.  1.
        -11    1    3    3    0    0  0.16676191821E+02 -0.58177598380E+02  0.28151938715E+03  0.28795120015E+03  0.00000000000E+00 0. -1.
         11    1    3    3    0    0 -0.63917924753E+00  0.44124890284E+02  0.14242149884E+03  0.14910163588E+03  0.00000000000E+00 0.  1.
</event>
<event>
 7    1  0.6610867E-006  0.2917375E+03  0.7561462E-02  0.1089445E+00
         -2   -1    0    0    0  501 -0.00000000000E+00  0.00000000000E+00  0.51575795105E+02  0.51575795105E+02  0.00000000000E+00 0. -1.
          2   -1    0    0  501    0  0.00000000000E+00 -0.00000000000E+00 -0.17341108414E+04  0.17341108414E+04  0.00000000000E+00 0.  1.
         23    2    1    2    0    0 -0.23363374539E+03 -0.15130485678E+03 -0.78975937126E+03  0.84219291866E+03  0.89950881463E+02 0.  0.
          5    1    1    2  502    0  0.23760455401E+03  0.11773330858E+03 -0.71764047151E+03  0.76507671170E+03  0.41800000000E+01 0. -1.
         -5    1    1    2    0  502 -0.39708086139E+01  0.33571548195E+02 -0.17513520348E+03  0.17841700610E+03  0.41800000000E+01 0. -1.
        -11    1    3    3    0    0 -0.14710469500E+03 -0.61338559802E+02 -0.34120328761E+03  0.37659247694E+03  0.00000000000E+00 0. -1.
         11    1    3    3    0    0 -0.86529050396E+02 -0.89966296974E+02 -0.44855608365E+03  0.46560044172E+03  0.00000000000E+00 0.  1.
</event>
<event>
 7    1  0.6610867E-006  0.1099382E+03  0.7561462E-02  0.1260684E+00
         -3   -1    0    0    0  501 -0.00000000000E+00  0.00000000000E+00  0.78398086160E+03  0.78398086160E+03  0.00000000000E+00 0.  1.
          3   -1    0    0  501    0  0.00000000000E+00 -0.00000000000E+00 -0.28206365644E+02  0.28206365644E+02  0.00000000000E+00 0. -1.
         23    2    1    2    0    0  0.20752756053E+02  0.78610069779E+02  0.51082689079E+03  0.52538179039E+03  0.92041802258E+02 0.  0.
          5    1    1    2  502    0  0.17759492484E+02 -0.48529396144E+02  0.18406827964E+02  0.55016230143E+02  0.41800000000E+01 0.  1.
         -5    1    1    2    0  502 -0.38512248538E+02 -0.30080673635E+02  0.22654077720E+03  0.23178920671E+03  0.41800000000E+01 0.  1.
        -11    1    3    3    0    0  0.43610349437E+02  0.84753933351E+02  0.45260795382E+03  0.46253545989E+03  0.00000000000E+00 0. -1.
         11    1    3    3    0    0 -0.22857593384E+02 -0.61438635724E+01  0.58218936974E+02  0.62846330500E+02  0.00000000000E+00 0.  1.
</event>
<event>
 7    1  0.6610867E-006  0.7670024E+02  0.7561462E-02  0.1338685E+00
         -1   -1    0    0    0  501 -0.00000000000E+00  0.00000000000E+00  0.43043253451E+03  0.43043253451E+03  0.00000000000E+00 0. -1.
          1   -1    0    0  501    0  0.00000000000E+00 -0.00000000000E+00 -0.42303628068E+02  0.42303628068E+02  0.00000000000E+00 0.  1.
         23    2    1    2    0    0  0.34036518390E+02 -0.49794668597E+01  0.30172707438E+03  0.31686126366E+03  0.90435354364E+02 0.  0.
          5    1    1    2  502    0  0.62488500346E+00  0.18848942879E+02  0.10988663651E+03  0.11157158426E+03  0.41800000000E+01 0.  1.
         -5    1    1    2    0  502 -0.34661403393E+02 -0.13869476019E+02 -0.23484804450E+02  0.44303314665E+02  0.41800000000E+01 0.  1.
        -11    1    3    3    0    0  0.27797675456E+02 -0.46692128748E+02  0.18083746637E+03  0.18882546144E+03  0.00000000000E+00 0. -1.
         11    1    3    3    0    0  0.62388429334E+01  0.41712661888E+02  0.12088960801E+03  0.12803580221E+03  0.00000000000E+00 0.  1.
</event>
<event>
 7    1  0.6610867E-006  0.1177229E+03  0.7561462E-02  0.1246902E+00
         -1   -1    0    0    0  501 -0.00000000000E+00  0.00000000000E+00  0.17363907500E+02  0.17363907500E+02  0.00000000000E+00 0.  1.
          1   -1    0    0  501    0  0.00000000000E+00 -0.00000000000E+00 -0.92229353844E+03  0.92229353844E+03  0.00000000000E+00 0. -1.
         23    2    1    2    0    0  0.53512250104E+02 -0.28937613140E+02 -0.31349739270E+03  0.33208818420E+03  0.91109826539E+02 0.  0.
          5    1    1    2  502    0  0.21141053148E+02  0.46306331444E+02 -0.36321452473E+03  0.36678806392E+03  0.41800000000E+01 0.  1.
         -5    1    1    2    0  502 -0.74653303252E+02 -0.17368718304E+02 -0.22821771351E+03  0.24078119782E+03  0.41800000000E+01 0.  1.
        -11    1    3    3    0    0  0.55580576052E+02  0.19669425366E+02 -0.20223817271E+03  0.21065698477E+03  0.00000000000E+00 0.  1.
         11    1    3    3    0    0 -0.20683259484E+01 -0.48607038505E+02 -0.11125921999E+03  0.12143119944E+03  0.00000000000E+00 0. -1.
</event>
<event>
 7    1  0.6610867E-006  0.1154493E+03  0.7561462E-02  0.1250799E+00
          1   -1    0    0  501    0  0.00000000000E+00  0.00000000000E+00  0.62994760540E+03  0.62994760540E+03  0.00000000000E+00 0. -1.
         -1   -1    0    0    0  501 -0.00000000000E+00 -0.00000000000E+00 -0.23921927372E+02  0.23921927372E+02  0.00000000000E+00 0.  1.
         23    2    1    2    0    0  0.58353797886E+01  0.42710169700E+02  0.16966014854E+03  0.19788650000E+03  0.92283750607E+02 0.  0.
          5    1    1    2  502    0 -0.18842739399E+02  0.41895987903E+02  0.17164905865E+03  0.17773911884E+03  0.41800000000E+01 0. -1.
         -5    1    1    2    0  502  0.13007359610E+02 -0.84606157603E+02  0.26471647083E+03  0.27824391393E+03  0.41800000000E+01 0. -1.
        -11    1    3    3    0    0 -0.90906066293E+01 -0.26630554384E+02  0.71027950177E+02  0.76398921864E+02  0.00000000000E+00 0.  1.
         11    1    3    3    0    0  0.14925986418E+02  0.69340724084E+02  0.98632198359E+02  0.12148757813E+03  0.00000000000E+00 0. -1.
</event>
<event>
 7    1  0.6610867E-006  0.1164415E+03  0.7561462E-02  0.1249086E+00
          2   -1    0    0  501    0  0.00000000000E+00  0.00000000000E+00  0.64567354799E+03  0.64567354799E+03  0.00000000000E+00 0. -1.
         -2   -1    0    0    0  501 -0.00000000000E+00 -0.00000000000E+00 -0.31935297000E+02  0.31935297000E+02  0.00000000000E+00 0.  1.
         23    2    1    2    0    0 -0.60512834007E+02  0.71333118792E+02  0.29228744673E+03  0.32021832695E+03  0.91419956708E+02 0.  0.
          5    1    1    2  502    0 -0.45602310472E+01  0.81586826321E+01 -0.75353121425E+01  0.12712715626E+02  0.41800000000E+01 0. -1.
         -5    1    1    2    0  502  0.65073065054E+02 -0.79491801425E+02  0.32898611640E+03  0.34467780241E+03  0.41800000000E+01 0. -1.
        -11    1    3    3    0    0 -0.20272350506E+02 -0.14572069760E+02  0.20348586237E+02  0.32208358760E+02  0.00000000000E+00 0.  1.
         11    1    3    3    0    0 -0.40240483501E+02  0.85905188553E+02  0.27193886049E+03  0.28800996819E+03  0.00000000000E+00 0. -1.
</event>
<event>
 7    1  0.6610867E-006  0.1206565E+03  0.7561462E-02  0.1242018E+00
          1   -1    0    0  501    0  0.00000000000E+00  0.00000000000E+00  0.12505543728E+04  0.12505543728E+04  0.00000000000E+00 0. -1.
         -1   -1    0    0    0  501 -0.00000000000E+00 -0.00000000000E+00 -0.18820755709E+02  0.18820755709E+02  0.00000000000E+00 0.  1.
         23    2    1    2    0    0  0.74740021712E+02  0.79995992343E+02  0.55559394868E+03  0.57310026466E+03  0.88169427280E+02 0.  0.
          5    1    1    2  502    0 -0.23379238140E+02 -0.19448639646E+02  0.23111972128E+02  0.38424913998E+02  0.41800000000E+01 0.  1.
         -5    1    1    2    0  502 -0.51360783572E+02 -0.60547352697E+02  0.65302769628E+03  0.65784994985E+03  0.41800000000E+01 0.  1.
        -11    1    3    3    0    0  0.61702815531E+02  0.13260267470E+02  0.37206709546E+03  0.37738176381E+03  0.00000000000E+00 0. -1.
         11    1    3    3    0    0  0.13037206181E+02  0.66735724872E+02  0.18352685323E+03  0.19571850085E+03  0.00000000000E+00 0.  1.
</event>
<event>
 7    1  0.6610867E-006  0.1031108E+03  0.7561462E-02  0.1273887E+00
         -2   -1    0    0    0  501 -0.00000000000E+00  0.00000000000E+00  0.38654514711E+03  0.38654514711E+03  0.00000000000E+00 0.  1.
          2   -1    0    0  501    0  0.00000000000E+00 -0.00000000000E+00 -0.40679978075E+02  0.40679978075E+02  0.00000000000E+00 0. -1.
         23    2    1    2    0    0 -0.51640190643E+02  0.38880692984E+02  0.15601131395E+03  0.19085828713E+03  0.88932210742E+02 0.  0.
          5    1    1    2  502    0  0.92045875424E+02 -0.38291766202E+02  0.14271812251E+03  0.17413970666E+03  0.41800000000E+01 0.  1.
         -5    1    1    2    0  502 -0.40405684781E+02 -0.58892678152E+00  0.47135732573E+02  0.62227131403E+02  0.41800000000E+01 0.  1.
        -11    1    3    3    0    0 -0.22844627748E+02  0.24945027193E+02  0.15521507216E+03  0.15885795550E+03  0.00000000000E+00 0.  1.
         11    1    3    3    0    0 -0.28795562894E+02  0.13935665791E+02  0.79624179066E+00  0.32000331630E+02  0.00000000000E+00 0. -1.
</event>
<event>
 7    1  0.6610867E-006  0.1130868E+03  0.7561462E-02  0.1254958E+00
         -1   -1    0    0    0  501 -0.00000000000E+00  0.00000000000E+00  0.38872810054E+02  0.38872810054E+02  0.00000000000E+00 0.  1.
          1   -1    0    0  501    0  0.00000000000E+00 -0.00000000000E+00 -0.36124286582E+03  0.36124286582E+03  0.00000000000E+00 0. -1.
         23    2    1    2    0    0 -0.18936121494E+02  0.41633547149E+02 -0.11871166975E+03  0.15675947243E+03  0.91592263397E+02 0.  0.
          5    1    1    2  502    0 -0.28105186726E+02  0.33253831814E+02 -0.81395939024E+02  0.92403950894E+02  0.41800000000E+01 0. -1.
         -5    1    1    2    0  502  0.47041308220E+02 -0.74887378963E+02 -0.12226244699E+03  0.15095225255E+03  0.41800000000E+01 0. -1.
        -11    1    3    3    0    0  0.32458161198E+02  0.12219615538E+02 -0.15987596103E+02  0.38189716698E+02  0.00000000000E+00 0.  1.
         11    1    3    3    0    0 -0.51394282693E+02  0.29413931611E+02 -0.10272407365E+03  0.11856975573E+03  0.00000000000E+00 0. -1.
</event>
<event>
 7    1  0.6610867E-006  0.1057718E+03  0.7561462E-02  0.1268606E+00
         -1   -1    0    0    0  501 -0.00000000000E+00  0.00000000000E+00  0.24969757083E+02  0.24969757083E+02  0.00000000000E+00 0.  1.
          1   -1    0    0  501    0  0.00000000000E+00 -0.00000000000E+00 -0.83753010560E+03  0.83753010560E+03  0.00000000000E+00 0. -1.
         23    2    1    2    0    0  0.85354047554E+01  0.73984459353E+02 -0.22823384199E+03  0.25604628564E+03  0.89008204126E+02 0.  0.
          5    1    1    2  502    0  0.24831135682E+02  0.27447159432E+00 -0.43981749809E+03  0.44053781298E+03  0.41800000000E+01 0. -1.
         -5    1    1    2    0  502 -0.33366540437E+02 -0.74258930947E+02 -0.14450900843E+03  0.16591576406E+03  0.41800000000E+01 0.  1.
        -11    1    3    3    0    0  0.28018640793E+01  0.88858543652E+02 -0.22162194198E+03  0.23878856001E+03  0.00000000000E+00 0.  1.
         11    1    3    3    0    0  0.57335406761E+01 -0.14874084300E+02 -0.66119000101E+01  0.17257725638E+02  0.00000000000E+00 0. -1.
</event>
<event>
 7    1  0.6610867E-006  0.1662148E+03  0.7561462E-02  0.1181854E+00
          2   -1    0    0  501    0  0.00000000000E+00  0.00000000000E+00  0.65607325539E+03  0.65607325539E+03  0.00000000000E+00 0. -1.
         -2   -1    0    0    0  501 -0.00000000000E+00 -0.00000000000E+00 -0.50842169753E+02  0.50842169753E+02  0.00000000000E+00 0.  1.
         23    2    1    2    0    0 -0.13641174208E+03 -0.49041282089E+02  0.24934673931E+03  0.30268425236E+03  0.91819112929E+02 0.  0.
          5    1    1    2  502    0  0.47550218375E+02 -0.34515608164E+02  0.59615550828E+02  0.83808333565E+02  0.41800000000E+01 0.  1.
         -5    1    1    2    0  502  0.88861523702E+02  0.83556890253E+02  0.29626879551E+03  0.32042283922E+03  0.41800000000E+01 0.  1.
        -11    1    3    3    0    0 -0.28273846385E+02 -0.30802602056E+02  0.15846682266E+02  0.44713845973E+02  0.00000000000E+00 0.  1.
         11    1    3    3    0    0 -0.10813789569E+03 -0.18238680032E+02  0.23350005704E+03  0.25797040639E+03  0.00000000000E+00 0. -1.
</event>
<event>
 7    1  0.6610867E-006  0.1790312E+03  0.7561462E-02  0.1168744E+00
         -1   -1    0    0    0  501 -0.00000000000E+00  0.00000000000E+00  0.67655677939E+03  0.67655677939E+03  0.00000000000E+00 0.  1.
          1   -1    0    0  501    0  0.00000000000E+00 -0.00000000000E+00 -0.10199894332E+03  0.10199894332E+03  0.00000000000E+00 0. -1.
         23    2    1    2    0    0 -0.13789436947E+03 -0.10372819511E+03  0.52424000927E+03  0.55957110301E+03  0.92292125413E+02 0.  0.
          5    1    1    2  502    0  0.73680566010E+02  0.18751976236E+02  0.77847270133E+02  0.10889505171E+03  0.41800000000E+01 0. -1.
         -5    1    1    2    0  502  0.64213803455E+02  0.84976218872E+02 -0.27529443334E+02  0.11008956798E+03  0.41800000000E+01 0. -1.
        -11    1    3    3    0    0 -0.58957352859E+02 -0.25640985040E+02  0.32668342880E+03  0.33294968422E+03  0.00000000000E+00 0.  1.
         11    1    3    3    0    0 -0.78937016606E+02 -0.78087210068E+02  0.19755658047E+03  0.22662141879E+03  0.00000000000E+00 0. -1.
</event>
<event>
 7    1  0.6610867E-006  0.9519078E+02  0.7561462E-02  0.1290747E+00
          1   -1    0    0  501    0  0.00000000000E+00  0.00000000000E+00  0.42492859408E+03  0.42492859408E+03  0.00000000000E+00 0. -1.
         -1   -1    0    0    0  501 -0.00000000000E+00 -0.00000000000E+00 -0.32352797621E+02  0.32352797621E+02  0.00000000000E+00 0.  1.
         23    2    1    2    0    0 -0.54465317818E+02 -0.46861081014E+01  0.15782551162E+03  0.19008508305E+03  0.90746990179E+02 0.  0.
          5    1    1    2  502    0  0.15769959145E+02 -0.32686963097E+02  0.19933126192E+03  0.20265131025E+03  0.41800000000E+01 0. -1.
         -5    1    1    2    0  502  0.38695358673E+02  0.37373071199E+02  0.35419022920E+02  0.64544998399E+02  0.41800000000E+01 0.  1.
        -11    1    3    3    0    0  0.77788262970E+01 -0.31258408094E+02  0.83834960437E+02  0.89810349106E+02  0.00000000000E+00 0. -1.
         11    1    3    3    0    0 -0.62244144115E+02  0.26572299992E+02  0.73990551184E+02  0.10027473395E+03  0.00000000000E+00 0.  1.
</event>
<event>
 7    1  0.6610867E-006  0.1530685E+03  0.7561462E-02  0.1196752E+00
         -2   -1    0    0    0  501 -0.00000000000E+00  0.00000000000E+00  0.89776458374E+02  0.89776458374E+02  0.00000000000E+00 0.  1.
          2   -1    0    0  501    0  0.00000000000E+00 -0.00000000000E+00 -0.32474396719E+03  0.32474396719E+03  0.00000000000E+00 0. -1.
         23    2    1    2    0    0  0.81959934749E+02 -0.75940756417E+02 -0.26625989322E+02  0.14706070836E+03  0.91833976543E+02 0.  0.
          5    1    1    2  502    0 -0.69980178888E+02  0.10963481891E+03 -0.17723779652E+03  0.21988116762E+03  0.41800000000E+01 0. -1.
         -5    1    1    2    0  502 -0.11979755862E+02 -0.33694062497E+02 -0.31103722973E+02  0.47578549587E+02  0.41800000000E+01 0. -1.
        -11    1    3    3    0    0  0.15096873971E+02 -0.71405410085E+02 -0.32284344496E+02  0.79805558031E+02  0.00000000000E+00 0.  1.
         11    1    3    3    0    0  0.66863060778E+02 -0.45353463319E+01  0.56583551736E+01  0.67255150332E+02  0.00000000000E+00 0. -1.
</event>
<event>
 7    1  0.6610867E-006  0.9020090E+02  0.7561462E-02  0.1302366E+00
          1   -1    0    0  501    0  0.00000000000E+00  0.00000000000E+00  0.12284132350E+03  0.12284132350E+03  0.00000000000E+00 0. -1.
         -1   -1    0    0    0  501 -0.00000000000E+00 -0.00000000000E+00 -0.16297900241E+03  0.16297900241E+03  0.00000000000E+00 0.  1.
         23    2    1    2    0    0  0.53453814542E+02 -0.36029395417E+02 -0.81655907025E+02  0.13910341427E+03  0.92339834782E+02 0.  0.
          5    1    1    2  502    0 -0.32251379422E+02  0.41504054577E+02 -0.37442439688E+02  0.64669519179E+02  0.41800000000E+01 0. -1.
         -5    1    1    2    0  502 -0.21202435120E+02 -0.54746591599E+01  0.78960667812E+02  0.82047392458E+02  0.41800000000E+01 0. -1.
        -11    1    3    3    0    0  0.12031879334E+01  0.25006088708E+02 -0.43427007352E+02  0.50126411214E+02  0.00000000000E+00 0.  1.
         11    1    3    3    0    0  0.52250626609E+02 -0.61035484125E+02 -0.38228899673E+02  0.88977003060E+02  0.00000000000E+00 0. -1.
</event>
<event>
 7    1  0.6610867E-006  0.7362332E+02  0.7561462E-02  0.1348188E+00
          1   -1    0    0  501    0  0.00000000000E+00  0.00000000000E+00  0.31262667384E+03  0.31262667384E+03  0.00000000000E+00 0. -1.
         -1   -1    0    0    0  501 -0.00000000000E+00 -0.00000000000E+00 -0.44100739177E+02  0.44100739177E+02  0.00000000000E+00 0.  1.
         23    2    1    2    0    0  0.27345063405E+02 -0.31748384883E+02  0.91380649014E+02  0.13585710693E+03  0.91383904790E+02 0.  0.
          5    1    1    2  502    0 -0.39089370154E+02 -0.11639890261E+02  0.17035463977E+03  0.17521883915E+03  0.41800000000E+01 0.  1.
         -5    1    1    2    0  502  0.11744306749E+02  0.43388275144E+02  0.67906458772E+01  0.45651466926E+02  0.41800000000E+01 0.  1.
        -11    1    3    3    0    0  0.44214413947E+00 -0.34095802343E+02  0.10145660768E+03  0.10703346426E+03  0.00000000000E+00 0. -1.
         11    1    3    3    0    0  0.26902919265E+02  0.23474174596E+01 -0.10075958671E+02  0.28823642672E+02  0.00000000000E+00 0.  1.
</event>
<event>
 7    1  0.6610867E-006  0.1066488E+03  0.7561462E-02  0.1266905E+00
         -2   -1    0    0    0  501 -0.00000000000E+00  0.00000000000E+00  0.31259134731E+03  0.31259134731E+03  0.00000000000E+00 0.  1.
          2   -1    0    0  501    0  0.00000000000E+00 -0.00000000000E+00 -0.54087292707E+02  0.54087292707E+02  0.00000000000E+00 0. -1.
         23    2    1    2    0    0  0.15520213410E+02 -0.41722791703E+02  0.19473054044E+03  0.21939330511E+03  0.90729105426E+02 0.  0.
          5    1    1    2  502    0 -0.53958162918E+02 -0.56831170842E+01 -0.57025802897E+01  0.54715381633E+02  0.41800000000E+01 0. -1.
         -5    1    1    2    0  502  0.38437949508E+02  0.47405908787E+02  0.69476094448E+02  0.92569953279E+02  0.41800000000E+01 0. -1.
        -11    1    3    3    0    0  0.50078356600E+02 -0.10575468947E+02  0.73703258902E+02  0.89732116413E+02  0.00000000000E+00 0.  1.
         11    1    3    3    0    0 -0.34558143190E+02 -0.31147322756E+02  0.12102728154E+03  0.12966118869E+03  0.00000000000E+00 0. -1.
</event>
<event>
 7    1  0.6610867E-006  0.1377559E+03  0.7561462E-02  0.1216381E+00
         -3   -1    0    0    0  501 -0.00000000000E+00  0.00000000000E+00  0.25469778794E+03  0.25469778794E+03  0.00000000000E+00 0.  1.
          3   -1    0    0  501    0  0.00000000000E+00 -0.00000000000E+00 -0.11337277796E+03  0.11337277796E+03  0.00000000000E+00 0. -1.
         23    2    1    2    0    0 -0.59720240059E+02  0.84899498781E+02  0.15499189242E+03  0.21256667845E+03  0.10191993968E+03 0.  0.
          5    1    1    2  502    0  0.78385370094E+02 -0.76311996596E+02  0.24291499516E+02  0.11213980746E+03  0.41800000000E+01 0. -1.
         -5    1    1    2    0  502 -0.18665130035E+02 -0.85875021853E+01 -0.37958381951E+02  0.43364079989E+02  0.41800000000E+01 0.  1.
        -11    1    3    3    0    0  0.16384789577E+02 -0.13107006302E+02  0.17138442463E+02  0.27092086552E+02  0.00000000000E+00 0. -1.
         11    1    3    3    0    0 -0.76105029636E+02  0.98006505083E+02  0.13785344996E+03  0.18547459190E+03  0.00000000000E+00 0.  1.
</event>
<event>
 7    1  0.6610867E-006  0.9318303E+02  0.7561462E-02  0.1295322E+00
         -2   -1    0    0    0  501 -0.00000000000E+00  0.00000000000E+00  0.35273117803E+02  0.35273117803E+02  0.00000000000E+00 0.  1.
          2   -1    0    0  501    0  0.00000000000E+00 -0.00000000000E+00 -0.45284018971E+03  0.45284018971E+03  0.00000000000E+00 0. -1.
         23    2    1    2    0    0 -0.29040587894E+02  0.19843075221E+02 -0.81128605651E+02  0.12745258998E+03  0.91788935374E+02 0.  0.
          5    1    1    2  502    0  0.77260633368E+02 -0.13647940969E+02 -0.24079874105E+03  0.25329227752E+03  0.41800000000E+01 0.  1.
         -5    1    1    2    0  502 -0.48220045473E+02 -0.61951342522E+01 -0.95639725200E+02  0.10736844001E+03  0.41800000000E+01 0.  1.
        -11    1    3    3    0    0 -0.57768701151E+01  0.32163013666E+02 -0.93000792930E+02  0.98574738965E+02  0.00000000000E+00 0. -1.
         11    1    3    3    0    0 -0.23263717779E+02 -0.12319938444E+02  0.11872187279E+02  0.28877851010E+02  0.00000000000E+00 0.  1.
</event>
<event>
 7    1  0.6610867E-006  0.9997427E+02  0.7561462E-02  0.1280350E+00
          1   -1    0    0  501    0  0.00000000000E+00  0.00000000000E+00  0.44905104283E+03  0.44905104283E+03  0.00000000000E+00 0. -1.
         -1   -1    0    0    0  501 -0.00000000000E+00 -0.00000000000E+00 -0.26178357119E+02  0.26178357119E+02  0.00000000000E+00 0.  1.
         23    2    1    2    0    0  0.11631958653E+02 -0.93763668339E+01  0.17434792264E+03  0.19659908974E+03  0.89614648594E+02 0.  0.
          5    1    1    2  502    0 -0.12207947453E+02 -0.49963455714E+02  0.18296583542E+03  0.19010352501E+03  0.41800000000E+01 0.  1.
         -5    1    1    2    0  502  0.57598879979E+00  0.59339822548E+02  0.65558927650E+02  0.88526785199E+02  0.41800000000E+01 0.  1.
        -11    1    3    3    0    0  0.39293158631E+02  0.23583371705E+02  0.69320348543E+02  0.83098967854E+02  0.00000000000E+00 0.  1.
         11    1    3    3    0    0 -0.27661199978E+02 -0.32959738539E+02  0.10502757409E+03  0.11350012189E+03  0.00000000000E+00 0. -1.
</event>
<event>
 7    1  0.6610867E-006  0.9982445E+02  0.7561462E-02  0.1280666E+00
         -1   -1    0    0    0  501 -0.00000000000E+00  0.00000000000E+00  0.81271658948E+02  0.81271658948E+02  0.00000000000E+00 0.  1.
          1   -1    0    0  501    0  0.00000000000E+00 -0.00000000000E+00 -0.15925611802E+03  0.15925611802E+03  0.00000000000E+00 0. -1.
         23    2    1    2    0    0  0.21728316238E+02 -0.32217356021E+02 -0.11901469402E+02  0.93813817140E+02  0.84553589852E+02 0.  0.
          5    1    1    2  502    0 -0.21196828699E+02 -0.41372442817E+02  0.15177221451E+01  0.46698612956E+02  0.41800000000E+01 0. -1.
         -5    1    1    2    0  502 -0.53148753928E+00  0.73589798838E+02 -0.67600711817E+02  0.10001534687E+03  0.41800000000E+01 0. -1.
        -11    1    3    3    0    0  0.30208490167E+02  0.13269209797E+02 -0.29549479567E+02  0.44292172553E+02  0.00000000000E+00 0. -1.
         11    1    3    3    0    0 -0.84801739284E+01 -0.45486565818E+02  0.17648010165E+02  0.49521644587E+02  0.00000000000E+00 0.  1.
</event>
<event>
 7    1  0.6610867E-006  0.1194623E+03  0.7561462E-02  0.1243987E+00
         -1   -1    0    0    0  501 -0.00000000000E+00  0.00000000000E+00  0.10990098254E+03  0.10990098254E+03  0.00000000000E+00 0.  1.
          1   -1    0    0  501    0  0.00000000000E+00 -0.00000000000E+00 -0.14855438759E+03  0.14855438759E+03  0.00000000000E+00 0. -1.
         23    2    1    2    0    0  0.46349116179E+02 -0.48825655074E+02 -0.85067519786E+01  0.11323914433E+03  0.90656239808E+02 0.  0.
          5    1    1    2  502    0 -0.12965412535E+02 -0.37750108985E+02  0.13829086780E+02  0.42448659481E+02  0.41800000000E+01 0.  1.
         -5    1    1    2    0  502 -0.33383703644E+02  0.86575764059E+02 -0.43975739848E+02  0.10276756632E+03  0.41800000000E+01 0.  1.
        -11    1    3    3    0    0 -0.21206210380E+02 -0.28181871766E+02  0.15647467629E+02  0.38584511117E+02  0.00000000000E+00 0.  1.
         11    1    3    3    0    0  0.67555326559E+02 -0.20643783308E+02 -0.24154219607E+02  0.74654633216E+02  0.00000000000E+00 0. -1.
</event>
<event>
 7    1  0.6610867E-006  0.6258892E+02  0.7561462E-02  0.1387278E+00
          1   -1    0    0  501    0  0.00000000000E+00  0.00000000000E+00  0.33719677392E+03  0.33719677392E+03  0.00000000000E+00 0. -1.
         -1   -1    0    0    0  501 -0.00000000000E+00 -0.00000000000E+00 -0.39919950294E+02  0.39919950294E+02  0.00000000000E+00 0.  1.
         23    2    1    2    0    0 -0.67679484827E+01  0.12943381761E+02  0.22077551504E+02  0.74469893675E+02  0.69606109829E+02 0.  0.
          5    1    1    2  502    0 -0.72174971937E+01 -0.36636545805E+02  0.14199220597E+02  0.40167387515E+02  0.41800000000E+01 0.  1.
         -5    1    1    2    0  502  0.13985445676E+02  0.23693164044E+02  0.26100005152E+03  0.26247944302E+03  0.41800000000E+01 0.  1.
        -11    1    3    3    0    0  0.18180775487E+02  0.25914595016E+02  0.31651767688E+02  0.44765402153E+02  0.00000000000E+00 0.  1.
         11    1    3    3    0    0 -0.24948723970E+02 -0.12971213256E+02 -0.95742161840E+01  0.29704491522E+02  0.00000000000E+00 0. -1.
</event>
<event>
 7    1  0.6610867E-006  0.8957270E+02  0.7561462E-02  0.1303890E+00
          2   -1    0    0  501    0  0.00000000000E+00  0.00000000000E+00  0.49475619552E+03  0.49475619552E+03  0.00000000000E+00 0. -1.
         -2   -1    0    0    0  501 -0.00000000000E+00 -0.00000000000E+00 -0.41648999541E+02  0.41648999541E+02  0.00000000000E+00 0.  1.
         23    2    1    2    0    0 -0.52579756249E+02  0.39573619630E+02  0.81113312825E+02  0.13844268174E+03  0.90864208977E+02 0.  0.
          5    1    1    2  502    0 -0.33838440363E+01  0.94379694820E+00 -0.91115558602E+01  0.10622335117E+02  0.41800000000E+01 0. -1.
         -5    1    1    2    0  502  0.55963600285E+02 -0.40517416579E+02  0.38110543901E+03  0.38734017820E+03  0.41800000000E+01 0. -1.
        -11    1    3    3    0    0 -0.44013513093E+02  0.64513767424E+02  0.35571067617E+02  0.85816760446E+02  0.00000000000E+00 0.  1.
         11    1    3    3    0    0 -0.85662431557E+01 -0.24940147794E+02  0.45542245208E+02  0.52625921297E+02  0.00000000000E+00 0. -1.
</event>
<event>
 7    1  0.6610867E-006  0.7697358E+02  0.7561462E-02  0.1337866E+00
          4   -1    0    0  501    0  0.00000000000E+00  0.00000000000E+00  0.60726741785E+02  0.60726741785E+02  0.00000000000E+00 0.  1.
         -4   -1    0    0    0  501 -0.00000000000E+00 -0.00000000000E+00 -0.20999560351E+03  0.20999560351E+03  0.00000000000E+00 0. -1.
         23    2    1    2    0    0 -0.10218840667E+02 -0.12376813547E+02 -0.10016653953E+03  0.13538406577E+03  0.89654332890E+02 0.  0.
          5    1    1    2  502    0  0.33651392996E+02 -0.43203496967E+02 -0.50854062546E+02  0.74850293775E+02  0.41800000000E+01 0.  1.
         -5    1    1    2    0  502 -0.23432552329E+02  0.55580310513E+02  0.17517403495E+01  0.60487985746E+02  0.41800000000E+01 0.  1.
        -11    1    3    3    0    0 -0.10047230936E+02 -0.24478169001E+02 -0.11398451837E+03  0.11701537521E+03  0.00000000000E+00 0. -1.
         11    1    3    3    0    0 -0.17160973136E+00  0.12101355454E+02  0.13817978843E+02  0.18368690564E+02  0.00000000000E+00 0.  1.
</event>
<event>
 7    1  0.6610867E-006  0.1265618E+03  0.7561462E-02  0.1232648E+00
         -1   -1    0    0    0  501 -0.00000000000E+00  0.00000000000E+00  0.52382671607E+02  0.52382671607E+02  0.00000000000E+00 0.  1.
          1   -1    0    0  501    0  0.00000000000E+00 -0.00000000000E+00 -0.46137658065E+03  0.46137658065E+03  0.00000000000E+00 0. -1.
         23    2    1    2    0    0 -0.10988569679E+03  0.79556862055E+01 -0.16686315323E+03  0.21979936794E+03  0.91270427502E+02 0.  0.
          5    1    1    2  502    0  0.84233826568E+02 -0.41142802539E+02 -0.70884003023E+02  0.11760136914E+03  0.41800000000E+01 0.  1.
         -5    1    1    2    0  502  0.25651870222E+02  0.33187116333E+02 -0.17124675279E+03  0.17635851518E+03  0.41800000000E+01 0.  1.
        -11    1    3    3    0    0 -0.81016374217E+02  0.23485091521E+02 -0.16691499787E+03  0.18701823155E+03  0.00000000000E+00 0. -1.
         11    1    3    3    0    0 -0.28869322573E+02 -0.15529405315E+02  0.51844640628E-01  0.32781136391E+02  0.00000000000E+00 0.  1.
</event>
<event>
 7    1  0.6610867E-006  0.1093890E+03  0.7561462E-02  0.1261706E+00
         -1   -1    0    0    0  501 -0.00000000000E+00  0.00000000000E+00  0.25609689766E+02  0.25609689766E+02  0.00000000000E+00 0.  1.
          1   -1    0    0  501    0  0.00000000000E+00 -0.00000000000E+00 -0.51369969962E+03  0.51369969962E+03  0.00000000000E+00 0. -1.
         23    2    1    2    0    0 -0.42937463286E+02 -0.70554482351E+01 -0.18446104789E+03  0.21085554282E+03  0.92416322391E+02 0.  0.
          5    1    1    2  502    0  0.27507978598E+02 -0.54445709357E+02 -0.13317211874E+03  0.14653774177E+03  0.41800000000E+01 0. -1.
         -5    1    1    2    0  502  0.15429484688E+02  0.61501157592E+02 -0.17045684323E+03  0.18191610480E+03  0.41800000000E+01 0.  1.
        -11    1    3    3    0    0 -0.51469934544E+02  0.27597673277E+02 -0.71107133299E+02  0.92016357993E+02  0.00000000000E+00 0.  1.
         11    1    3    3    0    0  0.85324712575E+01 -0.34653121512E+02 -0.11335391459E+03  0.11883918483E+03  0.00000000000E+00 0. -1.
</event>
<event>
 7    1  0.6610867E-006  0.1678757E+03  0.7561462E-02  0.1180081E+00
          1   -1    0    0  501    0  0.00000000000E+00  0.00000000000E+00  0.10628124244E+04  0.10628124244E+04  0.00000000000E+00 0. -1.
         -1   -1    0    0    0  501 -0.00000000000E+00 -0.00000000000E+00 -0.27777136693E+02  0.27777136693E+02  0.00000000000E+00 0.  1.
         23    2    1    2    0    0  0.33739266956E+02 -0.12764998496E+03  0.53208628498E+03  0.55576490158E+03  0.91246667713E+02 0.  0.
          5    1    1    2  502    0 -0.65651688392E+02  0.13374427458E+03  0.40633708093E+03  0.43281054852E+03  0.41800000000E+01 0.  1.
         -5    1    1    2    0  502  0.31912421436E+02 -0.60942896164E+01  0.96611921755E+02  0.10201411095E+03  0.41800000000E+01 0.  1.
        -11    1    3    3    0    0  0.51483864083E+02 -0.41896673696E+02  0.15446782338E+03  0.16812563156E+03  0.00000000000E+00 0.  1.
         11    1    3    3    0    0 -0.17744597127E+02 -0.85753311268E+02  0.37761846160E+03  0.38763927002E+03  0.00000000000E+00 0. -1.
</event>
<event>
 7    1  0.6610867E-006  0.1616708E+03  0.7561462E-02  0.1186823E+00
         -1   -1    0    0    0  501 -0.00000000000E+00  0.00000000000E+00  0.34068786267E+02  0.34068786267E+02  0.00000000000E+00 0.  1.
          1   -1    0    0  501    0  0.00000000000E+00 -0.00000000000E+00 -0.78702076728E+03  0.78702076728E+03  0.00000000000E+00 0. -1.
         23    2    1    2    0    0  0.58670035645E+02  0.10291171503E+03 -0.41563230854E+03  0.44232205782E+03  0.94157276730E+02 0.  0.
          5    1    1    2  502    0 -0.34571181377E+02 -0.13061664773E+03 -0.27109890767E+03  0.30293227855E+03  0.41800000000E+01 0.  1.
         -5    1    1    2    0  502 -0.24098854267E+02  0.27704932704E+02 -0.66220764801E+02  0.75835217175E+02  0.41800000000E+01 0.  1.
        -11    1    3    3    0    0  0.62133605227E+02  0.15913670262E+02 -0.16776978148E+03  0.17961216378E+03  0.00000000000E+00 0.  1.
         11    1    3    3    0    0 -0.34635695825E+01  0.86998044765E+02 -0.24786252705E+03  0.26270989404E+03  0.00000000000E+00 0. -1.
</event>
<event>
 7    1  0.6610867E-006  0.6496669E+02  0.7561462E-02  0.1378097E+00
         -2   -1    0    0    0  501 -0.00000000000E+00  0.00000000000E+00  0.22810528839E+02  0.22810528839E+02  0.00000000000E+00 0.  1.
          2   -1    0    0  501    0  0.00000000000E+00 -0.00000000000E+00 -0.61524525689E+03  0.61524525689E+03  0.00000000000E+00 0. -1.
         23    2    1    2    0    0  0.15126495108E+02 -0.92064679784E+00 -0.13491884649E+03  0.16350507522E+03  0.91110680165E+02 0.  0.
          5    1    1    2  502    0  0.73868112384E+01  0.10241572858E+02  0.27821452103E+01  0.13589243056E+02  0.41800000000E+01 0. -1.
         -5    1    1    2    0  502 -0.22513306347E+02 -0.93209260598E+01 -0.46029802678E+03  0.46096146746E+03  0.41800000000E+01 0. -1.
        -11    1    3    3    0    0  0.98814791051E+01  0.44806171299E+02 -0.59268824183E+02  0.74953519836E+02  0.00000000000E+00 0. -1.
         11    1    3    3    0    0  0.52450160033E+01 -0.45726818097E+02 -0.75650022305E+02  0.88551555384E+02  0.00000000000E+00 0.  1.
</event>
<event>
 7    1  0.6610867E-006  0.1241133E+03  0.7561462E-02  0.1236462E+00
          2   -1    0    0  501    0  0.00000000000E+00  0.00000000000E+00  0.84522956516E+03  0.84522956516E+03  0.00000000000E+00 0. -1.
         -2   -1    0    0    0  501 -0.00000000000E+00 -0.00000000000E+00 -0.51311208226E+02  0.51311208226E+02  0.00000000000E+00 0.  1.
         23    2    1    2    0    0  0.14998664805E+02 -0.10610011433E+03  0.75809682331E+02  0.15978903891E+03  0.91122087407E+02 0.  0.
          5    1    1    2  502    0 -0.11217329000E+02  0.84628464068E+02  0.70659275952E+03  0.71174335656E+03  0.41800000000E+01 0.  1.
         -5    1    1    2    0  502 -0.37813358048E+01  0.21471650266E+02  0.11515915079E+02  0.25008377911E+02  0.41800000000E+01 0.  1.
        -11    1    3    3    0    0  0.50333096870E+02 -0.86688177640E+02  0.56821802369E+02  0.11522576972E+03  0.00000000000E+00 0. -1.
         11    1    3    3    0    0 -0.35334432065E+02 -0.19411936694E+02  0.18987879962E+02  0.44563269191E+02  0.00000000000E+00 0.  1.
</event>
<event>
 7    1  0.6610867E-006  0.1123795E+03  0.7561462E-02  0.1256226E+00
          1   -1    0    0  501    0  0.00000000000E+00  0.00000000000E+00  0.12567624231E+03  0.12567624231E+03  0.00000000000E+00 0. -1.
         -1   -1    0    0    0  501 -0.00000000000E+00 -0.00000000000E+00 -0.15593535523E+03  0.15593535523E+03  0.00000000000E+00 0.  1.
         23    2    1    2    0    0 -0.75033445551E+02  0.40657924721E+02 -0.36495801955E+02  0.13005361057E+03  0.91098371374E+02 0.  0.
          5    1    1    2  502    0 -0.46102239862E+01  0.99442161827E+01  0.47177965592E+02  0.48614549654E+02  0.41800000000E+01 0.  1.
         -5    1    1    2    0  502  0.79643669537E+02 -0.50602140904E+02 -0.40941276563E+02  0.10294343732E+03  0.41800000000E+01 0.  1.
        -11    1    3    3    0    0  0.16982173640E+02 -0.20998431954E+01  0.84446192820E+01  0.19081801744E+02  0.00000000000E+00 0. -1.
         11    1    3    3    0    0 -0.92015619190E+02  0.42757767916E+02 -0.44940421237E+02  0.11097180882E+03  0.00000000000E+00 0.  1.
</event>
<event>
 7    1  0.6610867E-006  0.1080731E+03  0.7561462E-02  0.1264180E+00
         -2   -1    0    0    0  501 -0.00000000000E+00  0.00000000000E+00  0.45613065560E+02  0.45613065560E+02  0.00000000000E+00 0.  1.
          2   -1    0    0  501    0  0.00000000000E+00 -0.00000000000E+00 -0.31205317982E+03  0.31205317982E+03  0.00000000000E+00 0. -1.
         23    2    1    2    0    0 -0.13362677347E+02  0.35272717180E+02 -0.78575876776E+02  0.12883593562E+03  0.94877838151E+02 0.  0.
          5    1    1    2  502    0 -0.35049424867E+01  0.40718611523E+02 -0.24532444776E+02  0.47849798253E+02  0.41800000000E+01 0.  1.
         -5    1    1    2    0  502  0.16867619834E+02 -0.75991328703E+02 -0.16333179270E+03  0.18098051151E+03  0.41800000000E+01 0.  1.
        -11    1    3    3    0    0 -0.26175672906E+01  0.65231156922E+02 -0.70326427292E+02  0.95957083468E+02  0.00000000000E+00 0. -1.
         11    1    3    3    0    0 -0.10745110057E+02 -0.29958439742E+02 -0.82494494838E+01  0.32878852150E+02  0.00000000000E+00 0.  1.
</event>
<event>
 7    1  0.6610867E-006  0.9191549E+02  0.7561462E-02  0.1298278E+00
         -4   -1    0    0    0  501 -0.00000000000E+00  0.00000000000E+00  0.53222689412E+03  0.53222689412E+03  0.00000000000E+00 0.  1.
          4   -1    0    0  501    0  0.00000000000E+00 -0.00000000000E+00 -0.21434162833E+02  0.21434162833E+02  0.00000000000E+00 0. -1.
         23    2    1    2    0    0 -0.19797627754E+02  0.28376438963E+02  0.21391606934E+03  0.22965556722E+03  0.76055417164E+02 0.  0.
          5    1    1    2  502    0  0.38432101647E+02 -0.60123258613E+02  0.26702667877E+03  0.27642820449E+03  0.41800000000E+01 0. -1.
         -5    1    1    2    0  502 -0.18634473893E+02  0.31746819650E+02  0.29849983170E+02  0.47577285236E+02  0.41800000000E+01 0. -1.
        -11    1    3    3    0    0 -0.44309478188E+02  0.24039877569E+02  0.18377890950E+03  0.19056739792E+03  0.00000000000E+00 0.  1.
         11    1    3    3    0    0  0.24511850434E+02  0.43365613939E+01  0.30137159841E+02  0.39088169306E+02  0.00000000000E+00 0. -1.
</event>
<event>
 7    1  0.6610867E-006  0.1545233E+03  0.7561462E-02  0.1195022E+00
          1   -1    0    0  501    0  0.00000000000E+00  0.00000000000E+00  0.18363884439E+04  0.18363884439E+04  0.00000000000E+00 0. -1.
         -1   -1    0    0    0  501 -0.00000000000E+00 -0.00000000000E+00 -0.24787419248E+02  0.24787419248E+02  0.00000000000E+00 0.  1.
         23    2    1    2    0    0 -0.78759126852E+02  0.12308490561E+03  0.40478419825E+03  0.43994972171E+03  0.91392649780E+02 0.  0.
          5    1    1    2  502    0  0.61041710463E+02 -0.10338752514E+03  0.13721310037E+04  0.13773801344E+04  0.41800000000E+01 0. -1.
         -5    1    1    2    0  502  0.17717416389E+02 -0.19697380474E+02  0.34685822700E+02  0.43846007086E+02  0.41800000000E+01 0.  1.
        -11    1    3    3    0    0 -0.91862988100E+02  0.11252642207E+03  0.39409349800E+03  0.42001272530E+03  0.00000000000E+00 0.  1.
         11    1    3    3    0    0  0.13103861248E+02  0.10558483537E+02  0.10690700244E+02  0.19936996411E+02  0.00000000000E+00 0. -1.
</event>
<event>
 7    1  0.6610867E-006  0.1035086E+03  0.7561462E-02  0.1273086E+00
         -2   -1    0    0    0  501 -0.00000000000E+00  0.00000000000E+00  0.16099388844E+02  0.16099388844E+02  0.00000000000E+00 0.  1.
          2   -1    0    0  501    0  0.00000000000E+00 -0.00000000000E+00 -0.91735381610E+03  0.91735381610E+03  0.00000000000E+00 0. -1.
         23    2    1    2    0    0 -0.15868564360E+01  0.69977543544E+01 -0.22888347351E+03  0.24950696266E+03  0.99068629201E+02 0.  0.
          5    1    1    2  502    0 -0.54265060104E+02  0.53370853218E+01 -0.17671309305E+03  0.18498154200E+03  0.41800000000E+01 0. -1.
         -5    1    1    2    0  502  0.55851916540E+02 -0.12334839676E+02 -0.49565786070E+03  0.49896470028E+03  0.41800000000E+01 0. -1.
        -11    1    3    3    0    0  0.45351273973E+02  0.14133371792E+02 -0.15097676007E+03  0.15827341005E+03  0.00000000000E+00 0.  1.
         11    1    3    3    0    0 -0.46938130409E+02 -0.71356174371E+01 -0.77906713440E+02  0.91233552608E+02  0.00000000000E+00 0. -1.
</event>
<event>
 7    1  0.6610867E-006  0.1121058E+03  0.7561462E-02  0.1256719E+00
          2   -1    0    0  501    0  0.00000000000E+00  0.00000000000E+00  0.64001995289E+02  0.64001995289E+02  0.00000000000E+00 0. -1.
         -2   -1    0    0    0  501 -0.00000000000E+00 -0.00000000000E+00 -0.23144936323E+03  0.23144936323E+03  0.00000000000E+00 0.  1.
         23    2    1    2    0    0  0.21976502660E+02  0.50657953112E+02 -0.83399323723E+02  0.13494982810E+03  0.90591467720E+02 0.  0.
          5    1    1    2  502    0 -0.71461800083E+02 -0.95533829649E+01 -0.46599054524E+02  0.85947660117E+02  0.41800000000E+01 0.  1.
         -5    1    1    2    0  502  0.49485297422E+02 -0.41104570147E+02 -0.37448989691E+02  0.74553870301E+02  0.41800000000E+01 0.  1.
        -11    1    3    3    0    0 -0.15466233351E+02 -0.83999476553E+01 -0.57904383751E+02  0.60520088832E+02  0.00000000000E+00 0.  1.
         11    1    3    3    0    0  0.37442736012E+02  0.59057900767E+02 -0.25494939972E+02  0.74429739266E+02  0.00000000000E+00 0. -1.
</event>
<event>
 7    1  0.6610867E-006  0.1032912E+03  0.7561462E-02  0.1273523E+00
          2   -1    0    0  501    0  0.00000000000E+00  0.00000000000E+00  0.15206571927E+03  0.15206571927E+03  0.00000000000E+00 0. -1.
         -2   -1    0    0    0  501 -0.00000000000E+00 -0.00000000000E+00 -0.90637722742E+02  0.90637722742E+02  0.00000000000E+00 0.  1.
         23    2    1    2    0    0 -0.48835496709E+01  0.45073589542E+02  0.13708273183E+02  0.10134950893E+03  0.89600941261E+02 0.  0.
          5    1    1    2  502    0  0.63753850739E+02 -0.21563344154E+02  0.37036318289E+02  0.76933039506E+02  0.41800000000E+01 0.  1.
         -5    1    1    2    0  502 -0.58870301069E+02 -0.23510245388E+02  0.10683405059E+02  0.64420893581E+02  0.41800000000E+01 0.  1.
        -11    1    3    3    0    0 -0.31970971521E+02  0.33059196229E+02 -0.25200655474E+02  0.52441648636E+02  0.00000000000E+00 0.  1.
         11    1    3    3    0    0  0.27087421850E+02  0.12014393312E+02  0.38908928657E+02  0.48907860292E+02  0.00000000000E+00 0. -1.
</event>
<event>
 7    1  0.6610867E-006  0.9566295E+02  0.7561462E-02  0.1289690E+00
         -2   -1    0    0    0  501 -0.00000000000E+00  0.00000000000E+00  0.72213291049E+02  0.72213291049E+02  0.00000000000E+00 0.  1.
          2   -1    0    0  501    0  0.00000000000E+00 -0.00000000000E+00 -0.23818982153E+03  0.23818982153E+03  0.00000000000E+00 0. -1.
         23    2    1    2    0    0  0.47670675044E+02 -0.45121119233E+01 -0.80179890878E+01  0.10330232587E+03  0.91182399445E+02 0.  0.
          5    1    1    2  502    0 -0.65902247611E+01  0.61902925086E+02 -0.85699400134E+02  0.10600595634E+03  0.41800000000E+01 0. -1.
         -5    1    1    2    0  502 -0.41080450282E+02 -0.57390813163E+02 -0.72259141254E+02  0.10109483036E+03  0.41800000000E+01 0. -1.
        -11    1    3    3    0    0  0.15165119172E+02  0.14156585954E+02  0.38395694042E+02  0.43641941826E+02  0.00000000000E+00 0.  1.
         11    1    3    3    0    0  0.32505555871E+02 -0.18668697877E+02 -0.46413683129E+02  0.59660384046E+02  0.00000000000E+00 0. -1.
</event>
<event>
 7    1  0.6610867E-006  0.9748531E+02  0.7561462E-02  0.1285675E+00
         -1   -1    0    0    0  501 -0.00000000000E+00  0.00000000000E+00  0.41736651522E+02  0.41736651522E+02  0.00000000000E+00 0.  1.
          1   -1    0    0  501    0  0.00000000000E+00 -0.00000000000E+00 -0.30296706453E+03  0.30296706453E+03  0.00000000000E+00 0. -1.
         23    2    1    2    0    0 -0.60640382460E+01  0.25767397685E+02 -0.12860639422E+03  0.16048347885E+03  0.92274649854E+02 0.  0.
          5    1    1    2  502    0  0.54439209488E+02 -0.48440153435E+02 -0.63418332919E+02  0.96692467881E+02  0.41800000000E+01 0.  1.
         -5    1    1    2    0  502 -0.48375171242E+02  0.22672755751E+02 -0.69205685860E+02  0.87527769316E+02  0.41800000000E+01 0.  1.
        -11    1    3    3    0    0  0.10232862700E+02  0.43278153036E+02 -0.12911285411E+03  0.13655709101E+03  0.00000000000E+00 0. -1.
         11    1    3    3    0    0 -0.16296900946E+02 -0.17510755352E+02  0.50645988560E+00  0.23926387840E+02  0.00000000000E+00 0.  1.
</event>
<event>
 7    1  0.6610867E-006  0.1080380E+03  0.7561462E-02  0.1264247E+00
         -1   -1    0    0    0  501 -0.00000000000E+00  0.00000000000E+00  0.17446323514E+02  0.17446323514E+02  0.00000000000E+00 0.  1.
          1   -1    0    0  501    0  0.00000000000E+00 -0.00000000000E+00 -0.80894226255E+03  0.80894226255E+03  0.00000000000E+00 0. -1.
         23    2    1    2    0    0  0.35833350463E+02 -0.13138315104E+01 -0.32854715006E+03  0.34549680681E+03  0.10069289222E+03 0.  0.
          5    1    1    2  502    0 -0.18175619066E+02  0.54394751499E+02 -0.35094982882E+03  0.35562957816E+03  0.41800000000E+01 0. -1.
         -5    1    1    2    0  502 -0.17657731397E+02 -0.53080919989E+02 -0.11199896015E+03  0.12526220108E+03  0.41800000000E+01 0. -1.
        -11    1    3    3    0    0  0.17189770911E+01 -0.46125020305E+02 -0.10040919788E+03  0.11051008732E+03  0.00000000000E+00 0.  1.
         11    1    3    3    0    0  0.34114373371E+02  0.44811188794E+02 -0.22813795218E+03  0.23498671949E+03  0.00000000000E+00 0. -1.
</event>
<event>
 7    1  0.6610867E-006  0.1355937E+03  0.7561462E-02  0.1219384E+00
         -2   -1    0    0    0  501 -0.00000000000E+00  0.00000000000E+00  0.77821885968E+02  0.77821885968E+02  0.00000000000E+00 0.  1.
          2   -1    0    0  501    0  0.00000000000E+00 -0.00000000000E+00 -0.34040481002E+03  0.34040481002E+03  0.00000000000E+00 0. -1.
         23    2    1    2    0    0 -0.10041861605E+03 -0.41853051111E+02 -0.41992665420E+02  0.14822583897E+03  0.91498300821E+02 0.  0.
          5    1    1    2  502    0  0.11997228206E+03  0.43645130021E+02 -0.21334082450E+03  0.24865644097E+03  0.41800000000E+01 0. -1.
         -5    1    1    2    0  502 -0.19553666005E+02 -0.17920789105E+01 -0.72494341294E+01  0.21344416044E+02  0.41800000000E+01 0.  1.
        -11    1    3    3    0    0 -0.93336794393E+02 -0.55078833577E+02 -0.52102328402E+01  0.10850152820E+03  0.00000000000E+00 0.  1.
         11    1    3    3    0    0 -0.70818216588E+01  0.13225782466E+02 -0.36782432580E+02  0.39724310772E+02  0.00000000000E+00 0. -1.
</event>
<event>
 7    1  0.6610867E-006  0.1115871E+03  0.7561462E-02  0.1257659E+00
          2   -1    0    0  501    0  0.00000000000E+00  0.00000000000E+00  0.12999485439E+03  0.12999485439E+03  0.00000000000E+00 0. -1.
         -2   -1    0    0    0  501 -0.00000000000E+00 -0.00000000000E+00 -0.11731644417E+03  0.11731644417E+03  0.00000000000E+00 0.  1.
         23    2    1    2    0    0 -0.17858069867E+02 -0.48995194629E+02 -0.14883899642E+02  0.10902335930E+03  0.94578658522E+02 0.  0.
          5    1    1    2  502    0 -0.43792783630E+02  0.19906494485E+02  0.46892133424E+02  0.67308402133E+02  0.41800000000E+01 0.  1.
         -5    1    1    2    0  502  0.61650853496E+02  0.29088700144E+02 -0.19329823564E+02  0.70979537135E+02  0.41800000000E+01 0.  1.
        -11    1    3    3    0    0  0.37453436153E+02 -0.95392161158E+01  0.30044908733E+01  0.38765751497E+02  0.00000000000E+00 0. -1.
         11    1    3    3    0    0 -0.55311506019E+02 -0.39455978513E+02 -0.17888390515E+02  0.70257607800E+02  0.00000000000E+00 0.  1.
</event>
<event>
 7    1  0.6610867E-006  0.1274917E+03  0.7561462E-02  0.1231226E+00
          1   -1    0    0  501    0  0.00000000000E+00  0.00000000000E+00  0.24363491110E+03  0.24363491110E+03  0.00000000000E+00 0. -1.
         -1   -1    0    0    0  501 -0.00000000000E+00 -0.00000000000E+00 -0.15434246084E+03  0.15434246084E+03  0.00000000000E+00 0.  1.
         23    2    1    2    0    0 -0.71367706906E+02  0.52449896950E+02 -0.92680673900E+02  0.16005694284E+03  0.95834108530E+02 0.  0.
          5    1    1    2  502    0  0.92789094913E+02 -0.10876253621E+02  0.16165968338E+03  0.18676036694E+03  0.41800000000E+01 0.  1.
         -5    1    1    2    0  502 -0.21421388008E+02 -0.41573643329E+02  0.20313440784E+02  0.51160062161E+02  0.41800000000E+01 0.  1.
        -11    1    3    3    0    0  0.56089417119E+01  0.35175836077E+02  0.33486878347E+01  0.35777274645E+02  0.00000000000E+00 0. -1.
         11    1    3    3    0    0 -0.76976648618E+02  0.17274060873E+02 -0.96029361734E+02  0.12427966819E+03  0.00000000000E+00 0.  1.
</event>
<event>
 7    1  0.6610867E-006  0.1036156E+03  0.7561462E-02  0.1272871E+00
         -1   -1    0    0    0  501 -0.00000000000E+00  0.00000000000E+00  0.90273802623E+02  0.90273802623E+02  0.00000000000E+00 0.  1.
          1   -1    0    0  501    0  0.00000000000E+00 -0.00000000000E+00 -0.15534853213E+03  0.15534853213E+03  0.00000000000E+00 0. -1.
         23    2    1    2    0    0  0.13772848427E+02 -0.40736317479E+02 -0.13858510409E+02  0.10377681005E+03  0.93426062086E+02 0.  0.
          5    1    1    2  502    0  0.21412821077E+02 -0.22880749355E+02  0.22051649816E+02  0.38545885086E+02  0.41800000000E+01 0.  1.
         -5    1    1    2    0  502 -0.35185669504E+02  0.63617066834E+02 -0.73267868917E+02  0.10329963962E+03  0.41800000000E+01 0.  1.
        -11    1    3    3    0    0  0.49350361698E+02 -0.45223758433E+02 -0.74757500827E+01  0.67353792513E+02  0.00000000000E+00 0.  1.
         11    1    3    3    0    0 -0.35577513271E+02  0.44874409539E+01 -0.63827603267E+01  0.36423017533E+02  0.00000000000E+00 0. -1.
</event>
<event>
 7    1  0.6610867E-006  0.1528699E+03  0.7561462E-02  0.1196990E+00
          2   -1    0    0  501    0  0.00000000000E+00  0.00000000000E+00  0.79370315174E+02  0.79370315174E+02  0.00000000000E+00 0. -1.
         -2   -1    0    0    0  501 -0.00000000000E+00 -0.00000000000E+00 -0.35679550222E+03  0.35679550222E+03  0.00000000000E+00 0.  1.
         23    2    1    2    0    0  0.10094864513E+03  0.75841090533E+02 -0.10128830627E+03  0.18593939345E+03  0.91496650664E+02 0.  0.
          5    1    1    2  502    0 -0.69207580690E+02 -0.11055079421E+03 -0.12769965061E+03  0.18258105184E+03  0.41800000000E+01 0. -1.
         -5    1    1    2    0  502 -0.31741064439E+02  0.34709703676E+02 -0.48437230166E+02  0.67645372104E+02  0.41800000000E+01 0. -1.
        -11    1    3    3    0    0  0.29610622928E+02  0.34921017677E+02  0.10679164342E+02  0.47013944919E+02  0.00000000000E+00 0. -1.
         11    1    3    3    0    0  0.71338022201E+02  0.40920072856E+02 -0.11196747061E+03  0.13892544853E+03  0.00000000000E+00 0.  1.
</event>
<event>
 7    1  0.6610867E-006  0.1072561E+03  0.7561462E-02  0.1265737E+00
          3   -1    0    0  501    0  0.00000000000E+00  0.00000000000E+00  0.11542480604E+03  0.11542480604E+03  0.00000000000E+00 0. -1.
         -3   -1    0    0    0  501 -0.00000000000E+00 -0.00000000000E+00 -0.13899371338E+03  0.13899371338E+03  0.00000000000E+00 0.  1.
         23    2    1    2    0    0  0.21768059562E+02  0.44624337786E+02 -0.69596848097E+02  0.12452887716E+03  0.90545789752E+02 0.  0.
          5    1    1    2  502    0 -0.84786828489E+01 -0.76205544703E+02  0.59843751616E+01  0.77022452911E+02  0.41800000000E+01 0. -1.
         -5    1    1    2    0  502 -0.13289376713E+02  0.31581206917E+02  0.40043565592E+02  0.52867189344E+02  0.41800000000E+01 0.  1.
        -11    1    3    3    0    0  0.37145952306E+02 -0.16157766453E+02 -0.29399543038E+02  0.50052255896E+02  0.00000000000E+00 0.  1.
         11    1    3    3    0    0 -0.15377892744E+02  0.60782104239E+02 -0.40197305059E+02  0.74476621264E+02  0.00000000000E+00 0. -1.
</event>
<event>
 7    1  0.6610867E-006  0.8572036E+02  0.7561462E-02  0.1313559E+00
          2   -1    0    0  501    0  0.00000000000E+00  0.00000000000E+00  0.50697369905E+03  0.50697369905E+03  0.00000000000E+00 0. -1.
         -2   -1    0    0    0  501 -0.00000000000E+00 -0.00000000000E+00 -0.34824963926E+02  0.34824963926E+02  0.00000000000E+00 0.  1.
         23    2    1    2    0    0 -0.15234584447E+02 -0.59448924093E+02  0.12153990975E+03  0.16451725597E+03  0.92345604706E+02 0.  0.
          5    1    1    2  502    0  0.28879107496E+02  0.26014561127E+02  0.33573578491E+03  0.33800406789E+03  0.41800000000E+01 0.  1.
         -5    1    1    2    0  502 -0.13644523048E+02  0.33434362967E+02  0.14873040466E+02  0.39277339127E+02  0.41800000000E+01 0.  1.
        -11    1    3    3    0    0 -0.44158326175E+02 -0.24050165455E+02  0.21808610335E+02  0.54808609850E+02  0.00000000000E+00 0.  1.
         11    1    3    3    0    0  0.28923741728E+02 -0.35398758639E+02  0.99731299420E+02  0.10970864612E+03  0.00000000000E+00 0. -1.
</event>
<event>
 7    1  0.6610867E-006  0.1837338E+03  0.7561462E-02  0.1164238E+00
          1   -1    0    0  501    0  0.00000000000E+00  0.00000000000E+00  0.13306411102E+03  0.13306411102E+03  0.00000000000E+00 0. -1.
         -1   -1    0    0    0  501 -0.00000000000E+00 -0.00000000000E+00 -0.30095054630E+03  0.30095054630E+03  0.00000000000E+00 0.  1.
         23    2    1    2    0    0 -0.71301366682E+02  0.13640892059E+03 -0.15130427461E+03  0.23498457929E+03  0.92916578085E+02 0.  0.
          5    1    1    2  502    0 -0.21481404601E+02 -0.73180462362E+02  0.23216870997E+02  0.79833115398E+02  0.41800000000E+01 0.  1.
         -5    1    1    2    0  502  0.92782771283E+02 -0.63228458228E+02 -0.39799031664E+02  0.11919696262E+03  0.41800000000E+01 0.  1.
        -11    1    3    3    0    0 -0.71440521263E+02  0.39140236475E+02 -0.56335648150E+02  0.99042472920E+02  0.00000000000E+00 0. -1.
         11    1    3    3    0    0  0.13915458046E+00  0.97268684115E+02 -0.94968626462E+02  0.13594210637E+03  0.00000000000E+00 0.  1.
</event>
<event>
 7    1  0.6610867E-006  0.1065552E+03  0.7561462E-02  0.1267085E+00
         -2   -1    0    0    0  501 -0.00000000000E+00  0.00000000000E+00  0.53560676825E+02  0.53560676825E+02  0.00000000000E+00 0.  1.
          2   -1    0    0  501    0  0.00000000000E+00 -0.00000000000E+00 -0.39295017903E+03  0.39295017903E+03  0.00000000000E+00 0. -1.
         23    2    1    2    0    0  0.30357325055E+02  0.86011219552E+02 -0.10965204752E+03  0.16947994429E+03  0.91544431381E+02 0.  0.
          5    1    1    2  502    0  0.13716348460E+02 -0.12629179676E+01  0.10924472177E+02  0.18070685355E+02  0.41800000000E+01 0. -1.
         -5    1    1    2    0  502 -0.44073673515E+02 -0.84748301585E+02 -0.24066192686E+03  0.25896022621E+03  0.41800000000E+01 0. -1.
        -11    1    3    3    0    0  0.79115971327E+00  0.68971066628E+02 -0.11581870801E+03  0.13480210343E+03  0.00000000000E+00 0. -1.
         11    1    3    3    0    0  0.29566165342E+02  0.17040152925E+02  0.61666604888E+01  0.34677840854E+02  0.00000000000E+00 0.  1.
</event>
<event>
 7    1  0.6610867E-006  0.1479942E+03  0.7561462E-02  0.1202960E+00
          1   -1    0    0  501    0  0.00000000000E+00  0.00000000000E+00  0.23400957134E+02  0.23400957134E+02  0.00000000000E+00 0. -1.
         -1   -1    0    0    0  501 -0.00000000000E+00 -0.00000000000E+00 -0.11084336704E+04  0.11084336704E+04  0.00000000000E+00 0.  1.
         23    2    1    2    0    0  0.41373261435E+02  0.11022773475E+03 -0.49042418849E+03  0.51290952234E+03  0.93265176708E+02 0.  0.
          5    1    1    2  502    0 -0.68203250801E+02 -0.86770312618E+02 -0.55326657957E+03  0.56418272842E+03  0.41800000000E+01 0. -1.
         -5    1    1    2    0  502  0.26829989365E+02 -0.23457422128E+02 -0.41341945230E+02  0.54742376799E+02  0.41800000000E+01 0. -1.
        -11    1    3    3    0    0  0.65527437928E+02  0.43387986148E+02 -0.23572880906E+03  0.24848427291E+03  0.00000000000E+00 0.  1.
         11    1    3    3    0    0 -0.24154176493E+02  0.66839748598E+02 -0.25469537943E+03  0.26442524943E+03  0.00000000000E+00 0. -1.
</event>
<event>
 7    1  0.6610867E-006  0.1160028E+03  0.7561462E-02  0.1249841E+00
         -1   -1    0    0    0  501 -0.00000000000E+00  0.00000000000E+00  0.99711256225E+02  0.99711256225E+02  0.00000000000E+00 0.  1.
          1   -1    0    0  501    0  0.00000000000E+00 -0.00000000000E+00 -0.36854187382E+03  0.36854187382E+03  0.00000000000E+00 0. -1.
         23    2    1    2    0    0  0.96177028023E+01  0.93217415104E+02  0.26646826465E+02  0.13398340872E+03  0.91975615056E+02 0.  0.
          5    1    1    2  502    0 -0.19856895817E+02 -0.11030497957E+03 -0.29304039185E+03  0.31377002484E+03  0.41800000000E+01 0.  1.
         -5    1    1    2    0  502  0.10239193015E+02  0.17087564462E+02 -0.24370522107E+01  0.20499696493E+02  0.41800000000E+01 0.  1.
        -11    1    3    3    0    0  0.21888147998E+02  0.50249091485E+02 -0.29484688441E+02  0.62236718023E+02  0.00000000000E+00 0. -1.
         11    1    3    3    0    0 -0.12270445196E+02  0.42968323620E+02  0.56131514906E+02  0.71746690695E+02  0.00000000000E+00 0.  1.
</event>
<event>
 7    1  0.6610867E-006  0.1059369E+03  0.7561462E-02  0.1268285E+00
          1   -1    0    0  501    0  0.00000000000E+00  0.00000000000E+00  0.71534235727E+03  0.71534235727E+03  0.00000000000E+00 0. -1.
         -1   -1    0    0    0  501 -0.00000000000E+00 -0.00000000000E+00 -0.20635777774E+02  0.20635777774E+02  0.00000000000E+00 0.  1.
         23    2    1    2    0    0 -0.34367244029E+02  0.30575736097E+02  0.20482379057E+03  0.22828827218E+03  0.89703773208E+02 0.  0.
          5    1    1    2  502    0  0.76479471590E+02 -0.15321381064E+02  0.39544067584E+03  0.40308144934E+03  0.41800000000E+01 0.  1.
         -5    1    1    2    0  502 -0.42112227560E+02 -0.15254355034E+02  0.94442113077E+02  0.10460841352E+03  0.41800000000E+01 0.  1.
        -11    1    3    3    0    0 -0.22031349428E+02 -0.24144105094E+02  0.13407111467E+03  0.13799776069E+03  0.00000000000E+00 0. -1.
         11    1    3    3    0    0 -0.12335894601E+02  0.54719841192E+02  0.70752675907E+02  0.90290511482E+02  0.00000000000E+00 0.  1.
</event>
<event>
 7    1  0.6610867E-006  0.2215593E+03  0.7561462E-02  0.1132726E+00
         -1   -1    0    0    0  501 -0.00000000000E+00  0.00000000000E+00  0.12099206256E+03  0.12099206256E+03  0.00000000000E+00 0.  1.
          1   -1    0    0  501    0  0.00000000000E+00 -0.00000000000E+00 -0.42966712163E+03  0.42966712163E+03  0.00000000000E+00 0. -1.
         23    2    1    2    0    0  0.16844076563E+03  0.10232949017E+03 -0.11013060303E+03  0.24419444706E+03  0.93051395282E+02 0.  0.
          5    1    1    2  502    0  0.19464285691E+02 -0.16468810643E+02 -0.31598428001E+02  0.40816824884E+02  0.41800000000E+01 0.  1.
         -5    1    1    2    0  502 -0.18790505133E+03 -0.85860679528E+02 -0.16694602805E+03  0.26564791225E+03  0.41800000000E+01 0.  1.
        -11    1    3    3    0    0  0.53069018397E+02 -0.46976154300E+01 -0.21109257647E+01  0.53318329981E+02  0.00000000000E+00 0.  1.
         11    1    3    3    0    0  0.11537174724E+03  0.10702710560E+03 -0.10801967726E+03  0.19087611708E+03  0.00000000000E+00 0. -1.
</event>
<event>
 7    1  0.6610867E-006  0.1274893E+03  0.7561462E-02  0.1231230E+00
         -2   -1    0    0    0  501 -0.00000000000E+00  0.00000000000E+00  0.19898463940E+02  0.19898463940E+02  0.00000000000E+00 0.  1.
          2   -1    0    0  501    0  0.00000000000E+00 -0.00000000000E+00 -0.17067426373E+04  0.17067426373E+04  0.00000000000E+00 0. -1.
         23    2    1    2    0    0  0.62658510767E+02  0.58177045025E+02 -0.23194096441E+03  0.26386910162E+03  0.92301864998E+02 0.  0.
          5    1    1    2  502    0  0.13786054373E+02 -0.54577013574E+02 -0.29579545433E+03  0.30113307508E+03  0.41800000000E+01 0. -1.
         -5    1    1    2    0  502 -0.76444565140E+02 -0.36000314506E+01 -0.11591077546E+04  0.11616389245E+04  0.41800000000E+01 0. -1.
        -11    1    3    3    0    0  0.62121519910E+02  0.79313409010E+02 -0.16171526747E+03  0.19052959828E+03  0.00000000000E+00 0. -1.
         11    1    3    3    0    0  0.53699085766E+00 -0.21136363985E+02 -0.70225696931E+02  0.73339503347E+02  0.00000000000E+00 0.  1.
</event>
<event>
 7    1  0.6610867E-006  0.8634321E+02  0.7561462E-02  0.1311957E+00
          4   -1    0    0  501    0  0.00000000000E+00  0.00000000000E+00  0.31127350058E+02  0.31127350058E+02  0.00000000000E+00 0.  1.
         -4   -1    0    0    0  501 -0.00000000000E+00 -0.00000000000E+00 -0.52481995750E+03  0.52481995750E+03  0.00000000000E+00 0. -1.
         23    2    1    2    0    0  0.18360040113E+02 -0.54082221948E+02 -0.31133789516E+03  0.32755700453E+03  0.84263446716E+02 0.  0.
          5    1    1    2  502    0  0.12147989039E+02  0.46553955566E+02 -0.53729892781E+01  0.48592034638E+02  0.41800000000E+01 0.  1.
         -5    1    1    2    0  502 -0.30508029152E+02  0.75282663826E+01 -0.17698172300E+03  0.17979826838E+03  0.41800000000E+01 0.  1.
        -11    1    3    3    0    0 -0.28400464728E+02 -0.22977141976E+02 -0.19476083332E+03  0.19815730531E+03  0.00000000000E+00 0.  1.
         11    1    3    3    0    0  0.46760504842E+02 -0.31105079972E+02 -0.11657706183E+03  0.12939969922E+03  0.00000000000E+00 0. -1.
</event>
<event>
 7    1  0.6610867E-006  0.1396736E+03  0.7561462E-02  0.1213769E+00
         -1   -1    0    0    0  501 -0.00000000000E+00  0.00000000000E+00  0.35495368488E+03  0.35495368488E+03  0.00000000000E+00 0.  1.
          1   -1    0    0  501    0  0.00000000000E+00 -0.00000000000E+00 -0.80455763323E+02  0.80455763323E+02  0.00000000000E+00 0. -1.
         23    2    1    2    0    0  0.51424848851E+02 -0.11650497618E+03  0.15927588736E+03  0.22294576986E+03  0.90100407616E+02 0.  0.
          5    1    1    2  502    0 -0.36503893703E+02  0.44897212535E+02  0.12571033042E+03  0.13845162882E+03  0.41800000000E+01 0.  1.
         -5    1    1    2    0  502 -0.14920955149E+02  0.71607763641E+02 -0.10488296224E+02  0.74012049518E+02  0.41800000000E+01 0.  1.
        -11    1    3    3    0    0  0.40272222146E+02 -0.10691364569E+02  0.80203827861E+02  0.90381475738E+02  0.00000000000E+00 0.  1.
         11    1    3    3    0    0  0.11152626705E+02 -0.10581361161E+03  0.79072059498E+02  0.13256429412E+03  0.00000000000E+00 0. -1.
</event>
<event>
 7    1  0.6610867E-006  0.1645694E+03  0.7561462E-02  0.1183632E+00
          2   -1    0    0  501    0  0.00000000000E+00  0.00000000000E+00  0.25375269331E+04  0.25375269331E+04  0.00000000000E+00 0.  1.
         -2   -1    0    0    0  501 -0.00000000000E+00 -0.00000000000E+00 -0.19140828136E+02  0.19140828136E+02  0.00000000000E+00 0. -1.
         23    2    1    2    0    0  0.16084646731E+03  0.30351766552E+01  0.61086225944E+03  0.63828929637E+03  0.91540851589E+02 0.  0.
          5    1    1    2  502    0 -0.55772573508E+02 -0.74771560072E+01  0.13393635555E+04  0.13405516380E+04  0.41800000000E+01 0.  1.
         -5    1    1    2    0  502 -0.10507389380E+03  0.44419793520E+01  0.56816028999E+03  0.57782682688E+03  0.41800000000E+01 0.  1.
        -11    1    3    3    0    0  0.10593596573E+03 -0.20187428114E+02  0.50868126706E+03  0.51998710806E+03  0.00000000000E+00 0.  1.
         11    1    3    3    0    0  0.54910501576E+02  0.23222604769E+02  0.10218099238E+03  0.11830218831E+03  0.00000000000E+00 0. -1.
</event>
<event>
 7    1  0.6610867E-006  0.1020200E+03  0.7561462E-02  0.1276105E+00
         -1   -1    0    0    0  501 -0.00000000000E+00  0.00000000000E+00  0.68543481403E+02  0.68543481403E+02  0.00000000000E+00 0.  1.
          1   -1    0    0  501    0  0.00000000000E+00 -0.00000000000E+00 -0.23935454348E+03  0.23935454348E+03  0.00000000000E+00 0. -1.
         23    2    1    2    0    0  0.40680205253E+02 -0.91545686287E+01 -0.25493706284E+02  0.11167403332E+03  0.10041153037E+03 0.  0.
          5    1    1    2  502    0  0.28805788146E+02 -0.52781247687E+01 -0.11533473737E+03  0.11906807329E+03  0.41800000000E+01 0.  1.
         -5    1    1    2    0  502 -0.69485993399E+02  0.14432693397E+02 -0.29982618417E+02  0.77155918272E+02  0.41800000000E+01 0.  1.
        -11    1    3    3    0    0  0.93122638540E+01  0.42185724928E+02 -0.27958477191E+02  0.51459013716E+02  0.00000000000E+00 0.  1.
         11    1    3    3    0    0  0.31367941399E+02 -0.51340293557E+02  0.24647709073E+01  0.60215019603E+02  0.00000000000E+00 0. -1.
</event>
<event>
 7    1  0.6610867E-006  0.1296036E+03  0.7561462E-02  0.1228045E+00
          1   -1    0    0  501    0  0.00000000000E+00  0.00000000000E+00  0.36917178178E+03  0.36917178178E+03  0.00000000000E+00 0. -1.
         -1   -1    0    0    0  501 -0.00000000000E+00 -0.00000000000E+00 -0.46839832021E+02  0.46839832021E+02  0.00000000000E+00 0.  1.
         23    2    1    2    0    0 -0.49761392604E+02 -0.57122314970E+02  0.13457987631E+03  0.17802581293E+03  0.88556715743E+02 0.  0.
          5    1    1    2  502    0 -0.34202186516E+02  0.48760919402E+02  0.97770927162E+02  0.11456021745E+03  0.41800000000E+01 0. -1.
         -5    1    1    2    0  502  0.83963579120E+02  0.83613955680E+01  0.89981146288E+02  0.12342558342E+03  0.41800000000E+01 0. -1.
        -11    1    3    3    0    0 -0.14639309320E+01 -0.65911311483E+02  0.62699656988E+02  0.90981817203E+02  0.00000000000E+00 0.  1.
         11    1    3    3    0    0 -0.48297461672E+02  0.87889965136E+01  0.71880219318E+02  0.87043995732E+02  0.00000000000E+00 0. -1.
</event>
<event>
 7    1  0.6610867E-006  0.1017401E+03  0.7561462E-02  0.1276679E+00
          1   -1    0    0  501    0  0.00000000000E+00  0.00000000000E+00  0.41557568827E+03  0.41557568827E+03  0.00000000000E+00 0. -1.
         -1   -1    0    0    0  501 -0.00000000000E+00 -0.00000000000E+00 -0.31404380271E+02  0.31404380271E+02  0.00000000000E+00 0.  1.
         23    2    1    2    0    0 -0.63320601441E+01 -0.36975810822E+02  0.14422296967E+03  0.17379636773E+03  0.89429340176E+02 0.  0.
          5    1    1    2  502    0  0.22867448271E+02 -0.42964641132E+02  0.90396179164E+02  0.10275126367E+03  0.41800000000E+01 0. -1.
         -5    1    1    2    0  502 -0.16535388127E+02  0.79940451954E+02  0.14955215916E+03  0.17043243714E+03  0.41800000000E+01 0. -1.
        -11    1    3    3    0    0 -0.31373633391E+02 -0.42157573153E+01  0.12379633133E+03  0.12777953331E+03  0.00000000000E+00 0. -1.
         11    1    3    3    0    0  0.25041573247E+02 -0.32760053507E+02  0.20426638343E+02  0.46016834425E+02  0.00000000000E+00 0.  1.
</event>
<event>
 7    1  0.6610867E-006  0.8889722E+02  0.7561462E-02  0.1305544E+00
          2   -1    0    0  501    0  0.00000000000E+00  0.00000000000E+00  0.10325414978E+04  0.10325414978E+04  0.00000000000E+00 0. -1.
         -2   -1    0    0    0  501 -0.00000000000E+00 -0.00000000000E+00 -0.20396973348E+02  0.20396973348E+02  0.00000000000E+00 0.  1.
         23    2    1    2    0    0  0.30961671597E+02  0.50556260421E+02  0.18371708085E+03  0.21479256342E+03  0.94177061584E+02 0.  0.
          5    1    1    2  502    0 -0.47991649904E+02 -0.44767441996E+02  0.80775142773E+03  0.81042406413E+03  0.41800000000E+01 0. -1.
         -5    1    1    2    0  502  0.17029978307E+02 -0.57888184250E+01  0.20676015858E+02  0.27721843584E+02  0.41800000000E+01 0.  1.
        -11    1    3    3    0    0  0.20495623168E+02 -0.16118104743E+02  0.11707861409E+03  0.11994692888E+03  0.00000000000E+00 0. -1.
         11    1    3    3    0    0  0.10466048428E+02  0.66674365165E+02  0.66638466760E+02  0.94845634543E+02  0.00000000000E+00 0.  1.
</event>
<event>
 7    1  0.6610867E-006  0.1088247E+03  0.7561462E-02  0.1262762E+00
         -1   -1    0    0    0  501 -0.00000000000E+00  0.00000000000E+00  0.12432478906E+03  0.12432478906E+03  0.00000000000E+00 0.  1.
          1   -1    0    0  501    0  0.00000000000E+00 -0.00000000000E+00 -0.10609225340E+03  0.10609225340E+03  0.00000000000E+00 0. -1.
         23    2    1    2    0    0 -0.11907683797E+02  0.33361239272E+02  0.23988158929E+02  0.10028200925E+03  0.90698866537E+02 0.  0.
          5    1    1    2  502    0  0.11883087809E+01 -0.76865794508E+02 -0.25348856011E+02  0.81054298740E+02  0.41800000000E+01 0.  1.
         -5    1    1    2    0  502  0.10719375016E+02  0.43504555236E+02  0.19593232745E+02  0.49080734473E+02  0.41800000000E+01 0.  1.
        -11    1    3    3    0    0 -0.45278621488E+02  0.41380921469E+02  0.62750917591E+01  0.61659638355E+02  0.00000000000E+00 0. -1.
         11    1    3    3    0    0  0.33370937691E+02 -0.80196821973E+01  0.17713067170E+02  0.38622370894E+02  0.00000000000E+00 0.  1.
</event>
<event>
 7    1  0.6610867E-006  0.7330157E+02  0.7561462E-02  0.1349213E+00
         -1   -1    0    0    0  501 -0.00000000000E+00  0.00000000000E+00  0.12652383439E+02  0.12652383439E+02  0.00000000000E+00 0.  1.
          1   -1    0    0  501    0  0.00000000000E+00 -0.00000000000E+00 -0.10068235432E+04  0.10068235432E+04  0.00000000000E+00 0. -1.
         23    2    1    2    0    0  0.60874864285E+01 -0.26625594011E+02 -0.27219195211E+03  0.28856333238E+03  0.91838762267E+02 0.  0.
          5    1    1    2  502    0 -0.24793627683E+02  0.11854247270E+02 -0.69120476933E+03  0.69176350922E+03  0.41800000000E+01 0. -1.
         -5    1    1    2    0  502  0.18706141255E+02  0.14771346741E+02 -0.30774438343E+02  0.39149085054E+02  0.41800000000E+01 0.  1.
        -11    1    3    3    0    0 -0.12644724480E+02  0.31283840172E+02 -0.11995969854E+03  0.12461499503E+03  0.00000000000E+00 0.  1.
         11    1    3    3    0    0  0.18732210908E+02 -0.57909434183E+02 -0.15223225357E+03  0.16394833735E+03  0.00000000000E+00 0. -1.
</event>
<event>
 7    1  0.6610867E-006  0.9361370E+02  0.7561462E-02  0.1294329E+00
          2   -1    0    0  501    0  0.00000000000E+00  0.00000000000E+00  0.11192217552E+03  0.11192217552E+03  0.00000000000E+00 0. -1.
         -2   -1    0    0    0  501 -0.00000000000E+00 -0.00000000000E+00 -0.11977930455E+03  0.11977930455E+03  0.00000000000E+00 0.  1.
         23    2    1    2    0    0  0.11819171662E+02 -0.15740863203E+02 -0.46311479802E+02  0.99361329934E+02  0.85676444439E+02 0.  0.
          5    1    1    2  502    0  0.25703592530E+02  0.61224415644E+02  0.28572146474E+02  0.72408174221E+02  0.41800000000E+01 0.  1.
         -5    1    1    2    0  502 -0.37522764191E+02 -0.45483552442E+02  0.98822043060E+01  0.59931975916E+02  0.41800000000E+01 0.  1.
        -11    1    3    3    0    0  0.34582580567E+02 -0.12626042445E+01  0.10755876372E+02  0.36238624763E+02  0.00000000000E+00 0. -1.
         11    1    3    3    0    0 -0.22763408905E+02 -0.14478258958E+02 -0.57067356174E+02  0.63122705172E+02  0.00000000000E+00 0.  1.
</event>
<event>
 7    1  0.6610867E-006  0.1590948E+03  0.7561462E-02  0.1189723E+00
          3   -1    0    0  501    0  0.00000000000E+00  0.00000000000E+00  0.76319421746E+02  0.76319421746E+02  0.00000000000E+00 0. -1.
         -3   -1    0    0    0  501 -0.00000000000E+00 -0.00000000000E+00 -0.35783741211E+03  0.35783741211E+03  0.00000000000E+00 0.  1.
         23    2    1    2    0    0  0.46883969827E+02  0.11494747288E+03 -0.14158300475E+03  0.20912457398E+03  0.90974238438E+02 0.  0.
          5    1    1    2  502    0 -0.49202343239E+02 -0.13509708558E+03 -0.14443442463E+03  0.20384030153E+03  0.41800000000E+01 0. -1.
         -5    1    1    2    0  502  0.23183734128E+01  0.20149612696E+02  0.44994390138E+01  0.21191958345E+02  0.41800000000E+01 0. -1.
        -11    1    3    3    0    0  0.90659302068E+01  0.11546518675E+03 -0.10132121974E+03  0.15388433972E+03  0.00000000000E+00 0.  1.
         11    1    3    3    0    0  0.37818039620E+02 -0.51771387296E+00 -0.40261785010E+02  0.55240234255E+02  0.00000000000E+00 0. -1.
</event>
<event>
 7    1  0.1054929E-005  0.2673881E+03  0.7561462E-02  0.1102784E+00
         -2   -1    0    0    0  501 -0.00000000000E+00  0.00000000000E+00  0.71749486597E+02  0.71749486597E+02  0.00000000000E+00 0.  1.
          2   -1    0    0  501    0  0.00000000000E+00 -0.00000000000E+00 -0.12183276639E+04  0.12183276639E+04  0.00000000000E+00 0. -1.
         23    2    1    2    0    0 -0.22905098236E+03 -0.12640964268E+03 -0.38410305412E+03  0.47432021961E+03  0.94872357754E+02 0.  0.
          5    1    1    2  502    0  0.58945216214E+02  0.51358546773E+00 -0.69768408637E+02  0.91432518987E+02  0.41800000000E+01 0.  1.
         -5    1    1    2    0  502  0.17010576614E+03  0.12589605721E+03 -0.69270671455E+03  0.72432441190E+03  0.41800000000E+01 0.  1.
        -11    1    3    3    0    0 -0.58595953275E+02 -0.15361973426E+02 -0.34169710269E+02  0.69548868198E+02  0.00000000000E+00 0.  1.
         11    1    3    3    0    0 -0.17045502908E+03 -0.11104766925E+03 -0.34993334385E+03  0.40477135141E+03  0.00000000000E+00 0. -1.
</event>
<event>
 7    1  0.6610867E-006  0.1091779E+03  0.7561462E-02  0.1262100E+00
          2   -1    0    0  501    0  0.00000000000E+00  0.00000000000E+00  0.48148518420E+03  0.48148518420E+03  0.00000000000E+00 0. -1.
         -2   -1    0    0    0  501 -0.00000000000E+00 -0.00000000000E+00 -0.33877070029E+02  0.33877070029E+02  0.00000000000E+00 0.  1.
         23    2    1    2    0    0 -0.50610278940E+02  0.35324681633E+02  0.15573161758E+03  0.19186835801E+03  0.93551571998E+02 0.  0.
          5    1    1    2  502    0 -0.13818574602E+01 -0.59598423244E+02  0.23542740751E+03  0.24289384140E+03  0.41800000000E+01 0.  1.
         -5    1    1    2    0  502  0.51992136400E+02  0.24273741610E+02  0.56449089081E+02  0.80600054822E+02  0.41800000000E+01 0.  1.
        -11    1    3    3    0    0 -0.52010958567E+02 -0.12277783719E+02  0.40095432688E+02  0.66809636330E+02  0.00000000000E+00 0.  1.
         11    1    3    3    0    0  0.14006796269E+01  0.47602465352E+02  0.11563618489E+03  0.12505872168E+03  0.00000000000E+00 0. -1.
</event>
<event>
 7    1  0.6610867E-006  0.1074101E+03  0.7561462E-02  0.1265442E+00
          1   -1    0    0  501    0  0.00000000000E+00  0.00000000000E+00  0.15979482445E+02  0.15979482445E+02  0.00000000000E+00 0. -1.
         -1   -1    0    0    0  501 -0.00000000000E+00 -0.00000000000E+00 -0.83852143303E+03  0.83852143303E+03  0.00000000000E+00 0.  1.
         23    2    1    2    0    0  0.49405499590E+02  0.19186270038E+02 -0.37676614486E+03  0.39162843642E+03  0.92795947961E+02 0.  0.
          5    1    1    2  502    0 -0.80963295223E+02  0.23240541265E+01 -0.23443517367E+03  0.24806809439E+03  0.41800000000E+01 0. -1.
         -5    1    1    2    0  502  0.31557795633E+02 -0.21510324165E+02 -0.21134063206E+03  0.21480438466E+03  0.41800000000E+01 0.  1.
        -11    1    3    3    0    0  0.37663487156E+02 -0.27833817645E+02 -0.97215063387E+02  0.10790749844E+03  0.00000000000E+00 0. -1.
         11    1    3    3    0    0  0.11742012434E+02  0.47020087683E+02 -0.27955108147E+03  0.28372093799E+03  0.00000000000E+00 0.  1.
</event>
<event>
 7    1  0.6610867E-006  0.9718050E+02  0.7561462E-02  0.1286339E+00
          2   -1    0    0  501    0  0.00000000000E+00  0.00000000000E+00  0.24699482214E+03  0.24699482214E+03  0.00000000000E+00 0. -1.
         -2   -1    0    0    0  501 -0.00000000000E+00 -0.00000000000E+00 -0.90390351747E+02  0.90390351747E+02  0.00000000000E+00 0.  1.
         23    2    1    2    0    0  0.34599875097E+02  0.73756835612E+02  0.94539360650E+00  0.12171190441E+03  0.90419421306E+02 0.  0.
          5    1    1    2  502    0 -0.16288671786E+02 -0.52776089061E+02  0.17364123166E+03  0.18226186145E+03  0.41800000000E+01 0. -1.
         -5    1    1    2    0  502 -0.18311203311E+02 -0.20980746550E+02 -0.17982154878E+02  0.33411408030E+02  0.41800000000E+01 0. -1.
        -11    1    3    3    0    0 -0.28861094145E+01  0.73264832037E+02  0.24653271425E+02  0.77355342627E+02  0.00000000000E+00 0. -1.
         11    1    3    3    0    0  0.37485984511E+02  0.49200357446E+00 -0.23707877819E+02  0.44356561780E+02  0.00000000000E+00 0.  1.
</event>
<event>
 7    1  0.6610867E-006  0.1031845E+03  0.7561462E-02  0.1273738E+00
          2   -1    0    0  501    0  0.00000000000E+00  0.00000000000E+00  0.13194840534E+04  0.13194840534E+04  0.00000000000E+00 0. -1.
         -2   -1    0    0    0  501 -0.00000000000E+00 -0.00000000000E+00 -0.33148843217E+02  0.33148843217E+02  0.00000000000E+00 0.  1.
         23    2    1    2    0    0 -0.75523827028E+02 -0.62505687788E+02  0.13924324114E+03  0.19578085732E+03  0.96595312702E+02 0.  0.
          5    1    1    2  502    0  0.25486648736E+02  0.13774448273E+01  0.81715367691E+03  0.81756288486E+03  0.41800000000E+01 0. -1.
         -5    1    1    2    0  502  0.50037178292E+02  0.61128242960E+02  0.32993829210E+03  0.33928915440E+03  0.41800000000E+01 0.  1.
        -11    1    3    3    0    0 -0.29986415983E+02 -0.41626650415E+02  0.13625816608E+03  0.14559619154E+03  0.00000000000E+00 0.  1.
         11    1    3    3    0    0 -0.45537411045E+02 -0.20879037373E+02  0.29850750603E+01  0.50184665780E+02  0.00000000000E+00 0. -1.
</event>
<event>
 7    1  0.6610867E-006  0.9005119E+02  0.7561462E-02  0.1302728E+00
         -1   -1    0    0    0  501 -0.00000000000E+00  0.00000000000E+00  0.42525661184E+03  0.42525661184E+03  0.00000000000E+00 0.  1.
          1   -1    0    0  501    0  0.00000000000E+00 -0.00000000000E+00 -0.34801888869E+02  0.34801888869E+02  0.00000000000E+00 0. -1.
         23    2    1    2    0    0  0.99978393055E+01 -0.29188712706E+02  0.25729018807E+03  0.27477064667E+03  0.91371383121E+02 0.  0.
          5    1    1    2  502    0 -0.14642849982E+02  0.55021882671E+02  0.83772883855E+01  0.57701577006E+02  0.41800000000E+01 0. -1.
         -5    1    1    2    0  502  0.46450106767E+01 -0.25833169966E+02  0.12478724651E+03  0.12758627703E+03  0.41800000000E+01 0. -1.
        -11    1    3    3    0    0 -0.70099831330E+01  0.32085903313E+02  0.86177875018E+02  0.92224027225E+02  0.00000000000E+00 0.  1.
         11    1    3    3    0    0  0.17007822439E+02 -0.61274616019E+02  0.17111231305E+03  0.18254661944E+03  0.00000000000E+00 0. -1.
</event>
<event>
 7    1  0.6610867E-006  0.1930594E+03  0.7561462E-02  0.1155731E+00
         -3   -1    0    0    0  501 -0.00000000000E+00  0.00000000000E+00  0.17957285384E+03  0.17957285384E+03  0.00000000000E+00 0.  1.
          3   -1    0    0  501    0  0.00000000000E+00 -0.00000000000E+00 -0.26458810180E+03  0.26458810180E+03  0.00000000000E+00 0. -1.
         23    2    1    2    0    0  0.15482272199E+03 -0.70202934793E+02  0.42670032011E+02  0.19748114114E+03  0.90991989631E+02 0.  0.
          5    1    1    2  502    0 -0.12765231806E+03 -0.24891195407E+01 -0.10599555681E+03  0.16599349531E+03  0.41800000000E+01 0.  1.
         -5    1    1    2    0  502 -0.27170403931E+02  0.72692054334E+02 -0.21689723168E+02  0.80686319188E+02  0.41800000000E+01 0.  1.
        -11    1    3    3    0    0  0.75626764733E+02 -0.67573272984E+02  0.57913878759E+02  0.11678857872E+03  0.00000000000E+00 0.  1.
         11    1    3    3    0    0  0.79195957256E+02 -0.26296618093E+01 -0.15243846748E+02  0.80692562424E+02  0.00000000000E+00 0. -1.
</event>
<event>
 7    1  0.6610867E-006  0.1054478E+03  0.7561462E-02  0.1269240E+00
         -2   -1    0    0    0  501 -0.00000000000E+00  0.00000000000E+00  0.63061931341E+03  0.63061931341E+03  0.00000000000E+00 0.  1.
          2   -1    0    0  501    0  0.00000000000E+00 -0.00000000000E+00 -0.32837553737E+02  0.32837553737E+02  0.00000000000E+00 0. -1.
         23    2    1    2    0    0  0.33787365509E+02 -0.35027570099E+02  0.45743068833E+03  0.46925553331E+03  0.92679038524E+02 0.  0.
          5    1    1    2  502    0 -0.11825299564E+02 -0.33040402922E+02 -0.14047798065E+01  0.35368796154E+02  0.41800000000E+01 0. -1.
         -5    1    1    2    0  502 -0.21962065945E+02  0.68067973021E+02  0.14175585115E+03  0.15883253768E+03  0.41800000000E+01 0. -1.
        -11    1    3    3    0    0  0.11204636559E+02 -0.65236994885E+02  0.31781846045E+03  0.32463823432E+03  0.00000000000E+00 0.  1.
         11    1    3    3    0    0  0.22582728950E+02  0.30209424786E+02  0.13961222788E+03  0.14461729899E+03  0.00000000000E+00 0. -1.
</event>
<event>
 7    1  0.6610867E-006  0.8826578E+02  0.7561462E-02  0.1307107E+00
         -2   -1    0    0    0  501 -0.00000000000E+00  0.00000000000E+00  0.97658815718E+02  0.97658815718E+02  0.00000000000E+00 0.  1.
          2   -1    0    0  501    0  0.00000000000E+00 -0.00000000000E+00 -0.13941265529E+03  0.13941265529E+03  0.00000000000E+00 0. -1.
         23    2    1    2    0    0 -0.50120390651E+01 -0.31092301429E+02  0.11824696051E+02  0.97388895638E+02  0.91394320464E+02 0.  0.
          5    1    1    2  502    0  0.22070177892E+02 -0.21659487584E+02 -0.74112191172E+02  0.80413403329E+02  0.41800000000E+01 0. -1.
         -5    1    1    2    0  502 -0.17058138827E+02  0.52751789013E+02  0.20533655549E+02  0.59269172041E+02  0.41800000000E+01 0. -1.
        -11    1    3    3    0    0  0.19353893925E+01 -0.59983162884E+02  0.24836281937E+02  0.64950492393E+02  0.00000000000E+00 0. -1.
         11    1    3    3    0    0 -0.69474284577E+01  0.28890861455E+02 -0.13011585886E+02  0.32438403245E+02  0.00000000000E+00 0.  1.
</event>
<event>
 7    1  0.6610867E-006  0.1960204E+03  0.7561462E-02  0.1153141E+00
         -2   -1    0    0    0  501 -0.00000000000E+00  0.00000000000E+00  0.10543593124E+03  0.10543593124E+03  0.00000000000E+00 0. -1.
          2   -1    0    0  501    0  0.00000000000E+00 -0.00000000000E+00 -0.78469086738E+03  0.78469086738E+03  0.00000000000E+00 0.  1.
         23    2    1    2    0    0 -0.10047104308E+03  0.13618491231E+03 -0.14995981589E+02  0.19332892179E+03  0.92252001048E+02 0.  0.
          5    1    1    2  502    0  0.12489851485E+03 -0.78499793293E+02 -0.45689328556E+03  0.48013623416E+03  0.41800000000E+01 0.  1.
         -5    1    1    2    0  502 -0.24427471777E+02 -0.57685119021E+02 -0.20736566898E+03  0.21666164267E+03  0.41800000000E+01 0.  1.
        -11    1    3    3    0    0 -0.10869948791E+03  0.11175105536E+03  0.11548871822E+02  0.15632419354E+03  0.00000000000E+00 0. -1.
         11    1    3    3    0    0  0.82284448336E+01  0.24433856951E+02 -0.26544853411E+02  0.37004728245E+02  0.00000000000E+00 0.  1.
</event>
<event>
 7    1  0.6610867E-006  0.9350929E+02  0.7561462E-02  0.1294569E+00
          2   -1    0    0  501    0  0.00000000000E+00  0.00000000000E+00  0.29828705693E+03  0.29828705693E+03  0.00000000000E+00 0. -1.
         -2   -1    0    0    0  501 -0.00000000000E+00 -0.00000000000E+00 -0.40601340452E+02  0.40601340452E+02  0.00000000000E+00 0.  1.
         23    2    1    2    0    0  0.97400742123E+01  0.21101768782E+01  0.66061718949E+02  0.10983228834E+03  0.87176022851E+02 0.  0.
          5    1    1    2  502    0  0.20094824107E+02  0.55346528816E+02  0.10950930699E+03  0.12440579137E+03  0.41800000000E+01 0. -1.
         -5    1    1    2    0  502 -0.29834898319E+02 -0.57456705694E+02  0.82114690539E+02  0.10465031767E+03  0.41800000000E+01 0. -1.
        -11    1    3    3    0    0  0.15322335085E+02 -0.28306994234E+02 -0.47742090936E+01  0.32540020705E+02  0.00000000000E+00 0.  1.
         11    1    3    3    0    0 -0.55822608722E+01  0.30417171112E+02  0.70835928043E+02  0.77292267638E+02  0.00000000000E+00 0. -1.
</event>
<event>
 7    1  0.6610867E-006  0.1298231E+03  0.7561462E-02  0.1227719E+00
          1   -1    0    0  501    0  0.00000000000E+00  0.00000000000E+00  0.11753037132E+04  0.11753037132E+04  0.00000000000E+00 0. -1.
         -1   -1    0    0    0  501 -0.00000000000E+00 -0.00000000000E+00 -0.23243152785E+02  0.23243152785E+02  0.00000000000E+00 0.  1.
         23    2    1    2    0    0  0.10760908806E+03 -0.72192543993E+01  0.33839589124E+03  0.36828851971E+03  0.97431109359E+02 0.  0.
          5    1    1    2  502    0 -0.34514811731E+02  0.19914008172E+02  0.64141001450E+03  0.64266018940E+03  0.41800000000E+01 0.  1.
         -5    1    1    2    0  502 -0.73094276324E+02 -0.12694753773E+02  0.17225465467E+03  0.18759815687E+03  0.41800000000E+01 0.  1.
        -11    1    3    3    0    0 -0.31105108665E+00 -0.34063512766E+02  0.74606069228E+02  0.82015152383E+02  0.00000000000E+00 0. -1.
         11    1    3    3    0    0  0.10792013914E+03  0.26844258367E+02  0.26378982202E+03  0.28627336732E+03  0.00000000000E+00 0.  1.
</event>
<event>
 7    1  0.6610867E-006  0.1083550E+03  0.7561462E-02  0.1263647E+00
         -2   -1    0    0    0  501 -0.00000000000E+00  0.00000000000E+00  0.19798651786E+02  0.19798651786E+02  0.00000000000E+00 0.  1.
          2   -1    0    0  501    0  0.00000000000E+00 -0.00000000000E+00 -0.61172599845E+03  0.61172599845E+03  0.00000000000E+00 0. -1.
         23    2    1    2    0    0  0.12031926322E+02 -0.87329466665E+01 -0.20871365169E+03  0.22813778640E+03  0.90908908106E+02 0.  0.
          5    1    1    2  502    0  0.44505420705E+02  0.39993536517E+02 -0.21275445136E+03  0.22104783285E+03  0.41800000000E+01 0.  1.
         -5    1    1    2    0  502 -0.56537347027E+02 -0.31260589851E+02 -0.17045924362E+03  0.18233903099E+03  0.41800000000E+01 0.  1.
        -11    1    3    3    0    0  0.49894974037E+02 -0.17942652227E+02 -0.11435378721E+03  0.12604854561E+03  0.00000000000E+00 0. -1.
         11    1    3    3    0    0 -0.37863047715E+02  0.92097055603E+01 -0.94359864481E+02  0.10208924078E+03  0.00000000000E+00 0.  1.
</event>
<event>
 7    1  0.6610867E-006  0.1761203E+03  0.7561462E-02  0.1171612E+00
         -1   -1    0    0    0  501 -0.00000000000E+00  0.00000000000E+00  0.34516674125E+02  0.34516674125E+02  0.00000000000E+00 0.  1.
          1   -1    0    0  501    0  0.00000000000E+00 -0.00000000000E+00 -0.10027153682E+04  0.10027153682E+04  0.00000000000E+00 0. -1.
         23    2    1    2    0    0  0.14820157674E+03 -0.20277879783E+02 -0.44559835754E+03  0.47943788382E+03  0.94487504172E+02 0.  0.
          5    1    1    2  502    0 -0.85567319814E+02  0.60856859187E+02 -0.40530699449E+03  0.41870819877E+03  0.41800000000E+01 0.  1.
         -5    1    1    2    0  502 -0.62634256922E+02 -0.40578979404E+02 -0.11729334207E+03  0.13908595977E+03  0.41800000000E+01 0.  1.
        -11    1    3    3    0    0  0.35255064698E+02 -0.44621544249E+02 -0.10002259565E+03  0.11505877384E+03  0.00000000000E+00 0.  1.
         11    1    3    3    0    0  0.11294651204E+03  0.24343664466E+02 -0.34557576189E+03  0.36437910998E+03  0.00000000000E+00 0. -1.
</event>
<event>
 7    1  0.6610867E-006  0.1537308E+03  0.7561462E-02  0.1195962E+00
          2   -1    0    0  501    0  0.00000000000E+00  0.00000000000E+00  0.26648201480E+04  0.26648201480E+04  0.00000000000E+00 0. -1.
         -2   -1    0    0    0  501 -0.00000000000E+00 -0.00000000000E+00 -0.17425479153E+02  0.17425479153E+02  0.00000000000E+00 0.  1.
         23    2    1    2    0    0  0.13573113261E+03  0.35100576713E+02  0.53240899979E+03  0.55893058554E+03  0.96379798427E+02 0.  0.
          5    1    1    2  502    0 -0.12575416586E+03 -0.35093424821E+02  0.21034459565E+04  0.21074980481E+04  0.41800000000E+01 0.  1.
         -5    1    1    2    0  502 -0.99769667503E+01 -0.71518911862E-02  0.11539712637E+02  0.15816993533E+02  0.41800000000E+01 0.  1.
        -11    1    3    3    0    0  0.33489975443E+02 -0.29874212526E+02  0.20434533020E+03  0.20921534600E+03  0.00000000000E+00 0.  1.
         11    1    3    3    0    0  0.10224115717E+03  0.64974789239E+02  0.32806366960E+03  0.34971523954E+03  0.00000000000E+00 0. -1.
</event>
<event>
 7    1  0.6610867E-006  0.1120465E+03  0.7561462E-02  0.1256826E+00
          4   -1    0    0  501    0  0.00000000000E+00  0.00000000000E+00  0.30895384750E+03  0.30895384750E+03  0.00000000000E+00 0. -1.
         -4   -1    0    0    0  501 -0.00000000000E+00 -0.00000000000E+00 -0.44742433125E+02  0.44742433125E+02  0.00000000000E+00 0.  1.
         23    2    1    2    0    0 -0.19380470576E+02 -0.40720173366E+02  0.63626448351E+02  0.11303882294E+03  0.81827351199E+02 0.  0.
          5    1    1    2  502    0  0.18120985042E+02  0.84572229585E+02  0.11064530905E+03  0.14050156202E+03  0.41800000000E+01 0.  1.
         -5    1    1    2    0  502  0.12594855342E+01 -0.43852056219E+02  0.89939656975E+02  0.10015589566E+03  0.41800000000E+01 0.  1.
        -11    1    3    3    0    0 -0.26764896214E+01 -0.64398518219E+02  0.43832679459E+02  0.77946369601E+02  0.00000000000E+00 0.  1.
         11    1    3    3    0    0 -0.16703980955E+02  0.23678344853E+02  0.19793768892E+02  0.35092453343E+02  0.00000000000E+00 0. -1.
</event>
<event>
 7    1  0.6610867E-006  0.1485108E+03  0.7561462E-02  0.1202315E+00
          1   -1    0    0  501    0  0.00000000000E+00  0.00000000000E+00  0.28545801899E+04  0.28545801899E+04  0.00000000000E+00 0. -1.
         -1   -1    0    0    0  501 -0.00000000000E+00 -0.00000000000E+00 -0.11851670734E+02  0.11851670734E+02  0.00000000000E+00 0.  1.
         23    2    1    2    0    0  0.66004973830E+02  0.59719255676E+02  0.55566082744E+03  0.57019251863E+03  0.91855903875E+02 0.  0.
          5    1    1    2  502    0 -0.11173353709E+03 -0.71475570456E+02  0.10625951013E+04  0.10708496450E+04  0.41800000000E+01 0. -1.
         -5    1    1    2    0  502  0.45728563263E+02  0.11756314780E+02  0.12244725904E+04  0.12253896970E+04  0.41800000000E+01 0.  1.
        -11    1    3    3    0    0  0.81790753657E+02  0.38314261499E+02  0.50460592311E+03  0.51262544578E+03  0.00000000000E+00 0.  1.
         11    1    3    3    0    0 -0.15785779827E+02  0.21404994177E+02  0.51054904325E+02  0.57567072847E+02  0.00000000000E+00 0. -1.
</event>
<event>
 7    1  0.6610867E-006  0.1827071E+03  0.7561462E-02  0.1165208E+00
          1   -1    0    0  501    0  0.00000000000E+00  0.00000000000E+00  0.97202698077E+02  0.97202698077E+02  0.00000000000E+00 0. -1.
         -1   -1    0    0    0  501 -0.00000000000E+00 -0.00000000000E+00 -0.71263102055E+03  0.71263102055E+03  0.00000000000E+00 0.  1.
         23    2    1    2    0    0 -0.12432453750E+03 -0.12043933906E+03 -0.55346292955E+03  0.58746204975E+03  0.93958610579E+02 0.  0.
          5    1    1    2  502    0  0.76918040524E+02  0.41362302672E+02 -0.90432069366E+02  0.12578814177E+03  0.41800000000E+01 0. -1.
         -5    1    1    2    0  502  0.47406496977E+02  0.79077036386E+02  0.28466676442E+02  0.96583527099E+02  0.41800000000E+01 0. -1.
        -11    1    3    3    0    0 -0.18827690660E+02 -0.62610738068E+02 -0.29800387107E+03  0.30509161514E+03  0.00000000000E+00 0.  1.
         11    1    3    3    0    0 -0.10549684684E+03 -0.57828600990E+02 -0.25545905848E+03  0.28237043462E+03  0.00000000000E+00 0. -1.
</event>
<event>
 7    1  0.6610867E-006  0.1833529E+03  0.7561462E-02  0.1164597E+00
         -1   -1    0    0    0  501 -0.00000000000E+00  0.00000000000E+00  0.73958992211E+02  0.73958992211E+02  0.00000000000E+00 0.  1.
          1   -1    0    0  501    0  0.00000000000E+00 -0.00000000000E+00 -0.61242310678E+03  0.61242310678E+03  0.00000000000E+00 0. -1.
         23    2    1    2    0    0 -0.82926520692E+02 -0.15254511314E+03 -0.34995912779E+03  0.40119945256E+03  0.91338875820E+02 0.  0.
          5    1    1    2  502    0  0.80209133560E+02  0.14666179225E+03 -0.20643676923E+03  0.26566294153E+03  0.41800000000E+01 0.  1.
         -5    1    1    2    0  502  0.27173871327E+01  0.58833208864E+01  0.17931782449E+02  0.19519704897E+02  0.41800000000E+01 0.  1.
        -11    1    3    3    0    0 -0.49259077844E+02 -0.15015388584E+03 -0.25061092007E+03  0.29627433139E+03  0.00000000000E+00 0.  1.
         11    1    3    3    0    0 -0.33667442849E+02 -0.23912273035E+01 -0.99348207723E+02  0.10492512118E+03  0.00000000000E+00 0. -1.
</event>
<event>
 7    1  0.6610867E-006  0.1322716E+03  0.7561462E-02  0.1224124E+00
         -1   -1    0    0    0  501 -0.00000000000E+00  0.00000000000E+00  0.20355980073E+02  0.20355980073E+02  0.00000000000E+00 0.  1.
          1   -1    0    0  501    0  0.00000000000E+00 -0.00000000000E+00 -0.10205633709E+04  0.10205633709E+04  0.00000000000E+00 0. -1.
         23    2    1    2    0    0 -0.49906909430E+02 -0.80043665382E+02 -0.42812414075E+03  0.44777085197E+03  0.91163413724E+02 0.  0.
          5    1    1    2  502    0  0.83368688830E+02  0.17164583527E+02 -0.30076471038E+03  0.31260493376E+03  0.41800000000E+01 0.  1.
         -5    1    1    2    0  502 -0.33461779400E+02  0.62879081854E+02 -0.27131853975E+03  0.28054356529E+03  0.41800000000E+01 0.  1.
        -11    1    3    3    0    0 -0.31723817161E+02 -0.67199224569E+01 -0.36065463331E+02  0.48500263694E+02  0.00000000000E+00 0.  1.
         11    1    3    3    0    0 -0.18183092269E+02 -0.73323742925E+02 -0.39205867742E+03  0.39927058827E+03  0.00000000000E+00 0. -1.
</event>
<event>
 7    1  0.6610867E-006  0.1035191E+03  0.7561462E-02  0.1273065E+00
         -1   -1    0    0    0  501 -0.00000000000E+00  0.00000000000E+00  0.32241819326E+03  0.32241819326E+03  0.00000000000E+00 0.  1.
          1   -1    0    0  501    0  0.00000000000E+00 -0.00000000000E+00 -0.73188100270E+02  0.73188100270E+02  0.00000000000E+00 0. -1.
         23    2    1    2    0    0 -0.49432328839E+02 -0.29437149549E+02  0.23370045134E+03  0.25704580964E+03  0.90258220627E+02 0.  0.
          5    1    1    2  502    0 -0.24969756553E+02 -0.21150415758E+02 -0.23393381416E+02  0.40441952514E+02  0.41800000000E+01 0.  1.
         -5    1    1    2    0  502  0.74402085392E+02  0.50587565307E+02  0.38923023069E+02  0.98118531375E+02  0.41800000000E+01 0.  1.
        -11    1    3    3    0    0 -0.23272898424E+02 -0.47017972092E+02  0.21293325429E+03  0.21930090808E+03  0.00000000000E+00 0.  1.
         11    1    3    3    0    0 -0.26159430415E+02  0.17580822542E+02  0.20767197047E+02  0.37744901564E+02  0.00000000000E+00 0. -1.
</event>
<event>
 7    1  0.6610867E-006  0.1042324E+03  0.7561462E-02  0.1271639E+00
          3   -1    0    0  501    0  0.00000000000E+00  0.00000000000E+00  0.46909413688E+03  0.46909413688E+03  0.00000000000E+00 0.  1.
         -3   -1    0    0    0  501 -0.00000000000E+00 -0.00000000000E+00 -0.52833995919E+02  0.52833995919E+02  0.00000000000E+00 0. -1.
         23    2    1    2    0    0  0.63270778197E+01 -0.32836061279E+02  0.20231945447E+02  0.10527056235E+03  0.97746206300E+02 0.  0.
          5    1    1    2  502    0 -0.14051128308E+02 -0.46376756531E+02  0.17775638513E+03  0.18429064710E+03  0.41800000000E+01 0.  1.
         -5    1    1    2    0  502  0.77240504879E+01  0.79212817809E+02  0.21827181039E+03  0.23236692336E+03  0.41800000000E+01 0.  1.
        -11    1    3    3    0    0  0.39683381622E+02 -0.19333690983E+02  0.43855025301E+02  0.62223995598E+02  0.00000000000E+00 0.  1.
         11    1    3    3    0    0 -0.33356303803E+02 -0.13502370296E+02 -0.23623079854E+02  0.43046566748E+02  0.00000000000E+00 0. -1.
</event>
<event>
 7    1  0.6610867E-006  0.9907934E+02  0.7561462E-02  0.1282244E+00
         -2   -1    0    0    0  501 -0.00000000000E+00  0.00000000000E+00  0.30916610480E+02  0.30916610480E+02  0.00000000000E+00 0.  1.
          2   -1    0    0  501    0  0.00000000000E+00 -0.00000000000E+00 -0.61617816754E+03  0.61617816754E+03  0.00000000000E+00 0. -1.
         23    2    1    2    0    0  0.57252637977E+02 -0.44107012240E+02 -0.15989664325E+03  0.19786802188E+03  0.91441371803E+02 0.  0.
          5    1    1    2  502    0 -0.34913370655E+02  0.21541857434E+01 -0.18914093050E+02  0.39984988215E+02  0.41800000000E+01 0. -1.
         -5    1    1    2    0  502 -0.22339267322E+02  0.41952826496E+02 -0.40645082076E+03  0.40924176792E+03  0.41800000000E+01 0. -1.
        -11    1    3    3    0    0 -0.10338030365E+02 -0.46449017401E+02 -0.51635827588E+02  0.70218550113E+02  0.00000000000E+00 0.  1.
         11    1    3    3    0    0  0.67590668342E+02  0.23420051616E+01 -0.10826081566E+03  0.12764947177E+03  0.00000000000E+00 0. -1.
</event>
<event>
 7    1  0.6610867E-006  0.1028579E+03  0.7561462E-02  0.1274399E+00
          2   -1    0    0  501    0  0.00000000000E+00  0.00000000000E+00  0.11567284712E+04  0.11567284712E+04  0.00000000000E+00 0. -1.
         -2   -1    0    0    0  501 -0.00000000000E+00 -0.00000000000E+00 -0.11523157395E+02  0.11523157395E+02  0.00000000000E+00 0.  1.
         23    2    1    2    0    0 -0.17889908919E+02  0.64172175909E+00  0.24166134900E+03  0.25590836858E+03  0.82270437366E+02 0.  0.
          5    1    1    2  502    0  0.44759750097E+02 -0.51391376193E+02  0.44744131300E+03  0.45262093384E+03  0.41800000000E+01 0. -1.
         -5    1    1    2    0  502 -0.26869841178E+02  0.50749654434E+02  0.45610265185E+03  0.45972232621E+03  0.41800000000E+01 0. -1.
        -11    1    3    3    0    0 -0.48873584248E+02  0.17608279898E+00  0.18477929287E+03  0.19113357977E+03  0.00000000000E+00 0. -1.
         11    1    3    3    0    0  0.30983675329E+02  0.46563896011E+00  0.56882056123E+02  0.64774788809E+02  0.00000000000E+00 0.  1.
</event>
<event>
 7    1  0.6610867E-006  0.9273951E+02  0.7561462E-02  0.1296350E+00
         -2   -1    0    0    0  501 -0.00000000000E+00  0.00000000000E+00  0.38716686453E+03  0.38716686453E+03  0.00000000000E+00 0. -1.
          2   -1    0    0  501    0  0.00000000000E+00 -0.00000000000E+00 -0.39585733242E+02  0.39585733242E+02  0.00000000000E+00 0.  1.
         23    2    1    2    0    0 -0.56693697206E+02  0.76628948571E+01  0.13784574349E+03  0.17593634954E+03  0.93162518371E+02 0.  0.
          5    1    1    2  502    0 -0.89035965504E+01  0.31420506423E+02  0.63520232211E+01  0.33531222083E+02  0.41800000000E+01 0. -1.
         -5    1    1    2    0  502  0.65597293756E+02 -0.39083401280E+02  0.20338336458E+03  0.21728502616E+03  0.41800000000E+01 0. -1.
        -11    1    3    3    0    0 -0.43386854571E+02  0.28102656842E+02  0.19732568504E+02  0.55331299740E+02  0.00000000000E+00 0.  1.
         11    1    3    3    0    0 -0.13306842634E+02 -0.20439761985E+02  0.11811317499E+03  0.12060504980E+03  0.00000000000E+00 0. -1.
</event>
<event>
 7    1  0.6610867E-006  0.1245012E+03  0.7561462E-02  0.1235851E+00
         -2   -1    0    0    0  501 -0.00000000000E+00  0.00000000000E+00  0.29456626326E+03  0.29456626326E+03  0.00000000000E+00 0.  1.
          2   -1    0    0  501    0  0.00000000000E+00 -0.00000000000E+00 -0.11290905329E+03  0.11290905329E+03  0.00000000000E+00 0. -1.
         23    2    1    2    0    0 -0.69904864271E+02 -0.28484642627E+01  0.22900805485E+03  0.25652874506E+03  0.92019041818E+02 0.  0.
          5    1    1    2  502    0  0.98271367331E+02 -0.15300698459E+02 -0.93219171771E+01  0.99978715487E+02  0.41800000000E+01 0. -1.
         -5    1    1    2    0  502 -0.28366503061E+02  0.18149162722E+02 -0.38028927707E+02  0.50967856007E+02  0.41800000000E+01 0. -1.
        -11    1    3    3    0    0 -0.90454045703E+02  0.10438601515E+02  0.18407709074E+03  0.20536619518E+03  0.00000000000E+00 0.  1.
         11    1    3    3    0    0  0.20549181432E+02 -0.13287065778E+02  0.44930964110E+02  0.51162549881E+02  0.00000000000E+00 0. -1.
</event>
<event>
 7    1  0.6610867E-006  0.1141174E+03  0.7561462E-02  0.1253130E+00
          1   -1    0    0  501    0  0.00000000000E+00  0.00000000000E+00  0.62937814296E+03  0.62937814296E+03  0.00000000000E+00 0. -1.
         -1   -1    0    0    0  501 -0.00000000000E+00 -0.00000000000E+00 -0.23168391334E+02  0.23168391334E+02  0.00000000000E+00 0.  1.
         23    2    1    2    0    0  0.14428122408E+02  0.53031383618E+02  0.21756050576E+03  0.24431432346E+03  0.96625134476E+02 0.  0.
          5    1    1    2  502    0 -0.23502697525E+02 -0.86101831557E+02  0.30232185417E+03  0.31524891451E+03  0.41800000000E+01 0. -1.
         -5    1    1    2    0  502  0.90745751174E+01  0.33070447938E+02  0.86327391693E+02  0.92983296333E+02  0.41800000000E+01 0.  1.
        -11    1    3    3    0    0  0.52005103913E+02  0.26740820001E+02  0.16223560384E+03  0.17245287310E+03  0.00000000000E+00 0. -1.
         11    1    3    3    0    0 -0.37576981504E+02  0.26290563617E+02  0.55324901926E+02  0.71861450357E+02  0.00000000000E+00 0.  1.
</event>
<event>
 7    1  0.6610867E-006  0.1411906E+03  0.7561462E-02  0.1211736E+00
         -1   -1    0    0    0  501 -0.00000000000E+00  0.00000000000E+00  0.64030039440E+03  0.64030039440E+03  0.00000000000E+00 0.  1.
          1   -1    0    0  501    0  0.00000000000E+00 -0.00000000000E+00 -0.51925573814E+02  0.51925573814E+02  0.00000000000E+00 0. -1.
         23    2    1    2    0    0 -0.49008688433E+02  0.69868738674E+02  0.41467237641E+03  0.43319110375E+03  0.91748898792E+02 0.  0.
          5    1    1    2  502    0  0.69242865461E+02 -0.10951864553E+03  0.17052997692E+03  0.21421216951E+03  0.41800000000E+01 0. -1.
         -5    1    1    2    0  502 -0.20234177028E+02  0.39649906860E+02  0.31724672551E+01  0.44822694949E+02  0.41800000000E+01 0.  1.
        -11    1    3    3    0    0 -0.18683519416E+02  0.74985095151E+02  0.37560048916E+03  0.38346781592E+03  0.00000000000E+00 0.  1.
         11    1    3    3    0    0 -0.30325169016E+02 -0.51163564767E+01  0.39071887250E+02  0.49723287831E+02  0.00000000000E+00 0. -1.
</event>
<event>
 7    1  0.6610867E-006  0.1057029E+03  0.7561462E-02  0.1268741E+00
          2   -1    0    0  501    0  0.00000000000E+00  0.00000000000E+00  0.59411105834E+03  0.59411105834E+03  0.00000000000E+00 0. -1.
         -2   -1    0    0    0  501 -0.00000000000E+00 -0.00000000000E+00 -0.20979648728E+02  0.20979648728E+02  0.00000000000E+00 0.  1.
         23    2    1    2    0    0 -0.14806419577E+02 -0.20937090996E+02  0.23397165289E+03  0.25269087400E+03  0.91936671713E+02 0.  0.
          5    1    1    2  502    0 -0.43117675847E+02  0.46993132288E+02  0.17786163537E+03  0.18899661952E+03  0.41800000000E+01 0. -1.
         -5    1    1    2    0  502  0.57924095423E+02 -0.26056041293E+02  0.16129812135E+03  0.17340321355E+03  0.41800000000E+01 0. -1.
        -11    1    3    3    0    0  0.22322127762E+02 -0.37138460703E+02  0.18038001431E+03  0.18551143419E+03  0.00000000000E+00 0. -1.
         11    1    3    3    0    0 -0.37128547338E+02  0.16201369707E+02  0.53591638583E+02  0.67179439815E+02  0.00000000000E+00 0.  1.
</event>
<event>
 7    1  0.6610867E-006  0.1721304E+03  0.7561462E-02  0.1175644E+00
         -4   -1    0    0    0  501 -0.00000000000E+00  0.00000000000E+00  0.66589036863E+03  0.66589036863E+03  0.00000000000E+00 0.  1.
          4   -1    0    0  501    0  0.00000000000E+00 -0.00000000000E+00 -0.70539684287E+02  0.70539684287E+02  0.00000000000E+00 0. -1.
         23    2    1    2    0    0 -0.16184011600E+03 -0.52507485065E+02  0.41844161365E+03  0.46094160205E+03  0.91785169455E+02 0.  0.
          5    1    1    2  502    0  0.13302534452E+03  0.47461453999E+02  0.57625619662E+02  0.15259920165E+03  0.41800000000E+01 0. -1.
         -5    1    1    2    0  502  0.28814771473E+02  0.50460310662E+01  0.11928345103E+03  0.12288924922E+03  0.41800000000E+01 0. -1.
        -11    1    3    3    0    0 -0.60488769788E+02 -0.28712766266E+01  0.25653187611E+03  0.26358250883E+03  0.00000000000E+00 0.  1.
         11    1    3    3    0    0 -0.10135134621E+03 -0.49636208438E+02  0.16190973754E+03  0.19735909322E+03  0.00000000000E+00 0. -1.
</event>
<event>
 7    1  0.6610867E-006  0.2005244E+03  0.7561462E-02  0.1149297E+00
         -1   -1    0    0    0  501 -0.00000000000E+00  0.00000000000E+00  0.23361857866E+02  0.23361857866E+02  0.00000000000E+00 0.  1.
          1   -1    0    0  501    0  0.00000000000E+00 -0.00000000000E+00 -0.22194929332E+04  0.22194929332E+04  0.00000000000E+00 0. -1.
         23    2    1    2    0    0 -0.17579262621E+03  0.81400200999E+02 -0.83084856467E+03  0.85823435311E+03  0.93422841372E+02 0.  0.
          5    1    1    2  502    0  0.13348610853E+03 -0.81606171828E+02 -0.66992088603E+03  0.68796044537E+03  0.41800000000E+01 0. -1.
         -5    1    1    2    0  502  0.42306517677E+02  0.20597082900E+00 -0.69536162459E+03  0.69665999254E+03  0.41800000000E+01 0. -1.
        -11    1    3    3    0    0 -0.11288294749E+02  0.26163393241E+02 -0.43587797142E+02  0.52075376176E+02  0.00000000000E+00 0.  1.
         11    1    3    3    0    0 -0.16450433146E+03  0.55236807759E+02 -0.78726076753E+03  0.80615897693E+03  0.00000000000E+00 0. -1.
</event>
<event>
 7    1  0.6610867E-006  0.9564785E+02  0.7561462E-02  0.1289724E+00
          1   -1    0    0  501    0  0.00000000000E+00  0.00000000000E+00  0.12672078742E+04  0.12672078742E+04  0.00000000000E+00 0. -1.
         -1   -1    0    0    0  501 -0.00000000000E+00 -0.00000000000E+00 -0.19324441166E+02  0.19324441166E+02  0.00000000000E+00 0.  1.
         23    2    1    2    0    0  0.39985833948E+02 -0.57507983478E+02  0.23557279223E+03  0.26411984511E+03  0.96740462398E+02 0.  0.
          5    1    1    2  502    0 -0.49824175355E+02  0.39100905763E+02  0.98825584317E+03  0.99029208481E+03  0.41800000000E+01 0.  1.
         -5    1    1    2    0  502  0.98383414072E+01  0.18407077715E+02  0.24054797650E+02  0.32120385453E+02  0.41800000000E+01 0.  1.
        -11    1    3    3    0    0  0.62268676081E+02 -0.24944027245E+02  0.20015997719E+03  0.21110094501E+03  0.00000000000E+00 0. -1.
         11    1    3    3    0    0 -0.22282842133E+02 -0.32563956233E+02  0.35412815034E+02  0.53018900099E+02  0.00000000000E+00 0.  1.
</event>
<event>
 7    1  0.6610867E-006  0.2434257E+03  0.7561462E-02  0.1117532E+00
         -1   -1    0    0    0  501 -0.00000000000E+00  0.00000000000E+00  0.69767657178E+02  0.69767657178E+02  0.00000000000E+00 0.  1.
          1   -1    0    0  501    0  0.00000000000E+00 -0.00000000000E+00 -0.10665508536E+04  0.10665508536E+04  0.00000000000E+00 0. -1.
         23    2    1    2    0    0  0.22721667100E+03  0.34593427519E+02 -0.28122993748E+03  0.37442062953E+03  0.90974772733E+02 0.  0.
          5    1    1    2  502    0 -0.13066410774E+03  0.29636265561E+02 -0.26948693494E+03  0.30098521192E+03  0.41800000000E+01 0. -1.
         -5    1    1    2    0  502 -0.96552563256E+02 -0.64229693080E+02 -0.44606632397E+03  0.46091266930E+03  0.41800000000E+01 0. -1.
        -11    1    3    3    0    0  0.98315974447E+02 -0.13385027017E+02 -0.66599107689E+02  0.11950159382E+03  0.00000000000E+00 0.  1.
         11    1    3    3    0    0  0.12890069655E+03  0.47978454537E+02 -0.21463082979E+03  0.25491903571E+03  0.00000000000E+00 0. -1.
</event>
<event>
 7    1  0.6610867E-006  0.9489313E+02  0.7561462E-02  0.1291417E+00
         -1   -1    0    0    0  501 -0.00000000000E+00  0.00000000000E+00  0.65256707005E+02  0.65256707005E+02  0.00000000000E+00 0.  1.
          1   -1    0    0  501    0  0.00000000000E+00 -0.00000000000E+00 -0.28780342036E+03  0.28780342036E+03  0.00000000000E+00 0. -1.
         23    2    1    2    0    0 -0.98796680067E+01 -0.57995678328E+02 -0.25167908657E+02  0.11209246676E+03  0.92033640232E+02 0.  0.
          5    1    1    2  502    0  0.11733995053E+02 -0.13487554743E+02  0.10461236040E+02  0.21130798194E+02  0.41800000000E+01 0.  1.
         -5    1    1    2    0  502 -0.18543270460E+01  0.71483233071E+02 -0.20784004074E+03  0.21983686241E+03  0.41800000000E+01 0.  1.
        -11    1    3    3    0    0  0.89250730117E+01  0.18758323059E+02  0.12821248016E+02  0.24411391049E+02  0.00000000000E+00 0.  1.
         11    1    3    3    0    0 -0.18804741018E+02 -0.76754001387E+02 -0.37989156673E+02  0.87681075714E+02  0.00000000000E+00 0. -1.
</event>
<event>
 7    1  0.6610867E-006  0.1433980E+03  0.7561462E-02  0.1208828E+00
          2   -1    0    0  501    0  0.00000000000E+00  0.00000000000E+00  0.51258963159E+03  0.51258963159E+03  0.00000000000E+00 0. -1.
         -2   -1    0    0    0  501 -0.00000000000E+00 -0.00000000000E+00 -0.56356058363E+02  0.56356058363E+02  0.00000000000E+00 0.  1.
         23    2    1    2    0    0 -0.93189849345E+02 -0.82727825144E+02  0.15242291007E+03  0.21755543528E+03  0.92570961048E+02 0.  0.
          5    1    1    2  502    0  0.27654056259E+02  0.52036260574E+02  0.26473548018E+02  0.64736700463E+02  0.41800000000E+01 0.  1.
         -5    1    1    2    0  502  0.65535793085E+02  0.30691564570E+02  0.27733711513E+03  0.28665355421E+03  0.41800000000E+01 0.  1.
        -11    1    3    3    0    0  0.18774844172E+02 -0.68788159599E+01  0.19936474043E+02  0.28236074089E+02  0.00000000000E+00 0.  1.
         11    1    3    3    0    0 -0.11196469352E+03 -0.75849009184E+02  0.13248643603E+03  0.18931936119E+03  0.00000000000E+00 0. -1.
</event>
<event>
 7    1  0.6610867E-006  0.1066563E+03  0.7561462E-02  0.1266890E+00
          2   -1    0    0  501    0  0.00000000000E+00  0.00000000000E+00  0.17611985844E+04  0.17611985844E+04  0.00000000000E+00 0. -1.
         -2   -1    0    0    0  501 -0.00000000000E+00 -0.00000000000E+00 -0.19508096914E+02  0.19508096914E+02  0.00000000000E+00 0.  1.
         23    2    1    2    0    0 -0.51281741994E+02  0.57453564096E+02  0.20743139183E+03  0.23943162401E+03  0.91482190467E+02 0.  0.
          5    1    1    2  502    0  0.44545499705E+02  0.25986712472E+02  0.32283803623E+03  0.32695791902E+03  0.41800000000E+01 0. -1.
         -5    1    1    2    0  502  0.67362422882E+01 -0.83440276568E+02  0.12114210594E+04  0.12143171383E+04  0.41800000000E+01 0. -1.
        -11    1    3    3    0    0 -0.17101356201E+02  0.27092988707E+02  0.18635668532E+03  0.18909072051E+03  0.00000000000E+00 0. -1.
         11    1    3    3    0    0 -0.34180385793E+02  0.30360575389E+02  0.21074706511E+02  0.50340903502E+02  0.00000000000E+00 0.  1.
</event>
<event>
 7    1  0.6610867E-006  0.8362092E+02  0.7561462E-02  0.1319079E+00
         -2   -1    0    0    0  501 -0.00000000000E+00  0.00000000000E+00  0.10642077050E+03  0.10642077050E+03  0.00000000000E+00 0.  1.
          2   -1    0    0  501    0  0.00000000000E+00 -0.00000000000E+00 -0.31420267595E+03  0.31420267595E+03  0.00000000000E+00 0. -1.
         23    2    1    2    0    0  0.22017537231E+02  0.50371211269E+02  0.44638904524E+02  0.11677715454E+03  0.92856023791E+02 0.  0.
          5    1    1    2  502    0  0.10028610517E+02  0.87829399696E+00 -0.24214810024E+03  0.24239331526E+03  0.41800000000E+01 0. -1.
         -5    1    1    2    0  502 -0.32046147748E+02 -0.51249505266E+02 -0.10272709733E+02  0.61452976663E+02  0.41800000000E+01 0.  1.
        -11    1    3    3    0    0 -0.21098498839E+02  0.48162003608E+02  0.50865881694E+02  0.73157796340E+02  0.00000000000E+00 0.  1.
         11    1    3    3    0    0  0.43116036070E+02  0.22092076609E+01 -0.62269771696E+01  0.43619358197E+02  0.00000000000E+00 0. -1.
</event>
<event>
 7    1  0.6610867E-006  0.1425179E+03  0.7561462E-02  0.1209981E+00
          1   -1    0    0  501    0  0.00000000000E+00  0.00000000000E+00  0.89184623943E+03  0.89184623943E+03  0.00000000000E+00 0. -1.
         -1   -1    0    0    0  501 -0.00000000000E+00 -0.00000000000E+00 -0.30957622084E+02  0.30957622084E+02  0.00000000000E+00 0.  1.
         23    2    1    2    0    0  0.49690966031E+02 -0.11372757457E+03  0.42193026516E+03  0.44979712524E+03  0.94282298926E+02 0.  0.
          5    1    1    2  502    0 -0.23769413301E+02  0.66125630280E+01  0.53452284391E+01  0.25588178238E+02  0.41800000000E+01 0. -1.
         -5    1    1    2    0  502 -0.25921552731E+02  0.10711501154E+03  0.43361312374E+03  0.44741855804E+03  0.41800000000E+01 0. -1.
        -11    1    3    3    0    0 -0.23846673436E+02 -0.27532293680E+02  0.16534431276E+03  0.16930869083E+03  0.00000000000E+00 0. -1.
         11    1    3    3    0    0  0.73537639467E+02 -0.86195280888E+02  0.25658595241E+03  0.28048843441E+03  0.00000000000E+00 0.  1.
</event>
<event>
 7    1  0.6610867E-006  0.1364934E+03  0.7561462E-02  0.1218127E+00
         -1   -1    0    0    0  501 -0.00000000000E+00  0.00000000000E+00  0.18246439113E+02  0.18246439113E+02  0.00000000000E+00 0.  1.
          1   -1    0    0  501    0  0.00000000000E+00 -0.00000000000E+00 -0.13617079488E+04  0.13617079488E+04  0.00000000000E+00 0. -1.
         23    2    1    2    0    0  0.83413788831E+02  0.16176432656E+02 -0.28449059130E+03  0.31024093927E+03  0.89972255283E+02 0.  0.
          5    1    1    2  502    0  0.36977165419E+00 -0.57088292956E+02 -0.35572979656E+03  0.36030594012E+03  0.41800000000E+01 0. -1.
         -5    1    1    2    0  502 -0.83783560486E+02  0.40911860300E+02 -0.70324112179E+03  0.70940750849E+03  0.41800000000E+01 0. -1.
        -11    1    3    3    0    0  0.18784151273E+02  0.47142426907E+02 -0.96024026240E+02  0.10860877667E+03  0.00000000000E+00 0.  1.
         11    1    3    3    0    0  0.64629637559E+02 -0.30965994250E+02 -0.18846656506E+03  0.20163216260E+03  0.00000000000E+00 0. -1.
</event>
<event>
 7    1  0.6610867E-006  0.1172437E+03  0.7561462E-02  0.1247715E+00
          2   -1    0    0  501    0  0.00000000000E+00  0.00000000000E+00  0.72394598105E+02  0.72394598105E+02  0.00000000000E+00 0. -1.
         -2   -1    0    0    0  501 -0.00000000000E+00 -0.00000000000E+00 -0.30118064493E+03  0.30118064493E+03  0.00000000000E+00 0.  1.
         23    2    1    2    0    0 -0.80741714597E+02  0.47806366396E+02 -0.14868117523E+03  0.19788125921E+03  0.90808742618E+02 0.  0.
          5    1    1    2  502    0  0.81166840847E+02 -0.54571686043E+02 -0.10853917275E+03  0.14616548632E+03  0.41800000000E+01 0. -1.
         -5    1    1    2    0  502 -0.42512624936E+00  0.67653196461E+01  0.28434301157E+02  0.29528497498E+02  0.41800000000E+01 0. -1.
        -11    1    3    3    0    0 -0.16050954445E+02 -0.25955206071E+02 -0.51013907793E+02  0.59445139827E+02  0.00000000000E+00 0.  1.
         11    1    3    3    0    0 -0.64690760152E+02  0.73761572468E+02 -0.97667267436E+02  0.13843611938E+03  0.00000000000E+00 0. -1.
</event>
<event>
 7    1  0.6610867E-006  0.1066402E+03  0.7561462E-02  0.1266921E+00
          2   -1    0    0  501    0  0.00000000000E+00  0.00000000000E+00  0.32809241297E+03  0.32809241297E+03  0.00000000000E+00 0. -1.
         -2   -1    0    0    0  501 -0.00000000000E+00 -0.00000000000E+00 -0.60557255575E+02  0.60557255575E+02  0.00000000000E+00 0.  1.
         23    2    1    2    0    0 -0.49018779754E+02  0.79733999048E+02  0.12078715617E+03  0.17430338583E+03  0.83855720386E+02 0.  0.
          5    1    1    2  502    0  0.55485290552E+02 -0.67680485966E+02  0.16756490599E+03  0.18908922700E+03  0.41800000000E+01 0. -1.
         -5    1    1    2    0  502 -0.64665107975E+01 -0.12053513082E+02 -0.20816904766E+02  0.25257055719E+02  0.41800000000E+01 0. -1.
        -11    1    3    3    0    0 -0.48538521035E+00  0.58304696441E+02  0.22281212152E+02  0.62418952577E+02  0.00000000000E+00 0. -1.
         11    1    3    3    0    0 -0.48533394544E+02  0.21429302608E+02  0.98505944020E+02  0.11188443325E+03  0.00000000000E+00 0.  1.
</event>
<event>
 7    1  0.6610867E-006  0.1229737E+03  0.7561462E-02  0.1238271E+00
          1   -1    0    0  501    0  0.00000000000E+00  0.00000000000E+00  0.28542756762E+03  0.28542756762E+03  0.00000000000E+00 0. -1.
         -1   -1    0    0    0  501 -0.00000000000E+00 -0.00000000000E+00 -0.57927867534E+02  0.57927867534E+02  0.00000000000E+00 0.  1.
         23    2    1    2    0    0  0.59873408986E+02  0.29580094532E+02  0.73613131142E+02  0.13410076440E+03  0.90023968147E+02 0.  0.
          5    1    1    2  502    0 -0.96102705221E+01 -0.73781628512E+02  0.75291711645E+02  0.10593583080E+03  0.41800000000E+01 0.  1.
         -5    1    1    2    0  502 -0.50263138464E+02  0.44201533980E+02  0.78594857294E+02  0.10331883994E+03  0.41800000000E+01 0.  1.
        -11    1    3    3    0    0  0.71118277560E+02  0.45825148673E+02  0.36674879448E+02  0.92210630822E+02  0.00000000000E+00 0. -1.
         11    1    3    3    0    0 -0.11244868574E+02 -0.16245054141E+02  0.36938251694E+02  0.41890133582E+02  0.00000000000E+00 0.  1.
</event>
<event>
 7    1  0.6610867E-006  0.2301432E+03  0.7561462E-02  0.1126539E+00
          2   -1    0    0  501    0  0.00000000000E+00  0.00000000000E+00  0.79478192880E+03  0.79478192880E+03  0.00000000000E+00 0. -1.
         -2   -1    0    0    0  501 -0.00000000000E+00 -0.00000000000E+00 -0.68539675053E+02  0.68539675053E+02  0.00000000000E+00 0.  1.
         23    2    1    2    0    0 -0.20200013508E+03 -0.23091827689E+02  0.35354863012E+03  0.42073319609E+03  0.10335618683E+03 0.  0.
          5    1    1    2  502    0  0.75967980923E+01  0.38789081722E+02  0.36866316271E+02  0.54211639686E+02  0.41800000000E+01 0. -1.
         -5    1    1    2    0  502  0.19440333698E+03 -0.15697254033E+02  0.33582730736E+03  0.38837676808E+03  0.41800000000E+01 0. -1.
        -11    1    3    3    0    0 -0.15265825617E+03 -0.59807570817E+02  0.22686657780E+03  0.27991058005E+03  0.00000000000E+00 0. -1.
         11    1    3    3    0    0 -0.49341878909E+02  0.36715743127E+02  0.12668205233E+03  0.14082261604E+03  0.00000000000E+00 0.  1.
</event>
<event>
 7    1  0.6610867E-006  0.2012809E+03  0.7561462E-02  0.1148663E+00
         -1   -1    0    0    0  501 -0.00000000000E+00  0.00000000000E+00  0.29714108510E+03  0.29714108510E+03  0.00000000000E+00 0.  1.
          1   -1    0    0  501    0  0.00000000000E+00 -0.00000000000E+00 -0.18756891276E+03  0.18756891276E+03  0.00000000000E+00 0. -1.
         23    2    1    2    0    0  0.59091010478E+02  0.17800434322E+03  0.14875833593E+03  0.25588815457E+03  0.90401390561E+02 0.  0.
          5    1    1    2  502    0  0.10943740848E+02 -0.11907858354E+03  0.17731120847E+02  0.12096007428E+03  0.41800000000E+01 0.  1.
         -5    1    1    2    0  502 -0.70034751326E+02 -0.58925759681E+02 -0.56917284440E+02  0.10786176902E+03  0.41800000000E+01 0.  1.
        -11    1    3    3    0    0  0.22111978837E+02  0.12322951320E+03  0.14222178378E+03  0.18947688068E+03  0.00000000000E+00 0.  1.
         11    1    3    3    0    0  0.36979031641E+02  0.54774830028E+02  0.65365521494E+01  0.66411273891E+02  0.00000000000E+00 0. -1.
</event>
<event>
 7    1  0.6610867E-006  0.1366553E+03  0.7561462E-02  0.1217902E+00
         -1   -1    0    0    0  501 -0.00000000000E+00  0.00000000000E+00  0.18052514611E+03  0.18052514611E+03  0.00000000000E+00 0.  1.
          1   -1    0    0  501    0  0.00000000000E+00 -0.00000000000E+00 -0.11311654124E+03  0.11311654124E+03  0.00000000000E+00 0. -1.
         23    2    1    2    0    0  0.33676578615E+02 -0.80304908237E+02  0.66037963794E+02  0.14122658741E+03  0.89448007784E+02 0.  0.
          5    1    1    2  502    0  0.12871227317E+02  0.97984666028E+02 -0.14535418998E+02  0.99977067744E+02  0.41800000000E+01 0. -1.
         -5    1    1    2    0  502 -0.46547805932E+02 -0.17679757790E+02  0.15906060072E+02  0.52438032187E+02  0.41800000000E+01 0. -1.
        -11    1    3    3    0    0 -0.21177071419E+02 -0.63682712243E+02  0.29919487094E+02  0.73478785377E+02  0.00000000000E+00 0. -1.
         11    1    3    3    0    0  0.54853650034E+02 -0.16622195994E+02  0.36118476700E+02  0.67747802037E+02  0.00000000000E+00 0.  1.
</event>
<event>
 7    1  0.6610867E-006  0.7534684E+02  0.7561462E-02  0.1342800E+00
          1   -1    0    0  501    0  0.00000000000E+00  0.00000000000E+00  0.19199659218E+03  0.19199659218E+03  0.00000000000E+00 0. -1.
         -1   -1    0    0    0  501 -0.00000000000E+00 -0.00000000000E+00 -0.85463425210E+02  0.85463425210E+02  0.00000000000E+00 0.  1.
         23    2    1    2    0    0  0.47024257165E+02  0.45413041521E+02  0.24839358027E+02  0.11438375302E+03  0.90515325471E+02 0.  0.
          5    1    1    2  502    0 -0.69607471398E+01 -0.40637705872E+02  0.10735631453E+03  0.11507704293E+03  0.41800000000E+01 0.  1.
         -5    1    1    2    0  502 -0.40063510025E+02 -0.47753356490E+01 -0.25662505590E+02  0.47999221444E+02  0.41800000000E+01 0.  1.
        -11    1    3    3    0    0  0.44521564404E+02  0.31462739277E+02 -0.26861722939E+02  0.60775207273E+02  0.00000000000E+00 0.  1.
         11    1    3    3    0    0  0.25026927609E+01  0.13950302244E+02  0.51701080966E+02  0.53608545744E+02  0.00000000000E+00 0. -1.
</event>
<event>
 7    1  0.6610867E-006  0.1199700E+03  0.7561462E-02  0.1243147E+00
          1   -1    0    0  501    0  0.00000000000E+00  0.00000000000E+00  0.52444900891E+02  0.52444900891E+02  0.00000000000E+00 0. -1.
         -1   -1    0    0    0  501 -0.00000000000E+00 -0.00000000000E+00 -0.50853130445E+03  0.50853130445E+03  0.00000000000E+00 0.  1.
         23    2    1    2    0    0  0.10133870934E+03  0.34276881091E+02 -0.31145554495E+03  0.34186208981E+03  0.91764336110E+02 0.  0.
          5    1    1    2  502    0 -0.94992136303E+02 -0.49733444292E+02 -0.16221851575E+03  0.19449740536E+03  0.41800000000E+01 0.  1.
         -5    1    1    2    0  502 -0.63465730407E+01  0.15456563201E+02  0.17587657145E+02  0.24616710162E+02  0.41800000000E+01 0.  1.
        -11    1    3    3    0    0  0.90016519819E+02  0.44266511999E+02 -0.31097677336E+03  0.32675533889E+03  0.00000000000E+00 0.  1.
         11    1    3    3    0    0  0.11322189524E+02 -0.99896309083E+01 -0.47877159672E+00  0.15106750926E+02  0.00000000000E+00 0. -1.
</event>
<event>
 7    1  0.6610867E-006  0.2007172E+03  0.7561462E-02  0.1149135E+00
          2   -1    0    0  501    0  0.00000000000E+00  0.00000000000E+00  0.86355268354E+03  0.86355268354E+03  0.00000000000E+00 0. -1.
         -2   -1    0    0    0  501 -0.00000000000E+00 -0.00000000000E+00 -0.54895500745E+02  0.54895500745E+02  0.00000000000E+00 0.  1.
         23    2    1    2    0    0 -0.21457248448E+02  0.17468469972E+03  0.24483778929E+03  0.31464005036E+03  0.89875805430E+02 0.  0.
          5    1    1    2  502    0  0.52396806536E+01 -0.18873628369E+03  0.53679909277E+03  0.56905147169E+03  0.41800000000E+01 0.  1.
         -5    1    1    2    0  502  0.16217567795E+02  0.14051583977E+02  0.27020300728E+02  0.34756662222E+02  0.41800000000E+01 0.  1.
        -11    1    3    3    0    0 -0.46566450141E+02  0.78158016855E+02  0.76013011032E+02  0.11855415524E+03  0.00000000000E+00 0.  1.
         11    1    3    3    0    0  0.25109201693E+02  0.96526682862E+02  0.16882477826E+03  0.19608589513E+03  0.00000000000E+00 0. -1.
</event>
<event>
 7    1  0.6610867E-006  0.1460481E+03  0.7561462E-02  0.1205415E+00
          1   -1    0    0  501    0  0.00000000000E+00  0.00000000000E+00  0.47213664128E+02  0.47213664128E+02  0.00000000000E+00 0. -1.
         -1   -1    0    0    0  501 -0.00000000000E+00 -0.00000000000E+00 -0.80434328003E+03  0.80434328003E+03  0.00000000000E+00 0.  1.
         23    2    1    2    0    0  0.47960128565E+02 -0.12683469349E+03 -0.55114118242E+03  0.57503187970E+03  0.92292179016E+02 0.  0.
          5    1    1    2  502    0 -0.38334435279E+02  0.90768731578E+02 -0.40139854478E+02  0.10647615638E+03  0.41800000000E+01 0.  1.
         -5    1    1    2    0  502 -0.96256932862E+01  0.36065961914E+02 -0.16584857900E+03  0.17004890807E+03  0.41800000000E+01 0.  1.
        -11    1    3    3    0    0  0.12685062192E+02 -0.11913532123E+03 -0.48604116896E+03  0.50058980562E+03  0.00000000000E+00 0.  1.
         11    1    3    3    0    0  0.35275066373E+02 -0.76993722623E+01 -0.65100013462E+02  0.74442074082E+02  0.00000000000E+00 0. -1.
</event>
<event>
 7    1  0.6610867E-006  0.1234911E+03  0.7561462E-02  0.1237446E+00
         -2   -1    0    0    0  501 -0.00000000000E+00  0.00000000000E+00  0.88731321387E+02  0.88731321387E+02  0.00000000000E+00 0.  1.
          2   -1    0    0  501    0  0.00000000000E+00 -0.00000000000E+00 -0.21298337643E+03  0.21298337643E+03  0.00000000000E+00 0. -1.
         23    2    1    2    0    0  0.74779477104E+02  0.31103907729E+02 -0.28589939953E+02  0.12463373690E+03  0.90314785252E+02 0.  0.
          5    1    1    2  502    0 -0.52969469732E+02 -0.70557083434E+02 -0.97768716341E+02  0.13175834335E+03  0.41800000000E+01 0. -1.
         -5    1    1    2    0  502 -0.21810007371E+02  0.39453175705E+02  0.21066012504E+01  0.45322617572E+02  0.41800000000E+01 0. -1.
        -11    1    3    3    0    0  0.16388174742E+02  0.49515429175E+02  0.88003436947E+01  0.52894196723E+02  0.00000000000E+00 0.  1.
         11    1    3    3    0    0  0.58391302362E+02 -0.18411521446E+02 -0.37390283648E+02  0.71739540177E+02  0.00000000000E+00 0. -1.
</event>
<event>
 7    1  0.6610867E-006  0.1135921E+03  0.7561462E-02  0.1254059E+00
          2   -1    0    0  501    0  0.00000000000E+00  0.00000000000E+00  0.14466773168E+04  0.14466773168E+04  0.00000000000E+00 0. -1.
         -2   -1    0    0    0  501 -0.00000000000E+00 -0.00000000000E+00 -0.55253680441E+02  0.55253680441E+02  0.00000000000E+00 0.  1.
         23    2    1    2    0    0 -0.38521639205E+01  0.67997645602E+02  0.12133968449E+02  0.11329834873E+03  0.89726047833E+02 0.  0.
          5    1    1    2  502    0 -0.35476843307E+02  0.25913092683E+02  0.73604664457E+03  0.73736844939E+03  0.41800000000E+01 0. -1.
         -5    1    1    2    0  502  0.39329007227E+02 -0.93910738284E+02  0.64324302333E+03  0.65126419911E+03  0.41800000000E+01 0.  1.
        -11    1    3    3    0    0  0.17072789165E+02  0.52239952452E+02  0.45168617313E+02  0.71138574290E+02  0.00000000000E+00 0.  1.
         11    1    3    3    0    0 -0.20924953086E+02  0.15757693150E+02 -0.33034648864E+02  0.42159774437E+02  0.00000000000E+00 0. -1.
</event>
<event>
 7    1  0.6610867E-006  0.1077735E+03  0.7561462E-02  0.1264749E+00
         -1   -1    0    0    0  501 -0.00000000000E+00  0.00000000000E+00  0.40896858518E+02  0.40896858518E+02  0.00000000000E+00 0.  1.
          1   -1    0    0  501    0  0.00000000000E+00 -0.00000000000E+00 -0.44076008388E+03  0.44076008388E+03  0.00000000000E+00 0. -1.
         23    2    1    2    0    0 -0.36717367621E+02  0.48357590188E+02 -0.12970630117E+03  0.17781272513E+03  0.10538984316E+03 0.  0.
          5    1    1    2  502    0  0.43671830328E+02 -0.88066981672E+02 -0.18510832562E+03  0.20963202675E+03  0.41800000000E+01 0.  1.
         -5    1    1    2    0  502 -0.69544627071E+01  0.39709391484E+02 -0.85048598573E+02  0.94212190521E+02  0.41800000000E+01 0.  1.
        -11    1    3    3    0    0  0.13139318546E+01  0.36878125399E+02  0.51205757334E+01  0.37255104962E+02  0.00000000000E+00 0.  1.
         11    1    3    3    0    0 -0.38031299476E+02  0.11479464789E+02 -0.13482687690E+03  0.14055762017E+03  0.00000000000E+00 0. -1.
</event>
<event>
 7    1  0.6610867E-006  0.1143613E+03  0.7561462E-02  0.1252700E+00
         -1   -1    0    0    0  501 -0.00000000000E+00  0.00000000000E+00  0.15879526690E+02  0.15879526690E+02  0.00000000000E+00 0.  1.
          1   -1    0    0  501    0  0.00000000000E+00 -0.00000000000E+00 -0.16505788467E+04  0.16505788467E+04  0.00000000000E+00 0. -1.
         23    2    1    2    0    0  0.43044722124E+02  0.25732498537E+01 -0.18524607938E+03  0.21097845317E+03  0.91303494225E+02 0.  0.
          5    1    1    2  502    0 -0.28883964443E+02  0.59814483419E+02 -0.62344081474E+03  0.62698323559E+03  0.41800000000E+01 0.  1.
         -5    1    1    2    0  502 -0.14160757681E+02 -0.62387733272E+02 -0.82601242592E+03  0.82849668467E+03  0.41800000000E+01 0.  1.
        -11    1    3    3    0    0  0.61442363929E+02 -0.23808280075E+02 -0.14639824287E+03  0.16054421136E+03  0.00000000000E+00 0. -1.
         11    1    3    3    0    0 -0.18397641805E+02  0.26381529928E+02 -0.38847836508E+02  0.50434241807E+02  0.00000000000E+00 0.  1.
</event>
<event>
 7    1  0.6610867E-006  0.1310741E+03  0.7561462E-02  0.1225871E+00
          1   -1    0    0  501    0  0.00000000000E+00  0.00000000000E+00  0.95254284049E+02  0.95254284049E+02  0.00000000000E+00 0. -1.
         -1   -1    0    0    0  501 -0.00000000000E+00 -0.00000000000E+00 -0.22259257704E+03  0.22259257704E+03  0.00000000000E+00 0.  1.
         23    2    1    2    0    0 -0.64307010461E+02  0.60267268451E+02 -0.10589053573E+03  0.16333079880E+03  0.87730319938E+02 0.  0.
          5    1    1    2  502    0  0.43954580341E+02  0.32458590346E+02  0.71894150422E+01  0.55269569465E+02  0.41800000000E+01 0. -1.
         -5    1    1    2    0  502  0.20352430119E+02 -0.92725858796E+02 -0.28637172299E+02  0.99246492827E+02  0.41800000000E+01 0. -1.
        -11    1    3    3    0    0  0.96291340707E+01  0.31581912173E+02 -0.67670674293E+02  0.75295800405E+02  0.00000000000E+00 0.  1.
         11    1    3    3    0    0 -0.73936144532E+02  0.28685356278E+02 -0.38219861440E+02  0.88034998390E+02  0.00000000000E+00 0. -1.
</event>
<event>
 7    1  0.6610867E-006  0.1060032E+03  0.7561462E-02  0.1268156E+00
          2   -1    0    0  501    0  0.00000000000E+00  0.00000000000E+00  0.57915806064E+02  0.57915806064E+02  0.00000000000E+00 0.  1.
         -2   -1    0    0    0  501 -0.00000000000E+00 -0.00000000000E+00 -0.25038160840E+03  0.25038160840E+03  0.00000000000E+00 0. -1.
         23    2    1    2    0    0 -0.46545075876E+02 -0.17294739461E+02 -0.70963052578E+02  0.12697946995E+03  0.92857303732E+02 0.  0.
          5    1    1    2  502    0  0.81870308155E+02 -0.17417391510E+02 -0.87095034248E+02  0.12086823518E+03  0.41800000000E+01 0.  1.
         -5    1    1    2    0  502 -0.35325232279E+02  0.34712130971E+02 -0.34407715510E+02  0.60449709335E+02  0.41800000000E+01 0.  1.
        -11    1    3    3    0    0 -0.26484634877E+02 -0.40143054994E+02 -0.81641680129E+02  0.94753705380E+02  0.00000000000E+00 0. -1.
         11    1    3    3    0    0 -0.20060440999E+02  0.22848315534E+02  0.10678627551E+02  0.32225764571E+02  0.00000000000E+00 0.  1.
</event>
<event>
 7    1  0.6610867E-006  0.1055442E+03  0.7561462E-02  0.1269051E+00
         -1   -1    0    0    0  501 -0.00000000000E+00  0.00000000000E+00  0.42133264296E+03  0.42133264296E+03  0.00000000000E+00 0.  1.
          1   -1    0    0  501    0  0.00000000000E+00 -0.00000000000E+00 -0.31553192704E+02  0.31553192704E+02  0.00000000000E+00 0. -1.
         23    2    1    2    0    0  0.24393272702E+02 -0.19103680840E+02  0.16846717217E+03  0.19678648771E+03  0.96869764490E+02 0.  0.
          5    1    1    2  502    0  0.40238855644E+02 -0.24518985192E+02  0.56246810611E+02  0.73495049100E+02  0.41800000000E+01 0. -1.
         -5    1    1    2    0  502 -0.64632128346E+02  0.43622666031E+02  0.16506546748E+03  0.18260429886E+03  0.41800000000E+01 0. -1.
        -11    1    3    3    0    0  0.87167104198E+01 -0.50157113384E+02  0.14780498051E+03  0.15632667503E+03  0.00000000000E+00 0.  1.
         11    1    3    3    0    0  0.15676562282E+02  0.31053432544E+02  0.20662191659E+02  0.40459812678E+02  0.00000000000E+00 0. -1.
</event>
<event>
 7    1  0.6610867E-006  0.1594326E+03  0.7561462E-02  0.1189339E+00
          1   -1    0    0  501    0  0.00000000000E+00  0.00000000000E+00  0.31524441325E+03  0.31524441325E+03  0.00000000000E+00 0. -1.
         -1   -1    0    0    0  501 -0.00000000000E+00 -0.00000000000E+00 -0.11685088155E+03  0.11685088155E+03  0.00000000000E+00 0.  1.
         23    2    1    2    0    0 -0.11575753178E+03  0.69383625787E+02  0.14514997201E+01  0.16256196326E+03  0.90611209891E+02 0.  0.
          5    1    1    2  502    0 -0.84820228192E+01  0.25254831675E+02  0.38616721524E+02  0.47100688056E+02  0.41800000000E+01 0. -1.
         -5    1    1    2    0  502  0.12423955460E+03 -0.94638457462E+02  0.15832531045E+03  0.22243264348E+03  0.41800000000E+01 0. -1.
        -11    1    3    3    0    0 -0.64039724747E+02  0.46320472180E+02 -0.43541719728E+02  0.90236100567E+02  0.00000000000E+00 0.  1.
         11    1    3    3    0    0 -0.51717807029E+02  0.23063153607E+02  0.44993219449E+02  0.72325862695E+02  0.00000000000E+00 0. -1.
</event>
<event>
 7    1  0.1119160E-005  0.1354608E+03  0.7561462E-02  0.1219571E+00
          1   -1    0    0  501    0  0.00000000000E+00  0.00000000000E+00  0.89762565709E+03  0.89762565709E+03  0.00000000000E+00 0. -1.
         -1   -1    0    0    0  501 -0.00000000000E+00 -0.00000000000E+00 -0.26474613923E+02  0.26474613923E+02  0.00000000000E+00 0.  1.
         23    2    1    2    0    0 -0.74096125049E+02 -0.73300966477E+02  0.32975786924E+03  0.35875296111E+03  0.95394797283E+02 0.  0.
          5    1    1    2  502    0 -0.26776106871E+02  0.39445959320E+02  0.94310468020E+02  0.10575859485E+03  0.41800000000E+01 0.  1.
         -5    1    1    2    0  502  0.10087223192E+03  0.33855007157E+02  0.44708270591E+03  0.45958871506E+03  0.41800000000E+01 0.  1.
        -11    1    3    3    0    0 -0.11099316156E+02  0.80333716528E+01  0.40621128768E+00  0.13707475583E+02  0.00000000000E+00 0.  1.
         11    1    3    3    0    0 -0.62996808893E+02 -0.81334338130E+02  0.32935165795E+03  0.34504548553E+03  0.00000000000E+00 0. -1.
</event>
<event>
 7    1  0.6610867E-006  0.9765005E+02  0.7561462E-02  0.1285317E+00
          3   -1    0    0  501    0  0.00000000000E+00  0.00000000000E+00  0.45582874867E+03  0.45582874867E+03  0.00000000000E+00 0. -1.
         -3   -1    0    0    0  501 -0.00000000000E+00 -0.00000000000E+00 -0.47241529796E+02  0.47241529796E+02  0.00000000000E+00 0.  1.
         23    2    1    2    0    0  0.43246769617E+02 -0.58807114553E+02  0.66370345505E+02  0.13350316685E+03  0.89941719970E+02 0.  0.
          5    1    1    2  502    0 -0.36154875792E+02  0.86237179964E+02  0.31974553244E+03  0.33316468025E+03  0.41800000000E+01 0. -1.
         -5    1    1    2    0  502 -0.70918938248E+01 -0.27430065411E+02  0.22471340930E+02  0.36402431370E+02  0.41800000000E+01 0.  1.
        -11    1    3    3    0    0  0.33490562083E+02 -0.43349484012E+02 -0.93815914858E+01  0.55577061559E+02  0.00000000000E+00 0.  1.
         11    1    3    3    0    0  0.97562075338E+01 -0.15457630541E+02  0.75751936991E+02  0.77926105288E+02  0.00000000000E+00 0. -1.
</event>
<event>
 7    1  0.6610867E-006  0.1201837E+03  0.7561462E-02  0.1242794E+00
         -3   -1    0    0    0  501 -0.00000000000E+00  0.00000000000E+00  0.35706697185E+03  0.35706697185E+03  0.00000000000E+00 0.  1.
          3   -1    0    0  501    0  0.00000000000E+00 -0.00000000000E+00 -0.44258776783E+02  0.44258776783E+02  0.00000000000E+00 0. -1.
         23    2    1    2    0    0  0.51254216792E+02  0.23230673418E+02  0.18557343486E+03  0.21423595907E+03  0.91065292551E+02 0.  0.
          5    1    1    2  502    0 -0.75671477774E+02  0.25506799195E+02  0.57561785559E+02  0.98527158238E+02  0.41800000000E+01 0. -1.
         -5    1    1    2    0  502  0.24417260983E+02 -0.48737472613E+02  0.69672974654E+02  0.88562631328E+02  0.41800000000E+01 0. -1.
        -11    1    3    3    0    0  0.73946340399E+02  0.98334399492E+00  0.14429304366E+03  0.16214040420E+03  0.00000000000E+00 0.  1.
         11    1    3    3    0    0 -0.22692123607E+02  0.22247329423E+02  0.41280391193E+02  0.52095554871E+02  0.00000000000E+00 0. -1.
</event>
<event>
 7    1  0.6610867E-006  0.7008736E+02  0.7561462E-02  0.1359796E+00
          2   -1    0    0  501    0  0.00000000000E+00  0.00000000000E+00  0.30685640393E+03  0.30685640393E+03  0.00000000000E+00 0. -1.
         -2   -1    0    0    0  501 -0.00000000000E+00 -0.00000000000E+00 -0.47726996446E+02  0.47726996446E+02  0.00000000000E+00 0.  1.
         23    2    1    2    0    0  0.42493949845E+01 -0.18463143833E+01  0.34684037227E+02  0.97583882296E+02  0.91094266620E+02 0.  0.
          5    1    1    2  502    0 -0.20204219828E+02  0.49625890452E+02  0.18567476830E+03  0.19329648596E+03  0.41800000000E+01 0.  1.
         -5    1    1    2    0  502  0.15954824843E+02 -0.47779576068E+02  0.38770601961E+02  0.63703032121E+02  0.41800000000E+01 0.  1.
        -11    1    3    3    0    0 -0.11238543314E+02 -0.12710250917E+02 -0.27651031699E+02  0.32441252876E+02  0.00000000000E+00 0.  1.
         11    1    3    3    0    0  0.15487938298E+02  0.10863936534E+02  0.62335068926E+02  0.65142629420E+02  0.00000000000E+00 0. -1.
</event>
<event>
 7    1  0.6610867E-006  0.1492312E+03  0.7561462E-02  0.1201421E+00
         -1   -1    0    0    0  501 -0.00000000000E+00  0.00000000000E+00  0.27285666347E+02  0.27285666347E+02  0.00000000000E+00 0.  1.
          1   -1    0    0  501    0  0.00000000000E+00 -0.00000000000E+00 -0.88007022980E+03  0.88007022980E+03  0.00000000000E+00 0. -1.
         23    2    1    2    0    0  0.18361652415E+02  0.10475115535E+03 -0.46647564614E+03  0.48760413675E+03  0.94065460732E+02 0.  0.
          5    1    1    2  502    0  0.25407951270E+02  0.18961290097E+02 -0.94580728920E+02  0.99840278410E+02  0.41800000000E+01 0. -1.
         -5    1    1    2    0  502 -0.43769603685E+02 -0.12371244545E+03 -0.29172818839E+03  0.31991148099E+03  0.41800000000E+01 0. -1.
        -11    1    3    3    0    0 -0.30428236091E+02  0.66715977371E+02 -0.32541245343E+03  0.33357182740E+03  0.00000000000E+00 0. -1.
         11    1    3    3    0    0  0.48789888506E+02  0.38035177984E+02 -0.14106319271E+03  0.15403230934E+03  0.00000000000E+00 0.  1.
</event>
<event>
 7    1  0.6610867E-006  0.1931113E+03  0.7561462E-02  0.1155685E+00
          3   -1    0    0  501    0  0.00000000000E+00  0.00000000000E+00  0.86733653757E+02  0.86733653757E+02  0.00000000000E+00 0. -1.
         -3   -1    0    0    0  501 -0.00000000000E+00 -0.00000000000E+00 -0.46600882338E+03  0.46600882338E+03  0.00000000000E+00 0.  1.
         23    2    1    2    0    0  0.13731335854E+03  0.87949677234E+02 -0.24108741482E+03  0.30508568448E+03  0.91455066203E+02 0.  0.
          5    1    1    2  502    0  0.63260961302E+01 -0.57068510500E+02 -0.49984448481E+02  0.76241405240E+02  0.41800000000E+01 0. -1.
         -5    1    1    2    0  502 -0.14363945467E+03 -0.30881166734E+02 -0.88203306320E+02  0.17141538741E+03  0.41800000000E+01 0. -1.
        -11    1    3    3    0    0  0.37046062086E+02  0.70858211381E+02 -0.14269419750E+03  0.16356934565E+03  0.00000000000E+00 0.  1.
         11    1    3    3    0    0  0.10026729645E+03  0.17091465853E+02 -0.98393217322E+02  0.14151633884E+03  0.00000000000E+00 0. -1.
</event>
<event>
 7    1  0.6610867E-006  0.1975369E+03  0.7561462E-02  0.1151834E+00
         -1   -1    0    0    0  501 -0.00000000000E+00  0.00000000000E+00  0.38477093418E+02  0.38477093418E+02  0.00000000000E+00 0.  1.
          1   -1    0    0  501    0  0.00000000000E+00 -0.00000000000E+00 -0.10832835758E+04  0.10832835758E+04  0.00000000000E+00 0. -1.
         23    2    1    2    0    0 -0.72392886646E+02 -0.14928722788E+03 -0.36901298720E+03  0.41474128106E+03  0.91172029981E+02 0.  0.
          5    1    1    2  502    0  0.43113152017E+02 -0.10181120122E+02 -0.17766087567E+03  0.18314818652E+03  0.41800000000E+01 0.  1.
         -5    1    1    2    0  502  0.29279734629E+02  0.15946834800E+03 -0.49813261956E+03  0.52387120168E+03  0.41800000000E+01 0.  1.
        -11    1    3    3    0    0 -0.35295171778E+02 -0.14704845368E+03 -0.27879792501E+03  0.31717074246E+03  0.00000000000E+00 0.  1.
         11    1    3    3    0    0 -0.37097714868E+02 -0.22387742029E+01 -0.90215062183E+02  0.97570538602E+02  0.00000000000E+00 0. -1.
</event>
<event>
 7    1  0.6610867E-006  0.9251445E+02  0.7561462E-02  0.1296874E+00
          2   -1    0    0  501    0  0.00000000000E+00  0.00000000000E+00  0.43531770792E+03  0.43531770792E+03  0.00000000000E+00 0.  1.
         -2   -1    0    0    0  501 -0.00000000000E+00 -0.00000000000E+00 -0.38161292890E+02  0.38161292890E+02  0.00000000000E+00 0. -1.
         23    2    1    2    0    0  0.40182867829E+02 -0.22872694407E+02  0.77521178572E+02  0.12713858276E+03  0.89536936967E+02 0.  0.
          5    1    1    2  502    0  0.35532385873E+02 -0.23919917333E+02  0.83202612732E+02  0.93674223010E+02  0.41800000000E+01 0.  1.
         -5    1    1    2    0  502 -0.75715253702E+02  0.46792611740E+02  0.23643262373E+03  0.25266619505E+03  0.41800000000E+01 0.  1.
        -11    1    3    3    0    0  0.28462643289E+01 -0.14296786598E+02  0.86559135200E+02  0.87778033780E+02  0.00000000000E+00 0.  1.
         11    1    3    3    0    0  0.37336603500E+02 -0.85759078093E+01 -0.90379566278E+01  0.39360548976E+02  0.00000000000E+00 0. -1.
</event>
<event>
 7    1  0.6610867E-006  0.6622227E+02  0.7561462E-02  0.1373432E+00
          2   -1    0    0  501    0  0.00000000000E+00  0.00000000000E+00  0.72195590749E+03  0.72195590749E+03  0.00000000000E+00 0. -1.
         -2   -1    0    0    0  501 -0.00000000000E+00 -0.00000000000E+00 -0.24758028487E+02  0.24758028487E+02  0.00000000000E+00 0.  1.
         23    2    1    2    0    0 -0.28191813543E+02 -0.31922662398E+02  0.12745091598E+03  0.16184368824E+03  0.90198717906E+02 0.  0.
          5    1    1    2  502    0  0.15232577060E+02  0.28332795270E+02  0.56986530031E+03  0.57078779909E+03  0.41800000000E+01 0.  1.
         -5    1    1    2    0  502  0.12959236483E+02  0.35898671279E+01 -0.11833729153E+00  0.14082448649E+02  0.41800000000E+01 0.  1.
        -11    1    3    3    0    0 -0.10943980864E+02  0.24548633818E+02  0.84926551935E+02  0.89078198023E+02  0.00000000000E+00 0. -1.
         11    1    3    3    0    0 -0.17247832680E+02 -0.56471296216E+02  0.42524364048E+02  0.72765490214E+02  0.00000000000E+00 0.  1.
</event>
<event>
 7    1  0.6610867E-006  0.7381377E+02  0.7561462E-02  0.1347584E+00
         -2   -1    0    0    0  501 -0.00000000000E+00  0.00000000000E+00  0.59631018808E+02  0.59631018808E+02  0.00000000000E+00 0. -1.
          2   -1    0    0  501    0  0.00000000000E+00 -0.00000000000E+00 -0.24402875205E+03  0.24402875205E+03  0.00000000000E+00 0.  1.
         23    2    1    2    0    0  0.51326453030E+02 -0.12554361074E+02 -0.55385293758E+02  0.11681104509E+03  0.88234192511E+02 0.  0.
          5    1    1    2  502    0 -0.62669922351E+02  0.88150906812E+01 -0.65812000711E+01  0.63765269431E+02  0.41800000000E+01 0.  1.
         -5    1    1    2    0  502  0.11343469321E+02  0.37392703931E+01 -0.12243123942E+03  0.12308345634E+03  0.41800000000E+01 0.  1.
        -11    1    3    3    0    0  0.21999796377E+02  0.18566259333E+02 -0.66641127732E+02  0.72592953733E+02  0.00000000000E+00 0.  1.
         11    1    3    3    0    0  0.29326656653E+02 -0.31120620407E+02  0.11255833974E+02  0.44218091359E+02  0.00000000000E+00 0. -1.
</event>
<event>
 7    1  0.6610867E-006  0.1059775E+03  0.7561462E-02  0.1268206E+00
         -1   -1    0    0    0  501 -0.00000000000E+00  0.00000000000E+00  0.22722777909E+03  0.22722777909E+03  0.00000000000E+00 0.  1.
          1   -1    0    0  501    0  0.00000000000E+00 -0.00000000000E+00 -0.11368152339E+03  0.11368152339E+03  0.00000000000E+00 0. -1.
         23    2    1    2    0    0 -0.61057562539E+02 -0.12992084389E+01  0.15341599996E+03  0.18869449222E+03  0.91320471229E+02 0.  0.
          5    1    1    2  502    0  0.64304807251E+02  0.31512033152E+02 -0.76210619365E+02  0.10465967405E+03  0.41800000000E+01 0. -1.
         -5    1    1    2    0  502 -0.32472447125E+01 -0.30212824713E+02  0.36340875110E+02  0.47555136201E+02  0.41800000000E+01 0.  1.
        -11    1    3    3    0    0 -0.80570496928E+02  0.17505073209E+02  0.12136965394E+03  0.14672636253E+03  0.00000000000E+00 0.  1.
         11    1    3    3    0    0  0.19512934389E+02 -0.18804281648E+02  0.32046346019E+02  0.41968129693E+02  0.00000000000E+00 0. -1.
</event>
<event>
 6    1  0.6610867E-006  0.7176026E+02  0.7561462E-02  0.1354207E+00
         -1   -1    0    0    0  501 -0.00000000000E+00  0.00000000000E+00  0.86221971161E+01  0.86221971161E+01  0.00000000000E+00 0.  1.
          1   -1    0    0  501    0  0.00000000000E+00 -0.00000000000E+00 -0.13774496253E+04  0.13774496253E+04  0.00000000000E+00 0. -1.
          5    1    1    2  502    0 -0.14195431252E+02  0.30964023170E+02 -0.90673102543E+03  0.90738024327E+03  0.41800000000E+01 0.  1.
         -5    1    1    2    0  502 -0.14993407905E+02 -0.59670578267E+02 -0.28489202601E+03  0.29148982671E+03  0.41800000000E+01 0.  1.
        -11    1    1    2    0    0  0.21430543665E+02  0.42114293545E+01 -0.26582376572E+02  0.34403881804E+02  0.00000000000E+00 0.  1.
         11    1    1    2    0    0  0.77582954918E+01  0.24495125743E+02 -0.15062200023E+03  0.15279787069E+03  0.00000000000E+00 0. -1.
</event>
<event>
 7    1  0.6610867E-006  0.1286358E+03  0.7561462E-02  0.1229494E+00
          2   -1    0    0  501    0  0.00000000000E+00  0.00000000000E+00  0.54737807435E+03  0.54737807435E+03  0.00000000000E+00 0. -1.
         -2   -1    0    0    0  501 -0.00000000000E+00 -0.00000000000E+00 -0.40664928686E+02  0.40664928686E+02  0.00000000000E+00 0.  1.
         23    2    1    2    0    0 -0.50846211814E+02 -0.90244924145E+02  0.21679045914E+03  0.25572863443E+03  0.87575953923E+02 0.  0.
          5    1    1    2  502    0  0.61310405382E+02  0.11198082605E+02  0.21097733766E+03  0.22003016218E+03  0.41800000000E+01 0.  1.
         -5    1    1    2    0  502 -0.10464193567E+02  0.79046841541E+02  0.78945348861E+02  0.11228420642E+03  0.41800000000E+01 0.  1.
        -11    1    3    3    0    0 -0.46424572360E+02 -0.31621043890E+02  0.38768985991E+02  0.68250755382E+02  0.00000000000E+00 0.  1.
         11    1    3    3    0    0 -0.44216394548E+01 -0.58623880255E+02  0.17802147315E+03  0.18747787905E+03  0.00000000000E+00 0. -1.
</event>
<event>
 7    1  0.6610867E-006  0.1187931E+03  0.7561462E-02  0.1245101E+00
         -2   -1    0    0    0  501 -0.00000000000E+00  0.00000000000E+00  0.30084458862E+03  0.30084458862E+03  0.00000000000E+00 0.  1.
          2   -1    0    0  501    0  0.00000000000E+00 -0.00000000000E+00 -0.54284581008E+02  0.54284581008E+02  0.00000000000E+00 0. -1.
         23    2    1    2    0    0 -0.25653971859E+00 -0.63555620623E+02  0.13520893133E+03  0.17600174340E+03  0.93036422127E+02 0.  0.
          5    1    1    2  502    0  0.59084506503E+02  0.11051454718E+02  0.37234048600E+02  0.70830504270E+02  0.41800000000E+01 0.  1.
         -5    1    1    2    0  502 -0.58827966784E+02  0.52504165905E+02  0.74117027675E+02  0.10829692195E+03  0.41800000000E+01 0.  1.
        -11    1    3    3    0    0 -0.37502730031E+02 -0.36519402672E+02  0.11375839877E+03  0.12522417826E+03  0.00000000000E+00 0.  1.
         11    1    3    3    0    0  0.37246190312E+02 -0.27036217951E+02  0.21450532562E+02  0.50777565135E+02  0.00000000000E+00 0. -1.
</event>
<event>
 7    1  0.6610867E-006  0.1097472E+03  0.7561462E-02  0.1261039E+00
          2   -1    0    0  501    0  0.00000000000E+00  0.00000000000E+00  0.38150527588E+03  0.38150527588E+03  0.00000000000E+00 0.  1.
         -2   -1    0    0    0  501 -0.00000000000E+00 -0.00000000000E+00 -0.42970178903E+02  0.42970178903E+02  0.00000000000E+00 0. -1.
         23    2    1    2    0    0 -0.21865367084E+02  0.57462125704E+02  0.10576028191E+03  0.15316011055E+03  0.92156345771E+02 0.  0.
          5    1    1    2  502    0  0.62613510404E+02 -0.28981666911E+02  0.60160831637E+02  0.91636165161E+02  0.41800000000E+01 0. -1.
         -5    1    1    2    0  502 -0.40748143320E+02 -0.28480458793E+02  0.17261398342E+03  0.17967917907E+03  0.41800000000E+01 0. -1.
        -11    1    3    3    0    0  0.16949782933E+02  0.59249235743E+02  0.94296369718E+02  0.11264800229E+03  0.00000000000E+00 0.  1.
         11    1    3    3    0    0 -0.38815150017E+02 -0.17871100394E+01  0.11463912195E+02  0.40512108263E+02  0.00000000000E+00 0. -1.
</event>
<event>
 7    1  0.6610867E-006  0.2215582E+03  0.7561462E-02  0.1132727E+00
         -2   -1    0    0    0  501 -0.00000000000E+00  0.00000000000E+00  0.84579149719E+02  0.84579149719E+02  0.00000000000E+00 0.  1.
          2   -1    0    0  501    0  0.00000000000E+00 -0.00000000000E+00 -0.68052329175E+03  0.68052329175E+03  0.00000000000E+00 0. -1.
         23    2    1    2    0    0 -0.12886438934E+03 -0.16007626672E+03 -0.19200469229E+03  0.29494196119E+03  0.88851092325E+02 0.  0.
          5    1    1    2  502    0  0.14882604273E+03  0.14185886123E+03 -0.38627275040E+03  0.43760397348E+03  0.41800000000E+01 0.  1.
         -5    1    1    2    0  502 -0.19961653395E+02  0.18217405488E+02 -0.17666699347E+02  0.32556506796E+02  0.41800000000E+01 0.  1.
        -11    1    3    3    0    0 -0.66779338632E+02 -0.11646476255E+03 -0.16864293722E+03  0.21555500750E+03  0.00000000000E+00 0. -1.
         11    1    3    3    0    0 -0.62085050704E+02 -0.43611504171E+02 -0.23361755063E+02  0.79386953692E+02  0.00000000000E+00 0.  1.
</event>
<event>
 7    1  0.6610867E-006  0.1060108E+03  0.7561462E-02  0.1268141E+00
          2   -1    0    0  501    0  0.00000000000E+00  0.00000000000E+00  0.10021473020E+04  0.10021473020E+04  0.00000000000E+00 0. -1.
         -2   -1    0    0    0  501 -0.00000000000E+00 -0.00000000000E+00 -0.14870243291E+02  0.14870243291E+02  0.00000000000E+00 0.  1.
         23    2    1    2    0    0 -0.40404353026E+01  0.53115750498E+02  0.33882464254E+03  0.35446744092E+03  0.89484189757E+02 0.  0.
          5    1    1    2  502    0  0.30184412361E+02  0.16435080230E+02  0.43727392916E+03  0.43864241944E+03  0.41800000000E+01 0. -1.
         -5    1    1    2    0  502 -0.26143977058E+02 -0.69550830728E+02  0.21117848701E+03  0.22390768492E+03  0.41800000000E+01 0. -1.
        -11    1    3    3    0    0  0.91543104451E+01  0.76008000943E+02  0.27317932749E+03  0.28370400521E+03  0.00000000000E+00 0.  1.
         11    1    3    3    0    0 -0.13194745748E+02 -0.22892250445E+02  0.65645315052E+02  0.70763435714E+02  0.00000000000E+00 0. -1.
</event>
<event>
 7    1  0.6610867E-006  0.9678739E+02  0.7561462E-02  0.1287200E+00
          2   -1    0    0  501    0  0.00000000000E+00  0.00000000000E+00  0.30705573089E+02  0.30705573089E+02  0.00000000000E+00 0. -1.
         -2   -1    0    0    0  501 -0.00000000000E+00 -0.00000000000E+00 -0.40505041773E+03  0.40505041773E+03  0.00000000000E+00 0.  1.
         23    2    1    2    0    0  0.46496625618E+01  0.39078654304E+02 -0.15141623948E+03  0.18174926792E+03  0.92504909197E+02 0.  0.
          5    1    1    2  502    0  0.19974960208E+02  0.36307666531E+02 -0.89828467434E+02  0.99014502199E+02  0.41800000000E+01 0. -1.
         -5    1    1    2    0  502 -0.24624622770E+02 -0.75386320835E+02 -0.13310013773E+03  0.15499222070E+03  0.41800000000E+01 0.  1.
        -11    1    3    3    0    0  0.31985612230E+02  0.29587608639E+02 -0.14593136829E+03  0.15229730866E+03  0.00000000000E+00 0.  1.
         11    1    3    3    0    0 -0.27335949669E+02  0.94910456648E+01 -0.54848711940E+01  0.29451959258E+02  0.00000000000E+00 0. -1.
</event>
<event>
 7    1  0.6610867E-006  0.1073067E+03  0.7561462E-02  0.1265640E+00
         -2   -1    0    0    0  501 -0.00000000000E+00  0.00000000000E+00  0.11039827673E+03  0.11039827673E+03  0.00000000000E+00 0. -1.
          2   -1    0    0  501    0  0.00000000000E+00 -0.00000000000E+00 -0.13415540372E+03  0.13415540372E+03  0.00000000000E+00 0.  1.
         23    2    1    2    0    0  0.85038124243E+01 -0.43879651267E+02  0.21462315447E+02  0.10424128570E+03  0.91694471148E+02 0.  0.
          5    1    1    2  502    0 -0.62015396808E+02  0.25862282736E+02  0.83772289826E+00  0.67327121498E+02  0.41800000000E+01 0. -1.
         -5    1    1    2    0  502  0.53511584384E+02  0.18017368531E+02 -0.46057165335E+02  0.72985273246E+02  0.41800000000E+01 0. -1.
        -11    1    3    3    0    0  0.26936781769E+02  0.13696368683E+02  0.30708534829E+02  0.43083579685E+02  0.00000000000E+00 0.  1.
         11    1    3    3    0    0 -0.18432969344E+02 -0.57576019950E+02 -0.92462193822E+01  0.61157706015E+02  0.00000000000E+00 0. -1.
</event>
<event>
 7    1  0.6610867E-006  0.2683833E+03  0.7561462E-02  0.1102208E+00
         -2   -1    0    0    0  501 -0.00000000000E+00  0.00000000000E+00  0.10700277817E+03  0.10700277817E+03  0.00000000000E+00 0.  1.
          2   -1    0    0  501    0  0.00000000000E+00 -0.00000000000E+00 -0.87701378422E+03  0.87701378422E+03  0.00000000000E+00 0. -1.
         23    2    1    2    0    0  0.26188968481E+03  0.46329835099E+02 -0.20770623802E+03  0.34953103908E+03  0.91090094621E+02 0.  0.
          5    1    1    2  502    0 -0.15793531244E+03 -0.38035960990E+01 -0.44407407532E+03  0.47135685741E+03  0.41800000000E+01 0. -1.
         -5    1    1    2    0  502 -0.10395437237E+03 -0.42526239000E+02 -0.11823069271E+03  0.16312866590E+03  0.41800000000E+01 0. -1.
        -11    1    3    3    0    0  0.24626524976E+03  0.40068490611E+02 -0.21667853679E+03  0.33045672256E+03  0.00000000000E+00 0.  1.
         11    1    3    3    0    0  0.15624435052E+02  0.62613444883E+01  0.89722987725E+01  0.19074316521E+02  0.00000000000E+00 0. -1.
</event>
<event>
 7    1  0.6610867E-006  0.9607362E+02  0.7561462E-02  0.1288776E+00
          1   -1    0    0  501    0  0.00000000000E+00  0.00000000000E+00  0.17174898169E+04  0.17174898169E+04  0.00000000000E+00 0. -1.
         -1   -1    0    0    0  501 -0.00000000000E+00 -0.00000000000E+00 -0.86414430620E+01  0.86414430620E+01  0.00000000000E+00 0.  1.
         23    2    1    2    0    0  0.35537037228E+02  0.21075607746E+02  0.35115619379E+03  0.36206277365E+03  0.77921225424E+02 0.  0.
          5    1    1    2  502    0 -0.24494323171E+01  0.37324435767E+02  0.95943416563E+03  0.96017212196E+03  0.41800000000E+01 0.  1.
         -5    1    1    2    0  502 -0.33087604910E+02 -0.58400043513E+02  0.39825801448E+03  0.40389636440E+03  0.41800000000E+01 0.  1.
        -11    1    3    3    0    0  0.47059289666E+02 -0.14995751785E+02  0.22440402301E+03  0.22977513978E+03  0.00000000000E+00 0.  1.
         11    1    3    3    0    0 -0.11522252438E+02  0.36071359531E+02  0.12675217078E+03  0.13228763387E+03  0.00000000000E+00 0. -1.
</event>
<event>
 7    1  0.6610867E-006  0.9990522E+02  0.7561462E-02  0.1280495E+00
         -1   -1    0    0    0  501 -0.00000000000E+00  0.00000000000E+00  0.16093526218E+02  0.16093526218E+02  0.00000000000E+00 0.  1.
          1   -1    0    0  501    0  0.00000000000E+00 -0.00000000000E+00 -0.10838487893E+04  0.10838487893E+04  0.00000000000E+00 0. -1.
         23    2    1    2    0    0 -0.72104597950E+02  0.57965863375E+01 -0.39050432060E+03  0.40744730681E+03  0.91033015774E+02 0.  0.
          5    1    1    2  502    0  0.70632252829E+02 -0.19942323173E+02 -0.67309817240E+03  0.67710060810E+03  0.41800000000E+01 0.  1.
         -5    1    1    2    0  502  0.14723451208E+01  0.14145736836E+02 -0.41527700748E+01  0.15394400608E+02  0.41800000000E+01 0.  1.
        -11    1    3    3    0    0 -0.85431256830E+02 -0.15035461901E+02 -0.34409272695E+03  0.35485823860E+03  0.00000000000E+00 0.  1.
         11    1    3    3    0    0  0.13326658880E+02  0.20832048239E+02 -0.46411593653E+02  0.52589068219E+02  0.00000000000E+00 0. -1.
</event>
<event>
 7    1  0.6610867E-006  0.1176013E+03  0.7561462E-02  0.1247107E+00
          1   -1    0    0  501    0  0.00000000000E+00  0.00000000000E+00  0.92608854693E+03  0.92608854693E+03  0.00000000000E+00 0. -1.
         -1   -1    0    0    0  501 -0.00000000000E+00 -0.00000000000E+00 -0.16958371092E+02  0.16958371092E+02  0.00000000000E+00 0.  1.
         23    2    1    2    0    0 -0.28931410042E+02  0.40600002402E+02  0.25574876701E+03  0.27593367801E+03  0.90810661022E+02 0.  0.
          5    1    1    2  502    0 -0.37659177804E+02 -0.51713522104E+02  0.24938339955E+03  0.25749185310E+03  0.41800000000E+01 0.  1.
         -5    1    1    2    0  502  0.66590587846E+02  0.11113519702E+02  0.40399800928E+03  0.40962138691E+03  0.41800000000E+01 0.  1.
        -11    1    3    3    0    0  0.18301035274E+02  0.51776722569E+02  0.14295691275E+03  0.15314188125E+03  0.00000000000E+00 0.  1.
         11    1    3    3    0    0 -0.47232445316E+02 -0.11176720167E+02  0.11279185426E+03  0.12279179676E+03  0.00000000000E+00 0. -1.
</event>
<event>
 7    1  0.6610867E-006  0.9240393E+02  0.7561462E-02  0.1297132E+00
          2   -1    0    0  501    0  0.00000000000E+00  0.00000000000E+00  0.32880681263E+03  0.32880681263E+03  0.00000000000E+00 0. -1.
         -2   -1    0    0    0  501 -0.00000000000E+00 -0.00000000000E+00 -0.44811650028E+02  0.44811650028E+02  0.00000000000E+00 0.  1.
         23    2    1    2    0    0  0.44951295025E+02 -0.21386074763E+01  0.17699128905E+03  0.20296531658E+03  0.88565290988E+02 0.  0.
          5    1    1    2  502    0 -0.63643566786E+02  0.11768475411E+02  0.12619096588E+03  0.14188246149E+03  0.41800000000E+01 0.  1.
         -5    1    1    2    0  502  0.18692271761E+02 -0.96298679349E+01 -0.19187092329E+02  0.28770684596E+02  0.41800000000E+01 0.  1.
        -11    1    3    3    0    0 -0.31403056081E+01  0.36614898334E+02  0.79074952901E+02  0.87197250390E+02  0.00000000000E+00 0.  1.
         11    1    3    3    0    0  0.48091600633E+02 -0.38753505810E+02  0.97916336146E+02  0.11576806619E+03  0.00000000000E+00 0. -1.
</event>
<event>
 7    1  0.6610867E-006  0.9690035E+02  0.7561462E-02  0.1286952E+00
         -2   -1    0    0    0  501 -0.00000000000E+00  0.00000000000E+00  0.44687093952E+02  0.44687093952E+02  0.00000000000E+00 0.  1.
          2   -1    0    0  501    0  0.00000000000E+00 -0.00000000000E+00 -0.60517737751E+03  0.60517737751E+03  0.00000000000E+00 0. -1.
         23    2    1    2    0    0 -0.28204728782E+02 -0.87085175500E+02 -0.93729990407E+02  0.15804305200E+03  0.88390953537E+02 0.  0.
          5    1    1    2  502    0  0.36142345292E+02  0.85803633134E+02 -0.47216157012E+03  0.48127180811E+03  0.41800000000E+01 0. -1.
         -5    1    1    2    0  502 -0.79376165091E+01  0.12815423666E+01  0.54012769706E+01  0.10549611348E+02  0.41800000000E+01 0. -1.
        -11    1    3    3    0    0 -0.14986428700E+02 -0.47037592981E+02  0.60309867325E+01  0.49734304053E+02  0.00000000000E+00 0.  1.
         11    1    3    3    0    0 -0.13218300083E+02 -0.40047582519E+02 -0.99760977139E+02  0.10830874795E+03  0.00000000000E+00 0. -1.
</event>
<event>
 7    1  0.6610867E-006  0.1112904E+03  0.7561462E-02  0.1258199E+00
          3   -1    0    0  501    0  0.00000000000E+00  0.00000000000E+00  0.80530682014E+02  0.80530682014E+02  0.00000000000E+00 0. -1.
         -3   -1    0    0    0  501 -0.00000000000E+00 -0.00000000000E+00 -0.17948724674E+03  0.17948724674E+03  0.00000000000E+00 0.  1.
         23    2    1    2    0    0  0.23859566553E+02  0.14060409525E+02 -0.62048892306E+02  0.12668684981E+03  0.10692295753E+03 0.  0.
          5    1    1    2  502    0 -0.72421240676E+02 -0.16401217246E+02 -0.39978947493E+02  0.84437104822E+02  0.41800000000E+01 0. -1.
         -5    1    1    2    0  502  0.48561674123E+02  0.23408077205E+01  0.30712750759E+01  0.48893974118E+02  0.41800000000E+01 0. -1.
        -11    1    3    3    0    0  0.53954808108E+02 -0.16597422340E+02 -0.70358817462E+01  0.56886724095E+02  0.00000000000E+00 0. -1.
         11    1    3    3    0    0 -0.30095241556E+02  0.30657831865E+02 -0.55013010560E+02  0.69800125715E+02  0.00000000000E+00 0.  1.
</event>
<event>
 7    1  0.6610867E-006  0.1513894E+03  0.7561462E-02  0.1198776E+00
         -2   -1    0    0    0  501 -0.00000000000E+00  0.00000000000E+00  0.65336133386E+02  0.65336133386E+02  0.00000000000E+00 0. -1.
          2   -1    0    0  501    0  0.00000000000E+00 -0.00000000000E+00 -0.40667264365E+03  0.40667264365E+03  0.00000000000E+00 0.  1.
         23    2    1    2    0    0  0.10731311433E+03 -0.15150563123E+02 -0.79969357155E+02  0.16264455472E+03  0.91172962152E+02 0.  0.
          5    1    1    2  502    0 -0.12099421162E+02  0.57935285314E+02 -0.11674096896E+03  0.13095350133E+03  0.41800000000E+01 0.  1.
         -5    1    1    2    0  502 -0.95213693167E+02 -0.42784722191E+02 -0.14462618415E+03  0.17841072098E+03  0.41800000000E+01 0.  1.
        -11    1    3    3    0    0  0.40157520488E+02 -0.49342764997E+02 -0.21130617229E+02  0.67036093962E+02  0.00000000000E+00 0. -1.
         11    1    3    3    0    0  0.67155593842E+02  0.34192201874E+02 -0.58838739925E+02  0.95608460762E+02  0.00000000000E+00 0.  1.
</event>
<event>
 7    1  0.6610867E-006  0.2716358E+03  0.7561462E-02  0.1100347E+00
         -2   -1    0    0    0  501 -0.00000000000E+00  0.00000000000E+00  0.94303393454E+02  0.94303393454E+02  0.00000000000E+00 0.  1.
          2   -1    0    0  501    0  0.00000000000E+00 -0.00000000000E+00 -0.80799888588E+03  0.80799888588E+03  0.00000000000E+00 0. -1.
         23    2    1    2    0    0  0.46564202989E+02  0.24906732112E+03 -0.33443131778E+03  0.42933836456E+03  0.91018511949E+02 0.  0.
          5    1    1    2  502    0  0.10088008043E+02  0.72991375074E+01 -0.50642592767E+02  0.52318160488E+02  0.41800000000E+01 0. -1.
         -5    1    1    2    0  502 -0.56652211032E+02 -0.25636645863E+03 -0.32862158188E+03  0.42064575429E+03  0.41800000000E+01 0. -1.
        -11    1    3    3    0    0 -0.14850060143E+02  0.15176349555E+03 -0.21403889812E+03  0.26280284012E+03  0.00000000000E+00 0.  1.
         11    1    3    3    0    0  0.61414263132E+02  0.97303825574E+02 -0.12039241966E+03  0.16653552443E+03  0.00000000000E+00 0. -1.
</event>
<event>
 7    1  0.6610867E-006  0.1233533E+03  0.7561462E-02  0.1237665E+00
          2   -1    0    0  501    0  0.00000000000E+00  0.00000000000E+00  0.11161517052E+02  0.11161517052E+02  0.00000000000E+00 0.  1.
         -2   -1    0    0    0  501 -0.00000000000E+00 -0.00000000000E+00 -0.14174258374E+04  0.14174258374E+04  0.00000000000E+00 0. -1.
         23    2    1    2    0    0 -0.56239188085E+02  0.15096361790E+02 -0.52943921094E+03  0.54087832660E+03  0.94088998775E+02 0.  0.
          5    1    1    2  502    0  0.91857233181E+02 -0.33549276245E+02 -0.64944950362E+03  0.65678416194E+03  0.41800000000E+01 0. -1.
         -5    1    1    2    0  502 -0.35618045096E+02  0.18452914455E+02 -0.22737560583E+03  0.23092486595E+03  0.41800000000E+01 0. -1.
        -11    1    3    3    0    0 -0.76421809045E+00  0.45315502957E+02 -0.17041071350E+03  0.17633459704E+03  0.00000000000E+00 0. -1.
         11    1    3    3    0    0 -0.55474969995E+02 -0.30219141167E+02 -0.35902849744E+03  0.36454372957E+03  0.00000000000E+00 0.  1.
</event>
<event>
 7    1  0.6610867E-006  0.1996757E+03  0.7561462E-02  0.1150013E+00
         -1   -1    0    0    0  501 -0.00000000000E+00  0.00000000000E+00  0.65100748919E+02  0.65100748919E+02  0.00000000000E+00 0.  1.
          1   -1    0    0  501    0  0.00000000000E+00 -0.00000000000E+00 -0.66724180496E+03  0.66724180496E+03  0.00000000000E+00 0. -1.
         23    2    1    2    0    0 -0.88175846527E+02 -0.14473686793E+03 -0.37003106134E+03  0.41890046246E+03  0.99150745056E+02 0.  0.
          5    1    1    2  502    0 -0.14448386762E+02  0.82892385616E+02 -0.58928461190E+02  0.10281021064E+03  0.41800000000E+01 0.  1.
         -5    1    1    2    0  502  0.10262423329E+03  0.61844482318E+02 -0.17318153352E+03  0.21063188079E+03  0.41800000000E+01 0.  1.
        -11    1    3    3    0    0  0.18942067153E+02 -0.58640984805E+01 -0.25543557613E+02  0.32336711251E+02  0.00000000000E+00 0. -1.
         11    1    3    3    0    0 -0.10711791368E+03 -0.13887276945E+03 -0.34448750372E+03  0.38656375121E+03  0.00000000000E+00 0.  1.
</event>
<event>
 7    1  0.6610867E-006  0.1013355E+03  0.7561462E-02  0.1277512E+00
          2   -1    0    0  501    0  0.00000000000E+00  0.00000000000E+00  0.58723983007E+03  0.58723983007E+03  0.00000000000E+00 0.  1.
         -2   -1    0    0    0  501 -0.00000000000E+00 -0.00000000000E+00 -0.28797571128E+02  0.28797571128E+02  0.00000000000E+00 0. -1.
         23    2    1    2    0    0 -0.65319749371E+02  0.11037043909E+02  0.18464866774E+03  0.21634109581E+03  0.91213229523E+02 0.  0.
          5    1    1    2  502    0  0.35789924763E+02 -0.43556059927E+02  0.58572138599E+02  0.81401577938E+02  0.41800000000E+01 0.  1.
         -5    1    1    2    0  502  0.29529824608E+02  0.32519016017E+02  0.31522145260E+03  0.31829472745E+03  0.41800000000E+01 0.  1.
        -11    1    3    3    0    0 -0.49865885856E+02  0.43430074200E+02  0.70394580566E+02  0.96582477139E+02  0.00000000000E+00 0. -1.
         11    1    3    3    0    0 -0.15453863514E+02 -0.32393030290E+02  0.11425408718E+03  0.11975861867E+03  0.00000000000E+00 0.  1.
</event>
<event>
 7    1  0.6610867E-006  0.1193392E+03  0.7561462E-02  0.1244191E+00
          1   -1    0    0  501    0  0.00000000000E+00  0.00000000000E+00  0.19090069123E+04  0.19090069123E+04  0.00000000000E+00 0. -1.
         -1   -1    0    0    0  501 -0.00000000000E+00 -0.00000000000E+00 -0.85365688081E+01  0.85365688081E+01  0.00000000000E+00 0.  1.
         23    2    1    2    0    0 -0.49762558117E+02  0.16415950828E+01  0.50641375033E+03  0.51700031797E+03  0.91408069833E+02 0.  0.
          5    1    1    2  502    0  0.81755004205E+02 -0.34274964428E+02  0.91884108061E+03  0.92311703359E+03  0.41800000000E+01 0.  1.
         -5    1    1    2    0  502 -0.31992446088E+02  0.32633369345E+02  0.47521551251E+03  0.47742612951E+03  0.41800000000E+01 0.  1.
        -11    1    3    3    0    0  0.77825853504E+01 -0.34976936666E+02  0.18195326884E+03  0.18544796244E+03  0.00000000000E+00 0.  1.
         11    1    3    3    0    0 -0.57545143467E+02  0.36618531749E+02  0.32446048149E+03  0.33155235552E+03  0.00000000000E+00 0. -1.
</event>
<event>
 7    1  0.6610867E-006  0.9678829E+02  0.7561462E-02  0.1287198E+00
         -1   -1    0    0    0  501 -0.00000000000E+00  0.00000000000E+00  0.20445096167E+03  0.20445096167E+03  0.00000000000E+00 0.  1.
          1   -1    0    0  501    0  0.00000000000E+00 -0.00000000000E+00 -0.15388107922E+03  0.15388107922E+03  0.00000000000E+00 0. -1.
         23    2    1    2    0    0 -0.58769174287E+02  0.68093869736E+02  0.13592426570E+03  0.18219798337E+03  0.81425476344E+02 0.  0.
          5    1    1    2  502    0  0.37660769035E+02 -0.11522842716E+02  0.27401634186E+02  0.48160475336E+02  0.41800000000E+01 0.  1.
         -5    1    1    2    0  502  0.21108405252E+02 -0.56571027019E+02 -0.11275601743E+03  0.12797358219E+03  0.41800000000E+01 0.  1.
        -11    1    3    3    0    0 -0.18035247869E+02  0.40247088480E+02  0.12375218229E+03  0.13137618094E+03  0.00000000000E+00 0.  1.
         11    1    3    3    0    0 -0.40733926418E+02  0.27846781256E+02  0.12172083403E+02  0.50821802429E+02  0.00000000000E+00 0. -1.
</event>
<event>
 7    1  0.6610867E-006  0.9441691E+02  0.7561462E-02  0.1292495E+00
          2   -1    0    0  501    0  0.00000000000E+00  0.00000000000E+00  0.12807140588E+04  0.12807140588E+04  0.00000000000E+00 0. -1.
         -2   -1    0    0    0  501 -0.00000000000E+00 -0.00000000000E+00 -0.11267224892E+02  0.11267224892E+02  0.00000000000E+00 0.  1.
         23    2    1    2    0    0  0.32890422438E+02 -0.16250705466E+02  0.39443100197E+03  0.40730898679E+03  0.94757216519E+02 0.  0.
          5    1    1    2  502    0 -0.46270280905E+02  0.40238650950E+02  0.82636224810E+03  0.82864475224E+03  0.41800000000E+01 0.  1.
         -5    1    1    2    0  502  0.13379858467E+02 -0.23987945483E+02  0.48653583794E+02  0.56027544629E+02  0.41800000000E+01 0.  1.
        -11    1    3    3    0    0 -0.32388533564E+02 -0.30335256620E+00  0.16898363517E+03  0.17205980961E+03  0.00000000000E+00 0. -1.
         11    1    3    3    0    0  0.65278956002E+02 -0.15947352900E+02  0.22544736680E+03  0.23524917717E+03  0.00000000000E+00 0.  1.
</event>
<event>
 7    1  0.6610867E-006  0.9771082E+02  0.7561462E-02  0.1285185E+00
         -1   -1    0    0    0  501 -0.00000000000E+00  0.00000000000E+00  0.17151212083E+03  0.17151212083E+03  0.00000000000E+00 0.  1.
          1   -1    0    0  501    0  0.00000000000E+00 -0.00000000000E+00 -0.92958280605E+02  0.92958280605E+02  0.00000000000E+00 0. -1.
         23    2    1    2    0    0  0.49476625722E+02 -0.32285237928E+02  0.63180836061E+02  0.12527976574E+03  0.90625209399E+02 0.  0.
          5    1    1    2  502    0 -0.60736720237E+01 -0.20266074626E+02 -0.43808021195E+02  0.48828458849E+02  0.41800000000E+01 0.  1.
         -5    1    1    2    0  502 -0.43402953698E+02  0.52551312553E+02  0.59181025356E+02  0.90362176839E+02  0.41800000000E+01 0.  1.
        -11    1    3    3    0    0  0.38869324611E+02  0.25716646835E+02  0.41658446057E+02  0.62510770656E+02  0.00000000000E+00 0.  1.
         11    1    3    3    0    0  0.10607301111E+02 -0.58001884763E+02  0.21522390004E+02  0.62768995088E+02  0.00000000000E+00 0. -1.
</event>
<event>
 7    1  0.6610867E-006  0.6936634E+02  0.7561462E-02  0.1362261E+00
          1   -1    0    0  501    0  0.00000000000E+00  0.00000000000E+00  0.16175976431E+03  0.16175976431E+03  0.00000000000E+00 0. -1.
         -1   -1    0    0    0  501 -0.00000000000E+00 -0.00000000000E+00 -0.79450164896E+02  0.79450164896E+02  0.00000000000E+00 0.  1.
         23    2    1    2    0    0 -0.28131145950E+01  0.36525643118E+02  0.37409009241E+02  0.10335019708E+03  0.89105516356E+02 0.  0.
          5    1    1    2  502    0 -0.41443951846E+00  0.79037285400E+01 -0.40484573611E+02  0.41462197065E+02  0.41800000000E+01 0. -1.
         -5    1    1    2    0  502  0.32275541135E+01 -0.44429371658E+02  0.85385163781E+02  0.96397535058E+02  0.41800000000E+01 0. -1.
        -11    1    3    3    0    0 -0.38862783173E+02  0.95615547299E+01 -0.64044549753E+01  0.40530930021E+02  0.00000000000E+00 0.  1.
         11    1    3    3    0    0  0.36049668578E+02  0.26964088388E+02  0.43813464216E+02  0.62819267059E+02  0.00000000000E+00 0. -1.
</event>
<event>
 7    1  0.6610867E-006  0.1258690E+03  0.7561462E-02  0.1233717E+00
         -3   -1    0    0    0  501 -0.00000000000E+00  0.00000000000E+00  0.18903990728E+03  0.18903990728E+03  0.00000000000E+00 0.  1.
          3   -1    0    0  501    0  0.00000000000E+00 -0.00000000000E+00 -0.11142246548E+03  0.11142246548E+03  0.00000000000E+00 0. -1.
         23    2    1    2    0    0  0.87313876680E+02 -0.34558474167E+02  0.61174670225E+02  0.14318582438E+03  0.89116995168E+02 0.  0.
          5    1    1    2  502    0  0.17472233597E+02  0.43415737864E+02  0.22011998582E+02  0.51886469553E+02  0.41800000000E+01 0.  1.
         -5    1    1    2    0  502 -0.10478611028E+03 -0.88572636963E+01 -0.55692270093E+01  0.10539007883E+03  0.41800000000E+01 0.  1.
        -11    1    3    3    0    0  0.30446007687E+02  0.41355808388E+01 -0.20096576906E+02  0.36714231795E+02  0.00000000000E+00 0. -1.
         11    1    3    3    0    0  0.56867868993E+02 -0.38694055006E+02  0.81271247132E+02  0.10647159258E+03  0.00000000000E+00 0.  1.
</event>
<event>
 7    1  0.6610867E-006  0.1052527E+03  0.7561462E-02  0.1269623E+00
          3   -1    0    0  501    0  0.00000000000E+00  0.00000000000E+00  0.24627551631E+03  0.24627551631E+03  0.00000000000E+00 0. -1.
         -3   -1    0    0    0  501 -0.00000000000E+00 -0.00000000000E+00 -0.75330765333E+02  0.75330765333E+02  0.00000000000E+00 0.  1.
         23    2    1    2    0    0 -0.41426594262E+02 -0.69276385690E+02  0.85264804897E+02  0.14983980478E+03  0.93094037497E+02 0.  0.
          5    1    1    2  502    0 -0.25868987700E+02  0.42897504827E+02 -0.10528252847E+02  0.51358708638E+02  0.41800000000E+01 0.  1.
         -5    1    1    2    0  502  0.67295581962E+02  0.26378880863E+02  0.96208198932E+02  0.12040776822E+03  0.41800000000E+01 0.  1.
        -11    1    3    3    0    0 -0.30275156184E+02 -0.17704418818E+02  0.90265511347E+02  0.96839527397E+02  0.00000000000E+00 0. -1.
         11    1    3    3    0    0 -0.11151438078E+02 -0.51571966872E+02 -0.50007064502E+01  0.53000277388E+02  0.00000000000E+00 0.  1.
</event>
<event>
 7    1  0.6610867E-006  0.8192606E+02  0.7561462E-02  0.1323673E+00
         -2   -1    0    0    0  501 -0.00000000000E+00  0.00000000000E+00  0.23850058085E+03  0.23850058085E+03  0.00000000000E+00 0. -1.
          2   -1    0    0  501    0  0.00000000000E+00 -0.00000000000E+00 -0.54987089279E+02  0.54987089279E+02  0.00000000000E+00 0.  1.
         23    2    1    2    0    0 -0.23388557331E+02 -0.11741403719E+02  0.11265958508E+03  0.14736289909E+03  0.91316793310E+02 0.  0.
          5    1    1    2  502    0 -0.10574959901E+02  0.56603628537E+02  0.68592407913E+02  0.89655961117E+02  0.41800000000E+01 0.  1.
         -5    1    1    2    0  502  0.33963517232E+02 -0.44862224818E+02  0.22614985705E+01  0.56468809923E+02  0.41800000000E+01 0.  1.
        -11    1    3    3    0    0  0.92227364773E+01 -0.14263466875E+02 -0.10476590783E+02  0.19956560572E+02  0.00000000000E+00 0.  1.
         11    1    3    3    0    0 -0.32611293808E+02  0.25220631559E+01  0.12313617587E+03  0.12740633851E+03  0.00000000000E+00 0. -1.
</event>
<event>
 7    1  0.6610867E-006  0.2561574E+03  0.7561462E-02  0.1109474E+00
         -1   -1    0    0    0  501 -0.00000000000E+00  0.00000000000E+00  0.11020046938E+03  0.11020046938E+03  0.00000000000E+00 0.  1.
          1   -1    0    0  501    0  0.00000000000E+00 -0.00000000000E+00 -0.62421138048E+03  0.62421138048E+03  0.00000000000E+00 0. -1.
         23    2    1    2    0    0  0.50924482864E+01  0.24011606531E+03 -0.26236907140E+03  0.36684265738E+03  0.89746018277E+02 0.  0.
          5    1    1    2  502    0 -0.56074267965E+02 -0.15292028743E+03 -0.18484252143E+03  0.24640042201E+03  0.41800000000E+01 0. -1.
         -5    1    1    2    0  502  0.50981819679E+02 -0.87195777874E+02 -0.66799318265E+02  0.12116877047E+03  0.41800000000E+01 0.  1.
        -11    1    3    3    0    0 -0.20885868836E+02  0.29876545245E+02 -0.77643467737E+02  0.85774912155E+02  0.00000000000E+00 0.  1.
         11    1    3    3    0    0  0.25978317123E+02  0.21023952006E+03 -0.18472560367E+03  0.28106774523E+03  0.00000000000E+00 0. -1.
</event>
<event>
 7    1  0.6610867E-006  0.6925486E+02  0.7561462E-02  0.1362645E+00
         -2   -1    0    0    0  501 -0.00000000000E+00  0.00000000000E+00  0.22859523874E+03  0.22859523874E+03  0.00000000000E+00 0.  1.
          2   -1    0    0  501    0  0.00000000000E+00 -0.00000000000E+00 -0.12234632700E+03  0.12234632700E+03  0.00000000000E+00 0. -1.
         23    2    1    2    0    0  0.29019405129E+02 -0.42920234892E+02  0.61689052691E+02  0.12254195567E+03  0.92340236306E+02 0.  0.
          5    1    1    2  502    0 -0.88658015903E+01 -0.47856389484E+01 -0.86620560445E+02  0.87304631434E+02  0.41800000000E+01 0. -1.
         -5    1    1    2    0  502 -0.20153603538E+02  0.47705873840E+02  0.13118041950E+03  0.14109497863E+03  0.41800000000E+01 0.  1.
        -11    1    3    3    0    0  0.43074480412E+02 -0.43967719447E+02  0.23972400836E+01  0.61598035489E+02  0.00000000000E+00 0.  1.
         11    1    3    3    0    0 -0.14055075283E+02  0.10474845555E+01  0.59291812608E+02  0.60943920184E+02  0.00000000000E+00 0. -1.
</event>
<event>
 7    1  0.6610867E-006  0.1010680E+03  0.7561462E-02  0.1278066E+00
         -1   -1    0    0    0  501 -0.00000000000E+00  0.00000000000E+00  0.16340279372E+03  0.16340279372E+03  0.00000000000E+00 0.  1.
          1   -1    0    0  501    0  0.00000000000E+00 -0.00000000000E+00 -0.11146653314E+03  0.11146653314E+03  0.00000000000E+00 0. -1.
         23    2    1    2    0    0 -0.19978630055E+01  0.86732408265E+01  0.10526390937E+03  0.13860133171E+03  0.89725258271E+02 0.  0.
          5    1    1    2  502    0 -0.56185528463E+02  0.15019500869E+02 -0.43037467736E+02  0.72471339467E+02  0.41800000000E+01 0. -1.
         -5    1    1    2    0  502  0.58183391468E+02 -0.23692741695E+02 -0.10290181054E+02  0.63796655696E+02  0.41800000000E+01 0. -1.
        -11    1    3    3    0    0 -0.36726105273E+02  0.22961834926E+02  0.25058174524E+02  0.50039632115E+02  0.00000000000E+00 0. -1.
         11    1    3    3    0    0  0.34728242267E+02 -0.14288594100E+02  0.80205734846E+02  0.88561699592E+02  0.00000000000E+00 0.  1.
</event>
<event>
 7    1  0.6610867E-006  0.3786000E+03  0.7561462E-02  0.1051452E+00
         -2   -1    0    0    0  501 -0.00000000000E+00  0.00000000000E+00  0.42199390625E+03  0.42199390625E+03  0.00000000000E+00 0.  1.
          2   -1    0    0  501    0  0.00000000000E+00 -0.00000000000E+00 -0.42263265445E+03  0.42263265445E+03  0.00000000000E+00 0. -1.
         23    2    1    2    0    0  0.30315661321E+02  0.36467687152E+03  0.18025748938E+03  0.41768402216E+03  0.89771487372E+02 0.  0.
          5    1    1    2  502    0 -0.70262088060E+02 -0.13751757585E+03 -0.53927938548E+02  0.16362621930E+03  0.41800000000E+01 0. -1.
         -5    1    1    2    0  502  0.39946426739E+02 -0.22715929567E+03 -0.12696829903E+03  0.26331631924E+03  0.41800000000E+01 0. -1.
        -11    1    3    3    0    0 -0.19878122201E+02  0.16284028592E+03  0.11259009453E+03  0.19896891176E+03  0.00000000000E+00 0.  1.
         11    1    3    3    0    0  0.50193783522E+02  0.20183658560E+03  0.67667394858E+02  0.21871511040E+03  0.00000000000E+00 0. -1.
</event>
<event>
 7    1  0.6610867E-006  0.1102306E+03  0.7561462E-02  0.1260143E+00
          3   -1    0    0  501    0  0.00000000000E+00  0.00000000000E+00  0.30023333425E+03  0.30023333425E+03  0.00000000000E+00 0. -1.
         -3   -1    0    0    0  501 -0.00000000000E+00 -0.00000000000E+00 -0.66441035908E+02  0.66441035908E+02  0.00000000000E+00 0.  1.
         23    2    1    2    0    0 -0.56120381439E+02 -0.56309069906E+02  0.52785594447E+02  0.13272851634E+03  0.92251457995E+02 0.  0.
          5    1    1    2  502    0 -0.23162565678E+02 -0.35500365290E+01  0.10799827019E+03  0.11059026165E+03  0.41800000000E+01 0.  1.
         -5    1    1    2    0  502  0.79282947117E+02  0.59859106435E+02  0.73008433706E+02  0.12335559217E+03  0.41800000000E+01 0.  1.
        -11    1    3    3    0    0  0.10809380311E+02 -0.15302150733E+02 -0.18766187798E+02  0.26517321212E+02  0.00000000000E+00 0.  1.
         11    1    3    3    0    0 -0.66929761750E+02 -0.41006919172E+02  0.71551782246E+02  0.10621119513E+03  0.00000000000E+00 0. -1.
</event>
<event>
 7    1  0.6610867E-006  0.1747401E+03  0.7561462E-02  0.1172993E+00
         -2   -1    0    0    0  501 -0.00000000000E+00  0.00000000000E+00  0.54513232831E+02  0.54513232831E+02  0.00000000000E+00 0.  1.
          2   -1    0    0  501    0  0.00000000000E+00 -0.00000000000E+00 -0.70789504446E+03  0.70789504446E+03  0.00000000000E+00 0. -1.
         23    2    1    2    0    0  0.18440373257E+02  0.15972938714E+03 -0.25168695982E+03  0.31201078741E+03  0.90282230990E+02 0.  0.
          5    1    1    2  502    0  0.40025366197E+02 -0.78248224271E+02 -0.27515799574E+03  0.28888442250E+03  0.41800000000E+01 0. -1.
         -5    1    1    2    0  502 -0.58465739454E+02 -0.81481162871E+02 -0.12653685607E+03  0.16151306738E+03  0.41800000000E+01 0. -1.
        -11    1    3    3    0    0  0.13815742147E+02  0.14549342838E+03 -0.25739405333E+03  0.29599140380E+03  0.00000000000E+00 0. -1.
         11    1    3    3    0    0  0.46246311099E+01  0.14235958766E+02  0.57070935116E+01  0.16019383610E+02  0.00000000000E+00 0.  1.
</event>
<event>
 7    1  0.6610867E-006  0.8241877E+02  0.7561462E-02  0.1322324E+00
         -2   -1    0    0    0  501 -0.00000000000E+00  0.00000000000E+00  0.73047060293E+03  0.73047060293E+03  0.00000000000E+00 0.  1.
          2   -1    0    0  501    0  0.00000000000E+00 -0.00000000000E+00 -0.17546178073E+02  0.17546178073E+02  0.00000000000E+00 0. -1.
         23    2    1    2    0    0 -0.28494154575E+02  0.18519445494E+02  0.28175695371E+03  0.29778613879E+03  0.90192664832E+02 0.  0.
          5    1    1    2  502    0 -0.27881649456E+02 -0.55544434826E+01  0.34599540806E+03  0.34718659683E+03  0.41800000000E+01 0. -1.
         -5    1    1    2    0  502  0.56375804031E+02 -0.12965002011E+02  0.85172063091E+02  0.10304404538E+03  0.41800000000E+01 0. -1.
        -11    1    3    3    0    0 -0.21585519353E+02 -0.25577915628E+02  0.40997486801E+02  0.52924080885E+02  0.00000000000E+00 0. -1.
         11    1    3    3    0    0 -0.69086352226E+01  0.44097361121E+02  0.24075946690E+03  0.24486205791E+03  0.00000000000E+00 0.  1.
</event>
<event>
 7    1  0.8978808E-006  0.1068061E+03  0.7561462E-02  0.1266601E+00
         -2   -1    0    0    0  501 -0.00000000000E+00  0.00000000000E+00  0.24306943666E+03  0.24306943666E+03  0.00000000000E+00 0.  1.
          2   -1    0    0  501    0  0.00000000000E+00 -0.00000000000E+00 -0.10017441684E+03  0.10017441684E+03  0.00000000000E+00 0. -1.
         23    2    1    2    0    0  0.59529843957E+02 -0.69362261663E+02  0.13760235634E+03  0.18822553900E+03  0.90219285050E+02 0.  0.
          5    1    1    2  502    0 -0.62318825961E+02  0.63589678914E+02  0.54992496196E+02  0.10473266144E+03  0.41800000000E+01 0. -1.
         -5    1    1    2    0  502  0.27889820039E+01  0.57725827487E+01 -0.49699832714E+02  0.50285653063E+02  0.41800000000E+01 0. -1.
        -11    1    3    3    0    0  0.46153440747E+02 -0.84709695601E+02  0.13737915272E+03  0.16786573273E+03  0.00000000000E+00 0.  1.
         11    1    3    3    0    0  0.13376403210E+02  0.15347433938E+02  0.22320361674E+00  0.20359806266E+02  0.00000000000E+00 0. -1.
</event>
<event>
 7    1  0.6610867E-006  0.1198408E+03  0.7561462E-02  0.1243360E+00
          1   -1    0    0  501    0  0.00000000000E+00  0.00000000000E+00  0.20857344699E+03  0.20857344699E+03  0.00000000000E+00 0. -1.
         -1   -1    0    0    0  501 -0.00000000000E+00 -0.00000000000E+00 -0.73723399717E+02  0.73723399717E+02  0.00000000000E+00 0.  1.
         23    2    1    2    0    0 -0.28778045569E+02 -0.50294014596E+02  0.37635440494E+02  0.11359028946E+03  0.90159101966E+02 0.  0.
          5    1    1    2  502    0 -0.43766247390E+02 -0.44210260301E+01  0.48166271300E+02  0.65364301976E+02  0.41800000000E+01 0. -1.
         -5    1    1    2    0  502  0.72544292959E+02  0.54715040626E+02  0.49048335479E+02  0.10334225527E+03  0.41800000000E+01 0. -1.
        -11    1    3    3    0    0 -0.33024108709E+02 -0.73692055693E+02  0.17961785367E+02  0.82726879319E+02  0.00000000000E+00 0.  1.
         11    1    3    3    0    0  0.42460631398E+01  0.23398041098E+02  0.19673655127E+02  0.30863410140E+02  0.00000000000E+00 0. -1.
</event>
<event>
 7    1  0.6610867E-006  0.1174691E+03  0.7561462E-02  0.1247332E+00
         -1   -1    0    0    0  501 -0.00000000000E+00  0.00000000000E+00  0.21440166438E+03  0.21440166438E+03  0.00000000000E+00 0.  1.
          1   -1    0    0  501    0  0.00000000000E+00 -0.00000000000E+00 -0.95549914050E+02  0.95549914050E+02  0.00000000000E+00 0. -1.
         23    2    1    2    0    0  0.22867316383E+02  0.84002849544E+02  0.90736290118E+02  0.15497591310E+03  0.90581821612E+02 0.  0.
          5    1    1    2  502    0 -0.64130582111E+02 -0.14169338364E+02  0.32975317859E+02  0.73609413118E+02  0.41800000000E+01 0. -1.
         -5    1    1    2    0  502  0.41263265729E+02 -0.69833511180E+02 -0.48598576510E+01  0.81366252210E+02  0.41800000000E+01 0. -1.
        -11    1    3    3    0    0  0.79536501453E+01  0.51940473561E+02 -0.51301353564E+01  0.52795753931E+02  0.00000000000E+00 0.  1.
         11    1    3    3    0    0  0.14913666237E+02  0.32062375983E+02  0.95866425475E+02  0.10218015917E+03  0.00000000000E+00 0. -1.
</event>
<event>
 7    1  0.6610867E-006  0.1337948E+03  0.7561462E-02  0.1221931E+00
          2   -1    0    0  501    0  0.00000000000E+00  0.00000000000E+00  0.70496742373E+02  0.70496742373E+02  0.00000000000E+00 0. -1.
         -2   -1    0    0    0  501 -0.00000000000E+00 -0.00000000000E+00 -0.38340077097E+03  0.38340077097E+03  0.00000000000E+00 0.  1.
         23    2    1    2    0    0  0.52370814063E+02  0.11061755734E+03 -0.12346313860E+03  0.19599104359E+03  0.90500808921E+02 0.  0.
          5    1    1    2  502    0 -0.31176675050E+02 -0.59903584626E+02 -0.19113500164E+03  0.20275720892E+03  0.41800000000E+01 0.  1.
         -5    1    1    2    0  502 -0.21194139014E+02 -0.50713972716E+02  0.16941116344E+01  0.55149260841E+02  0.41800000000E+01 0.  1.
        -11    1    3    3    0    0 -0.14860466901E+02  0.56730209291E+02 -0.80817280673E+02  0.99852806561E+02  0.00000000000E+00 0.  1.
         11    1    3    3    0    0  0.67231280964E+02  0.53887348051E+02 -0.42645857926E+02  0.96138237025E+02  0.00000000000E+00 0. -1.
</event>
<event>
 7    1  0.6610867E-006  0.1297492E+03  0.7561462E-02  0.1227828E+00
          2   -1    0    0  501    0  0.00000000000E+00  0.00000000000E+00  0.71227387661E+03  0.71227387661E+03  0.00000000000E+00 0. -1.
         -2   -1    0    0    0  501 -0.00000000000E+00 -0.00000000000E+00 -0.32710067586E+02  0.32710067586E+02  0.00000000000E+00 0.  1.
         23    2    1    2    0    0 -0.60430838976E+02 -0.54852358224E+02  0.13381789161E+03  0.18170452994E+03  0.91916487007E+02 0.  0.
          5    1    1    2  502    0  0.92065724295E+02  0.32196139599E+02  0.43507697547E+03  0.44589475886E+03  0.41800000000E+01 0. -1.
         -5    1    1    2    0  502 -0.31634885318E+02  0.22656218624E+02  0.11066894194E+03  0.11738465539E+03  0.41800000000E+01 0.  1.
        -11    1    3    3    0    0  0.11715533096E+02 -0.48973630365E+02  0.50112873406E+02  0.71042031699E+02  0.00000000000E+00 0. -1.
         11    1    3    3    0    0 -0.72146372073E+02 -0.58787278587E+01  0.83705018205E+02  0.11066249824E+03  0.00000000000E+00 0.  1.
</event>
<event>
 7    1  0.6610867E-006  0.9904832E+02  0.7561462E-02  0.1282310E+00
          2   -1    0    0  501    0  0.00000000000E+00  0.00000000000E+00  0.77222713529E+03  0.77222713529E+03  0.00000000000E+00 0. -1.
         -2   -1    0    0    0  501 -0.00000000000E+00 -0.00000000000E+00 -0.30365766014E+02  0.30365766014E+02  0.00000000000E+00 0.  1.
         23    2    1    2    0    0  0.62122753285E+02  0.15979392047E+02  0.11265767101E+03  0.15787636817E+03  0.90103381408E+02 0.  0.
          5    1    1    2  502    0 -0.10985624743E+01 -0.26068601409E+02  0.50699382614E+03  0.50768197817E+03  0.41800000000E+01 0. -1.
         -5    1    1    2    0  502 -0.61024190811E+02  0.10089209362E+02  0.12220987213E+03  0.13703455497E+03  0.41800000000E+01 0. -1.
        -11    1    3    3    0    0  0.85107980751E+02  0.86177341735E+01  0.78866758812E+02  0.11635118983E+03  0.00000000000E+00 0.  1.
         11    1    3    3    0    0 -0.22985227465E+02  0.73616578739E+01  0.33790912201E+02  0.41525178334E+02  0.00000000000E+00 0. -1.
</event>
<event>
 7    1  0.6610867E-006  0.1173279E+03  0.7561462E-02  0.1247571E+00
         -1   -1    0    0    0  501 -0.00000000000E+00  0.00000000000E+00  0.87566776677E+02  0.87566776677E+02  0.00000000000E+00 0.  1.
          1   -1    0    0  501    0  0.00000000000E+00 -0.00000000000E+00 -0.21630286685E+03  0.21630286685E+03  0.00000000000E+00 0. -1.
         23    2    1    2    0    0  0.57638799832E+02 -0.60920314745E+02 -0.65980589270E+02  0.14071082928E+03  0.91720135863E+02 0.  0.
          5    1    1    2  502    0 -0.94136552142E+01  0.83949560316E+02 -0.55473983436E+01  0.84760790523E+02  0.41800000000E+01 0.  1.
         -5    1    1    2    0  502 -0.48225144617E+02 -0.23029245571E+02 -0.57208102562E+02  0.78398023723E+02  0.41800000000E+01 0.  1.
        -11    1    3    3    0    0  0.11737360272E+02  0.76107058135E+01  0.18134183045E+02  0.22902774152E+02  0.00000000000E+00 0.  1.
         11    1    3    3    0    0  0.45901439560E+02 -0.68531020558E+02 -0.84114772315E+02  0.11780805513E+03  0.00000000000E+00 0. -1.
</event>
<event>
 7    1  0.6610867E-006  0.2462130E+03  0.7561462E-02  0.1115722E+00
         -1   -1    0    0    0  501 -0.00000000000E+00  0.00000000000E+00  0.21468250025E+03  0.21468250025E+03  0.00000000000E+00 0.  1.
          1   -1    0    0  501    0  0.00000000000E+00 -0.00000000000E+00 -0.55287803654E+03  0.55287803654E+03  0.00000000000E+00 0. -1.
         23    2    1    2    0    0 -0.68303066668E+02 -0.15176542851E+03  0.10680815998E+03  0.21889678636E+03  0.93860352842E+02 0.  0.
          5    1    1    2  502    0  0.12689308962E+03  0.20106917004E+03 -0.37929470696E+03  0.44767467480E+03  0.41800000000E+01 0. -1.
         -5    1    1    2    0  502 -0.58590022951E+02 -0.49303741533E+02 -0.65708989318E+02  0.10098907563E+03  0.41800000000E+01 0.  1.
        -11    1    3    3    0    0 -0.61443826141E+02 -0.59873634146E+02  0.91601360375E+02  0.12550300817E+03  0.00000000000E+00 0.  1.
         11    1    3    3    0    0 -0.68592405276E+01 -0.91891794360E+02  0.15206799607E+02  0.93393778195E+02  0.00000000000E+00 0. -1.
</event>
<event>
 7    1  0.6610867E-006  0.8922608E+02  0.7561462E-02  0.1304737E+00
         -1   -1    0    0    0  501 -0.00000000000E+00  0.00000000000E+00  0.49308870202E+02  0.49308870202E+02  0.00000000000E+00 0.  1.
          1   -1    0    0  501    0  0.00000000000E+00 -0.00000000000E+00 -0.13402753125E+04  0.13402753125E+04  0.00000000000E+00 0. -1.
         23    2    1    2    0    0  0.89360968297E+01 -0.26800777588E+02 -0.33535057421E+01  0.95314838950E+02  0.90969978660E+02 0.  0.
          5    1    1    2  502    0 -0.14946677645E+01  0.71203051226E+02 -0.10481480833E+04  0.10505731700E+04  0.41800000000E+01 0. -1.
         -5    1    1    2    0  502 -0.74414290652E+01 -0.44402273639E+02 -0.23946485323E+03  0.24369617375E+03  0.41800000000E+01 0.  1.
        -11    1    3    3    0    0 -0.75613949367E+01  0.15087249503E+02 -0.35962945270E+02  0.39725724958E+02  0.00000000000E+00 0. -1.
         11    1    3    3    0    0  0.16497491766E+02 -0.41888027090E+02  0.32609439528E+02  0.55589113992E+02  0.00000000000E+00 0.  1.
</event>
<event>
 7    1  0.6610867E-006  0.1723561E+03  0.7561462E-02  0.1175413E+00
         -1   -1    0    0    0  501 -0.00000000000E+00  0.00000000000E+00  0.13629239097E+02  0.13629239097E+02  0.00000000000E+00 0.  1.
          1   -1    0    0  501    0  0.00000000000E+00 -0.00000000000E+00 -0.25777172876E+04  0.25777172876E+04  0.00000000000E+00 0. -1.
         23    2    1    2    0    0 -0.74709146067E+02  0.12629897184E+03 -0.87366559834E+03  0.89064504844E+03  0.91783101848E+02 0.  0.
          5    1    1    2  502    0 -0.15492497462E+02  0.50226317860E+00 -0.42304841102E+02  0.45248665468E+02  0.41800000000E+01 0. -1.
         -5    1    1    2    0  502  0.90201643529E+02 -0.12680123502E+03 -0.16481176090E+04  0.16554528128E+04  0.41800000000E+01 0.  1.
        -11    1    3    3    0    0 -0.30465844526E+02 -0.80769317647E+01 -0.17059372209E+03  0.17348089960E+03  0.00000000000E+00 0.  1.
         11    1    3    3    0    0 -0.44243301541E+02  0.13437590360E+03 -0.70307187625E+03  0.71716414883E+03  0.00000000000E+00 0. -1.
</event>
<event>
 7    1  0.6610867E-006  0.6824992E+02  0.7561462E-02  0.1366147E+00
         -2   -1    0    0    0  501 -0.00000000000E+00  0.00000000000E+00  0.28909349081E+02  0.28909349081E+02  0.00000000000E+00 0.  1.
          2   -1    0    0  501    0  0.00000000000E+00 -0.00000000000E+00 -0.58006363399E+03  0.58006363399E+03  0.00000000000E+00 0. -1.
         23    2    1    2    0    0  0.71178700319E+00 -0.40441314262E+02 -0.11435129330E+03  0.15281467917E+03  0.92952145481E+02 0.  0.
          5    1    1    2  502    0 -0.15715665942E+02  0.10305368097E+02 -0.12571585208E+01  0.19293408594E+02  0.41800000000E+01 0. -1.
         -5    1    1    2    0  502  0.15003878939E+02  0.30135946165E+02 -0.43554583309E+03  0.43686489531E+03  0.41800000000E+01 0. -1.
        -11    1    3    3    0    0  0.15106280402E+02  0.17791151353E+02  0.38672335938E+00  0.23342543328E+02  0.00000000000E+00 0. -1.
         11    1    3    3    0    0 -0.14394493399E+02 -0.58232465615E+02 -0.11473801666E+03  0.12947213584E+03  0.00000000000E+00 0.  1.
</event>
<event>
 7    1  0.6610867E-006  0.3559671E+03  0.7561462E-02  0.1060192E+00
         -2   -1    0    0    0  501 -0.00000000000E+00  0.00000000000E+00  0.53791766454E+02  0.53791766454E+02  0.00000000000E+00 0. -1.
          2   -1    0    0  501    0  0.00000000000E+00 -0.00000000000E+00 -0.24306522900E+04  0.24306522900E+04  0.00000000000E+00 0.  1.
         23    2    1    2    0    0 -0.54590206477E+02 -0.33957032596E+03 -0.10912164380E+04  0.11477259247E+04  0.90738011413E+02 0.  0.
          5    1    1    2  502    0 -0.30753954965E+02  0.16163640684E+03 -0.68392830421E+03  0.70345400096E+03  0.41800000000E+01 0. -1.
         -5    1    1    2    0  502  0.85344161442E+02  0.17793391912E+03 -0.60171578134E+03  0.63326413082E+03  0.41800000000E+01 0. -1.
        -11    1    3    3    0    0  0.68057448295E+01 -0.16070314941E+03 -0.60531212107E+03  0.62631827716E+03  0.00000000000E+00 0.  1.
         11    1    3    3    0    0 -0.61395951307E+02 -0.17886717655E+03 -0.48590431696E+03  0.52140764755E+03  0.00000000000E+00 0. -1.
</event>
<event>
 7    1  0.6610867E-006  0.9832309E+02  0.7561462E-02  0.1283862E+00
          1   -1    0    0  501    0  0.00000000000E+00  0.00000000000E+00  0.16491151907E+04  0.16491151907E+04  0.00000000000E+00 0. -1.
         -1   -1    0    0    0  501 -0.00000000000E+00 -0.00000000000E+00 -0.14781247294E+02  0.14781247294E+02  0.00000000000E+00 0.  1.
         23    2    1    2    0    0 -0.13469565507E+02  0.57573208871E+02  0.25363934110E+03  0.27628613080E+03  0.92222595603E+02 0.  0.
          5    1    1    2  502    0  0.62237488220E+01 -0.96927840999E+02  0.90025100096E+03  0.90548499631E+03  0.41800000000E+01 0. -1.
         -5    1    1    2    0  502  0.72458166847E+01  0.39354632129E+02  0.48044360130E+03  0.48212531085E+03  0.41800000000E+01 0. -1.
        -11    1    3    3    0    0 -0.95705539726E+01  0.45921974818E+02  0.25875849567E+03  0.26297601099E+03  0.00000000000E+00 0. -1.
         11    1    3    3    0    0 -0.38990115342E+01  0.11651234053E+02 -0.51191545627E+01  0.13310119809E+02  0.00000000000E+00 0.  1.
</event>
<event>
 7    1  0.6610867E-006  0.1251017E+03  0.7561462E-02  0.1234910E+00
         -1   -1    0    0    0  501 -0.00000000000E+00  0.00000000000E+00  0.23377023064E+02  0.23377023064E+02  0.00000000000E+00 0.  1.
          1   -1    0    0  501    0  0.00000000000E+00 -0.00000000000E+00 -0.74774017686E+03  0.74774017686E+03  0.00000000000E+00 0. -1.
         23    2    1    2    0    0  0.56282921978E+02  0.51843084090E+02 -0.31097619667E+03  0.33249076326E+03  0.89378073841E+02 0.  0.
          5    1    1    2  502    0 -0.94094555537E+02 -0.28088214606E+02 -0.23580751140E+03  0.25547091422E+03  0.41800000000E+01 0.  1.
         -5    1    1    2    0  502  0.37811633558E+02 -0.23754869483E+02 -0.17757944572E+03  0.18315552243E+03  0.41800000000E+01 0.  1.
        -11    1    3    3    0    0 -0.18697767284E+02  0.10207081158E+02 -0.20299839837E+02  0.29425745608E+02  0.00000000000E+00 0.  1.
         11    1    3    3    0    0  0.74980689263E+02  0.41636002931E+02 -0.29067635684E+03  0.30306501766E+03  0.00000000000E+00 0. -1.
</event>
<event>
 7    1  0.6610867E-006  0.9489349E+02  0.7561462E-02  0.1291416E+00
         -2   -1    0    0    0  501 -0.00000000000E+00  0.00000000000E+00  0.31218985677E+02  0.31218985677E+02  0.00000000000E+00 0.  1.
          2   -1    0    0  501    0  0.00000000000E+00 -0.00000000000E+00 -0.79302649244E+03  0.79302649244E+03  0.00000000000E+00 0. -1.
         23    2    1    2    0    0  0.40324258307E+02  0.26206840517E+02 -0.94498154093E+02  0.13876484538E+03  0.89515009289E+02 0.  0.
          5    1    1    2  502    0  0.27038033211E+02 -0.20129142559E+02 -0.54164891231E+03  0.54271286536E+03  0.41800000000E+01 0. -1.
         -5    1    1    2    0  502 -0.67362291518E+02 -0.60776979585E+01 -0.12566044036E+03  0.14276776738E+03  0.41800000000E+01 0.  1.
        -11    1    3    3    0    0 -0.45433549360E+01 -0.21845412389E+02 -0.61055435416E+02  0.65004848361E+02  0.00000000000E+00 0.  1.
         11    1    3    3    0    0  0.44867613243E+02  0.48052252907E+02 -0.33442718677E+02  0.73759997018E+02  0.00000000000E+00 0. -1.
</event>
<event>
 7    1  0.6610867E-006  0.1793497E+03  0.7561462E-02  0.1168434E+00
          1   -1    0    0  501    0  0.00000000000E+00  0.00000000000E+00  0.49940122945E+03  0.49940122945E+03  0.00000000000E+00 0. -1.
         -1   -1    0    0    0  501 -0.00000000000E+00 -0.00000000000E+00 -0.92807662102E+02  0.92807662102E+02  0.00000000000E+00 0.  1.
         23    2    1    2    0    0  0.41514764058E+02  0.16230153364E+03  0.87263434701E+02  0.21052399732E+03  0.92952584454E+02 0.  0.
          5    1    1    2  502    0 -0.60195724916E+02 -0.74970910350E+02  0.76560459957E+02  0.12297617300E+03  0.41800000000E+01 0.  1.
         -5    1    1    2    0  502  0.18680960859E+02 -0.87330623287E+02  0.24276967269E+03  0.25870872123E+03  0.41800000000E+01 0.  1.
        -11    1    3    3    0    0 -0.99422827505E+00  0.83633641661E+02  0.87583392552E+02  0.12110501706E+03  0.00000000000E+00 0. -1.
         11    1    3    3    0    0  0.42508992333E+02  0.78667891976E+02 -0.31995785134E+00  0.89418980257E+02  0.00000000000E+00 0.  1.
</event>
<event>
 7    1  0.6610867E-006  0.4073332E+03  0.7561462E-02  0.1041270E+00
         -1   -1    0    0    0  501 -0.00000000000E+00  0.00000000000E+00  0.32159567652E+03  0.32159567652E+03  0.00000000000E+00 0.  1.
          1   -1    0    0  501    0  0.00000000000E+00 -0.00000000000E+00 -0.62522124845E+03  0.62522124845E+03  0.00000000000E+00 0. -1.
         23    2    1    2    0    0  0.39465955795E+03 -0.65382850566E+02  0.29881229672E+02  0.41118149729E+03  0.90256589785E+02 0.  0.
          5    1    1    2  502    0 -0.17259571035E+03 -0.24692846039E+02 -0.18209601576E+03  0.25214172053E+03  0.41800000000E+01 0. -1.
         -5    1    1    2    0  502 -0.22206384759E+03  0.90075696605E+02 -0.15141078585E+03  0.28349370716E+03  0.41800000000E+01 0. -1.
        -11    1    3    3    0    0  0.35554611952E+03 -0.52453270550E+02 -0.14961194770E+01  0.35939758913E+03  0.00000000000E+00 0. -1.
         11    1    3    3    0    0  0.39113438427E+02 -0.12929580016E+02  0.31377349149E+02  0.51783908163E+02  0.00000000000E+00 0.  1.
</event>
<event>
 7    1  0.6610867E-006  0.9518610E+02  0.7561462E-02  0.1290758E+00
         -4   -1    0    0    0  501 -0.00000000000E+00  0.00000000000E+00  0.19552370852E+03  0.19552370852E+03  0.00000000000E+00 0.  1.
          4   -1    0    0  501    0  0.00000000000E+00 -0.00000000000E+00 -0.65634487647E+02  0.65634487647E+02  0.00000000000E+00 0. -1.
         23    2    1    2    0    0 -0.27418660841E+02  0.19863134904E+02  0.54267193884E+02  0.11112174451E+03  0.90866862386E+02 0.  0.
          5    1    1    2  502    0  0.30381292022E+01  0.45804102792E+02  0.64057489995E+02  0.78918188563E+02  0.41800000000E+01 0. -1.
         -5    1    1    2    0  502  0.24380531639E+02 -0.65667237696E+02  0.11564536993E+02  0.71118263094E+02  0.41800000000E+01 0. -1.
        -11    1    3    3    0    0 -0.37713188074E+02 -0.12825581403E+02  0.64098692975E+02  0.75468023256E+02  0.00000000000E+00 0.  1.
         11    1    3    3    0    0  0.10294527234E+02  0.32688716307E+02 -0.98314990913E+01  0.35653721252E+02  0.00000000000E+00 0. -1.
</event>
<event>
 7    1  0.6610867E-006  0.1234543E+03  0.7561462E-02  0.1237505E+00
         -2   -1    0    0    0  501 -0.00000000000E+00  0.00000000000E+00  0.44106397463E+02  0.44106397463E+02  0.00000000000E+00 0.  1.
          2   -1    0    0  501    0  0.00000000000E+00 -0.00000000000E+00 -0.56280071026E+03  0.56280071026E+03  0.00000000000E+00 0. -1.
         23    2    1    2    0    0 -0.21349291930E+02 -0.36133889348E+02 -0.66891016902E+02  0.12090194093E+03  0.91550100776E+02 0.  0.
          5    1    1    2  502    0  0.54434741691E+02 -0.38214163824E+02 -0.34653413748E+03  0.35288361291E+03  0.41800000000E+01 0. -1.
         -5    1    1    2    0  502 -0.33085449761E+02  0.74348053171E+02 -0.10526915841E+03  0.13312155389E+03  0.41800000000E+01 0.  1.
        -11    1    3    3    0    0 -0.32653836060E+02  0.22121435653E+02 -0.15422626978E+02  0.42349596783E+02  0.00000000000E+00 0.  1.
         11    1    3    3    0    0  0.11304544130E+02 -0.58255325001E+02 -0.51468389924E+02  0.78552344142E+02  0.00000000000E+00 0. -1.
</event>
<event>
 7    1  0.6610867E-006  0.2893727E+03  0.7561462E-02  0.1090677E+00
         -2   -1    0    0    0  501 -0.00000000000E+00  0.00000000000E+00  0.10902212381E+03  0.10902212381E+03  0.00000000000E+00 0.  1.
          2   -1    0    0  501    0  0.00000000000E+00 -0.00000000000E+00 -0.81926429609E+03  0.81926429609E+03  0.00000000000E+00 0. -1.
         23    2    1    2    0    0  0.24381502465E+03 -0.13171549595E+03 -0.30966580040E+03  0.42539113318E+03  0.90939376175E+02 0.  0.
          5    1    1    2  502    0 -0.24412313025E+02  0.47631425715E+02 -0.23542893989E+02  0.58621276004E+02  0.41800000000E+01 0. -1.
         -5    1    1    2    0  502 -0.21940271162E+03  0.84084070232E+02 -0.37703347789E+03  0.44427401070E+03  0.41800000000E+01 0. -1.
        -11    1    3    3    0    0  0.20938941415E+03 -0.72540480568E+02 -0.21675216449E+03  0.30997991691E+03  0.00000000000E+00 0.  1.
         11    1    3    3    0    0  0.34425610500E+02 -0.59175015380E+02 -0.92913635912E+02  0.11541121627E+03  0.00000000000E+00 0. -1.
</event>
<event>
 7    1  0.6610867E-006  0.1839488E+03  0.7561462E-02  0.1164035E+00
          2   -1    0    0  501    0  0.00000000000E+00  0.00000000000E+00  0.72252950429E+03  0.72252950429E+03  0.00000000000E+00 0. -1.
         -2   -1    0    0    0  501 -0.00000000000E+00 -0.00000000000E+00 -0.61026300538E+02  0.61026300538E+02  0.00000000000E+00 0.  1.
         23    2    1    2    0    0 -0.29427724685E+02 -0.94827667712E+02  0.90332330179E+02  0.16070961626E+03  0.88370658807E+02 0.  0.
          5    1    1    2  502    0 -0.20670573384E+02 -0.68751283405E+02  0.23293367248E+03  0.24378182818E+03  0.41800000000E+01 0. -1.
         -5    1    1    2    0  502  0.50098298069E+02  0.16357895112E+03  0.33823720110E+03  0.37906436040E+03  0.41800000000E+01 0.  1.
        -11    1    3    3    0    0  0.16514039230E+02  0.29928241552E+01  0.36063369882E+02  0.39777344499E+02  0.00000000000E+00 0.  1.
         11    1    3    3    0    0 -0.45941763915E+02 -0.97820491867E+02  0.54268960296E+02  0.12093227176E+03  0.00000000000E+00 0. -1.
</event>
<event>
 7    1  0.6610867E-006  0.1158989E+03  0.7561462E-02  0.1250020E+00
         -1   -1    0    0    0  501 -0.00000000000E+00  0.00000000000E+00  0.29625915700E+02  0.29625915700E+02  0.00000000000E+00 0.  1.
          1   -1    0    0  501    0  0.00000000000E+00 -0.00000000000E+00 -0.61911017598E+03  0.61911017598E+03  0.00000000000E+00 0. -1.
         23    2    1    2    0    0 -0.47682117404E+02  0.28196840564E+02 -0.11757041733E+03  0.15739146097E+03  0.88772872075E+02 0.  0.
          5    1    1    2  502    0 -0.43556164904E+00 -0.68173268261E+02 -0.17444008704E+03  0.18733552943E+03  0.41800000000E+01 0. -1.
         -5    1    1    2    0  502  0.48117679053E+02  0.39976427697E+02 -0.29747375592E+03  0.30400910129E+03  0.41800000000E+01 0. -1.
        -11    1    3    3    0    0 -0.14400954457E+02 -0.30270948253E+02 -0.20522888527E+02  0.39305301816E+02  0.00000000000E+00 0.  1.
         11    1    3    3    0    0 -0.33281162947E+02  0.58467788817E+02 -0.97047528803E+02  0.11808615915E+03  0.00000000000E+00 0. -1.
</event>
<event>
 7    1  0.6610867E-006  0.8804163E+02  0.7561462E-02  0.1307665E+00
         -1   -1    0    0    0  501 -0.00000000000E+00  0.00000000000E+00  0.98092559927E+02  0.98092559927E+02  0.00000000000E+00 0.  1.
          1   -1    0    0  501    0  0.00000000000E+00 -0.00000000000E+00 -0.14157107984E+03  0.14157107984E+03  0.00000000000E+00 0. -1.
         23    2    1    2    0    0 -0.29442155329E+02  0.80230853797E+01  0.18080571349E+02  0.96947233794E+02  0.90225543337E+02 0.  0.
          5    1    1    2  502    0 -0.23636777493E+02 -0.39066108130E+02  0.11362688531E+02  0.47238132323E+02  0.41800000000E+01 0.  1.
         -5    1    1    2    0  502  0.53078932821E+02  0.31043022751E+02 -0.72921779793E+02  0.95478273649E+02  0.41800000000E+01 0.  1.
        -11    1    3    3    0    0 -0.46696183046E+02 -0.50277841966E+01  0.43188320901E+02  0.63804726998E+02  0.00000000000E+00 0.  1.
         11    1    3    3    0    0  0.17254027717E+02  0.13050869576E+02 -0.25107749552E+02  0.33142506796E+02  0.00000000000E+00 0. -1.
</event>
<event>
 7    1  0.6610867E-006  0.1137254E+03  0.7561462E-02  0.1253822E+00
         -1   -1    0    0    0  501 -0.00000000000E+00  0.00000000000E+00  0.45462333402E+03  0.45462333402E+03  0.00000000000E+00 0.  1.
          1   -1    0    0  501    0  0.00000000000E+00 -0.00000000000E+00 -0.33435613562E+02  0.33435613562E+02  0.00000000000E+00 0. -1.
         23    2    1    2    0    0  0.26123207636E+02  0.33862143678E+02  0.26728650767E+03  0.28517437930E+03  0.89740084018E+02 0.  0.
          5    1    1    2  502    0 -0.37109534742E+02  0.40836776043E+02  0.51540551935E+02  0.75621827140E+02  0.41800000000E+01 0.  1.
         -5    1    1    2    0  502  0.10986327106E+02 -0.74698919721E+02  0.10236066086E+03  0.12726274114E+03  0.41800000000E+01 0.  1.
        -11    1    3    3    0    0 -0.27490997370E+02 -0.78232548111E+01  0.50841438171E+02  0.58325038256E+02  0.00000000000E+00 0. -1.
         11    1    3    3    0    0  0.53614205005E+02  0.41685398489E+02  0.21644506949E+03  0.22684934105E+03  0.00000000000E+00 0.  1.
</event>
<event>
 7    1  0.6610867E-006  0.6301514E+02  0.7561462E-02  0.1385597E+00
         -2   -1    0    0    0  501 -0.00000000000E+00  0.00000000000E+00  0.21780441935E+02  0.21780441935E+02  0.00000000000E+00 0.  1.
          2   -1    0    0  501    0  0.00000000000E+00 -0.00000000000E+00 -0.57312099423E+03  0.57312099423E+03  0.00000000000E+00 0. -1.
         23    2    1    2    0    0 -0.93542889861E+01 -0.28736769287E+02 -0.20853797527E+03  0.22873914315E+03  0.88995527106E+02 0.  0.
          5    1    1    2  502    0  0.10340833546E+02  0.27688476580E+02 -0.74310432834E+01  0.30761621837E+02  0.41800000000E+01 0. -1.
         -5    1    1    2    0  502 -0.98654455989E+00  0.10482927066E+01 -0.33537153373E+03  0.33540067118E+03  0.41800000000E+01 0. -1.
        -11    1    3    3    0    0  0.26997901844E+02  0.18074858847E+02 -0.98993074439E+02  0.10418836794E+03  0.00000000000E+00 0. -1.
         11    1    3    3    0    0 -0.36352190830E+02 -0.46811628134E+02 -0.10954490084E+03  0.12455077521E+03  0.00000000000E+00 0.  1.
</event>
<event>
 7    1  0.6610867E-006  0.1779149E+03  0.7561462E-02  0.1169836E+00
         -1   -1    0    0    0  501 -0.00000000000E+00  0.00000000000E+00  0.39175452720E+02  0.39175452720E+02  0.00000000000E+00 0.  1.
          1   -1    0    0  501    0  0.00000000000E+00 -0.00000000000E+00 -0.12108528579E+04  0.12108528579E+04  0.00000000000E+00 0. -1.
         23    2    1    2    0    0  0.15555532062E+03  0.44468936188E+02 -0.28800935951E+03  0.34300506955E+03  0.92347942651E+02 0.  0.
          5    1    1    2  502    0 -0.25315074599E+01 -0.12590782404E+02 -0.36614252403E+03  0.36639153461E+03  0.41800000000E+01 0. -1.
         -5    1    1    2    0  502 -0.15302381316E+03 -0.31878153784E+02 -0.51752552165E+03  0.54063170647E+03  0.41800000000E+01 0. -1.
        -11    1    3    3    0    0  0.11565895576E+02  0.40281256792E+02 -0.56672242818E+02  0.70484698306E+02  0.00000000000E+00 0. -1.
         11    1    3    3    0    0  0.14398942504E+03  0.41876793961E+01 -0.23133711669E+03  0.27252037124E+03  0.00000000000E+00 0.  1.
</event>
<event>
 7    1  0.6610867E-006  0.1299987E+03  0.7561462E-02  0.1227458E+00
         -1   -1    0    0    0  501 -0.00000000000E+00  0.00000000000E+00  0.14351955357E+03  0.14351955357E+03  0.00000000000E+00 0.  1.
          1   -1    0    0  501    0  0.00000000000E+00 -0.00000000000E+00 -0.12636158357E+03  0.12636158357E+03  0.00000000000E+00 0. -1.
         23    2    1    2    0    0 -0.13225544688E+02 -0.77043411706E+02  0.12516676411E+02  0.12229972947E+03  0.93219924484E+02 0.  0.
          5    1    1    2  502    0  0.55848462768E+02  0.19691363602E+01 -0.16851410179E+02  0.58518122976E+02  0.41800000000E+01 0.  1.
         -5    1    1    2    0  502 -0.42622918081E+02  0.75074275346E+02  0.21492703774E+02  0.89063284691E+02  0.41800000000E+01 0.  1.
        -11    1    3    3    0    0  0.18777887888E+02  0.12418667541E+02  0.15342153744E+02  0.27243605828E+02  0.00000000000E+00 0.  1.
         11    1    3    3    0    0 -0.32003432576E+02 -0.89462079247E+02 -0.28254773329E+01  0.95056123643E+02  0.00000000000E+00 0. -1.
</event>
<event>
 7    1  0.6610867E-006  0.1191664E+03  0.7561462E-02  0.1244479E+00
          1   -1    0    0  501    0  0.00000000000E+00  0.00000000000E+00  0.13301930064E+03  0.13301930064E+03  0.00000000000E+00 0. -1.
         -1   -1    0    0    0  501 -0.00000000000E+00 -0.00000000000E+00 -0.12569735634E+03  0.12569735634E+03  0.00000000000E+00 0.  1.
         23    2    1    2    0    0 -0.32379211331E+02 -0.61640952904E+02  0.41807999053E+01  0.11551990146E+03  0.92083376048E+02 0.  0.
          5    1    1    2  502    0  0.68935359511E+02  0.30310370453E+02 -0.33524059442E+02  0.82535672950E+02  0.41800000000E+01 0. -1.
         -5    1    1    2    0  502 -0.36556148180E+02  0.31330582451E+02  0.36665203840E+02  0.60661082574E+02  0.41800000000E+01 0. -1.
        -11    1    3    3    0    0 -0.46314874466E+02  0.49257336917E+01 -0.52031690028E+01  0.46865802211E+02  0.00000000000E+00 0.  1.
         11    1    3    3    0    0  0.13935663135E+02 -0.66566686596E+02  0.93839689081E+01  0.68654099250E+02  0.00000000000E+00 0. -1.
</event>
<event>
 7    1  0.6610867E-006  0.1063374E+03  0.7561462E-02  0.1267507E+00
          4   -1    0    0  501    0  0.00000000000E+00  0.00000000000E+00  0.28922862459E+03  0.28922862459E+03  0.00000000000E+00 0.  1.
         -4   -1    0    0    0  501 -0.00000000000E+00 -0.00000000000E+00 -0.43097209142E+02  0.43097209142E+02  0.00000000000E+00 0. -1.
         23    2    1    2    0    0  0.32224124899E+02  0.19682361534E+02  0.64025695239E+02  0.10819272631E+03  0.78616708107E+02 0.  0.
          5    1    1    2  502    0  0.47352459268E+02  0.31581897439E+01  0.61738750606E+02  0.77983173106E+02  0.41800000000E+01 0.  1.
         -5    1    1    2    0  502 -0.79576584167E+02 -0.22840551278E+02  0.12036696961E+03  0.14614993432E+03  0.41800000000E+01 0.  1.
        -11    1    3    3    0    0 -0.57351236951E+01 -0.23763419462E+02  0.37332639803E+02  0.44624183388E+02  0.00000000000E+00 0.  1.
         11    1    3    3    0    0  0.37959248594E+02  0.43445780997E+02  0.26693055436E+02  0.63568542918E+02  0.00000000000E+00 0. -1.
</event>
<event>
 7    1  0.6610867E-006  0.8683736E+02  0.7561462E-02  0.1310696E+00
         -2   -1    0    0    0  501 -0.00000000000E+00  0.00000000000E+00  0.61690706553E+02  0.61690706553E+02  0.00000000000E+00 0.  1.
          2   -1    0    0  501    0  0.00000000000E+00 -0.00000000000E+00 -0.27100387671E+03  0.27100387671E+03  0.00000000000E+00 0. -1.
         23    2    1    2    0    0  0.38141037306E+02 -0.26915811039E+02 -0.24626981417E+02  0.10480230437E+03  0.90541897354E+02 0.  0.
          5    1    1    2  502    0  0.89889196572E+01 -0.15910056881E+02 -0.15735528525E+03  0.15846794244E+03  0.41800000000E+01 0.  1.
         -5    1    1    2    0  502 -0.47129956963E+02  0.42825867920E+02 -0.27330903495E+02  0.69424336456E+02  0.41800000000E+01 0.  1.
        -11    1    3    3    0    0  0.61679645012E+02 -0.10887432398E+02 -0.38086517260E+02  0.73304144427E+02  0.00000000000E+00 0. -1.
         11    1    3    3    0    0 -0.23538607706E+02 -0.16028378641E+02  0.13459535843E+02  0.31498159942E+02  0.00000000000E+00 0.  1.
</event>
<event>
 7    1  0.6610867E-006  0.1058894E+03  0.7561462E-02  0.1268377E+00
         -2   -1    0    0    0  501 -0.00000000000E+00  0.00000000000E+00  0.17395597893E+03  0.17395597893E+03  0.00000000000E+00 0.  1.
          2   -1    0    0  501    0  0.00000000000E+00 -0.00000000000E+00 -0.15575476884E+03  0.15575476884E+03  0.00000000000E+00 0. -1.
         23    2    1    2    0    0  0.59207406246E+02  0.33129407481E+02  0.11913836387E+03  0.16491044729E+03  0.91642955454E+02 0.  0.
          5    1    1    2  502    0 -0.69132933184E+02 -0.45981258747E+02 -0.11569327861E+03  0.14246419102E+03  0.41800000000E+01 0. -1.
         -5    1    1    2    0  502  0.99255269387E+01  0.12851851267E+02  0.14756124827E+02  0.22336109462E+02  0.41800000000E+01 0.  1.
        -11    1    3    3    0    0  0.23624043235E+02  0.61812679049E+02  0.54396819766E+02  0.85661640835E+02  0.00000000000E+00 0.  1.
         11    1    3    3    0    0  0.35583363011E+02 -0.28683271568E+02  0.64741544108E+02  0.79248806454E+02  0.00000000000E+00 0. -1.
</event>
<event>
 7    1  0.6610867E-006  0.1235888E+03  0.7561462E-02  0.1237291E+00
         -1   -1    0    0    0  501 -0.00000000000E+00  0.00000000000E+00  0.16484799926E+02  0.16484799926E+02  0.00000000000E+00 0.  1.
          1   -1    0    0  501    0  0.00000000000E+00 -0.00000000000E+00 -0.15693260787E+04  0.15693260787E+04  0.00000000000E+00 0. -1.
         23    2    1    2    0    0 -0.87328170706E+02  0.47318570044E+02 -0.40781217122E+03  0.42969550350E+03  0.91990229200E+02 0.  0.
          5    1    1    2  502    0  0.95664676846E+02 -0.39959368064E+02 -0.11371191257E+04  0.11418431854E+04  0.41800000000E+01 0.  1.
         -5    1    1    2    0  502 -0.83365061396E+01 -0.73592019803E+01 -0.79099818868E+01  0.14272189806E+02  0.41800000000E+01 0.  1.
        -11    1    3    3    0    0 -0.93671218985E+02  0.64163146448E+02 -0.30772756364E+03  0.32800527443E+03  0.00000000000E+00 0. -1.
         11    1    3    3    0    0  0.63430482790E+01 -0.16844576404E+02 -0.10008460757E+03  0.10169022907E+03  0.00000000000E+00 0.  1.
</event>
<event>
 7    1  0.6610867E-006  0.1690235E+03  0.7561462E-02  0.1178870E+00
         -1   -1    0    0    0  501 -0.00000000000E+00  0.00000000000E+00  0.13822009909E+03  0.13822009909E+03  0.00000000000E+00 0.  1.
          1   -1    0    0  501    0  0.00000000000E+00 -0.00000000000E+00 -0.29467993134E+03  0.29467993134E+03  0.00000000000E+00 0. -1.
         23    2    1    2    0    0  0.53218943379E+02  0.11521607862E+03  0.38924093901E+02  0.16131741626E+03  0.91658185645E+02 0.  0.
          5    1    1    2  502    0 -0.55482558193E+02 -0.14516477790E+03 -0.17910773466E+03  0.23716698763E+03  0.41800000000E+01 0. -1.
         -5    1    1    2    0  502  0.22636148140E+01  0.29948699274E+02 -0.16276191493E+02  0.34415626534E+02  0.41800000000E+01 0.  1.
        -11    1    3    3    0    0  0.12745499497E+02 -0.12761244971E+02  0.17982235210E+02  0.25468763491E+02  0.00000000000E+00 0. -1.
         11    1    3    3    0    0  0.40473443882E+02  0.12797732359E+03  0.20941858691E+02  0.13584865277E+03  0.00000000000E+00 0.  1.
</event>
<event>
 7    1  0.6610867E-006  0.1732252E+03  0.7561462E-02  0.1174526E+00
          1   -1    0    0  501    0  0.00000000000E+00  0.00000000000E+00  0.29084295738E+03  0.29084295738E+03  0.00000000000E+00 0. -1.
         -1   -1    0    0    0  501 -0.00000000000E+00 -0.00000000000E+00 -0.11049357533E+03  0.11049357533E+03  0.00000000000E+00 0.  1.
         23    2    1    2    0    0 -0.32175228027E+02  0.14131653153E+03  0.87887578539E+02  0.18872687547E+03  0.82993973768E+02 0.  0.
          5    1    1    2  502    0 -0.19206673317E+02 -0.13841085233E+03  0.68827972803E+02  0.15582433245E+03  0.41800000000E+01 0. -1.
         -5    1    1    2    0  502  0.51381901344E+02 -0.29056791929E+01  0.23633830702E+02  0.56785324785E+02  0.41800000000E+01 0. -1.
        -11    1    3    3    0    0 -0.23885840112E+02  0.14525980356E+02  0.48007572207E+02  0.55554157832E+02  0.00000000000E+00 0.  1.
         11    1    3    3    0    0 -0.82893879143E+01  0.12679055117E+03  0.39880006332E+02  0.13317271764E+03  0.00000000000E+00 0. -1.
</event>
<event>
 7    1  0.6610867E-006  0.1223099E+03  0.7561462E-02  0.1239334E+00
         -3   -1    0    0    0  501 -0.00000000000E+00  0.00000000000E+00  0.20502729986E+03  0.20502729986E+03  0.00000000000E+00 0.  1.
          3   -1    0    0  501    0  0.00000000000E+00 -0.00000000000E+00 -0.82474329781E+02  0.82474329781E+02  0.00000000000E+00 0. -1.
         23    2    1    2    0    0 -0.33541919012E+02 -0.59475519537E+02  0.78075001018E+02  0.13820837882E+03  0.91342500716E+02 0.  0.
          5    1    1    2  502    0  0.34832815518E+02  0.94100574739E+02  0.11165492120E+02  0.10104644386E+03  0.41800000000E+01 0. -1.
         -5    1    1    2    0  502 -0.12908965063E+01 -0.34625055202E+02  0.33312476940E+02  0.48246806956E+02  0.41800000000E+01 0. -1.
        -11    1    3    3    0    0 -0.13204343875E+02  0.21812724923E+02  0.29487990331E+01  0.25667977744E+02  0.00000000000E+00 0.  1.
         11    1    3    3    0    0 -0.20337575137E+02 -0.81288244460E+02  0.75126201985E+02  0.11254040108E+03  0.00000000000E+00 0. -1.
</event>
<event>
 7    1  0.6610867E-006  0.1544897E+03  0.7561462E-02  0.1195062E+00
         -2   -1    0    0    0  501 -0.00000000000E+00  0.00000000000E+00  0.24883095085E+02  0.24883095085E+02  0.00000000000E+00 0.  1.
          2   -1    0    0  501    0  0.00000000000E+00 -0.00000000000E+00 -0.13408695603E+04  0.13408695603E+04  0.00000000000E+00 0. -1.
         23    2    1    2    0    0 -0.62889822625E+02 -0.93680941890E+02 -0.27351418543E+03  0.30975633715E+03  0.91693675422E+02 0.  0.
          5    1    1    2  502    0  0.89668195809E+02  0.27752612416E+02 -0.48819756332E+03  0.49715684253E+03  0.41800000000E+01 0.  1.
         -5    1    1    2    0  502 -0.26778373184E+02  0.65928329475E+02 -0.55427471649E+03  0.55883947573E+03  0.41800000000E+01 0.  1.
        -11    1    3    3    0    0  0.15818277704E+02  0.58351680504E+01 -0.19225156290E+02  0.25570954814E+02  0.00000000000E+00 0.  1.
         11    1    3    3    0    0 -0.78708100329E+02 -0.99516109941E+02 -0.25428902914E+03  0.28418538234E+03  0.00000000000E+00 0. -1.
</event>
<event>
 7    1  0.6610867E-006  0.1275308E+03  0.7561462E-02  0.1231166E+00
          2   -1    0    0  501    0  0.00000000000E+00  0.00000000000E+00  0.69568601453E+03  0.69568601453E+03  0.00000000000E+00 0. -1.
         -2   -1    0    0    0  501 -0.00000000000E+00 -0.00000000000E+00 -0.47876447816E+02  0.47876447816E+02  0.00000000000E+00 0.  1.
         23    2    1    2    0    0  0.49338262767E+02 -0.10128089438E+03  0.11628265597E+03  0.18601433446E+03  0.91583802091E+02 0.  0.
          5    1    1    2  502    0  0.19397800266E+02  0.52154967348E+02  0.76297225622E+02  0.94525945178E+02  0.41800000000E+01 0.  1.
         -5    1    1    2    0  502 -0.68736063033E+02  0.49125927029E+02  0.45522968512E+03  0.46302218271E+03  0.41800000000E+01 0.  1.
        -11    1    3    3    0    0  0.30459031696E+02 -0.38388447008E+02 -0.37989222332E+01  0.49151371148E+02  0.00000000000E+00 0.  1.
         11    1    3    3    0    0  0.18879231070E+02 -0.62892447369E+02  0.12008157821E+03  0.13686296331E+03  0.00000000000E+00 0. -1.
</event>
<event>
 7    1  0.6610867E-006  0.1242539E+03  0.7561462E-02  0.1236240E+00
         -2   -1    0    0    0  501 -0.00000000000E+00  0.00000000000E+00  0.17331000543E+03  0.17331000543E+03  0.00000000000E+00 0.  1.
          2   -1    0    0  501    0  0.00000000000E+00 -0.00000000000E+00 -0.11798979338E+03  0.11798979338E+03  0.00000000000E+00 0. -1.
         23    2    1    2    0    0 -0.49270434743E+02 -0.69057281800E+02  0.64002253618E+02  0.13990942639E+03  0.91004808741E+02 0.  0.
          5    1    1    2  502    0  0.61231215172E+02  0.55911622647E+01  0.37266553030E+02  0.72019380598E+02  0.41800000000E+01 0. -1.
         -5    1    1    2    0  502 -0.11960780430E+02  0.63466119535E+02 -0.45948594599E+02  0.79370991823E+02  0.41800000000E+01 0. -1.
        -11    1    3    3    0    0  0.11723679854E+02 -0.59231986592E+02  0.18402823667E+02  0.63123187688E+02  0.00000000000E+00 0.  1.
         11    1    3    3    0    0 -0.60994114597E+02 -0.98252952074E+01  0.45599429951E+02  0.76786238697E+02  0.00000000000E+00 0. -1.
</event>
<event>
 7    1  0.6610867E-006  0.1466748E+03  0.7561462E-02  0.1204620E+00
         -3   -1    0    0    0  501 -0.00000000000E+00  0.00000000000E+00  0.43742876879E+03  0.43742876879E+03  0.00000000000E+00 0.  1.
          3   -1    0    0  501    0  0.00000000000E+00 -0.00000000000E+00 -0.82447337665E+02  0.82447337665E+02  0.00000000000E+00 0. -1.
         23    2    1    2    0    0 -0.43261650934E+02 -0.97861333124E+02  0.31697766369E+03  0.34680379435E+03  0.91376263532E+02 0.  0.
          5    1    1    2  502    0  0.18604887353E+02  0.12010464349E+03  0.57307221510E+02  0.13443532742E+03  0.41800000000E+01 0. -1.
         -5    1    1    2    0  502  0.24656763580E+02 -0.22243310365E+02 -0.19303454073E+02  0.38636984683E+02  0.41800000000E+01 0.  1.
        -11    1    3    3    0    0 -0.60253385584E+02 -0.28124189946E+02  0.12054835155E+03  0.13767115019E+03  0.00000000000E+00 0.  1.
         11    1    3    3    0    0  0.16991734650E+02 -0.69737143178E+02  0.19642931214E+03  0.20913264416E+03  0.00000000000E+00 0. -1.
</event>
<event>
 7    1  0.6610867E-006  0.1369863E+03  0.7561462E-02  0.1217443E+00
         -1   -1    0    0    0  501 -0.00000000000E+00  0.00000000000E+00  0.12906388446E+03  0.12906388446E+03  0.00000000000E+00 0.  1.
          1   -1    0    0  501    0  0.00000000000E+00 -0.00000000000E+00 -0.21958363050E+03  0.21958363050E+03  0.00000000000E+00 0. -1.
         23    2    1    2    0    0  0.10536562612E+03  0.31006220834E+02  0.54728363995E+01  0.15648873096E+03  0.11133494547E+03 0.  0.
          5    1    1    2  502    0 -0.10840184668E+03 -0.32320987410E+02 -0.12152456773E+03  0.16607618599E+03  0.41800000000E+01 0. -1.
         -5    1    1    2    0  502  0.30362205632E+01  0.13147665761E+01  0.25531985284E+02  0.26082598011E+02  0.41800000000E+01 0. -1.
        -11    1    3    3    0    0  0.66692624913E+00  0.49178198183E+02 -0.62577027227E+01  0.49579217527E+02  0.00000000000E+00 0. -1.
         11    1    3    3    0    0  0.10469869987E+03 -0.18171977349E+02  0.11730539122E+02  0.10690951343E+03  0.00000000000E+00 0.  1.
</event>
<event>
 7    1  0.6610867E-006  0.1094353E+03  0.7561462E-02  0.1261619E+00
         -1   -1    0    0    0  501 -0.00000000000E+00  0.00000000000E+00  0.33220814815E+02  0.33220814815E+02  0.00000000000E+00 0.  1.
          1   -1    0    0  501    0  0.00000000000E+00 -0.00000000000E+00 -0.42253966170E+03  0.42253966170E+03  0.00000000000E+00 0. -1.
         23    2    1    2    0    0 -0.46527441602E+02 -0.26632206175E+01 -0.14837900495E+03  0.18031394761E+03  0.91240862702E+02 0.  0.
          5    1    1    2  502    0  0.23743072710E+02 -0.61040346125E+02 -0.11394873326E+03  0.13149693369E+03  0.41800000000E+01 0. -1.
         -5    1    1    2    0  502  0.22784368891E+02  0.63703566743E+02 -0.12699110867E+03  0.14394959522E+03  0.41800000000E+01 0. -1.
        -11    1    3    3    0    0 -0.58533704237E+00 -0.31310216768E+02 -0.10888354956E+03  0.11329739476E+03  0.00000000000E+00 0. -1.
         11    1    3    3    0    0 -0.45942104559E+02  0.28646996151E+02 -0.39495455384E+02  0.67016552849E+02  0.00000000000E+00 0.  1.
</event>
<event>
 7    1  0.6610867E-006  0.1013582E+03  0.7561462E-02  0.1277465E+00
         -2   -1    0    0    0  501 -0.00000000000E+00  0.00000000000E+00  0.37661296229E+02  0.37661296229E+02  0.00000000000E+00 0.  1.
          2   -1    0    0  501    0  0.00000000000E+00 -0.00000000000E+00 -0.61949210324E+03  0.61949210324E+03  0.00000000000E+00 0. -1.
         23    2    1    2    0    0  0.79179508964E+02  0.18496071174E+02 -0.11766509345E+03  0.16959924525E+03  0.91144558180E+02 0.  0.
          5    1    1    2  502    0 -0.58645550432E+02 -0.12866202421E+02 -0.68058234486E+02  0.90852822915E+02  0.41800000000E+01 0. -1.
         -5    1    1    2    0  502 -0.20533958531E+02 -0.56298687527E+01 -0.39610747908E+03  0.39670133131E+03  0.41800000000E+01 0. -1.
        -11    1    3    3    0    0  0.28422274153E+01  0.41116326627E+02 -0.52291260387E+02  0.66580826705E+02  0.00000000000E+00 0. -1.
         11    1    3    3    0    0  0.76337281548E+02 -0.22620255453E+02 -0.65373833059E+02  0.10301841855E+03  0.00000000000E+00 0.  1.
</event>
<event>
 7    1  0.6610867E-006  0.1375278E+03  0.7561462E-02  0.1216695E+00
         -2   -1    0    0    0  501 -0.00000000000E+00  0.00000000000E+00  0.55090965200E+02  0.55090965200E+02  0.00000000000E+00 0.  1.
          2   -1    0    0  501    0  0.00000000000E+00 -0.00000000000E+00 -0.38763406685E+03  0.38763406685E+03  0.00000000000E+00 0. -1.
         23    2    1    2    0    0  0.84769850284E+02 -0.44219338983E+02 -0.12397052115E+03  0.18139898580E+03  0.91627640368E+02 0.  0.
          5    1    1    2  502    0 -0.11670728003E+03  0.24384273978E+02 -0.15105639320E+03  0.19248555363E+03  0.41800000000E+01 0.  1.
         -5    1    1    2    0  502  0.31937429742E+02  0.19835065005E+02 -0.57516187295E+02  0.68840492613E+02  0.41800000000E+01 0.  1.
        -11    1    3    3    0    0  0.41393045303E+02  0.15428791920E+02 -0.94342108367E+01  0.45171187207E+02  0.00000000000E+00 0.  1.
         11    1    3    3    0    0  0.43376804981E+02 -0.59648130903E+02 -0.11453631031E+03  0.13622779860E+03  0.00000000000E+00 0. -1.
</event>
<event>
 7    1  0.6610867E-006  0.1676486E+03  0.7561462E-02  0.1180322E+00
          1   -1    0    0  501    0  0.00000000000E+00  0.00000000000E+00  0.17589307337E+04  0.17589307337E+04  0.00000000000E+00 0. -1.
         -1   -1    0    0    0  501 -0.00000000000E+00 -0.00000000000E+00 -0.20112873474E+02  0.20112873474E+02  0.00000000000E+00 0.  1.
         23    2    1    2    0    0  0.13591171392E+03 -0.33821607623E+02  0.53187424829E+03  0.55757877529E+03  0.91585913443E+02 0.  0.
          5    1    1    2  502    0 -0.13048807277E+03 -0.54794801085E+01  0.10921023630E+04  0.10998919063E+04  0.41800000000E+01 0. -1.
         -5    1    1    2    0  502 -0.54236411521E+01  0.39301087732E+02  0.11484124889E+03  0.12157292555E+03  0.41800000000E+01 0. -1.
        -11    1    3    3    0    0  0.33049513932E+02  0.29199840799E+02  0.10259892471E+03  0.11167560353E+03  0.00000000000E+00 0. -1.
         11    1    3    3    0    0  0.10286219999E+03 -0.63021448422E+02  0.42927532358E+03  0.44590317176E+03  0.00000000000E+00 0.  1.
</event>
<event>
 7    1  0.6610867E-006  0.1321133E+03  0.7561462E-02  0.1224353E+00
         -1   -1    0    0    0  501 -0.00000000000E+00  0.00000000000E+00  0.87572814204E+02  0.87572814204E+02  0.00000000000E+00 0.  1.
          1   -1    0    0  501    0  0.00000000000E+00 -0.00000000000E+00 -0.30851996456E+03  0.30851996456E+03  0.00000000000E+00 0. -1.
         23    2    1    2    0    0 -0.55331486650E+02 -0.40490772445E+02 -0.29162476558E+02  0.11470567871E+03  0.87211619759E+02 0.  0.
          5    1    1    2  502    0  0.59894549129E+02  0.93462128864E+02 -0.19866529712E+03  0.22761348648E+03  0.41800000000E+01 0. -1.
         -5    1    1    2    0  502 -0.45630624798E+01 -0.52971356419E+02  0.68806233199E+01  0.53773613579E+02  0.41800000000E+01 0.  1.
        -11    1    3    3    0    0  0.17636316696E+02 -0.12680018150E+02 -0.29478531009E+02  0.36617022235E+02  0.00000000000E+00 0.  1.
         11    1    3    3    0    0 -0.72967803345E+02 -0.27810754295E+02  0.31605445120E+00  0.78088656474E+02  0.00000000000E+00 0. -1.
</event>
<event>
 7    1  0.6610867E-006  0.1807854E+03  0.7561462E-02  0.1167045E+00
         -1   -1    0    0    0  501 -0.00000000000E+00  0.00000000000E+00  0.36474064213E+02  0.36474064213E+02  0.00000000000E+00 0.  1.
          1   -1    0    0  501    0  0.00000000000E+00 -0.00000000000E+00 -0.11775402794E+04  0.11775402794E+04  0.00000000000E+00 0. -1.
         23    2    1    2    0    0 -0.94174205775E+02  0.12888710627E+03 -0.32269391531E+03  0.37088875317E+03  0.89142790247E+02 0.  0.
          5    1    1    2  502    0  0.68350832960E+02 -0.14901927625E+03 -0.58958989485E+03  0.61197409877E+03  0.41800000000E+01 0.  1.
         -5    1    1    2    0  502  0.25823372814E+02  0.20132169979E+02 -0.22878240501E+03  0.23115149166E+03  0.41800000000E+01 0.  1.
        -11    1    3    3    0    0 -0.27714820769E+02  0.71751308616E+02 -0.72161704028E+02  0.10546882528E+03  0.00000000000E+00 0.  1.
         11    1    3    3    0    0 -0.66459385006E+02  0.57135797656E+02 -0.25053221129E+03  0.26541992789E+03  0.00000000000E+00 0. -1.
</event>
<event>
 7    1  0.6610867E-006  0.8182918E+02  0.7561462E-02  0.1323939E+00
         -2   -1    0    0    0  501 -0.00000000000E+00  0.00000000000E+00  0.81235481414E+02  0.81235481414E+02  0.00000000000E+00 0.  1.
          2   -1    0    0  501    0  0.00000000000E+00 -0.00000000000E+00 -0.16670951826E+03  0.16670951826E+03  0.00000000000E+00 0. -1.
         23    2    1    2    0    0 -0.80282955786E+01 -0.42127081738E+02 -0.26899866360E+02  0.10331676278E+03  0.90064455341E+02 0.  0.
          5    1    1    2  502    0 -0.40425377557E+02 -0.67851041931E+01 -0.63258126922E+02  0.75493786574E+02  0.41800000000E+01 0. -1.
         -5    1    1    2    0  502  0.48453673136E+02  0.48912185931E+02  0.46839564356E+01  0.69134450318E+02  0.41800000000E+01 0. -1.
        -11    1    3    3    0    0  0.11832313562E+02 -0.23206300174E+02 -0.56953005851E+02  0.62627317422E+02  0.00000000000E+00 0. -1.
         11    1    3    3    0    0 -0.19860609141E+02 -0.18920781564E+02  0.30053139491E+02  0.40689445360E+02  0.00000000000E+00 0.  1.
</event>
<event>
 7    1  0.6610867E-006  0.1138392E+03  0.7561462E-02  0.1253621E+00
         -1   -1    0    0    0  501 -0.00000000000E+00  0.00000000000E+00  0.19135917083E+03  0.19135917083E+03  0.00000000000E+00 0.  1.
          1   -1    0    0  501    0  0.00000000000E+00 -0.00000000000E+00 -0.13334634647E+03  0.13334634647E+03  0.00000000000E+00 0. -1.
         23    2    1    2    0    0  0.38130054422E+02  0.63831053224E+02  0.11879727695E+03  0.16699953652E+03  0.90817111731E+02 0.  0.
          5    1    1    2  502    0 -0.91832581175E+01  0.38111067772E+02 -0.18174749586E+02  0.43411745403E+02  0.41800000000E+01 0. -1.
         -5    1    1    2    0  502 -0.28946796305E+02 -0.10194212100E+03 -0.42609702998E+02  0.11429423537E+03  0.41800000000E+01 0. -1.
        -11    1    3    3    0    0  0.89695187859E+01  0.48368589275E+02  0.12416917534E+03  0.13355881401E+03  0.00000000000E+00 0.  1.
         11    1    3    3    0    0  0.29160535637E+02  0.15462463949E+02 -0.53718983893E+01  0.33440722514E+02  0.00000000000E+00 0. -1.
</event>
<event>
 7    1  0.6610867E-006  0.1129198E+03  0.7561462E-02  0.1255256E+00
         -2   -1    0    0    0  501 -0.00000000000E+00  0.00000000000E+00  0.10279050578E+02  0.10279050578E+02  0.00000000000E+00 0.  1.
          2   -1    0    0  501    0  0.00000000000E+00 -0.00000000000E+00 -0.18073889293E+04  0.18073889293E+04  0.00000000000E+00 0. -1.
         23    2    1    2    0    0  0.18484739681E+02  0.66110051378E+02 -0.48918884454E+03  0.50198672286E+03  0.89290087935E+02 0.  0.
          5    1    1    2  502    0  0.43366768493E+02 -0.13281292988E+01 -0.23411099718E+03  0.23813414694E+03  0.41800000000E+01 0. -1.
         -5    1    1    2    0  502 -0.61851508174E+02 -0.64781922079E+02 -0.10738100370E+04  0.10775471101E+04  0.41800000000E+01 0. -1.
        -11    1    3    3    0    0  0.21223271277E+02  0.77767763563E+02 -0.48044084886E+03  0.48715671149E+03  0.00000000000E+00 0. -1.
         11    1    3    3    0    0 -0.27385315963E+01 -0.11657712185E+02 -0.87479956816E+01  0.14830011367E+02  0.00000000000E+00 0.  1.
</event>
<event>
 7    1  0.6610867E-006  0.8436609E+02  0.7561462E-02  0.1317099E+00
          2   -1    0    0  501    0  0.00000000000E+00  0.00000000000E+00  0.28564374694E+03  0.28564374694E+03  0.00000000000E+00 0. -1.
         -2   -1    0    0    0  501 -0.00000000000E+00 -0.00000000000E+00 -0.48132768278E+02  0.48132768278E+02  0.00000000000E+00 0.  1.
         23    2    1    2    0    0  0.57028399916E+01 -0.20632755103E+02  0.55549711727E+02  0.11193082836E+03  0.94786638815E+02 0.  0.
          5    1    1    2  502    0 -0.29302870935E+02 -0.46440740635E+02  0.68686057423E+02  0.88037761898E+02  0.41800000000E+01 0. -1.
         -5    1    1    2    0  502  0.23600030944E+02  0.67073495738E+02  0.11327520951E+03  0.13380792496E+03  0.41800000000E+01 0. -1.
        -11    1    3    3    0    0  0.13251721063E+02  0.61486249952E+01 -0.23754379008E+02  0.27886990202E+02  0.00000000000E+00 0.  1.
         11    1    3    3    0    0 -0.75488810711E+01 -0.26781380098E+02  0.79304090735E+02  0.84043838160E+02  0.00000000000E+00 0. -1.
</event>
<event>
 7    1  0.6610867E-006  0.1143915E+03  0.7561462E-02  0.1252647E+00
         -2   -1    0    0    0  501 -0.00000000000E+00  0.00000000000E+00  0.10275047784E+02  0.10275047784E+02  0.00000000000E+00 0.  1.
          2   -1    0    0  501    0  0.00000000000E+00 -0.00000000000E+00 -0.16216589602E+04  0.16216589602E+04  0.00000000000E+00 0. -1.
         23    2    1    2    0    0  0.66688628600E+02  0.60455779578E+01 -0.48942358277E+03  0.50103751820E+03  0.83780839511E+02 0.  0.
          5    1    1    2  502    0 -0.40701982472E+02 -0.53454265982E+02 -0.89582609116E+03  0.89835175067E+03  0.41800000000E+01 0.  1.
         -5    1    1    2    0  502 -0.25986646129E+02  0.47408688024E+02 -0.22613423853E+03  0.23254473916E+03  0.41800000000E+01 0.  1.
        -11    1    3    3    0    0  0.89395492730E+01  0.39502110758E+02 -0.18836223767E+03  0.19266723872E+03  0.00000000000E+00 0.  1.
         11    1    3    3    0    0  0.57749079327E+02 -0.33456532800E+02 -0.30106134510E+03  0.30837027947E+03  0.00000000000E+00 0. -1.
</event>
<event>
 7    1  0.6610867E-006  0.1227398E+03  0.7561462E-02  0.1238644E+00
         -1   -1    0    0    0  501 -0.00000000000E+00  0.00000000000E+00  0.31116949708E+02  0.31116949708E+02  0.00000000000E+00 0.  1.
          1   -1    0    0  501    0  0.00000000000E+00 -0.00000000000E+00 -0.81732566772E+03  0.81732566772E+03  0.00000000000E+00 0. -1.
         23    2    1    2    0    0 -0.44642055974E+02 -0.66525075929E+02 -0.13573005702E+03  0.18122936503E+03  0.89459127433E+02 0.  0.
          5    1    1    2  502    0  0.27115511617E+01  0.96418872311E+02 -0.44298925202E+03  0.45338824560E+03  0.41800000000E+01 0. -1.
         -5    1    1    2    0  502  0.41930504812E+02 -0.29893796382E+02 -0.20748940897E+03  0.21382500680E+03  0.41800000000E+01 0. -1.
        -11    1    3    3    0    0 -0.18112652142E+02 -0.68316935686E+02 -0.13747854670E+03  0.15458209040E+03  0.00000000000E+00 0. -1.
         11    1    3    3    0    0 -0.26529403832E+02  0.17918597572E+01  0.17484896791E+01  0.26647274630E+02  0.00000000000E+00 0.  1.
</event>
<event>
 6    1  0.6610867E-006  0.8998803E+02  0.7561462E-02  0.1302881E+00
         -3   -1    0    0    0  501 -0.00000000000E+00  0.00000000000E+00  0.82920258066E+03  0.82920258066E+03  0.00000000000E+00 0.  1.
          3   -1    0    0  501    0  0.00000000000E+00 -0.00000000000E+00 -0.11665247208E+02  0.11665247208E+02  0.00000000000E+00 0. -1.
          5    1    1    2  502    0 -0.37635595113E+02 -0.66919134808E+02  0.25674935436E+03  0.26801550699E+03  0.41800000000E+01 0.  1.
         -5    1    1    2    0  502  0.32731834108E+02  0.27586894095E+02  0.35854311184E+03  0.36111361804E+03  0.41800000000E+01 0.  1.
        -11    1    1    2    0    0  0.24881100020E+02  0.26404266704E+02  0.90760854499E+02  0.97743476241E+02  0.00000000000E+00 0. -1.
         11    1    1    2    0    0 -0.19977339015E+02  0.12927974008E+02  0.11148401276E+03  0.11399522660E+03  0.00000000000E+00 0.  1.
</event>
<event>
 7    1  0.6610867E-006  0.1123391E+03  0.7561462E-02  0.1256299E+00
          1   -1    0    0  501    0  0.00000000000E+00  0.00000000000E+00  0.50217710471E+03  0.50217710471E+03  0.00000000000E+00 0. -1.
         -1   -1    0    0    0  501 -0.00000000000E+00 -0.00000000000E+00 -0.30506917394E+02  0.30506917394E+02  0.00000000000E+00 0.  1.
         23    2    1    2    0    0  0.24589384299E+02  0.31753223442E+02  0.14616724871E+03  0.18166756974E+03  0.10012660126E+03 0.  0.
          5    1    1    2  502    0 -0.10595890586E+02  0.48324978597E+02  0.13559062035E+03  0.14439482394E+03  0.41800000000E+01 0.  1.
         -5    1    1    2    0  502 -0.13993493712E+02 -0.80078202039E+02  0.18991231826E+03  0.20662162843E+03  0.41800000000E+01 0.  1.
        -11    1    3    3    0    0  0.24527438197E+02 -0.26077079773E+02  0.10429986489E+03  0.11027271253E+03  0.00000000000E+00 0. -1.
         11    1    3    3    0    0  0.61946102207E-01  0.57830303214E+02  0.41867383821E+02  0.71394857204E+02  0.00000000000E+00 0.  1.
</event>
<event>
 7    1  0.6610867E-006  0.1120128E+03  0.7561462E-02  0.1256887E+00
          2   -1    0    0  501    0  0.00000000000E+00  0.00000000000E+00  0.19794263259E+04  0.19794263259E+04  0.00000000000E+00 0. -1.
         -2   -1    0    0    0  501 -0.00000000000E+00 -0.00000000000E+00 -0.13870291146E+02  0.13870291146E+02  0.00000000000E+00 0.  1.
         23    2    1    2    0    0 -0.22047239863E+02  0.72441305454E+02  0.30729431833E+03  0.32859784390E+03  0.88390731507E+02 0.  0.
          5    1    1    2  502    0 -0.33491649586E+02 -0.21015934257E+02  0.17326259185E+03  0.17776602099E+03  0.41800000000E+01 0.  1.
         -5    1    1    2    0  502  0.55538889449E+02 -0.51425371196E+02  0.14849991245E+04  0.14869327521E+04  0.41800000000E+01 0.  1.
        -11    1    3    3    0    0  0.29077431404E+02  0.32290719082E+02  0.68553607378E+02  0.81165168887E+02  0.00000000000E+00 0.  1.
         11    1    3    3    0    0 -0.51124671267E+02  0.40150586371E+02  0.23874071095E+03  0.24743267501E+03  0.00000000000E+00 0. -1.
</event>
<event>
 7    1  0.6610867E-006  0.1158245E+03  0.7561462E-02  0.1250149E+00
         -1   -1    0    0    0  501 -0.00000000000E+00  0.00000000000E+00  0.47450901386E+03  0.47450901386E+03  0.00000000000E+00 0.  1.
          1   -1    0    0  501    0  0.00000000000E+00 -0.00000000000E+00 -0.50045999573E+02  0.50045999573E+02  0.00000000000E+00 0. -1.
         23    2    1    2    0    0  0.25165627598E+02  0.43269512545E+02  0.36309872335E+03  0.37650769206E+03  0.86091810043E+02 0.  0.
          5    1    1    2  502    0 -0.61294735119E+02  0.16598304020E+02  0.20057237186E+02  0.66725657833E+02  0.41800000000E+01 0.  1.
         -5    1    1    2    0  502  0.36129107521E+02 -0.59867816565E+02  0.41307053747E+02  0.81321663533E+02  0.41800000000E+01 0.  1.
        -11    1    3    3    0    0 -0.30315955705E+02  0.54183897762E+01  0.84791323362E+02  0.90210778932E+02  0.00000000000E+00 0.  1.
         11    1    3    3    0    0  0.55481583303E+02  0.37851122769E+02  0.27830739999E+03  0.28629691313E+03  0.00000000000E+00 0. -1.
</event>
<event>
 7    1  0.6610867E-006  0.1248386E+03  0.7561462E-02  0.1235322E+00
         -3   -1    0    0    0  501 -0.00000000000E+00  0.00000000000E+00  0.32401213942E+03  0.32401213942E+03  0.00000000000E+00 0.  1.
          3   -1    0    0  501    0  0.00000000000E+00 -0.00000000000E+00 -0.82009569533E+02  0.82009569533E+02  0.00000000000E+00 0. -1.
         23    2    1    2    0    0 -0.78281448439E+02 -0.76658883587E+02  0.17913596694E+03  0.22824110467E+03  0.89441252274E+02 0.  0.
          5    1    1    2  502    0 -0.11185839718E+02  0.99800617373E+01 -0.29181032240E+02  0.33071584254E+02  0.41800000000E+01 0.  1.
         -5    1    1    2    0  502  0.89467288156E+02  0.66678821850E+02  0.92047635185E+02  0.14470902002E+03  0.41800000000E+01 0.  1.
        -11    1    3    3    0    0 -0.55974652258E+02 -0.16595812163E+02  0.14350929638E+03  0.15493063230E+03  0.00000000000E+00 0.  1.
         11    1    3    3    0    0 -0.22306796181E+02 -0.60063071423E+02  0.35626670560E+02  0.73310472375E+02  0.00000000000E+00 0. -1.
</event>
<event>
 7    1  0.6610867E-006  0.1568842E+03  0.7561462E-02  0.1192260E+00
          2   -1    0    0  501    0  0.00000000000E+00  0.00000000000E+00  0.10624852715E+04  0.10624852715E+04  0.00000000000E+00 0. -1.
         -2   -1    0    0    0  501 -0.00000000000E+00 -0.00000000000E+00 -0.25692894200E+02  0.25692894200E+02  0.00000000000E+00 0.  1.
         23    2    1    2    0    0 -0.33843946893E+02 -0.77495047229E+01  0.22556746287E+03  0.24586300697E+03  0.91446543546E+02 0.  0.
          5    1    1    2  502    0 -0.43869028157E+02 -0.90640229623E+02  0.33374578300E+03  0.34863141414E+03  0.41800000000E+01 0. -1.
         -5    1    1    2    0  502  0.77712975050E+02  0.98389734345E+02  0.47747913143E+03  0.49368374459E+03  0.41800000000E+01 0.  1.
        -11    1    3    3    0    0 -0.58953497361E+02  0.53827318095E+01  0.92569730491E+02  0.10988013313E+03  0.00000000000E+00 0. -1.
         11    1    3    3    0    0  0.25109550468E+02 -0.13132236532E+02  0.13299773238E+03  0.13598287384E+03  0.00000000000E+00 0.  1.
</event>
<event>
 7    1  0.6610867E-006  0.7938826E+02  0.7561462E-02  0.1330796E+00
          2   -1    0    0  501    0  0.00000000000E+00  0.00000000000E+00  0.12520185988E+03  0.12520185988E+03  0.00000000000E+00 0.  1.
         -2   -1    0    0    0  501 -0.00000000000E+00 -0.00000000000E+00 -0.16717101988E+03  0.16717101988E+03  0.00000000000E+00 0. -1.
         23    2    1    2    0    0 -0.39028605973E+02  0.23199445366E+02 -0.10392460471E+03  0.14558246236E+03  0.91282438253E+02 0.  0.
          5    1    1    2  502    0 -0.13693550461E+02 -0.43605741022E+02  0.75639101099E+02  0.88474403018E+02  0.41800000000E+01 0. -1.
         -5    1    1    2    0  502  0.52722156434E+02  0.20406295656E+02 -0.13683656386E+02  0.58316014383E+02  0.41800000000E+01 0. -1.
        -11    1    3    3    0    0 -0.33087191748E+02  0.31699690824E+02 -0.11886737518E+03  0.12739342816E+03  0.00000000000E+00 0. -1.
         11    1    3    3    0    0 -0.59414142246E+01 -0.85002454575E+01  0.14942770471E+02  0.18189034201E+02  0.00000000000E+00 0.  1.
</event>
<event>
 7    1  0.6610867E-006  0.8883949E+02  0.7561462E-02  0.1305687E+00
          2   -1    0    0  501    0  0.00000000000E+00  0.00000000000E+00  0.49654465345E+03  0.49654465345E+03  0.00000000000E+00 0. -1.
         -2   -1    0    0    0  501 -0.00000000000E+00 -0.00000000000E+00 -0.27765751560E+02  0.27765751560E+02  0.00000000000E+00 0.  1.
         23    2    1    2    0    0 -0.12555939573E+02  0.37856783314E+02  0.15710956522E+03  0.18611667426E+03  0.91461539961E+02 0.  0.
          5    1    1    2  502    0  0.31900485422E+02 -0.77505308720E+02  0.23634805717E+03  0.25080388829E+03  0.41800000000E+01 0. -1.
         -5    1    1    2    0  502 -0.19344545849E+02  0.39648525406E+02  0.75321279499E+02  0.87389842467E+02  0.41800000000E+01 0. -1.
        -11    1    3    3    0    0 -0.15285696596E+02  0.44370335915E+01 -0.78756703669E+01  0.17758546428E+02  0.00000000000E+00 0.  1.
         11    1    3    3    0    0  0.27297570234E+01  0.33419749722E+02  0.16498523558E+03  0.16835812783E+03  0.00000000000E+00 0. -1.
</event>
<event>
 7    1  0.6610867E-006  0.1179315E+03  0.7561462E-02  0.1246549E+00
          1   -1    0    0  501    0  0.00000000000E+00  0.00000000000E+00  0.62693310217E+03  0.62693310217E+03  0.00000000000E+00 0. -1.
         -1   -1    0    0    0  501 -0.00000000000E+00 -0.00000000000E+00 -0.33537494996E+02  0.33537494996E+02  0.00000000000E+00 0.  1.
         23    2    1    2    0    0  0.75934504181E+02  0.18523854935E+02  0.14868949819E+03  0.19193908689E+03  0.92859377975E+02 0.  0.
          5    1    1    2  502    0 -0.62187836004E+02  0.46730986084E+02  0.28394557886E+03  0.29443789865E+03  0.41800000000E+01 0.  1.
         -5    1    1    2    0  502 -0.13746668177E+02 -0.65254841019E+02  0.16076053013E+03  0.17409361163E+03  0.41800000000E+01 0.  1.
        -11    1    3    3    0    0  0.49821040347E+02  0.34436459579E+02  0.14954904563E+03  0.16134721212E+03  0.00000000000E+00 0. -1.
         11    1    3    3    0    0  0.26113463834E+02 -0.15912604644E+02 -0.85954744598E+00  0.30591874768E+02  0.00000000000E+00 0.  1.
</event>
<event>
 7    1  0.6610867E-006  0.1866772E+03  0.7561462E-02  0.1161493E+00
          2   -1    0    0  501    0  0.00000000000E+00  0.00000000000E+00  0.22520929890E+03  0.22520929890E+03  0.00000000000E+00 0.  1.
         -2   -1    0    0    0  501 -0.00000000000E+00 -0.00000000000E+00 -0.18574746614E+03  0.18574746614E+03  0.00000000000E+00 0. -1.
         23    2    1    2    0    0 -0.53072866137E+02  0.16444637381E+03  0.23348005911E+02  0.19702501062E+03  0.91729964860E+02 0.  0.
          5    1    1    2  502    0  0.44335809257E+02 -0.70738346257E+02  0.66757497842E+02  0.10697482663E+03  0.41800000000E+01 0.  1.
         -5    1    1    2    0  502  0.87370568800E+01 -0.93708027550E+02 -0.50643670987E+02  0.10695692779E+03  0.41800000000E+01 0.  1.
        -11    1    3    3    0    0  0.17100525347E+02  0.96072958601E+02  0.14433305862E+02  0.98644623065E+02  0.00000000000E+00 0. -1.
         11    1    3    3    0    0 -0.70173391485E+02  0.68373415205E+02  0.89147000490E+01  0.98380387559E+02  0.00000000000E+00 0.  1.
</event>
<event>
 7    1  0.6610867E-006  0.8246344E+02  0.7561462E-02  0.1322202E+00
         -1   -1    0    0    0  501 -0.00000000000E+00  0.00000000000E+00  0.72366964196E+02  0.72366964196E+02  0.00000000000E+00 0.  1.
          1   -1    0    0  501    0  0.00000000000E+00 -0.00000000000E+00 -0.24527319489E+03  0.24527319489E+03  0.00000000000E+00 0. -1.
         23    2    1    2    0    0  0.33868267966E+02  0.62430177755E+02 -0.39172938228E+02  0.12123095180E+03  0.90099045026E+02 0.  0.
          5    1    1    2  502    0 -0.95010819678E+01 -0.58274472873E+02 -0.15347855212E+03  0.16449718267E+03  0.41800000000E+01 0. -1.
         -5    1    1    2    0  502 -0.24367185999E+02 -0.41557048816E+01  0.19745259650E+02  0.31912024618E+02  0.41800000000E+01 0. -1.
        -11    1    3    3    0    0  0.36666078584E+02  0.28033462944E+02  0.21896169968E+02  0.51085405182E+02  0.00000000000E+00 0.  1.
         11    1    3    3    0    0 -0.27978106181E+01  0.34396714811E+02 -0.61069108196E+02  0.70145546615E+02  0.00000000000E+00 0. -1.
</event>
<event>
 7    1  0.6610867E-006  0.1250478E+03  0.7561462E-02  0.1234995E+00
          1   -1    0    0  501    0  0.00000000000E+00  0.00000000000E+00  0.48363640424E+03  0.48363640424E+03  0.00000000000E+00 0. -1.
         -1   -1    0    0    0  501 -0.00000000000E+00 -0.00000000000E+00 -0.38566587485E+02  0.38566587485E+02  0.00000000000E+00 0.  1.
         23    2    1    2    0    0 -0.38404366304E+02 -0.71569201290E+02  0.16305552579E+03  0.20317789052E+03  0.89983914006E+02 0.  0.
          5    1    1    2  502    0  0.23520989883E+02 -0.34344243755E+02  0.88201654768E+02  0.97620532409E+02  0.41800000000E+01 0.  1.
         -5    1    1    2    0  502  0.14883376421E+02  0.10591344505E+03  0.19381263620E+03  0.22140456880E+03  0.41800000000E+01 0.  1.
        -11    1    3    3    0    0 -0.36287758742E+02 -0.74182593855E+01  0.11808875803E+02  0.38875204881E+02  0.00000000000E+00 0.  1.
         11    1    3    3    0    0 -0.21166075621E+01 -0.64150941905E+02  0.15124664999E+03  0.16430268564E+03  0.00000000000E+00 0. -1.
</event>
<event>
 7    1  0.6610867E-006  0.1219171E+03  0.7561462E-02  0.1239968E+00
         -2   -1    0    0    0  501 -0.00000000000E+00  0.00000000000E+00  0.70640954155E+02  0.70640954155E+02  0.00000000000E+00 0.  1.
          2   -1    0    0  501    0  0.00000000000E+00 -0.00000000000E+00 -0.39297862515E+03  0.39297862515E+03  0.00000000000E+00 0. -1.
         23    2    1    2    0    0 -0.39055730894E+02 -0.96949109914E+02 -0.52759427974E+02  0.14858809359E+03  0.91489804285E+02 0.  0.
          5    1    1    2  502    0  0.75356489721E+01  0.44172322428E+02 -0.72755486006E+01  0.45589319819E+02  0.41800000000E+01 0. -1.
         -5    1    1    2    0  502  0.31520081922E+02  0.52776787486E+02 -0.26230269442E+03  0.26944216589E+03  0.41800000000E+01 0. -1.
        -11    1    3    3    0    0 -0.67666071968E+02 -0.75975847917E+02 -0.48970200753E+02  0.11291194500E+03  0.00000000000E+00 0. -1.
         11    1    3    3    0    0  0.28610341075E+02 -0.20973261997E+02 -0.37892272211E+01  0.35676148589E+02  0.00000000000E+00 0.  1.
</event>
<event>
 7    1  0.6610867E-006  0.1067239E+03  0.7561462E-02  0.1266760E+00
         -1   -1    0    0    0  501 -0.00000000000E+00  0.00000000000E+00  0.62622201712E+02  0.62622201712E+02  0.00000000000E+00 0.  1.
          1   -1    0    0  501    0  0.00000000000E+00 -0.00000000000E+00 -0.24816975959E+03  0.24816975959E+03  0.00000000000E+00 0. -1.
         23    2    1    2    0    0  0.43958653820E+02  0.40869538562E+02 -0.64773722502E+02  0.12684281148E+03  0.91053727382E+02 0.  0.
          5    1    1    2  502    0  0.16601065832E+02  0.36547252181E+02 -0.34064039035E+02  0.52812197304E+02  0.41800000000E+01 0. -1.
         -5    1    1    2    0  502 -0.60559719653E+02 -0.77416790743E+02 -0.86709796346E+02  0.13113695252E+03  0.41800000000E+01 0. -1.
        -11    1    3    3    0    0  0.49969176575E+02  0.21442127749E+02  0.45811127345E+01  0.54568031336E+02  0.00000000000E+00 0.  1.
         11    1    3    3    0    0 -0.60105227544E+01  0.19427410813E+02 -0.69354835236E+02  0.72274780147E+02  0.00000000000E+00 0. -1.
</event>
<event>
 7    1  0.6610867E-006  0.1152851E+03  0.7561462E-02  0.1251084E+00
         -1   -1    0    0    0  501 -0.00000000000E+00  0.00000000000E+00  0.23876310633E+02  0.23876310633E+02  0.00000000000E+00 0.  1.
          1   -1    0    0  501    0  0.00000000000E+00 -0.00000000000E+00 -0.10686833466E+04  0.10686833466E+04  0.00000000000E+00 0. -1.
         23    2    1    2    0    0  0.61026796874E+02 -0.37586048418E+02 -0.16436002495E+03  0.20197154951E+03  0.92958636165E+02 0.  0.
          5    1    1    2  502    0 -0.83724031047E+02  0.36016439297E+02 -0.43124616770E+03  0.44079204488E+03  0.41800000000E+01 0. -1.
         -5    1    1    2    0  502  0.22697234173E+02  0.15696091204E+01 -0.44920084330E+03  0.44979606283E+03  0.41800000000E+01 0.  1.
        -11    1    3    3    0    0 -0.10715870568E+02  0.20999438073E+02 -0.45880112702E+02  0.51582855901E+02  0.00000000000E+00 0. -1.
         11    1    3    3    0    0  0.71742667441E+02 -0.58585486491E+02 -0.11847991225E+03  0.15038869361E+03  0.00000000000E+00 0.  1.
</event>
<event>
 7    1  0.6610867E-006  0.1500797E+03  0.7561462E-02  0.1200375E+00
          2   -1    0    0  501    0  0.00000000000E+00  0.00000000000E+00  0.82555716747E+02  0.82555716747E+02  0.00000000000E+00 0. -1.
         -2   -1    0    0    0  501 -0.00000000000E+00 -0.00000000000E+00 -0.37816072045E+03  0.37816072045E+03  0.00000000000E+00 0.  1.
         23    2    1    2    0    0  0.82311608755E+02  0.86122070406E+02 -0.23201609388E+03  0.27664278834E+03  0.92236395059E+02 0.  0.
          5    1    1    2  502    0 -0.56401628467E+02  0.38237338794E+01 -0.70099851669E+02  0.90151129990E+02  0.41800000000E+01 0. -1.
         -5    1    1    2    0  502 -0.25909980288E+02 -0.89945804285E+02  0.65109418448E+01  0.93922518869E+02  0.41800000000E+01 0. -1.
        -11    1    3    3    0    0  0.33831541530E+02 -0.15477526120E+02 -0.71294330500E+02  0.80417713090E+02  0.00000000000E+00 0.  1.
         11    1    3    3    0    0  0.48480067225E+02  0.10159959653E+03 -0.16072176338E+03  0.19622507525E+03  0.00000000000E+00 0. -1.
</event>
<event>
 7    1  0.6610867E-006  0.8174274E+02  0.7561462E-02  0.1324177E+00
          2   -1    0    0  501    0  0.00000000000E+00  0.00000000000E+00  0.39266752862E+03  0.39266752862E+03  0.00000000000E+00 0. -1.
         -2   -1    0    0    0  501 -0.00000000000E+00 -0.00000000000E+00 -0.66997650131E+02  0.66997650131E+02  0.00000000000E+00 0.  1.
         23    2    1    2    0    0  0.41676731890E+02 -0.52585242978E+02  0.11032071639E+02  0.11449215111E+03  0.92111824975E+02 0.  0.
          5    1    1    2  502    0 -0.37194986029E+02  0.49824457831E+02  0.48541212276E+02  0.78991551910E+02  0.41800000000E+01 0.  1.
         -5    1    1    2    0  502 -0.44817458604E+01  0.27607851470E+01  0.26609659457E+03  0.26618147574E+03  0.41800000000E+01 0.  1.
        -11    1    3    3    0    0  0.42492591436E+02 -0.67363595055E+02 -0.18224845227E+02  0.81704462847E+02  0.00000000000E+00 0.  1.
         11    1    3    3    0    0 -0.81585954613E+00  0.14778352076E+02  0.29256916866E+02  0.32787688259E+02  0.00000000000E+00 0. -1.
</event>
<event>
 7    1  0.6610867E-006  0.7785572E+02  0.7561462E-02  0.1335249E+00
          1   -1    0    0  501    0  0.00000000000E+00  0.00000000000E+00  0.29948177462E+03  0.29948177462E+03  0.00000000000E+00 0. -1.
         -1   -1    0    0    0  501 -0.00000000000E+00 -0.00000000000E+00 -0.47505037050E+02  0.47505037050E+02  0.00000000000E+00 0.  1.
         23    2    1    2    0    0  0.80743459492E+00 -0.18282411530E+02  0.48628649289E+02  0.10754225753E+03  0.94157809564E+02 0.  0.
          5    1    1    2  502    0  0.42204537769E+02 -0.75739079223E+01  0.16838347583E+02  0.46255696285E+02  0.41800000000E+01 0. -1.
         -5    1    1    2    0  502 -0.43011972364E+02  0.25856319452E+02  0.18650974070E+03  0.19318885785E+03  0.41800000000E+01 0. -1.
        -11    1    3    3    0    0  0.23379473365E+02 -0.29026856677E+02 -0.14229618919E+02  0.39895366121E+02  0.00000000000E+00 0.  1.
         11    1    3    3    0    0 -0.22572038770E+02  0.10744445147E+02  0.62858268208E+02  0.67646891413E+02  0.00000000000E+00 0. -1.
</event>
<event>
 7    1  0.6610867E-006  0.1794819E+03  0.7561462E-02  0.1168305E+00
          1   -1    0    0  501    0  0.00000000000E+00  0.00000000000E+00  0.83532164210E+02  0.83532164210E+02  0.00000000000E+00 0. -1.
         -1   -1    0    0    0  501 -0.00000000000E+00 -0.00000000000E+00 -0.53244708717E+03  0.53244708717E+03  0.00000000000E+00 0.  1.
         23    2    1    2    0    0 -0.37770666534E+02  0.14152612617E+03 -0.36892150893E+03  0.40740627570E+03  0.91763424588E+02 0.  0.
          5    1    1    2  502    0 -0.35875025396E+02 -0.97788682292E+02 -0.60851656974E+02  0.12070642231E+03  0.41800000000E+01 0. -1.
         -5    1    1    2    0  502  0.73645691930E+02 -0.43737443877E+02 -0.19141757058E+02  0.87866553364E+02  0.41800000000E+01 0. -1.
        -11    1    3    3    0    0 -0.52286176915E+02  0.38532851429E+02 -0.18555936438E+03  0.19659832818E+03  0.00000000000E+00 0.  1.
         11    1    3    3    0    0  0.14515510381E+02  0.10299327474E+03 -0.18336214455E+03  0.21080794752E+03  0.00000000000E+00 0. -1.
</event>
<event>
 7    1  0.6610867E-006  0.1393318E+03  0.7561462E-02  0.1214231E+00
         -1   -1    0    0    0  501 -0.00000000000E+00  0.00000000000E+00  0.10255585759E+03  0.10255585759E+03  0.00000000000E+00 0.  1.
          1   -1    0    0  501    0  0.00000000000E+00 -0.00000000000E+00 -0.20163069720E+03  0.20163069720E+03  0.00000000000E+00 0. -1.
         23    2    1    2    0    0  0.78793372663E+02 -0.49716973600E+02 -0.34216247914E+02  0.13526431835E+03  0.91899462224E+02 0.  0.
          5    1    1    2  502    0  0.31587533440E+02  0.22727009334E+02 -0.24552289682E+01  0.39214662709E+02  0.41800000000E+01 0.  1.
         -5    1    1    2    0  502 -0.11038090610E+03  0.26989964266E+02 -0.62403362735E+02  0.12970757373E+03  0.41800000000E+01 0.  1.
        -11    1    3    3    0    0 -0.18382368095E+02 -0.87360058334E+01 -0.20543337399E+02  0.28918125219E+02  0.00000000000E+00 0. -1.
         11    1    3    3    0    0  0.97175740758E+02 -0.40980967767E+02 -0.13672910515E+02  0.10634619313E+03  0.00000000000E+00 0.  1.
</event>
<event>
 7    1  0.6610867E-006  0.1096800E+03  0.7561462E-02  0.1261164E+00
          2   -1    0    0  501    0  0.00000000000E+00  0.00000000000E+00  0.45513209875E+03  0.45513209875E+03  0.00000000000E+00 0. -1.
         -2   -1    0    0    0  501 -0.00000000000E+00 -0.00000000000E+00 -0.34668856423E+02  0.34668856423E+02  0.00000000000E+00 0.  1.
         23    2    1    2    0    0 -0.33587619714E+02 -0.34569191770E+02  0.10426873995E+03  0.14637841292E+03  0.90727682770E+02 0.  0.
          5    1    1    2  502    0  0.28034313537E+02  0.81568326452E+02  0.19603697717E+03  0.21421317288E+03  0.41800000000E+01 0.  1.
         -5    1    1    2    0  502  0.55533061774E+01 -0.46999134683E+02  0.12015752520E+03  0.12920936937E+03  0.41800000000E+01 0.  1.
        -11    1    3    3    0    0 -0.19228985592E+02 -0.56276284668E+02  0.10462913816E+03  0.12034961843E+03  0.00000000000E+00 0. -1.
         11    1    3    3    0    0 -0.14358634122E+02  0.21707092898E+02 -0.36039821273E+00  0.26028794494E+02  0.00000000000E+00 0.  1.
</event>
<event>
 7    1  0.6610867E-006  0.1409665E+03  0.7561462E-02  0.1212034E+00
         -2   -1    0    0    0  501 -0.00000000000E+00  0.00000000000E+00  0.11447153341E+03  0.11447153341E+03  0.00000000000E+00 0.  1.
          2   -1    0    0  501    0  0.00000000000E+00 -0.00000000000E+00 -0.26421480616E+03  0.26421480616E+03  0.00000000000E+00 0. -1.
         23    2    1    2    0    0  0.84374743975E+02  0.71405216488E+02  0.12518945415E+02  0.14588898053E+03  0.94387860891E+02 0.  0.
          5    1    1    2  502    0 -0.96420944267E+02 -0.34679802538E+02 -0.50194445467E+02  0.11417811504E+03  0.41800000000E+01 0. -1.
         -5    1    1    2    0  502  0.12046200292E+02 -0.36725413950E+02 -0.11206777269E+03  0.11861924400E+03  0.41800000000E+01 0. -1.
        -11    1    3    3    0    0  0.10125311190E+03  0.49093474691E+02 -0.54155140105E+01  0.11265739976E+03  0.00000000000E+00 0. -1.
         11    1    3    3    0    0 -0.16878367930E+02  0.22311741797E+02  0.17934459425E+02  0.33231580776E+02  0.00000000000E+00 0.  1.
</event>
<event>
 7    1  0.6610867E-006  0.2058667E+03  0.7561462E-02  0.1144882E+00
          2   -1    0    0  501    0  0.00000000000E+00  0.00000000000E+00  0.12618386962E+04  0.12618386962E+04  0.00000000000E+00 0. -1.
         -2   -1    0    0    0  501 -0.00000000000E+00 -0.00000000000E+00 -0.35519625037E+02  0.35519625037E+02  0.00000000000E+00 0.  1.
         23    2    1    2    0    0 -0.26589412063E+02  0.17558558465E+03  0.46319110483E+03  0.50391650929E+03  0.88592067163E+02 0.  0.
          5    1    1    2  502    0 -0.24823198271E+02  0.49892591457E+01  0.52771063171E+02  0.58679991372E+02  0.41800000000E+01 0. -1.
         -5    1    1    2    0  502  0.51412610333E+02 -0.18057484380E+03  0.71035690319E+03  0.73476182061E+03  0.41800000000E+01 0. -1.
        -11    1    3    3    0    0 -0.57084471114E+02  0.14126014804E+03  0.34650698050E+03  0.37852365026E+03  0.00000000000E+00 0. -1.
         11    1    3    3    0    0  0.30495059051E+02  0.34325436615E+02  0.11668412433E+03  0.12539285903E+03  0.00000000000E+00 0.  1.
</event>
<event>
 7    1  0.6610867E-006  0.1572025E+03  0.7561462E-02  0.1191892E+00
         -1   -1    0    0    0  501 -0.00000000000E+00  0.00000000000E+00  0.22919136222E+02  0.22919136222E+02  0.00000000000E+00 0.  1.
          1   -1    0    0  501    0  0.00000000000E+00 -0.00000000000E+00 -0.12031887173E+04  0.12031887173E+04  0.00000000000E+00 0. -1.
         23    2    1    2    0    0 -0.90451916464E+02  0.72666233415E+02 -0.38138616244E+03  0.40920922371E+03  0.92384269194E+02 0.  0.
          5    1    1    2  502    0 -0.26166497997E+02  0.82158952134E+01 -0.16425647107E+03  0.16658285398E+03  0.41800000000E+01 0.  1.
         -5    1    1    2    0  502  0.11661841446E+03 -0.80882128628E+02 -0.63462694754E+03  0.65031577581E+03  0.41800000000E+01 0.  1.
        -11    1    3    3    0    0 -0.45297679602E+02 -0.13612323919E+02 -0.85507002023E+02  0.97717053449E+02  0.00000000000E+00 0.  1.
         11    1    3    3    0    0 -0.45154236863E+02  0.86278557334E+02 -0.29587916042E+03  0.31149217026E+03  0.00000000000E+00 0. -1.
</event>
<event>
 7    1  0.6610867E-006  0.1119323E+03  0.7561462E-02  0.1257033E+00
          2   -1    0    0  501    0  0.00000000000E+00  0.00000000000E+00  0.21985494341E+03  0.21985494341E+03  0.00000000000E+00 0.  1.
         -2   -1    0    0    0  501 -0.00000000000E+00 -0.00000000000E+00 -0.93068482276E+02  0.93068482276E+02  0.00000000000E+00 0. -1.
         23    2    1    2    0    0 -0.22218070312E+02 -0.54887442716E+02 -0.20340823493E+02  0.11093274520E+03  0.91575383381E+02 0.  0.
          5    1    1    2  502    0  0.18014520020E+02 -0.27514204035E+02  0.10326143150E+03  0.10845252414E+03  0.41800000000E+01 0.  1.
         -5    1    1    2    0  502  0.42035502919E+01  0.82401646751E+02  0.43865853117E+02  0.93538156343E+02  0.41800000000E+01 0.  1.
        -11    1    3    3    0    0  0.20122364550E+02  0.15878742677E+02 -0.11162795635E+02  0.27958040533E+02  0.00000000000E+00 0. -1.
         11    1    3    3    0    0 -0.42340434862E+02 -0.70766185393E+02 -0.91780278583E+01  0.82974704668E+02  0.00000000000E+00 0.  1.
</event>
<event>
 7    1  0.6610867E-006  0.1582477E+03  0.7561462E-02  0.1190689E+00
          2   -1    0    0  501    0  0.00000000000E+00  0.00000000000E+00  0.77817632889E+03  0.77817632889E+03  0.00000000000E+00 0. -1.
         -2   -1    0    0    0  501 -0.00000000000E+00 -0.00000000000E+00 -0.35446054225E+02  0.35446054225E+02  0.00000000000E+00 0.  1.
         23    2    1    2    0    0 -0.61357436247E+02  0.10767228900E+03  0.30473360921E+03  0.34155599532E+03  0.91868757260E+02 0.  0.
          5    1    1    2  502    0  0.79366089529E+02 -0.11715421776E+03  0.42401260379E+03  0.44702152910E+03  0.41800000000E+01 0.  1.
         -5    1    1    2    0  502 -0.18008653282E+02  0.94819287586E+01  0.13984061667E+02  0.25044858689E+02  0.41800000000E+01 0.  1.
        -11    1    3    3    0    0  0.36294800520E+00 -0.15961899436E+02  0.35779627613E+02  0.39180297561E+02  0.00000000000E+00 0.  1.
         11    1    3    3    0    0 -0.61720384252E+02  0.12363418844E+03  0.26895398159E+03  0.30237569776E+03  0.00000000000E+00 0. -1.
</event>
<event>
 7    1  0.6610867E-006  0.1019091E+03  0.7561462E-02  0.1276332E+00
         -1   -1    0    0    0  501 -0.00000000000E+00  0.00000000000E+00  0.12030249796E+03  0.12030249796E+03  0.00000000000E+00 0.  1.
          1   -1    0    0  501    0  0.00000000000E+00 -0.00000000000E+00 -0.15464934823E+03  0.15464934823E+03  0.00000000000E+00 0. -1.
         23    2    1    2    0    0 -0.76252180836E+02 -0.32664716038E+02 -0.14971576381E+01  0.13044497983E+03  0.10065918997E+03 0.  0.
          5    1    1    2  502    0  0.38540620011E+02  0.13317744082E+02 -0.74438962683E+02  0.84978663578E+02  0.41800000000E+01 0. -1.
         -5    1    1    2    0  502  0.37711560825E+02  0.19346971956E+02  0.41589270051E+02  0.59528202788E+02  0.41800000000E+01 0.  1.
        -11    1    3    3    0    0 -0.80144086356E+02  0.69380379309E+01  0.23060414489E+02  0.83683891309E+02  0.00000000000E+00 0. -1.
         11    1    3    3    0    0  0.38919055198E+01 -0.39602753969E+02 -0.24557572127E+02  0.46761088516E+02  0.00000000000E+00 0.  1.
</event>
<event>
 7    1  0.6610867E-006  0.8502789E+02  0.7561462E-02  0.1315360E+00
         -1   -1    0    0    0  501 -0.00000000000E+00  0.00000000000E+00  0.37302901471E+02  0.37302901471E+02  0.00000000000E+00 0.  1.
          1   -1    0    0  501    0  0.00000000000E+00 -0.00000000000E+00 -0.33279167679E+03  0.33279167679E+03  0.00000000000E+00 0. -1.
         23    2    1    2    0    0 -0.28174484874E+02 -0.10344606547E+01 -0.11186973478E+03  0.14613680798E+03  0.89700932984E+02 0.  0.
          5    1    1    2  502    0  0.38471871956E+01  0.60244661046E+02 -0.63078347625E+02  0.87410356212E+02  0.41800000000E+01 0. -1.
         -5    1    1    2    0  502  0.24327297679E+02 -0.59210200392E+02 -0.12054069291E+03  0.13654741408E+03  0.41800000000E+01 0. -1.
        -11    1    3    3    0    0 -0.22263452144E+02  0.15965433726E+02 -0.12230254913E+03  0.12533343488E+03  0.00000000000E+00 0. -1.
         11    1    3    3    0    0 -0.59110327310E+01 -0.16999894381E+02  0.10432814347E+02  0.20803373095E+02  0.00000000000E+00 0.  1.
</event>
<event>
 7    1  0.6610867E-006  0.9497953E+02  0.7561462E-02  0.1291222E+00
          1   -1    0    0  501    0  0.00000000000E+00  0.00000000000E+00  0.97749490464E+03  0.97749490464E+03  0.00000000000E+00 0. -1.
         -1   -1    0    0    0  501 -0.00000000000E+00 -0.00000000000E+00 -0.16906255018E+02  0.16906255018E+02  0.00000000000E+00 0.  1.
         23    2    1    2    0    0  0.47442333179E+02 -0.36566044458E+02  0.34492885297E+03  0.36331302436E+03  0.97121519091E+02 0.  0.
          5    1    1    2  502    0  0.19681548692E+02  0.31412129755E+02  0.55436523309E+02  0.66818902799E+02  0.41800000000E+01 0. -1.
         -5    1    1    2    0  502 -0.67123881871E+02  0.51539147038E+01  0.56022327334E+03  0.56426923250E+03  0.41800000000E+01 0. -1.
        -11    1    3    3    0    0  0.27729659286E+02  0.13904710603E+02  0.28008553210E+02  0.41794186605E+02  0.00000000000E+00 0.  1.
         11    1    3    3    0    0  0.19712673893E+02 -0.50470755062E+02  0.31692029976E+03  0.32151883775E+03  0.00000000000E+00 0. -1.
</event>
<event>
 7    1  0.6610867E-006  0.7994098E+02  0.7561462E-02  0.1329219E+00
          2   -1    0    0  501    0  0.00000000000E+00  0.00000000000E+00  0.83722997103E+03  0.83722997103E+03  0.00000000000E+00 0. -1.
         -2   -1    0    0    0  501 -0.00000000000E+00 -0.00000000000E+00 -0.17796971678E+02  0.17796971678E+02  0.00000000000E+00 0.  1.
         23    2    1    2    0    0  0.14560886112E+01 -0.90257107930E+01  0.15850763789E+03  0.18230543211E+03  0.89593613935E+02 0.  0.
          5    1    1    2  502    0 -0.25141292959E+02 -0.24893059373E+02  0.58559165792E+03  0.58667436559E+03  0.41800000000E+01 0. -1.
         -5    1    1    2    0  502  0.23685204348E+02  0.33918770166E+02  0.75333703545E+02  0.86047145010E+02  0.41800000000E+01 0. -1.
        -11    1    3    3    0    0  0.27001360687E+02  0.27214451450E+02  0.11047120799E+03  0.11693411667E+03  0.00000000000E+00 0. -1.
         11    1    3    3    0    0 -0.25545272075E+02 -0.36240162243E+02  0.48036429901E+02  0.65371315441E+02  0.00000000000E+00 0.  1.
</event>
<event>
 7    1  0.6610867E-006  0.1005002E+03  0.7561462E-02  0.1279248E+00
         -2   -1    0    0    0  501 -0.00000000000E+00  0.00000000000E+00  0.24297957119E+03  0.24297957119E+03  0.00000000000E+00 0.  1.
          2   -1    0    0  501    0  0.00000000000E+00 -0.00000000000E+00 -0.65770078572E+02  0.65770078572E+02  0.00000000000E+00 0. -1.
         23    2    1    2    0    0  0.96774802807E+01  0.65081929142E+02  0.98347928166E+02  0.14689592059E+03  0.87044732102E+02 0.  0.
          5    1    1    2  502    0  0.27652722206E+02 -0.34283961613E+02  0.99639860170E+02  0.10902126950E+03  0.41800000000E+01 0.  1.
         -5    1    1    2    0  502 -0.37330202487E+02 -0.30797967528E+02 -0.20778295717E+02  0.52832459667E+02  0.41800000000E+01 0.  1.
        -11    1    3    3    0    0  0.47068570336E+02  0.24733228758E+02  0.57938928912E+02  0.78639064095E+02  0.00000000000E+00 0.  1.
         11    1    3    3    0    0 -0.37391090055E+02  0.40348700384E+02  0.40408999254E+02  0.68256856497E+02  0.00000000000E+00 0. -1.
</event>
<event>
 7    1  0.6610867E-006  0.1018704E+03  0.7561462E-02  0.1276411E+00
         -2   -1    0    0    0  501 -0.00000000000E+00  0.00000000000E+00  0.24716249367E+03  0.24716249367E+03  0.00000000000E+00 0.  1.
          2   -1    0    0  501    0  0.00000000000E+00 -0.00000000000E+00 -0.24708852594E+03  0.24708852594E+03  0.00000000000E+00 0. -1.
         23    2    1    2    0    0  0.29688426602E+01 -0.78577529134E+02  0.19943362219E+03  0.24854276624E+03  0.12576364689E+03 0.  0.
          5    1    1    2  502    0 -0.21540613748E+02  0.20653544784E+02 -0.17886272649E+03  0.18138333517E+03  0.41800000000E+01 0. -1.
         -5    1    1    2    0  502  0.18571771088E+02  0.57923984350E+02 -0.20496927974E+02  0.64324918194E+02  0.41800000000E+01 0.  1.
        -11    1    3    3    0    0  0.65398492182E+01  0.16366113042E+02 -0.87695138351E+01  0.19685620560E+02  0.00000000000E+00 0.  1.
         11    1    3    3    0    0 -0.35710065580E+01 -0.94943642176E+02  0.20820313602E+03  0.22885714568E+03  0.00000000000E+00 0. -1.
</event>
<event>
 7    1  0.6610867E-006  0.1166959E+03  0.7561462E-02  0.1248649E+00
         -2   -1    0    0    0  501 -0.00000000000E+00  0.00000000000E+00  0.19412463967E+02  0.19412463967E+02  0.00000000000E+00 0.  1.
          2   -1    0    0  501    0  0.00000000000E+00 -0.00000000000E+00 -0.75178018829E+03  0.75178018829E+03  0.00000000000E+00 0. -1.
         23    2    1    2    0    0 -0.67159025047E+01 -0.54674174249E+02 -0.30827792437E+03  0.32561948886E+03  0.89209888454E+02 0.  0.
          5    1    1    2  502    0  0.63982311070E+02  0.38140162310E+02 -0.19397541497E+03  0.20782767411E+03  0.41800000000E+01 0.  1.
         -5    1    1    2    0  502 -0.57266408566E+02  0.16534011939E+02 -0.23011438498E+03  0.23774548929E+03  0.41800000000E+01 0.  1.
        -11    1    3    3    0    0 -0.42698383762E+02 -0.44433392643E+02 -0.23976747669E+03  0.24755993463E+03  0.00000000000E+00 0. -1.
         11    1    3    3    0    0  0.35982481258E+02 -0.10240781606E+02 -0.68510447685E+02  0.78059554235E+02  0.00000000000E+00 0.  1.
</event>
<event>
 7    1  0.6610867E-006  0.1756672E+03  0.7561462E-02  0.1172063E+00
          1   -1    0    0  501    0  0.00000000000E+00  0.00000000000E+00  0.82925731115E+03  0.82925731115E+03  0.00000000000E+00 0. -1.
         -1   -1    0    0    0  501 -0.00000000000E+00 -0.00000000000E+00 -0.44306252677E+02  0.44306252677E+02  0.00000000000E+00 0.  1.
         23    2    1    2    0    0  0.66749865225E+02 -0.14193575172E+03  0.29329752370E+03  0.34255309984E+03  0.81962715186E+02 0.  0.
          5    1    1    2  502    0  0.22295076113E+02  0.83127672900E+02  0.29380153280E+03  0.30617657242E+03  0.41800000000E+01 0. -1.
         -5    1    1    2    0  502 -0.89044941338E+02  0.58808078819E+02  0.19785200198E+03  0.22483389157E+03  0.41800000000E+01 0. -1.
        -11    1    3    3    0    0  0.58673737813E+02 -0.10237144832E+03  0.13551484119E+03  0.17968526129E+03  0.00000000000E+00 0.  1.
         11    1    3    3    0    0  0.80761274121E+01 -0.39564303399E+02  0.15778268250E+03  0.16286783856E+03  0.00000000000E+00 0. -1.
</event>
<event>
 7    1  0.6610867E-006  0.6427206E+02  0.7561462E-02  0.1380731E+00
          4   -1    0    0  501    0  0.00000000000E+00  0.00000000000E+00  0.22685909681E+03  0.22685909681E+03  0.00000000000E+00 0. -1.
         -4   -1    0    0    0  501 -0.00000000000E+00 -0.00000000000E+00 -0.66365373465E+02  0.66365373465E+02  0.00000000000E+00 0.  1.
         23    2    1    2    0    0  0.25501973147E+02 -0.25143408076E+02  0.12377499442E+02  0.96073944333E+02  0.88286231560E+02 0.  0.
          5    1    1    2  502    0 -0.41525853287E+02  0.40990677639E+02  0.16069017589E+03  0.17100712609E+03  0.41800000000E+01 0.  1.
         -5    1    1    2    0  502  0.16023880139E+02 -0.15847269563E+02 -0.12573951990E+02  0.26143399855E+02  0.41800000000E+01 0.  1.
        -11    1    3    3    0    0  0.19435045824E+02  0.17888491750E+01  0.47527346760E+02  0.51378688944E+02  0.00000000000E+00 0. -1.
         11    1    3    3    0    0  0.60669273231E+01 -0.26932257251E+02 -0.35149847318E+02  0.44695255389E+02  0.00000000000E+00 0.  1.
</event>
<event>
 7    1  0.6610867E-006  0.1198441E+03  0.7561462E-02  0.1243354E+00
          2   -1    0    0  501    0  0.00000000000E+00  0.00000000000E+00  0.24652666505E+03  0.24652666505E+03  0.00000000000E+00 0. -1.
         -2   -1    0    0    0  501 -0.00000000000E+00 -0.00000000000E+00 -0.94481893256E+02  0.94481893256E+02  0.00000000000E+00 0.  1.
         23    2    1    2    0    0 -0.79248031786E+02  0.21926545133E+02 -0.69576035468E+01  0.12262629848E+03  0.90707094040E+02 0.  0.
          5    1    1    2  502    0  0.14146306488E+02  0.49252878230E+02  0.40022154289E+02  0.65155270202E+02  0.41800000000E+01 0. -1.
         -5    1    1    2    0  502  0.65101725298E+02 -0.71179423363E+02  0.11898022105E+03  0.15322698962E+03  0.41800000000E+01 0. -1.
        -11    1    3    3    0    0 -0.19987332049E+02  0.25445798917E+02  0.36706838531E+02  0.48932342269E+02  0.00000000000E+00 0. -1.
         11    1    3    3    0    0 -0.59260699737E+02 -0.35192537838E+01 -0.43664442078E+02  0.73693956214E+02  0.00000000000E+00 0.  1.
</event>
<event>
 6    1  0.6610867E-006  0.7435499E+02  0.7561462E-02  0.1345880E+00
          2   -1    0    0  501    0  0.00000000000E+00  0.00000000000E+00  0.39301733978E+03  0.39301733978E+03  0.00000000000E+00 0. -1.
         -2   -1    0    0    0  501 -0.00000000000E+00 -0.00000000000E+00 -0.26340666040E+02  0.26340666040E+02  0.00000000000E+00 0.  1.
          5    1    1    2  502    0  0.25108920279E+02 -0.24727549382E+02  0.25312727174E+03  0.25560281233E+03  0.41800000000E+01 0. -1.
         -5    1    1    2    0  502 -0.18182752790E+01  0.60939539757E+02  0.66469156231E+02  0.90291498829E+02  0.41800000000E+01 0. -1.
        -11    1    1    2    0    0 -0.29022539198E+02 -0.20905687639E+02  0.44213361523E+02  0.56869824110E+02  0.00000000000E+00 0. -1.
         11    1    1    2    0    0  0.57318941976E+01 -0.15306302735E+02  0.28668842528E+01  0.16593870550E+02  0.00000000000E+00 0.  1.
</event>
<event>
 7    1  0.6610867E-006  0.9281081E+02  0.7561462E-02  0.1296184E+00
          3   -1    0    0  501    0  0.00000000000E+00  0.00000000000E+00  0.38820362533E+03  0.38820362533E+03  0.00000000000E+00 0. -1.
         -3   -1    0    0    0  501 -0.00000000000E+00 -0.00000000000E+00 -0.34308762982E+02  0.34308762982E+02  0.00000000000E+00 0.  1.
         23    2    1    2    0    0 -0.36474981393E+02 -0.95713708877E+01  0.11147299241E+03  0.14712578185E+03  0.88304769064E+02 0.  0.
          5    1    1    2  502    0  0.76876094590E+02 -0.19228600177E+02  0.16861669842E+03  0.18635647660E+03  0.41800000000E+01 0. -1.
         -5    1    1    2    0  502 -0.40401113197E+02  0.28799971065E+02  0.73805171523E+02  0.89030129869E+02  0.41800000000E+01 0. -1.
        -11    1    3    3    0    0 -0.35103296906E+02  0.10279689390E+02  0.12001960102E+03  0.12546959033E+03  0.00000000000E+00 0. -1.
         11    1    3    3    0    0 -0.13716844873E+01 -0.19851060277E+02 -0.85466086112E+01  0.21656191522E+02  0.00000000000E+00 0.  1.
</event>
<event>
 7    1  0.6610867E-006  0.1338068E+03  0.7561462E-02  0.1221914E+00
          1   -1    0    0  501    0  0.00000000000E+00  0.00000000000E+00  0.39637251234E+03  0.39637251234E+03  0.00000000000E+00 0. -1.
         -1   -1    0    0    0  501 -0.00000000000E+00 -0.00000000000E+00 -0.62134230553E+02  0.62134230553E+02  0.00000000000E+00 0.  1.
         23    2    1    2    0    0 -0.77999401759E+02 -0.35744336342E+02  0.47280089208E+02  0.13392340505E+03  0.91315427662E+02 0.  0.
          5    1    1    2  502    0  0.20833156670E+02  0.71812291856E+02  0.20508568122E+03  0.21833147899E+03  0.41800000000E+01 0.  1.
         -5    1    1    2    0  502  0.57166245090E+02 -0.36067955513E+02  0.81872511355E+02  0.10625185885E+03  0.41800000000E+01 0.  1.
        -11    1    3    3    0    0 -0.45037066575E+02  0.28146057860E+02  0.15534288593E+02  0.55334004562E+02  0.00000000000E+00 0. -1.
         11    1    3    3    0    0 -0.32962335184E+02 -0.63890394203E+02  0.31745800615E+02  0.78589400487E+02  0.00000000000E+00 0.  1.
</event>
<event>
 7    1  0.6610867E-006  0.9892816E+02  0.7561462E-02  0.1282566E+00
         -2   -1    0    0    0  501 -0.00000000000E+00  0.00000000000E+00  0.51590351314E+02  0.51590351314E+02  0.00000000000E+00 0.  1.
          2   -1    0    0  501    0  0.00000000000E+00 -0.00000000000E+00 -0.28263215107E+03  0.28263215107E+03  0.00000000000E+00 0. -1.
         23    2    1    2    0    0 -0.51157227110E+02 -0.17388853281E+02 -0.10319854020E+03  0.14737977325E+03  0.90285241097E+02 0.  0.
          5    1    1    2  502    0  0.74397984593E+02  0.40721876668E+02 -0.12804702330E+03  0.15364518843E+03  0.41800000000E+01 0. -1.
         -5    1    1    2    0  502 -0.23240757483E+02 -0.23333023387E+02  0.20376375177E+00  0.33197540699E+02  0.41800000000E+01 0. -1.
        -11    1    3    3    0    0  0.36874586889E+01 -0.24197857137E+02 -0.86126607226E+02  0.89537288957E+02  0.00000000000E+00 0. -1.
         11    1    3    3    0    0 -0.54844685799E+02  0.68090038567E+01 -0.17071932979E+02  0.57842484296E+02  0.00000000000E+00 0.  1.
</event>
<event>
 7    1  0.6610867E-006  0.8581376E+02  0.7561462E-02  0.1313318E+00
          4   -1    0    0  501    0  0.00000000000E+00  0.00000000000E+00  0.11886424389E+03  0.11886424389E+03  0.00000000000E+00 0. -1.
         -4   -1    0    0    0  501 -0.00000000000E+00 -0.00000000000E+00 -0.10707930870E+03  0.10707930870E+03  0.00000000000E+00 0.  1.
         23    2    1    2    0    0  0.27036027103E+02  0.19714408733E+02  0.48776338950E+01  0.96271663349E+02  0.90137878710E+02 0.  0.
          5    1    1    2  502    0  0.49572910167E+02 -0.14651411430E+00  0.85368572151E+01  0.50476184681E+02  0.41800000000E+01 0.  1.
         -5    1    1    2    0  502 -0.76608937270E+02 -0.19567894619E+02 -0.16295559207E+01  0.79195704568E+02  0.41800000000E+01 0.  1.
        -11    1    3    3    0    0  0.16557690907E+02 -0.37718208060E+01 -0.40609764014E+02  0.44017458964E+02  0.00000000000E+00 0.  1.
         11    1    3    3    0    0  0.10478336196E+02  0.23486229539E+02  0.45487397909E+02  0.52254204385E+02  0.00000000000E+00 0. -1.
</event>
<event>
 7    1  0.7914797E-006  0.8165596E+02  0.7561462E-02  0.1324417E+00
          2   -1    0    0  501    0  0.00000000000E+00  0.00000000000E+00  0.35776316296E+03  0.35776316296E+03  0.00000000000E+00 0. -1.
         -2   -1    0    0    0  501 -0.00000000000E+00 -0.00000000000E+00 -0.35453526854E+02  0.35453526854E+02  0.00000000000E+00 0.  1.
         23    2    1    2    0    0  0.61390263301E+01  0.57368284779E+02  0.13453180794E+03  0.16032800135E+03  0.65402239453E+02 0.  0.
          5    1    1    2  502    0  0.25684767121E+02 -0.11660069863E+02 -0.77420525210E+01  0.29547864026E+02  0.41800000000E+01 0.  1.
         -5    1    1    2    0  502 -0.31823793451E+02 -0.45708214916E+02  0.19551988069E+03  0.20334082444E+03  0.41800000000E+01 0.  1.
        -11    1    3    3    0    0 -0.22049229718E+02  0.40448228192E+02  0.42795007063E+02  0.62877979648E+02  0.00000000000E+00 0.  1.
         11    1    3    3    0    0  0.28188256048E+02  0.16920056587E+02  0.91736800881E+02  0.97450021702E+02  0.00000000000E+00 0. -1.
</event>
<event>
 7    1  0.6610867E-006  0.2357960E+03  0.7561462E-02  0.1122626E+00
         -1   -1    0    0    0  501 -0.00000000000E+00  0.00000000000E+00  0.88828294576E+02  0.88828294576E+02  0.00000000000E+00 0.  1.
          1   -1    0    0  501    0  0.00000000000E+00 -0.00000000000E+00 -0.70813726715E+03  0.70813726715E+03  0.00000000000E+00 0. -1.
         23    2    1    2    0    0  0.31253250670E+02  0.22115262297E+03 -0.34550626415E+03  0.42213327286E+03  0.94533978857E+02 0.  0.
          5    1    1    2  502    0 -0.42186758605E+02 -0.22757599762E+03 -0.21985118003E+03  0.31925314572E+03  0.41800000000E+01 0. -1.
         -5    1    1    2    0  502  0.10933507936E+02  0.64233746453E+01 -0.53951528389E+02  0.55579143149E+02  0.41800000000E+01 0. -1.
        -11    1    3    3    0    0  0.31722306934E+02  0.87119546805E+02 -0.21903952209E+03  0.23785380474E+03  0.00000000000E+00 0. -1.
         11    1    3    3    0    0 -0.46905626453E+00  0.13403307617E+03 -0.12646674206E+03  0.18427946811E+03  0.00000000000E+00 0.  1.
</event>
<event>
 7    1  0.6610867E-006  0.1446727E+03  0.7561462E-02  0.1207176E+00
          2   -1    0    0  501    0  0.00000000000E+00  0.00000000000E+00  0.17453114553E+03  0.17453114553E+03  0.00000000000E+00 0. -1.
         -2   -1    0    0    0  501 -0.00000000000E+00 -0.00000000000E+00 -0.17002487787E+03  0.17002487787E+03  0.00000000000E+00 0.  1.
         23    2    1    2    0    0 -0.11332552061E+03 -0.13302588544E+02 -0.67080717253E+02  0.16072984816E+03  0.91184587405E+02 0.  0.
          5    1    1    2  502    0  0.81447304641E+02 -0.46434742504E+02  0.14091464900E+02  0.94899370534E+02  0.41800000000E+01 0.  1.
         -5    1    1    2    0  502  0.31878215969E+02  0.59737331048E+02  0.57495520014E+02  0.88926804709E+02  0.41800000000E+01 0.  1.
        -11    1    3    3    0    0 -0.23608720732E+01 -0.16479923842E+02  0.15206124912E+02  0.22547457542E+02  0.00000000000E+00 0. -1.
         11    1    3    3    0    0 -0.11096464854E+03  0.31773352975E+01 -0.82286842165E+02  0.13818239062E+03  0.00000000000E+00 0.  1.
</event>
<event>
 7    1  0.6610867E-006  0.8735333E+02  0.7561462E-02  0.1309391E+00
         -2   -1    0    0    0  501 -0.00000000000E+00  0.00000000000E+00  0.24242804311E+02  0.24242804311E+02  0.00000000000E+00 0.  1.
          2   -1    0    0  501    0  0.00000000000E+00 -0.00000000000E+00 -0.60899135887E+03  0.60899135887E+03  0.00000000000E+00 0. -1.
         23    2    1    2    0    0 -0.14563953558E+02 -0.42289200360E+02 -0.13615749941E+03  0.16789918351E+03  0.87468771373E+02 0.  0.
          5    1    1    2  502    0  0.17863403885E+02 -0.12853155661E+02 -0.36100493092E+03  0.36169923605E+03  0.41800000000E+01 0. -1.
         -5    1    1    2    0  502 -0.32994503267E+01  0.55142356021E+02 -0.87586124222E+02  0.10363574362E+03  0.41800000000E+01 0.  1.
        -11    1    3    3    0    0  0.18596132741E+02  0.19398300240E+02 -0.26190452766E+02  0.37523992607E+02  0.00000000000E+00 0. -1.
         11    1    3    3    0    0 -0.33160086300E+02 -0.61687500600E+02 -0.10996704665E+03  0.13037519090E+03  0.00000000000E+00 0.  1.
</event>
<event>
 7    1  0.6610867E-006  0.1051098E+03  0.7561462E-02  0.1269904E+00
         -2   -1    0    0    0  501 -0.00000000000E+00  0.00000000000E+00  0.16539219085E+02  0.16539219085E+02  0.00000000000E+00 0.  1.
          2   -1    0    0  501    0  0.00000000000E+00 -0.00000000000E+00 -0.71878038938E+03  0.71878038938E+03  0.00000000000E+00 0. -1.
         23    2    1    2    0    0  0.79222601550E+01  0.21183184736E+02 -0.26238642243E+03  0.27745576787E+03  0.87313108547E+02 0.  0.
          5    1    1    2  502    0  0.12180488845E+02  0.50674020564E+02 -0.19140321163E+03  0.19841593306E+03  0.41800000000E+01 0.  1.
         -5    1    1    2    0  502 -0.20102749000E+02 -0.71857205300E+02 -0.24845153623E+03  0.25944790754E+03  0.41800000000E+01 0.  1.
        -11    1    3    3    0    0  0.10442451463E+02  0.51617454045E+02 -0.21280275791E+03  0.21922230755E+03  0.00000000000E+00 0. -1.
         11    1    3    3    0    0 -0.25201913081E+01 -0.30434269309E+02 -0.49583664519E+02  0.58233460311E+02  0.00000000000E+00 0.  1.
</event>
<event>
 7    1  0.6610867E-006  0.1153648E+03  0.7561462E-02  0.1250946E+00
          1   -1    0    0  501    0  0.00000000000E+00  0.00000000000E+00  0.24678633727E+03  0.24678633727E+03  0.00000000000E+00 0. -1.
         -1   -1    0    0    0  501 -0.00000000000E+00 -0.00000000000E+00 -0.10341802559E+03  0.10341802559E+03  0.00000000000E+00 0.  1.
         23    2    1    2    0    0 -0.38218432237E+02  0.43460174906E+02 -0.43928730770E+02  0.11765928955E+03  0.92544798150E+02 0.  0.
          5    1    1    2  502    0 -0.32068643646E+02 -0.42898761420E+02  0.13358821899E+03  0.14398606283E+03  0.41800000000E+01 0. -1.
         -5    1    1    2    0  502  0.70287075882E+02 -0.56141348587E+00  0.53708823456E+02  0.88559010486E+02  0.41800000000E+01 0. -1.
        -11    1    3    3    0    0 -0.67721982405E+02  0.32532939829E+02 -0.18941508090E+02  0.77481867578E+02  0.00000000000E+00 0.  1.
         11    1    3    3    0    0  0.29503550168E+02  0.10927235077E+02 -0.24987222680E+02  0.40177421971E+02  0.00000000000E+00 0. -1.
</event>
<event>
 7    1  0.6610867E-006  0.1007998E+03  0.7561462E-02  0.1278623E+00
          3   -1    0    0  501    0  0.00000000000E+00  0.00000000000E+00  0.46825580028E+02  0.46825580028E+02  0.00000000000E+00 0. -1.
         -3   -1    0    0    0  501 -0.00000000000E+00 -0.00000000000E+00 -0.42421912069E+03  0.42421912069E+03  0.00000000000E+00 0.  1.
         23    2    1    2    0    0  0.68970312310E+02  0.10248165465E+02 -0.26587395494E+03  0.28953380324E+03  0.90988649975E+02 0.  0.
          5    1    1    2  502    0 -0.24577691672E+02  0.25128452622E+02  0.18237269428E+02  0.39819247297E+02  0.41800000000E+01 0. -1.
         -5    1    1    2    0  502 -0.44392620637E+02 -0.35376618087E+02 -0.12975685515E+03  0.14169165019E+03  0.41800000000E+01 0. -1.
        -11    1    3    3    0    0 -0.14838064801E+02 -0.15649475995E+02 -0.95497236963E+02  0.97901974104E+02  0.00000000000E+00 0. -1.
         11    1    3    3    0    0  0.83808377110E+02  0.25897641460E+02 -0.17037671798E+03  0.19163182913E+03  0.00000000000E+00 0.  1.
</event>
<event>
 7    1  0.6610867E-006  0.1081039E+03  0.7561462E-02  0.1264122E+00
          1   -1    0    0  501    0  0.00000000000E+00  0.00000000000E+00  0.81367583746E+03  0.81367583746E+03  0.00000000000E+00 0. -1.
         -1   -1    0    0    0  501 -0.00000000000E+00 -0.00000000000E+00 -0.33803295235E+02  0.33803295235E+02  0.00000000000E+00 0.  1.
         23    2    1    2    0    0 -0.88327687359E+02  0.27824500977E+02  0.14976597541E+03  0.19843510498E+03  0.91491312639E+02 0.  0.
          5    1    1    2  502    0  0.71820398641E+01  0.33188427799E+00 -0.39329131836E+01  0.91995679188E+01  0.41800000000E+01 0. -1.
         -5    1    1    2    0  502  0.81145647495E+02 -0.28156385255E+02  0.63403948000E+03  0.63984445980E+03  0.41800000000E+01 0. -1.
        -11    1    3    3    0    0 -0.35253094840E+02  0.52603568981E+02  0.11224112227E+03  0.12887197405E+03  0.00000000000E+00 0. -1.
         11    1    3    3    0    0 -0.53074592519E+02 -0.24779068004E+02  0.37524853138E+02  0.69563130933E+02  0.00000000000E+00 0.  1.
</event>
<event>
 6    1  0.6610867E-006  0.8905512E+02  0.7561462E-02  0.1305156E+00
         -2   -1    0    0    0  501 -0.00000000000E+00  0.00000000000E+00  0.19923375535E+02  0.19923375535E+02  0.00000000000E+00 0.  1.
          2   -1    0    0  501    0  0.00000000000E+00 -0.00000000000E+00 -0.48454668572E+03  0.48454668572E+03  0.00000000000E+00 0. -1.
          5    1    1    2  502    0 -0.63810358923E+02 -0.24331390242E+00 -0.27789791199E+03  0.28516055652E+03  0.41800000000E+01 0. -1.
         -5    1    1    2    0  502  0.70385010440E+02  0.32940027065E+02 -0.11607404812E+03  0.13974888953E+03  0.41800000000E+01 0.  1.
        -11    1    1    2    0    0 -0.10115233076E+02 -0.13783076659E+02 -0.37844496500E+02  0.41527064160E+02  0.00000000000E+00 0. -1.
         11    1    1    2    0    0  0.35405815587E+01 -0.18913636504E+02 -0.32806853574E+02  0.38033551043E+02  0.00000000000E+00 0.  1.
</event>
<event>
 7    1  0.6610867E-006  0.8474668E+02  0.7561462E-02  0.1316096E+00
         -1   -1    0    0    0  501 -0.00000000000E+00  0.00000000000E+00  0.38821759741E+03  0.38821759741E+03  0.00000000000E+00 0.  1.
          1   -1    0    0  501    0  0.00000000000E+00 -0.00000000000E+00 -0.47964218693E+02  0.47964218693E+02  0.00000000000E+00 0. -1.
         23    2    1    2    0    0  0.82740057076E+01  0.78860309438E+02  0.15652763457E+03  0.20019727141E+03  0.96387963561E+02 0.  0.
          5    1    1    2  502    0 -0.64213978358E+01 -0.10069257694E+02  0.16370544878E+03  0.16419369860E+03  0.41800000000E+01 0.  1.
         -5    1    1    2    0  502 -0.18526078718E+01 -0.68791051744E+02  0.20020295364E+02  0.71790846090E+02  0.41800000000E+01 0.  1.
        -11    1    3    3    0    0 -0.71082663094E+01  0.69560186192E+02  0.16582202233E+03  0.17996135708E+03  0.00000000000E+00 0.  1.
         11    1    3    3    0    0  0.15382272017E+02  0.93001232461E+01 -0.92943877588E+01  0.20235914326E+02  0.00000000000E+00 0. -1.
</event>
<event>
 7    1  0.6610867E-006  0.6612104E+02  0.7561462E-02  0.1373804E+00
         -1   -1    0    0    0  501 -0.00000000000E+00  0.00000000000E+00  0.20920983630E+03  0.20920983630E+03  0.00000000000E+00 0.  1.
          1   -1    0    0  501    0  0.00000000000E+00 -0.00000000000E+00 -0.66858077631E+03  0.66858077631E+03  0.00000000000E+00 0. -1.
         23    2    1    2    0    0  0.47798072643E+01  0.88219403641E+01  0.19529461925E+03  0.21346368469E+03  0.85592541636E+02 0.  0.
          5    1    1    2  502    0 -0.33732320446E+02 -0.28612527301E+02 -0.58032372591E+03  0.58202203173E+03  0.41800000000E+01 0. -1.
         -5    1    1    2    0  502  0.28952513181E+02  0.19790586937E+02 -0.74341833355E+02  0.82304896193E+02  0.41800000000E+01 0.  1.
        -11    1    3    3    0    0  0.12742718950E+02  0.28525335446E+02  0.18861802001E+03  0.19118794188E+03  0.00000000000E+00 0.  1.
         11    1    3    3    0    0 -0.79629116862E+01 -0.19703395082E+02  0.66765992428E+01  0.22275742810E+02  0.00000000000E+00 0. -1.
</event>
<event>
 7    1  0.6610867E-006  0.8571441E+02  0.7561462E-02  0.1313575E+00
          1   -1    0    0  501    0  0.00000000000E+00  0.00000000000E+00  0.12815058246E+04  0.12815058246E+04  0.00000000000E+00 0. -1.
         -1   -1    0    0    0  501 -0.00000000000E+00 -0.00000000000E+00 -0.12763102874E+02  0.12763102874E+02  0.00000000000E+00 0.  1.
         23    2    1    2    0    0  0.16382095667E+02  0.32232824171E+02  0.26935585512E+03  0.28643453569E+03  0.90470097457E+02 0.  0.
          5    1    1    2  502    0 -0.29768188462E+02 -0.49881478439E+02  0.20458573272E+03  0.21271366051E+03  0.41800000000E+01 0. -1.
         -5    1    1    2    0  502  0.13386092795E+02  0.17648654268E+02  0.79480113385E+03  0.79512073123E+03  0.41800000000E+01 0. -1.
        -11    1    3    3    0    0 -0.32539804301E+02  0.25340570106E+02  0.17648701670E+03  0.18124196650E+03  0.00000000000E+00 0. -1.
         11    1    3    3    0    0  0.48921899968E+02  0.68922540651E+01  0.92868838426E+02  0.10519256919E+03  0.00000000000E+00 0.  1.
</event>
<event>
 7    1  0.6610867E-006  0.1002895E+03  0.7561462E-02  0.1279688E+00
          2   -1    0    0  501    0  0.00000000000E+00  0.00000000000E+00  0.26348640931E+03  0.26348640931E+03  0.00000000000E+00 0. -1.
         -2   -1    0    0    0  501 -0.00000000000E+00 -0.00000000000E+00 -0.69844641846E+02  0.69844641846E+02  0.00000000000E+00 0.  1.
         23    2    1    2    0    0  0.24558350640E+02 -0.24469127559E+02 -0.12619478828E+00  0.10010302644E+03  0.93908195532E+02 0.  0.
          5    1    1    2  502    0  0.14676336384E+02  0.63220061526E+02  0.14721027901E+03  0.16093635287E+03  0.41800000000E+01 0.  1.
         -5    1    1    2    0  502 -0.39234687024E+02 -0.38750933967E+02  0.46557683243E+02  0.72291671845E+02  0.41800000000E+01 0.  1.
        -11    1    3    3    0    0 -0.22745245992E+02 -0.23815124020E+02  0.29559497958E+02  0.44252347586E+02  0.00000000000E+00 0. -1.
         11    1    3    3    0    0  0.47303596631E+02 -0.65400353924E+00 -0.29685692746E+02  0.55850678856E+02  0.00000000000E+00 0.  1.
</event>
<event>
 7    1  0.6610867E-006  0.1227786E+03  0.7561462E-02  0.1238582E+00
          4   -1    0    0  501    0  0.00000000000E+00  0.00000000000E+00  0.10361445969E+03  0.10361445969E+03  0.00000000000E+00 0. -1.
         -4   -1    0    0    0  501 -0.00000000000E+00 -0.00000000000E+00 -0.17232051396E+03  0.17232051396E+03  0.00000000000E+00 0.  1.
         23    2    1    2    0    0 -0.70701666713E+02  0.23871981264E+02 -0.12772494553E+02  0.11990351208E+03  0.92979128990E+02 0.  0.
          5    1    1    2  502    0 -0.20826060049E+01 -0.62537991156E+02 -0.30081686270E+02  0.69553704678E+02  0.41800000000E+01 0. -1.
         -5    1    1    2    0  502  0.72784272717E+02  0.38666009892E+02 -0.25851873439E+02  0.86477756887E+02  0.41800000000E+01 0. -1.
        -11    1    3    3    0    0 -0.46887344723E+02 -0.19548662603E+02 -0.38833585329E+02  0.63942322872E+02  0.00000000000E+00 0. -1.
         11    1    3    3    0    0 -0.23814321989E+02  0.43420643867E+02  0.26061090775E+02  0.55961189212E+02  0.00000000000E+00 0.  1.
</event>
<event>
 7    1  0.6610867E-006  0.1293874E+03  0.7561462E-02  0.1228368E+00
          1   -1    0    0  501    0  0.00000000000E+00  0.00000000000E+00  0.64754789611E+03  0.64754789611E+03  0.00000000000E+00 0. -1.
         -1   -1    0    0    0  501 -0.00000000000E+00 -0.00000000000E+00 -0.36591723882E+02  0.36591723882E+02  0.00000000000E+00 0.  1.
         23    2    1    2    0    0 -0.44118161367E+02 -0.67202150159E+02  0.11940507405E+03  0.17059064240E+03  0.91548098929E+02 0.  0.
          5    1    1    2  502    0 -0.67125298172E+01  0.89988086726E+02  0.34739945926E+03  0.35895232344E+03  0.41800000000E+01 0.  1.
         -5    1    1    2    0  502  0.50830691184E+02 -0.22785936567E+02  0.14415163893E+03  0.15459665416E+03  0.41800000000E+01 0.  1.
        -11    1    3    3    0    0 -0.66418111177E+02 -0.58935822535E+02  0.61562816659E+02  0.10804988230E+03  0.00000000000E+00 0.  1.
         11    1    3    3    0    0  0.22299949811E+02 -0.82663276236E+01  0.57842257386E+02  0.62540760097E+02  0.00000000000E+00 0. -1.
</event>
<event>
 7    1  0.6610867E-006  0.9812331E+02  0.7561462E-02  0.1284293E+00
         -2   -1    0    0    0  501 -0.00000000000E+00  0.00000000000E+00  0.74420343257E+02  0.74420343257E+02  0.00000000000E+00 0.  1.
          2   -1    0    0  501    0  0.00000000000E+00 -0.00000000000E+00 -0.92248886551E+03  0.92248886551E+03  0.00000000000E+00 0. -1.
         23    2    1    2    0    0 -0.17254709741E+02 -0.19386026383E+02  0.18952055683E+02  0.10286601323E+03  0.97717415216E+02 0.  0.
          5    1    1    2  502    0  0.40088349861E+01  0.64388335731E+02 -0.83405155470E+03  0.83655328392E+03  0.41800000000E+01 0. -1.
         -5    1    1    2    0  502  0.13245874755E+02 -0.45002309348E+02 -0.32969023240E+02  0.57489911620E+02  0.41800000000E+01 0.  1.
        -11    1    3    3    0    0 -0.96949389786E+01 -0.51042286944E+02  0.38711430867E+02  0.64791062486E+02  0.00000000000E+00 0.  1.
         11    1    3    3    0    0 -0.75597707625E+01  0.31656260561E+02 -0.19759375184E+02  0.38074950747E+02  0.00000000000E+00 0. -1.
</event>
<event>
 7    1  0.6610867E-006  0.8050735E+02  0.7561462E-02  0.1327618E+00
         -2   -1    0    0    0  501 -0.00000000000E+00  0.00000000000E+00  0.43712088611E+02  0.43712088611E+02  0.00000000000E+00 0.  1.
          2   -1    0    0  501    0  0.00000000000E+00 -0.00000000000E+00 -0.28873328363E+03  0.28873328363E+03  0.00000000000E+00 0. -1.
         23    2    1    2    0    0  0.35816595346E+01 -0.18903752809E+02 -0.67578322177E+02  0.11449666608E+03  0.90401751969E+02 0.  0.
          5    1    1    2  502    0 -0.30752889104E+02 -0.33965717278E+02 -0.21066313577E+02  0.50603083959E+02  0.41800000000E+01 0.  1.
         -5    1    1    2    0  502  0.27171229569E+02  0.52869470087E+02 -0.15637655926E+03  0.16734562220E+03  0.41800000000E+01 0.  1.
        -11    1    3    3    0    0  0.24562488900E+02 -0.23437400053E+02  0.88717181467E+01  0.35090382801E+02  0.00000000000E+00 0.  1.
         11    1    3    3    0    0 -0.20980829366E+02  0.45336472446E+01 -0.76450040323E+02  0.79406283276E+02  0.00000000000E+00 0. -1.
</event>
<event>
 7    1  0.6610867E-006  0.1489146E+03  0.7561462E-02  0.1201813E+00
         -2   -1    0    0    0  501 -0.00000000000E+00  0.00000000000E+00  0.32868922560E+02  0.32868922560E+02  0.00000000000E+00 0.  1.
          2   -1    0    0  501    0  0.00000000000E+00 -0.00000000000E+00 -0.71348032762E+03  0.71348032762E+03  0.00000000000E+00 0. -1.
         23    2    1    2    0    0  0.10175375890E+03 -0.34276764365E+02 -0.29341709848E+03  0.32552103832E+03  0.91332517126E+02 0.  0.
          5    1    1    2  502    0 -0.12777693966E+03  0.14159106843E+02 -0.27067263377E+03  0.29968078631E+03  0.41800000000E+01 0. -1.
         -5    1    1    2    0  502  0.26023180761E+02  0.20117657522E+02 -0.11652167281E+03  0.12114742555E+03  0.41800000000E+01 0. -1.
        -11    1    3    3    0    0  0.14873522403E+02  0.26242357051E+02 -0.34709899497E+02  0.45985433513E+02  0.00000000000E+00 0.  1.
         11    1    3    3    0    0  0.86880236493E+02 -0.60519121416E+02 -0.25870719898E+03  0.27953560481E+03  0.00000000000E+00 0. -1.
</event>
<event>
 7    1  0.6610867E-006  0.1267931E+03  0.7561462E-02  0.1232293E+00
         -2   -1    0    0    0  501 -0.00000000000E+00  0.00000000000E+00  0.30020419048E+02  0.30020419048E+02  0.00000000000E+00 0.  1.
          2   -1    0    0  501    0  0.00000000000E+00 -0.00000000000E+00 -0.72211808915E+03  0.72211808915E+03  0.00000000000E+00 0. -1.
         23    2    1    2    0    0 -0.13851374998E+01  0.66655943117E+02 -0.12599055870E+03  0.16855490061E+03  0.89956657771E+02 0.  0.
          5    1    1    2  502    0 -0.34463727123E+02  0.25303321062E+02 -0.17058754184E+03  0.17591358212E+03  0.41800000000E+01 0.  1.
         -5    1    1    2    0  502  0.35848864622E+02 -0.91959264179E+02 -0.39551956956E+03  0.40767002547E+03  0.41800000000E+01 0.  1.
        -11    1    3    3    0    0  0.24030007012E+02  0.79719837187E+02 -0.97275303208E+02  0.12804365776E+03  0.00000000000E+00 0.  1.
         11    1    3    3    0    0 -0.25415144512E+02 -0.13063894070E+02 -0.28715255496E+02  0.40511242848E+02  0.00000000000E+00 0. -1.
</event>
<event>
 7    1  0.6610867E-006  0.2673082E+03  0.7561462E-02  0.1102830E+00
          2   -1    0    0  501    0  0.00000000000E+00  0.00000000000E+00  0.27078551097E+04  0.27078551097E+04  0.00000000000E+00 0. -1.
         -2   -1    0    0    0  501 -0.00000000000E+00 -0.00000000000E+00 -0.35090563553E+02  0.35090563553E+02  0.00000000000E+00 0.  1.
         23    2    1    2    0    0 -0.10216269932E+03  0.24175645421E+03  0.77175497734E+03  0.81983137656E+03  0.87374713987E+02 0.  0.
          5    1    1    2  502    0  0.59000155412E+02 -0.89730458347E+02  0.11848143131E+04  0.11896785290E+04  0.41800000000E+01 0. -1.
         -5    1    1    2    0  502  0.43162543912E+02 -0.15202599586E+03  0.71619525578E+03  0.73343576775E+03  0.41800000000E+01 0. -1.
        -11    1    3    3    0    0 -0.23737968298E+02  0.12650243234E+02  0.15359317671E+03  0.15593070168E+03  0.00000000000E+00 0. -1.
         11    1    3    3    0    0 -0.78424731026E+02  0.22910621097E+03  0.61816180063E+03  0.66390067488E+03  0.00000000000E+00 0.  1.
</event>
<event>
 7    1  0.6610867E-006  0.7181943E+02  0.7561462E-02  0.1354013E+00
         -1   -1    0    0    0  501 -0.00000000000E+00  0.00000000000E+00  0.18171359774E+02  0.18171359774E+02  0.00000000000E+00 0.  1.
          1   -1    0    0  501    0  0.00000000000E+00 -0.00000000000E+00 -0.67763038903E+03  0.67763038903E+03  0.00000000000E+00 0. -1.
         23    2    1    2    0    0  0.26766369248E+01  0.41974738915E+01 -0.22888202207E+03  0.24739461688E+03  0.93767442425E+02 0.  0.
          5    1    1    2  502    0 -0.47352470149E+00  0.22368075861E+02 -0.41803162335E+03  0.41865076802E+03  0.41800000000E+01 0. -1.
         -5    1    1    2    0  502 -0.22031122233E+01 -0.26565549753E+02 -0.12545383824E+02  0.29756363898E+02  0.41800000000E+01 0. -1.
        -11    1    3    3    0    0  0.30302144800E+02 -0.34775366929E+02 -0.11348090152E+03  0.12249678010E+03  0.00000000000E+00 0. -1.
         11    1    3    3    0    0 -0.27625507876E+02  0.38972840821E+02 -0.11540112055E+03  0.12489783678E+03  0.00000000000E+00 0.  1.
</event>
<event>
 7    1  0.6610867E-006  0.1285075E+03  0.7561462E-02  0.1229687E+00
          4   -1    0    0  501    0  0.00000000000E+00  0.00000000000E+00  0.87297572496E+02  0.87297572496E+02  0.00000000000E+00 0. -1.
         -4   -1    0    0    0  501 -0.00000000000E+00 -0.00000000000E+00 -0.24636324296E+03  0.24636324296E+03  0.00000000000E+00 0.  1.
         23    2    1    2    0    0  0.29238930969E+02 -0.81724165209E+02 -0.12536665721E+03  0.17772258560E+03  0.91294931024E+02 0.  0.
          5    1    1    2  502    0  0.12516197141E+01  0.98648342486E+02  0.10704527969E+02  0.99323317233E+02  0.41800000000E+01 0.  1.
         -5    1    1    2    0  502 -0.30490550683E+02 -0.16924177277E+02 -0.44403541221E+02  0.56614912615E+02  0.41800000000E+01 0.  1.
        -11    1    3    3    0    0  0.60410013524E+02 -0.60077605784E+02 -0.68328273764E+02  0.10921282638E+03  0.00000000000E+00 0.  1.
         11    1    3    3    0    0 -0.31171082556E+02 -0.21646559425E+02 -0.57038383445E+02  0.68509759222E+02  0.00000000000E+00 0. -1.
</event>
<event>
 7    1  0.6610867E-006  0.9884051E+02  0.7561462E-02  0.1282753E+00
          2   -1    0    0  501    0  0.00000000000E+00  0.00000000000E+00  0.30926688705E+03  0.30926688705E+03  0.00000000000E+00 0. -1.
         -2   -1    0    0    0  501 -0.00000000000E+00 -0.00000000000E+00 -0.38737950806E+02  0.38737950806E+02  0.00000000000E+00 0.  1.
         23    2    1    2    0    0 -0.42763656856E+00  0.74810644695E+01  0.87368249770E+02  0.12607700405E+03  0.90587254537E+02 0.  0.
          5    1    1    2  502    0  0.16759670819E+02  0.46831797817E+02  0.14523274687E+03  0.15357124410E+03  0.41800000000E+01 0. -1.
         -5    1    1    2    0  502 -0.16332034250E+02 -0.54312862287E+02  0.37927939608E+02  0.68356589700E+02  0.41800000000E+01 0. -1.
        -11    1    3    3    0    0 -0.35729962905E+02 -0.24450473284E+02  0.41807009321E+02  0.60185396246E+02  0.00000000000E+00 0. -1.
         11    1    3    3    0    0  0.35302326336E+02  0.31931537753E+02  0.45561240449E+02  0.65891607806E+02  0.00000000000E+00 0.  1.
</event>
<event>
 7    1  0.6610867E-006  0.1048140E+03  0.7561462E-02  0.1270486E+00
          1   -1    0    0  501    0  0.00000000000E+00  0.00000000000E+00  0.23320531328E+03  0.23320531328E+03  0.00000000000E+00 0. -1.
         -1   -1    0    0    0  501 -0.00000000000E+00 -0.00000000000E+00 -0.83421092210E+02  0.83421092210E+02  0.00000000000E+00 0.  1.
         23    2    1    2    0    0 -0.53913831200E+02  0.26806552392E+02 -0.22381490065E+01  0.11075403477E+03  0.92930912306E+02 0.  0.
          5    1    1    2  502    0  0.68723513622E+02  0.31443425581E+02  0.10504393539E+03  0.12947320610E+03  0.41800000000E+01 0.  1.
         -5    1    1    2    0  502 -0.14809682423E+02 -0.58249977973E+02  0.46978434684E+02  0.76399164607E+02  0.41800000000E+01 0.  1.
        -11    1    3    3    0    0 -0.36301335592E+02 -0.56725742300E+01 -0.42452119475E+02  0.56143989101E+02  0.00000000000E+00 0.  1.
         11    1    3    3    0    0 -0.17612495607E+02  0.32479126622E+02  0.40213970469E+02  0.54610045674E+02  0.00000000000E+00 0. -1.
</event>
<event>
 7    1  0.6610867E-006  0.1135878E+03  0.7561462E-02  0.1254066E+00
          2   -1    0    0  501    0  0.00000000000E+00  0.00000000000E+00  0.38947018114E+03  0.38947018114E+03  0.00000000000E+00 0. -1.
         -2   -1    0    0    0  501 -0.00000000000E+00 -0.00000000000E+00 -0.56075583630E+02  0.56075583630E+02  0.00000000000E+00 0.  1.
         23    2    1    2    0    0  0.48077920016E+02  0.84297415180E+02  0.19708830648E+03  0.23663864551E+03  0.87957418096E+02 0.  0.
          5    1    1    2  502    0  0.22438673601E+02 -0.39441224544E+02 -0.37857807092E+01  0.45726456259E+02  0.41800000000E+01 0. -1.
         -5    1    1    2    0  502 -0.70516593616E+02 -0.44856190636E+02  0.14009207174E+03  0.16318066301E+03  0.41800000000E+01 0. -1.
        -11    1    3    3    0    0  0.21488586082E+01  0.12589920821E+02 -0.76566291423E+01  0.14891194358E+02  0.00000000000E+00 0.  1.
         11    1    3    3    0    0  0.45929061407E+02  0.71707494359E+02  0.20474493562E+03  0.22174745115E+03  0.00000000000E+00 0. -1.
</event>
<event>
 7    1  0.6610867E-006  0.1427701E+03  0.7561462E-02  0.1209650E+00
          1   -1    0    0  501    0  0.00000000000E+00  0.00000000000E+00  0.34146955038E+03  0.34146955038E+03  0.00000000000E+00 0. -1.
         -1   -1    0    0    0  501 -0.00000000000E+00 -0.00000000000E+00 -0.73235875705E+02  0.73235875705E+02  0.00000000000E+00 0.  1.
         23    2    1    2    0    0 -0.64826460414E+02  0.96817365014E+02  0.12721942195E+03  0.19310007681E+03  0.86757052762E+02 0.  0.
          5    1    1    2  502    0  0.62621422734E+02 -0.23830453846E+02  0.13176758644E+03  0.14788340797E+03  0.41800000000E+01 0. -1.
         -5    1    1    2    0  502  0.22050376802E+01 -0.72986911168E+02  0.92466662855E+01  0.73721941309E+02  0.41800000000E+01 0. -1.
        -11    1    3    3    0    0 -0.43609157019E+02 -0.25274732928E+01  0.38510297268E+02  0.58233922183E+02  0.00000000000E+00 0.  1.
         11    1    3    3    0    0 -0.21217303395E+02  0.99344838307E+02  0.88709124678E+02  0.13486615462E+03  0.00000000000E+00 0. -1.
</event>
<event>
 7    1  0.6610867E-006  0.1018402E+03  0.7561462E-02  0.1276473E+00
         -4   -1    0    0    0  501 -0.00000000000E+00  0.00000000000E+00  0.77079861124E+02  0.77079861124E+02  0.00000000000E+00 0.  1.
          4   -1    0    0  501    0  0.00000000000E+00 -0.00000000000E+00 -0.15188332944E+03  0.15188332944E+03  0.00000000000E+00 0. -1.
         23    2    1    2    0    0  0.61104691714E+01 -0.70822566133E+01 -0.24711562983E+02  0.93889283271E+02  0.90094616797E+02 0.  0.
          5    1    1    2  502    0 -0.60493888485E+02  0.33332820846E+01 -0.52602558808E+02  0.80343779515E+02  0.41800000000E+01 0. -1.
         -5    1    1    2    0  502  0.54383419314E+02  0.37489745287E+01  0.25106534698E+01  0.54730127783E+02  0.41800000000E+01 0. -1.
        -11    1    3    3    0    0 -0.33520064635E+01 -0.47068407947E+02 -0.23656020940E+02  0.52785209109E+02  0.00000000000E+00 0.  1.
         11    1    3    3    0    0  0.94624756349E+01  0.39986151334E+02 -0.10555420429E+01  0.41104074161E+02  0.00000000000E+00 0. -1.
</event>
<event>
 7    1  0.6610867E-006  0.2344387E+03  0.7561462E-02  0.1123554E+00
         -1   -1    0    0    0  501 -0.00000000000E+00  0.00000000000E+00  0.12793978179E+03  0.12793978179E+03  0.00000000000E+00 0.  1.
          1   -1    0    0  501    0  0.00000000000E+00 -0.00000000000E+00 -0.49925337173E+03  0.49925337173E+03  0.00000000000E+00 0. -1.
         23    2    1    2    0    0  0.17631274382E+03 -0.13605698000E+03 -0.11891084216E+03  0.26809384154E+03  0.90204401505E+02 0.  0.
          5    1    1    2  502    0 -0.13530788112E+03  0.13612171519E+03 -0.13505267564E+03  0.23472119980E+03  0.41800000000E+01 0. -1.
         -5    1    1    2    0  502 -0.41004862704E+02 -0.64735189588E-01 -0.11735007215E+03  0.12437811218E+03  0.41800000000E+01 0. -1.
        -11    1    3    3    0    0  0.12446538249E+03 -0.47807877881E+02 -0.41098799905E+02  0.13952181185E+03  0.00000000000E+00 0.  1.
         11    1    3    3    0    0  0.51847361325E+02 -0.88249102117E+02 -0.77812042251E+02  0.12857202970E+03  0.00000000000E+00 0. -1.
</event>
<event>
 7    1  0.6610867E-006  0.1168462E+03  0.7561462E-02  0.1248392E+00
         -1   -1    0    0    0  501 -0.00000000000E+00  0.00000000000E+00  0.12809766723E+02  0.12809766723E+02  0.00000000000E+00 0.  1.
          1   -1    0    0  501    0  0.00000000000E+00 -0.00000000000E+00 -0.12570618394E+04  0.12570618394E+04  0.00000000000E+00 0. -1.
         23    2    1    2    0    0 -0.42385353158E+01 -0.55312506727E+02 -0.36351066993E+03  0.37856329740E+03  0.89959570956E+02 0.  0.
          5    1    1    2  502    0 -0.47648210081E+02 -0.97589780488E+01 -0.44507021628E+03  0.44773938781E+03  0.41800000000E+01 0.  1.
         -5    1    1    2    0  502  0.51886745396E+02  0.65071484775E+02 -0.43567118643E+03  0.44356892087E+03  0.41800000000E+01 0.  1.
        -11    1    3    3    0    0 -0.41739482356E+02 -0.47510739310E+02 -0.27395941767E+03  0.28116403978E+03  0.00000000000E+00 0. -1.
         11    1    3    3    0    0  0.37500947040E+02 -0.78017674162E+01 -0.89551252255E+02  0.97399257616E+02  0.00000000000E+00 0.  1.
</event>
<event>
 7    1  0.6610867E-006  0.1114935E+03  0.7561462E-02  0.1257829E+00
          2   -1    0    0  501    0  0.00000000000E+00  0.00000000000E+00  0.20999127951E+03  0.20999127951E+03  0.00000000000E+00 0. -1.
         -2   -1    0    0    0  501 -0.00000000000E+00 -0.00000000000E+00 -0.71778953203E+02  0.71778953203E+02  0.00000000000E+00 0.  1.
         23    2    1    2    0    0  0.47347364389E+02 -0.32861545761E+02  0.70929708810E+02  0.12848458762E+03  0.90308424626E+02 0.  0.
          5    1    1    2  502    0  0.11930618872E+02  0.53143339889E+02  0.71931804510E+02  0.90322816283E+02  0.41800000000E+01 0. -1.
         -5    1    1    2    0  502 -0.59277983261E+02 -0.20281794128E+02 -0.46491870119E+01  0.62962828815E+02  0.41800000000E+01 0. -1.
        -11    1    3    3    0    0  0.23408199011E+02 -0.62925907315E+02  0.55360559603E+02  0.87019567638E+02  0.00000000000E+00 0. -1.
         11    1    3    3    0    0  0.23939165379E+02  0.30064361554E+02  0.15569149208E+02  0.41465019978E+02  0.00000000000E+00 0.  1.
</event>
<event>
 7    1  0.6610867E-006  0.9943339E+02  0.7561462E-02  0.1281492E+00
         -1   -1    0    0    0  501 -0.00000000000E+00  0.00000000000E+00  0.39498248580E+03  0.39498248580E+03  0.00000000000E+00 0.  1.
          1   -1    0    0  501    0  0.00000000000E+00 -0.00000000000E+00 -0.36475362584E+02  0.36475362584E+02  0.00000000000E+00 0. -1.
         23    2    1    2    0    0  0.48682505961E+00 -0.23926165492E+02  0.21991981815E+03  0.24323809835E+03  0.10113034995E+03 0.  0.
          5    1    1    2  502    0  0.27566344846E+02  0.51221672230E+02  0.17488914463E+02  0.60884296853E+02  0.41800000000E+01 0. -1.
         -5    1    1    2    0  502 -0.28053169905E+02 -0.27295506738E+02  0.12109839060E+03  0.12733545318E+03  0.41800000000E+01 0. -1.
        -11    1    3    3    0    0  0.89463425609E+01  0.37819000325E+02  0.11281190773E+03  0.11931823145E+03  0.00000000000E+00 0.  1.
         11    1    3    3    0    0 -0.84595175013E+01 -0.61745165817E+02  0.10710791042E+03  0.12391986690E+03  0.00000000000E+00 0. -1.
</event>
<event>
 7    1  0.6610867E-006  0.1202841E+03  0.7561462E-02  0.1242629E+00
          2   -1    0    0  501    0  0.00000000000E+00  0.00000000000E+00  0.53934491571E+03  0.53934491571E+03  0.00000000000E+00 0. -1.
         -2   -1    0    0    0  501 -0.00000000000E+00 -0.00000000000E+00 -0.39206365165E+02  0.39206365165E+02  0.00000000000E+00 0.  1.
         23    2    1    2    0    0  0.32367125409E+02  0.88760391743E+02  0.18408603126E+03  0.22575436446E+03  0.90284706439E+02 0.  0.
          5    1    1    2  502    0 -0.14502284138E+02  0.43618045101E+01  0.20955539772E+03  0.21014347170E+03  0.41800000000E+01 0. -1.
         -5    1    1    2    0  502 -0.17864841270E+02 -0.93122196253E+02  0.10649712156E+03  0.14265344472E+03  0.41800000000E+01 0. -1.
        -11    1    3    3    0    0  0.42523378452E+02  0.10358610461E+03  0.14957685884E+03  0.18684634190E+03  0.00000000000E+00 0.  1.
         11    1    3    3    0    0 -0.10156253043E+02 -0.14825712864E+02  0.34509172425E+02  0.38908022556E+02  0.00000000000E+00 0. -1.
</event>
<event>
 7    1  0.6610867E-006  0.2540407E+03  0.7561462E-02  0.1110777E+00
         -2   -1    0    0    0  501 -0.00000000000E+00  0.00000000000E+00  0.17497348757E+03  0.17497348757E+03  0.00000000000E+00 0.  1.
          2   -1    0    0  501    0  0.00000000000E+00 -0.00000000000E+00 -0.47722795516E+03  0.47722795516E+03  0.00000000000E+00 0. -1.
         23    2    1    2    0    0  0.21082610054E+03  0.10868708751E+03 -0.85050300102E+01  0.25446189893E+03  0.91749631119E+02 0.  0.
          5    1    1    2  502    0 -0.12109536892E+03 -0.25915952015E+01 -0.18535010808E+03  0.22145640588E+03  0.41800000000E+01 0.  1.
         -5    1    1    2    0  502 -0.89730731621E+02 -0.10609549230E+03 -0.10839932950E+03  0.17628313794E+03  0.41800000000E+01 0.  1.
        -11    1    3    3    0    0  0.12678997443E+03  0.24920062570E+02 -0.32870630907E+02  0.13333111232E+03  0.00000000000E+00 0.  1.
         11    1    3    3    0    0  0.84036126104E+02  0.83767024936E+02  0.24365600897E+02  0.12113078661E+03  0.00000000000E+00 0. -1.
</event>
<event>
 7    1  0.6610867E-006  0.1456315E+03  0.7561462E-02  0.1205946E+00
          2   -1    0    0  501    0  0.00000000000E+00  0.00000000000E+00  0.75308877582E+03  0.75308877582E+03  0.00000000000E+00 0. -1.
         -2   -1    0    0    0  501 -0.00000000000E+00 -0.00000000000E+00 -0.38122176658E+02  0.38122176658E+02  0.00000000000E+00 0.  1.
         23    2    1    2    0    0 -0.10369378189E+03  0.57255698080E+02  0.21328226663E+03  0.26077380821E+03  0.92103411601E+02 0.  0.
          5    1    1    2  502    0  0.15137040257E+02 -0.58946356021E+02  0.86234132206E+02  0.10562954527E+03  0.41800000000E+01 0.  1.
         -5    1    1    2    0  502  0.88556741630E+02  0.16906579411E+01  0.41545020033E+03  0.42480759899E+03  0.41800000000E+01 0.  1.
        -11    1    3    3    0    0 -0.10711088423E+03  0.26097559192E+02  0.12285080103E+03  0.16506405857E+03  0.00000000000E+00 0.  1.
         11    1    3    3    0    0  0.34171023467E+01  0.31158138888E+02  0.90431465597E+02  0.95709749647E+02  0.00000000000E+00 0. -1.
</event>
<event>
 7    1  0.6610867E-006  0.1046008E+03  0.7561462E-02  0.1270908E+00
         -1   -1    0    0    0  501 -0.00000000000E+00  0.00000000000E+00  0.47141613508E+03  0.47141613508E+03  0.00000000000E+00 0.  1.
          1   -1    0    0  501    0  0.00000000000E+00 -0.00000000000E+00 -0.40917180053E+02  0.40917180053E+02  0.00000000000E+00 0. -1.
         23    2    1    2    0    0 -0.86662015419E+02  0.43786759480E+01  0.19522076294E+03  0.23210212014E+03  0.90723592144E+02 0.  0.
          5    1    1    2  502    0  0.25590298654E+02  0.65408223813E+01  0.21224247162E+03  0.21392051071E+03  0.41800000000E+01 0.  1.
         -5    1    1    2    0  502  0.61071716765E+02 -0.10919498329E+02  0.23035720463E+02  0.66310684280E+02  0.41800000000E+01 0.  1.
        -11    1    3    3    0    0 -0.34141996125E+02  0.43131696882E+02  0.56835178074E+02  0.79096502085E+02  0.00000000000E+00 0.  1.
         11    1    3    3    0    0 -0.52520019294E+02 -0.38753020934E+02  0.13838558487E+03  0.15300561806E+03  0.00000000000E+00 0. -1.
</event>
<event>
 7    1  0.6610867E-006  0.1078275E+03  0.7561462E-02  0.1264647E+00
         -1   -1    0    0    0  501 -0.00000000000E+00  0.00000000000E+00  0.16052525747E+03  0.16052525747E+03  0.00000000000E+00 0.  1.
          1   -1    0    0  501    0  0.00000000000E+00 -0.00000000000E+00 -0.15777069699E+03  0.15777069699E+03  0.00000000000E+00 0. -1.
         23    2    1    2    0    0  0.28531476365E+02  0.67247221159E+02  0.93632615275E+02  0.14729263113E+03  0.87131042943E+02 0.  0.
          5    1    1    2  502    0  0.74005755858E+01  0.12291438882E+02  0.23022508093E+02  0.27447336258E+02  0.41800000000E+01 0. -1.
         -5    1    1    2    0  502 -0.35932051951E+02 -0.79538660040E+02 -0.11390056289E+03  0.14355598707E+03  0.41800000000E+01 0. -1.
        -11    1    3    3    0    0  0.27239711195E+01 -0.21109325438E+02  0.13134506432E+02  0.25010775643E+02  0.00000000000E+00 0. -1.
         11    1    3    3    0    0  0.25807505246E+02  0.88356546596E+02  0.80498108844E+02  0.12228185549E+03  0.00000000000E+00 0.  1.
</event>
<event>
 7    1  0.6610867E-006  0.1111796E+03  0.7561462E-02  0.1258401E+00
          1   -1    0    0  501    0  0.00000000000E+00  0.00000000000E+00  0.53809837374E+03  0.53809837374E+03  0.00000000000E+00 0. -1.
         -1   -1    0    0    0  501 -0.00000000000E+00 -0.00000000000E+00 -0.26944465640E+02  0.26944465640E+02  0.00000000000E+00 0.  1.
         23    2    1    2    0    0  0.30613145253E+02 -0.15282486184E+02  0.15760852375E+03  0.18845984117E+03  0.97498440652E+02 0.  0.
          5    1    1    2  502    0 -0.64802389397E+02 -0.28279237218E+02  0.23919460873E+03  0.24946061448E+03  0.41800000000E+01 0. -1.
         -5    1    1    2    0  502  0.34189244144E+02  0.43561723402E+02  0.11435077562E+03  0.12712238373E+03  0.41800000000E+01 0. -1.
        -11    1    3    3    0    0  0.34752362986E+02 -0.50079055333E+02  0.63421789892E+02  0.87965686203E+02  0.00000000000E+00 0.  1.
         11    1    3    3    0    0 -0.41392177326E+01  0.34796569149E+02  0.94186733859E+02  0.10049415497E+03  0.00000000000E+00 0. -1.
</event>
<event>
 7    1  0.6610867E-006  0.1847408E+03  0.7561462E-02  0.1163292E+00
          2   -1    0    0  501    0  0.00000000000E+00  0.00000000000E+00  0.12990711975E+04  0.12990711975E+04  0.00000000000E+00 0. -1.
         -2   -1    0    0    0  501 -0.00000000000E+00 -0.00000000000E+00 -0.30290344401E+02  0.30290344401E+02  0.00000000000E+00 0.  1.
         23    2    1    2    0    0 -0.96572789532E+02 -0.13515140621E+03  0.56590807703E+03  0.59637498808E+03  0.88424931391E+02 0.  0.
          5    1    1    2  502    0  0.55603450462E+02  0.12818526786E+03  0.33850296196E+03  0.36623071179E+03  0.41800000000E+01 0. -1.
         -5    1    1    2    0  502  0.40969339070E+02  0.69661383537E+01  0.36436981409E+03  0.36675584201E+03  0.41800000000E+01 0. -1.
        -11    1    3    3    0    0 -0.11322215077E+03 -0.12385086775E+03  0.51427965388E+03  0.54096382066E+03  0.00000000000E+00 0. -1.
         11    1    3    3    0    0  0.16649361235E+02 -0.11300538460E+02  0.51628423143E+02  0.55411167424E+02  0.00000000000E+00 0.  1.
</event>
<event>
 7    1  0.6610867E-006  0.2232542E+03  0.7561462E-02  0.1131480E+00
         -2   -1    0    0    0  501 -0.00000000000E+00  0.00000000000E+00  0.45957982839E+03  0.45957982839E+03  0.00000000000E+00 0. -1.
          2   -1    0    0  501    0  0.00000000000E+00 -0.00000000000E+00 -0.12382091338E+03  0.12382091338E+03  0.00000000000E+00 0.  1.
         23    2    1    2    0    0 -0.20214474214E+03  0.41803325989E+02  0.18574115974E+03  0.29921008975E+03  0.11143107533E+03 0.  0.
          5    1    1    2  502    0  0.16413532885E+03 -0.82846657398E+02  0.10169173387E+03  0.21014912790E+03  0.41800000000E+01 0. -1.
         -5    1    1    2    0  502  0.38009413285E+02  0.41043331408E+02  0.48326021395E+02  0.74041524128E+02  0.41800000000E+01 0. -1.
        -11    1    3    3    0    0 -0.16928357828E+03  0.32769299348E+02  0.19839873222E+03  0.26285511941E+03  0.00000000000E+00 0. -1.
         11    1    3    3    0    0 -0.32861163853E+02  0.90340266414E+01 -0.12657572476E+02  0.36354970336E+02  0.00000000000E+00 0.  1.
</event>
<event>
 7    1  0.6610867E-006  0.6780849E+02  0.7561462E-02  0.1367708E+00
         -2   -1    0    0    0  501 -0.00000000000E+00  0.00000000000E+00  0.12395655746E+02  0.12395655746E+02  0.00000000000E+00 0.  1.
          2   -1    0    0  501    0  0.00000000000E+00 -0.00000000000E+00 -0.85568871048E+03  0.85568871048E+03  0.00000000000E+00 0. -1.
         23    2    1    2    0    0 -0.21970988250E+01  0.87389945409E+01 -0.20113899684E+03  0.21379808182E+03  0.71913326094E+02 0.  0.
          5    1    1    2  502    0 -0.31864259743E+02 -0.13115231345E+02 -0.59389448125E+03  0.59490794885E+03  0.41800000000E+01 0.  1.
         -5    1    1    2    0  502  0.34061358568E+02  0.43762368043E+01 -0.48259576632E+02  0.59378335551E+02  0.41800000000E+01 0.  1.
        -11    1    3    3    0    0  0.11660878798E+02  0.34851120095E+02 -0.15262401066E+03  0.15698619460E+03  0.00000000000E+00 0.  1.
         11    1    3    3    0    0 -0.13857977623E+02 -0.26112125554E+02 -0.48514986184E+02  0.56811887217E+02  0.00000000000E+00 0. -1.
</event>
<event>
 7    1  0.6610867E-006  0.8481489E+02  0.7561462E-02  0.1315917E+00
         -1   -1    0    0    0  501 -0.00000000000E+00  0.00000000000E+00  0.16110914050E+02  0.16110914050E+02  0.00000000000E+00 0.  1.
          1   -1    0    0  501    0  0.00000000000E+00 -0.00000000000E+00 -0.77363988648E+03  0.77363988648E+03  0.00000000000E+00 0. -1.
         23    2    1    2    0    0 -0.26072079617E+02 -0.98540611321E+01 -0.30778853572E+03  0.32210823078E+03  0.90791374938E+02 0.  0.
          5    1    1    2  502    0 -0.13391944954E+02  0.30111591078E+02 -0.27689349908E+02  0.43246093526E+02  0.41800000000E+01 0. -1.
         -5    1    1    2    0  502  0.39464024571E+02 -0.20257529946E+02 -0.42205108680E+03  0.42439647622E+03  0.41800000000E+01 0. -1.
        -11    1    3    3    0    0 -0.65274159333E+01  0.38839781261E+02 -0.92842128645E+02  0.10085036747E+03  0.00000000000E+00 0.  1.
         11    1    3    3    0    0 -0.19544663683E+02 -0.48693842393E+02 -0.21494640707E+03  0.22125786331E+03  0.00000000000E+00 0. -1.
</event>
<event>
 7    1  0.6610867E-006  0.2380872E+03  0.7561462E-02  0.1121074E+00
         -1   -1    0    0    0  501 -0.00000000000E+00  0.00000000000E+00  0.11584967563E+03  0.11584967563E+03  0.00000000000E+00 0.  1.
          1   -1    0    0  501    0  0.00000000000E+00 -0.00000000000E+00 -0.49816362502E+03  0.49816362502E+03  0.00000000000E+00 0. -1.
         23    2    1    2    0    0 -0.21015193573E+03  0.28982275405E+02 -0.14688482322E+03  0.27330920818E+03  0.90105291742E+02 0.  0.
          5    1    1    2  502    0  0.19631904758E+03 -0.65485374869E+02 -0.19957138087E+03  0.28753384362E+03  0.41800000000E+01 0. -1.
         -5    1    1    2    0  502  0.13832888150E+02  0.36503099464E+02 -0.35857745294E+02  0.53170248848E+02  0.41800000000E+01 0. -1.
        -11    1    3    3    0    0 -0.13290286089E+03  0.61081383873E+02 -0.10253900427E+03  0.17862909417E+03  0.00000000000E+00 0. -1.
         11    1    3    3    0    0 -0.77249074849E+02 -0.32099108468E+02 -0.44345818949E+02  0.94680114004E+02  0.00000000000E+00 0.  1.
</event>
<event>
 7    1  0.6610867E-006  0.8387699E+02  0.7561462E-02  0.1318396E+00
         -1   -1    0    0    0  501 -0.00000000000E+00  0.00000000000E+00  0.21721717956E+03  0.21721717956E+03  0.00000000000E+00 0.  1.
          1   -1    0    0  501    0  0.00000000000E+00 -0.00000000000E+00 -0.62402665497E+02  0.62402665497E+02  0.00000000000E+00 0. -1.
         23    2    1    2    0    0  0.18690675673E+02  0.39966704540E+02  0.82276531037E+02  0.12843387916E+03  0.88199517725E+02 0.  0.
          5    1    1    2  502    0 -0.10313715521E+02  0.12071583606E+02  0.93039220646E+02  0.94476795231E+02  0.41800000000E+01 0.  1.
         -5    1    1    2    0  502 -0.83769601525E+01 -0.52038288146E+02 -0.20501237616E+02  0.56709170673E+02  0.41800000000E+01 0.  1.
        -11    1    3    3    0    0 -0.22167786986E+02 -0.17295788194E+02  0.20268642565E+02  0.34660827176E+02  0.00000000000E+00 0.  1.
         11    1    3    3    0    0  0.40858462659E+02  0.57262492735E+02  0.62007888471E+02  0.93773051980E+02  0.00000000000E+00 0. -1.
</event>
<event>
 7    1  0.6610867E-006  0.2003241E+03  0.7561462E-02  0.1149466E+00
         -1   -1    0    0    0  501 -0.00000000000E+00  0.00000000000E+00  0.90590022404E+02  0.90590022404E+02  0.00000000000E+00 0.  1.
          1   -1    0    0  501    0  0.00000000000E+00 -0.00000000000E+00 -0.52679189696E+03  0.52679189696E+03  0.00000000000E+00 0. -1.
         23    2    1    2    0    0 -0.18899848508E+03  0.11345695046E+02 -0.16024545329E+03  0.26010140822E+03  0.78262284019E+02 0.  0.
          5    1    1    2  502    0  0.65169232487E+02  0.25284035632E+02 -0.23817976469E+02  0.73966747420E+02  0.41800000000E+01 0. -1.
         -5    1    1    2    0  502  0.12382925260E+03 -0.36629730678E+02 -0.25213844479E+03  0.28331376372E+03  0.41800000000E+01 0. -1.
        -11    1    3    3    0    0 -0.95316430699E+02 -0.28692024423E+02 -0.55440271863E+02  0.11393892211E+03  0.00000000000E+00 0.  1.
         11    1    3    3    0    0 -0.93682054385E+02  0.40037719469E+02 -0.10480518143E+03  0.14616248612E+03  0.00000000000E+00 0. -1.
</event>
<event>
 7    1  0.6610867E-006  0.1039204E+03  0.7561462E-02  0.1272261E+00
          1   -1    0    0  501    0  0.00000000000E+00  0.00000000000E+00  0.33579947611E+02  0.33579947611E+02  0.00000000000E+00 0. -1.
         -1   -1    0    0    0  501 -0.00000000000E+00 -0.00000000000E+00 -0.87208193028E+03  0.87208193028E+03  0.00000000000E+00 0.  1.
         23    2    1    2    0    0  0.57107746761E+02 -0.39714199604E+02 -0.68934385293E+03  0.69893971861E+03  0.92104670220E+02 0.  0.
          5    1    1    2  502    0  0.43740462062E+01  0.29307599681E+02 -0.14047311019E+03  0.14362532773E+03  0.41800000000E+01 0.  1.
         -5    1    1    2    0  502 -0.61481792967E+02  0.10406599923E+02 -0.86850195507E+01  0.63096831561E+02  0.41800000000E+01 0.  1.
        -11    1    3    3    0    0  0.31251185861E+02  0.28607781404E+02 -0.25160779909E+03  0.25515000752E+03  0.00000000000E+00 0.  1.
         11    1    3    3    0    0  0.25856560900E+02 -0.68321981008E+02 -0.43773605385E+03  0.44378971109E+03  0.00000000000E+00 0. -1.
</event>
<event>
 7    1  0.6610867E-006  0.7368794E+02  0.7561462E-02  0.1347983E+00
          3   -1    0    0  501    0  0.00000000000E+00  0.00000000000E+00  0.64461258634E+02  0.64461258634E+02  0.00000000000E+00 0. -1.
         -3   -1    0    0    0  501 -0.00000000000E+00 -0.00000000000E+00 -0.25946837135E+03  0.25946837135E+03  0.00000000000E+00 0.  1.
         23    2    1    2    0    0 -0.58753625763E+02  0.18770607688E+02 -0.13281891127E+03  0.17122214259E+03  0.88723360344E+02 0.  0.
          5    1    1    2  502    0  0.23793911637E+02 -0.28357240925E+02  0.33623221747E+02  0.50182435020E+02  0.41800000000E+01 0. -1.
         -5    1    1    2    0  502  0.34959714126E+02  0.95866332372E+01 -0.95811423192E+02  0.10252505237E+03  0.41800000000E+01 0. -1.
        -11    1    3    3    0    0 -0.53696703769E+02 -0.51091801959E+00 -0.14006997177E+03  0.15001064637E+03  0.00000000000E+00 0.  1.
         11    1    3    3    0    0 -0.50569219944E+01  0.19281525708E+02  0.72510605013E+01  0.21211496224E+02  0.00000000000E+00 0. -1.
</event>
<event>
 7    1  0.6610867E-006  0.8707155E+02  0.7561462E-02  0.1310102E+00
          4   -1    0    0  501    0  0.00000000000E+00  0.00000000000E+00  0.16709345536E+03  0.16709345536E+03  0.00000000000E+00 0.  1.
         -4   -1    0    0    0  501 -0.00000000000E+00 -0.00000000000E+00 -0.88919549802E+02  0.88919549802E+02  0.00000000000E+00 0. -1.
         23    2    1    2    0    0  0.13987109874E+02  0.39674813063E+01  0.16866312430E+02  0.11595084400E+03  0.11379255503E+03 0.  0.
          5    1    1    2  502    0 -0.13021937783E+02 -0.63499793094E+02  0.21937336550E+02  0.68560292601E+02  0.41800000000E+01 0.  1.
         -5    1    1    2    0  502 -0.96517209091E+00  0.59532311788E+02  0.39370256577E+02  0.71501868556E+02  0.41800000000E+01 0.  1.
        -11    1    3    3    0    0  0.27981264607E+02  0.14937844469E+02  0.60788237842E+02  0.68566028223E+02  0.00000000000E+00 0.  1.
         11    1    3    3    0    0 -0.13994154733E+02 -0.10970363163E+02 -0.43921925412E+02  0.47384815780E+02  0.00000000000E+00 0. -1.
</event>
<event>
 7    1  0.6610867E-006  0.1585753E+03  0.7561462E-02  0.1190315E+00
         -1   -1    0    0    0  501 -0.00000000000E+00  0.00000000000E+00  0.40214865442E+02  0.40214865442E+02  0.00000000000E+00 0.  1.
          1   -1    0    0  501    0  0.00000000000E+00 -0.00000000000E+00 -0.90264945258E+03  0.90264945258E+03  0.00000000000E+00 0. -1.
         23    2    1    2    0    0 -0.12148683748E+03 -0.46277656818E+02 -0.19354990375E+03  0.25007685028E+03  0.90422301458E+02 0.  0.
          5    1    1    2  502    0  0.12660346680E+03  0.76760112422E+02 -0.52071941880E+03  0.54137485921E+03  0.41800000000E+01 0. -1.
         -5    1    1    2    0  502 -0.51166293226E+01 -0.30482455604E+02 -0.14816526458E+03  0.15141260853E+03  0.41800000000E+01 0. -1.
        -11    1    3    3    0    0 -0.61164557712E+02 -0.47607290644E+02 -0.44726640899E+02  0.89487594943E+02  0.00000000000E+00 0.  1.
         11    1    3    3    0    0 -0.60322279765E+02  0.13296338261E+01 -0.14882326286E+03  0.16058925534E+03  0.00000000000E+00 0. -1.
</event>
<event>
 7    1  0.6610867E-006  0.1452242E+03  0.7561462E-02  0.1206467E+00
         -1   -1    0    0    0  501 -0.00000000000E+00  0.00000000000E+00  0.17070830572E+03  0.17070830572E+03  0.00000000000E+00 0.  1.
          1   -1    0    0  501    0  0.00000000000E+00 -0.00000000000E+00 -0.14470058126E+03  0.14470058126E+03  0.00000000000E+00 0. -1.
         23    2    1    2    0    0  0.74846471153E+02 -0.68843279792E+02  0.61641612108E+02  0.15030714530E+03  0.91930180944E+02 0.  0.
          5    1    1    2  502    0 -0.10655422865E+03  0.54912908106E+02 -0.73106449483E+01  0.12016717127E+03  0.41800000000E+01 0.  1.
         -5    1    1    2    0  502  0.31707757500E+02  0.13930371685E+02 -0.28323242705E+02  0.44934570414E+02  0.41800000000E+01 0.  1.
        -11    1    3    3    0    0  0.88555704607E+02 -0.28528362113E+02  0.52236361106E+02  0.10669872391E+03  0.00000000000E+00 0. -1.
         11    1    3    3    0    0 -0.13709233454E+02 -0.40314917679E+02  0.94052510016E+01  0.43608421386E+02  0.00000000000E+00 0.  1.
</event>
<event>
 7    1  0.6610867E-006  0.1205368E+03  0.7561462E-02  0.1242214E+00
          2   -1    0    0  501    0  0.00000000000E+00  0.00000000000E+00  0.57647149578E+03  0.57647149578E+03  0.00000000000E+00 0. -1.
         -2   -1    0    0    0  501 -0.00000000000E+00 -0.00000000000E+00 -0.36956937585E+02  0.36956937585E+02  0.00000000000E+00 0.  1.
         23    2    1    2    0    0 -0.76377908915E+02  0.21939931539E+02  0.12850348229E+03  0.17651565434E+03  0.91267111820E+02 0.  0.
          5    1    1    2  502    0 -0.15475970921E+02  0.29880175712E+02  0.17674298025E+03  0.17996634142E+03  0.41800000000E+01 0.  1.
         -5    1    1    2    0  502  0.91853879835E+02 -0.51820107251E+02  0.23426809565E+03  0.25694643760E+03  0.41800000000E+01 0.  1.
        -11    1    3    3    0    0 -0.48758334418E+02  0.44457494564E+02  0.12417613056E+03  0.14061847460E+03  0.00000000000E+00 0. -1.
         11    1    3    3    0    0 -0.27619574497E+02 -0.22517563026E+02  0.43273517260E+01  0.35897179735E+02  0.00000000000E+00 0.  1.
</event>
<event>
 7    1  0.6610867E-006  0.1169337E+03  0.7561462E-02  0.1248243E+00
         -2   -1    0    0    0  501 -0.00000000000E+00  0.00000000000E+00  0.19337127779E+03  0.19337127779E+03  0.00000000000E+00 0.  1.
          2   -1    0    0  501    0  0.00000000000E+00 -0.00000000000E+00 -0.42078312074E+03  0.42078312074E+03  0.00000000000E+00 0. -1.
         23    2    1    2    0    0 -0.89387036141E+02  0.12380065164E+02  0.13202015194E+03  0.18389664984E+03  0.90803904431E+02 0.  0.
          5    1    1    2  502    0  0.74021879570E+02  0.22733328831E+02 -0.37911785293E+03  0.38696752022E+03  0.41800000000E+01 0. -1.
         -5    1    1    2    0  502  0.15365156571E+02 -0.35113393994E+02  0.19685858045E+02  0.43290228473E+02  0.41800000000E+01 0.  1.
        -11    1    3    3    0    0 -0.89831102644E+02 -0.14403130684E+02  0.12765355200E+03  0.15675620088E+03  0.00000000000E+00 0.  1.
         11    1    3    3    0    0  0.44406650251E+00  0.26783195847E+02  0.43665999442E+01  0.27140448963E+02  0.00000000000E+00 0. -1.
</event>
<event>
 7    1  0.6610867E-006  0.6968916E+02  0.7561462E-02  0.1361153E+00
         -1   -1    0    0    0  501 -0.00000000000E+00  0.00000000000E+00  0.30178418721E+02  0.30178418721E+02  0.00000000000E+00 0.  1.
          1   -1    0    0  501    0  0.00000000000E+00 -0.00000000000E+00 -0.48955307839E+03  0.48955307839E+03  0.00000000000E+00 0. -1.
         23    2    1    2    0    0 -0.33075525419E+02  0.24672485153E+02 -0.13077475243E+03  0.16571342526E+03  0.93038602379E+02 0.  0.
          5    1    1    2  502    0  0.11288308642E+02 -0.51072741333E+02 -0.47398743870E+02  0.70710424548E+02  0.41800000000E+01 0.  1.
         -5    1    1    2    0  502  0.21787216776E+02  0.26400256180E+02 -0.28120116337E+03  0.28330764730E+03  0.41800000000E+01 0.  1.
        -11    1    3    3    0    0  0.48239198532E+01  0.11208474597E+02  0.12160525649E+02  0.17227260072E+02  0.00000000000E+00 0.  1.
         11    1    3    3    0    0 -0.37899445272E+02  0.13464010556E+02 -0.14293527808E+03  0.14848616519E+03  0.00000000000E+00 0. -1.
</event>
<event>
 7    1  0.6610867E-006  0.2831723E+03  0.7561462E-02  0.1093969E+00
          2   -1    0    0  501    0  0.00000000000E+00  0.00000000000E+00  0.14818245486E+04  0.14818245486E+04  0.00000000000E+00 0. -1.
         -2   -1    0    0    0  501 -0.00000000000E+00 -0.00000000000E+00 -0.57278228322E+02  0.57278228322E+02  0.00000000000E+00 0.  1.
         23    2    1    2    0    0  0.35222177908E+01 -0.26146617576E+03  0.51977447445E+03  0.58903033925E+03  0.91729325638E+02 0.  0.
          5    1    1    2  502    0  0.16170076019E+02 -0.85701386455E+01  0.48588784309E+02  0.52088971918E+02  0.41800000000E+01 0.  1.
         -5    1    1    2    0  502 -0.19692293810E+02  0.27003631441E+03  0.85618306156E+03  0.89798346579E+03  0.41800000000E+01 0.  1.
        -11    1    3    3    0    0  0.45208527635E+02 -0.17575067952E+03  0.35415822698E+03  0.39794492340E+03  0.00000000000E+00 0. -1.
         11    1    3    3    0    0 -0.41686309845E+02 -0.85715496247E+02  0.16561624747E+03  0.19108541585E+03  0.00000000000E+00 0.  1.
</event>
<event>
 7    1  0.6610867E-006  0.9296510E+02  0.7561462E-02  0.1295826E+00
          2   -1    0    0  501    0  0.00000000000E+00  0.00000000000E+00  0.84838322410E+03  0.84838322410E+03  0.00000000000E+00 0. -1.
         -2   -1    0    0    0  501 -0.00000000000E+00 -0.00000000000E+00 -0.25920744571E+02  0.25920744571E+02  0.00000000000E+00 0.  1.
         23    2    1    2    0    0  0.59043658009E+02 -0.66082600911E+02  0.22571728405E+03  0.25818126013E+03  0.88635247346E+02 0.  0.
          5    1    1    2  502    0 -0.32730267702E+02  0.95695432201E+01  0.29025876432E+02  0.44975776635E+02  0.41800000000E+01 0.  1.
         -5    1    1    2    0  502 -0.26313390307E+02  0.56513057691E+02  0.56771931905E+03  0.57114693190E+03  0.41800000000E+01 0.  1.
        -11    1    3    3    0    0  0.34575571085E+02 -0.31789945414E+02  0.25230755901E+02  0.53316618316E+02  0.00000000000E+00 0.  1.
         11    1    3    3    0    0  0.24468086924E+02 -0.34292655497E+02  0.20048652815E+03  0.20486464182E+03  0.00000000000E+00 0. -1.
</event>
<event>
 7    1  0.6610867E-006  0.1711908E+03  0.7561462E-02  0.1176612E+00
          1   -1    0    0  501    0  0.00000000000E+00  0.00000000000E+00  0.13627095228E+04  0.13627095228E+04  0.00000000000E+00 0. -1.
         -1   -1    0    0    0  501 -0.00000000000E+00 -0.00000000000E+00 -0.25792138095E+02  0.25792138095E+02  0.00000000000E+00 0.  1.
         23    2    1    2    0    0  0.12388406613E+03  0.76923064323E+02  0.47341128891E+03  0.50388019150E+03  0.92263639897E+02 0.  0.
          5    1    1    2  502    0 -0.13318279508E+03 -0.93791062786E+02  0.82918018280E+03  0.84503944778E+03  0.41800000000E+01 0.  1.
         -5    1    1    2    0  502  0.92987289489E+01  0.16867998463E+02  0.34325913004E+02  0.39582021623E+02  0.41800000000E+01 0.  1.
        -11    1    3    3    0    0  0.82310566346E+02  0.12794155959E+02  0.34070674913E+03  0.35074179771E+03  0.00000000000E+00 0. -1.
         11    1    3    3    0    0  0.41573499788E+02  0.64128908364E+02  0.13270453978E+03  0.15313839379E+03  0.00000000000E+00 0.  1.
</event>
<event>
 7    1  0.6610867E-006  0.9260251E+02  0.7561462E-02  0.1296669E+00
          2   -1    0    0  501    0  0.00000000000E+00  0.00000000000E+00  0.11333539231E+04  0.11333539231E+04  0.00000000000E+00 0. -1.
         -2   -1    0    0    0  501 -0.00000000000E+00 -0.00000000000E+00 -0.16999536884E+02  0.16999536884E+02  0.00000000000E+00 0.  1.
         23    2    1    2    0    0 -0.14753488310E+02  0.61502926529E+02  0.26313602920E+03  0.28569761993E+03  0.91554818471E+02 0.  0.
          5    1    1    2  502    0 -0.10270205851E+02 -0.39213224953E+02  0.72189683649E+02  0.82897388166E+02  0.41800000000E+01 0. -1.
         -5    1    1    2    0  502  0.25023694161E+02 -0.22289701576E+02  0.78102867341E+03  0.78175845192E+03  0.41800000000E+01 0. -1.
        -11    1    3    3    0    0  0.27038547456E+02 -0.91927290951E+01  0.55654202449E+02  0.62553813369E+02  0.00000000000E+00 0. -1.
         11    1    3    3    0    0 -0.41792035766E+02  0.70695655624E+02  0.20748182675E+03  0.22314380656E+03  0.00000000000E+00 0.  1.
</event>
<event>
 7    1  0.6610867E-006  0.1306204E+03  0.7561462E-02  0.1226538E+00
         -1   -1    0    0    0  501 -0.00000000000E+00  0.00000000000E+00  0.11490177540E+03  0.11490177540E+03  0.00000000000E+00 0.  1.
          1   -1    0    0  501    0  0.00000000000E+00 -0.00000000000E+00 -0.17485851346E+03  0.17485851346E+03  0.00000000000E+00 0. -1.
         23    2    1    2    0    0  0.83817598122E+02 -0.18329218982E+02  0.60142683570E+01  0.12434818881E+03  0.89805070091E+02 0.  0.
          5    1    1    2  502    0 -0.61408777310E+02  0.70175759151E+02 -0.28875040612E+02  0.97708318343E+02  0.41800000000E+01 0.  1.
         -5    1    1    2    0  502 -0.22408820811E+02 -0.51846540169E+02 -0.37095965801E+02  0.67703781699E+02  0.41800000000E+01 0.  1.
        -11    1    3    3    0    0  0.56871738452E+02 -0.45620206981E+02  0.30299817750E+02  0.78953637504E+02  0.00000000000E+00 0.  1.
         11    1    3    3    0    0  0.26945859670E+02  0.27290987998E+02 -0.24285549393E+02  0.45394551309E+02  0.00000000000E+00 0. -1.
</event>
<event>
 7    1  0.6610867E-006  0.1304008E+03  0.7561462E-02  0.1226862E+00
          1   -1    0    0  501    0  0.00000000000E+00  0.00000000000E+00  0.99916614401E+02  0.99916614401E+02  0.00000000000E+00 0. -1.
         -1   -1    0    0    0  501 -0.00000000000E+00 -0.00000000000E+00 -0.19204001318E+03  0.19204001318E+03  0.00000000000E+00 0.  1.
         23    2    1    2    0    0  0.66117234012E+02  0.46813874836E+02 -0.71826579122E+02  0.14154865357E+03  0.91180789367E+02 0.  0.
          5    1    1    2  502    0 -0.26481064722E+02 -0.84547428119E+02 -0.31995372447E+02  0.94290458947E+02  0.41800000000E+01 0.  1.
         -5    1    1    2    0  502 -0.39636169290E+02  0.37733553283E+02  0.11698552788E+02  0.56117515062E+02  0.41800000000E+01 0.  1.
        -11    1    3    3    0    0  0.68654792721E+02 -0.16658093279E+01 -0.22318560066E+02  0.72210619771E+02  0.00000000000E+00 0. -1.
         11    1    3    3    0    0 -0.25375587089E+01  0.48479684164E+02 -0.49508019056E+02  0.69338033803E+02  0.00000000000E+00 0.  1.
</event>
<event>
 7    1  0.6610867E-006  0.9906680E+02  0.7561462E-02  0.1282271E+00
         -1   -1    0    0    0  501 -0.00000000000E+00  0.00000000000E+00  0.31962700296E+02  0.31962700296E+02  0.00000000000E+00 0.  1.
          1   -1    0    0  501    0  0.00000000000E+00 -0.00000000000E+00 -0.63102863831E+03  0.63102863831E+03  0.00000000000E+00 0. -1.
         23    2    1    2    0    0 -0.69386286484E+02  0.19447290736E+02 -0.14679557194E+03  0.18824042007E+03  0.93235518642E+02 0.  0.
          5    1    1    2  502    0  0.44217749137E+02  0.17267538930E+02 -0.41147999299E+03  0.41423017064E+03  0.41800000000E+01 0.  1.
         -5    1    1    2    0  502  0.25168537347E+02 -0.36714829665E+02 -0.40790373083E+02  0.60520747895E+02  0.41800000000E+01 0.  1.
        -11    1    3    3    0    0 -0.39342263562E+02  0.49530859853E+02 -0.12583275045E+03  0.14083678804E+03  0.00000000000E+00 0. -1.
         11    1    3    3    0    0 -0.30044022922E+02 -0.30083569118E+02 -0.20962821488E+02  0.47403632023E+02  0.00000000000E+00 0.  1.
</event>
<event>
 7    1  0.6610867E-006  0.1294239E+03  0.7561462E-02  0.1228313E+00
          2   -1    0    0  501    0  0.00000000000E+00  0.00000000000E+00  0.10286840591E+04  0.10286840591E+04  0.00000000000E+00 0. -1.
         -2   -1    0    0    0  501 -0.00000000000E+00 -0.00000000000E+00 -0.26393069301E+02  0.26393069301E+02  0.00000000000E+00 0.  1.
         23    2    1    2    0    0 -0.67696806273E+02 -0.20459976810E+02  0.14305071206E+03  0.18390710428E+03  0.91415800348E+02 0.  0.
          5    1    1    2  502    0  0.10381160420E+03  0.24788961827E+02  0.61660484109E+03  0.62578777892E+03  0.41800000000E+01 0.  1.
         -5    1    1    2    0  502 -0.36114797923E+02 -0.43289850168E+01  0.24263543663E+03  0.24538224518E+03  0.41800000000E+01 0.  1.
        -11    1    3    3    0    0 -0.54976575744E+02 -0.55515694618E+02  0.10122112865E+03  0.12786763905E+03  0.00000000000E+00 0. -1.
         11    1    3    3    0    0 -0.12720230530E+02  0.35055717808E+02  0.41829583411E+02  0.56039465238E+02  0.00000000000E+00 0.  1.
</event>
<event>
 7    1  0.6610867E-006  0.2088017E+03  0.7561462E-02  0.1142518E+00
          2   -1    0    0  501    0  0.00000000000E+00  0.00000000000E+00  0.43468840924E+03  0.43468840924E+03  0.00000000000E+00 0. -1.
         -2   -1    0    0    0  501 -0.00000000000E+00 -0.00000000000E+00 -0.10495568542E+03  0.10495568542E+03  0.00000000000E+00 0.  1.
         23    2    1    2    0    0 -0.12983429933E+03 -0.12926134168E+03  0.17022933541E+03  0.26643240215E+03  0.91884484784E+02 0.  0.
          5    1    1    2  502    0  0.53038638921E+02  0.13324499368E+03  0.11776329097E+03  0.18561516818E+03  0.41800000000E+01 0. -1.
         -5    1    1    2    0  502  0.76795660405E+02 -0.39836519925E+01  0.41740097438E+02  0.87596524328E+02  0.41800000000E+01 0. -1.
        -11    1    3    3    0    0 -0.91261066140E+02 -0.39546420347E+02  0.49339741858E+02  0.11102662600E+03  0.00000000000E+00 0.  1.
         11    1    3    3    0    0 -0.38573233185E+02 -0.89714921338E+02  0.12088959356E+03  0.15540577614E+03  0.00000000000E+00 0. -1.
</event>
<event>
 7    1  0.6610867E-006  0.5779106E+02  0.7561462E-02  0.1407343E+00
         -2   -1    0    0    0  501 -0.00000000000E+00  0.00000000000E+00  0.25857176174E+02  0.25857176174E+02  0.00000000000E+00 0.  1.
          2   -1    0    0  501    0  0.00000000000E+00 -0.00000000000E+00 -0.82237063945E+03  0.82237063945E+03  0.00000000000E+00 0. -1.
         23    2    1    2    0    0 -0.11611563000E+01  0.92587047589E+01 -0.83459440209E+02  0.12422345220E+03  0.91536419087E+02 0.  0.
          5    1    1    2  502    0 -0.58281379497E+01  0.22539623265E+02 -0.66716407360E+03  0.66758323475E+03  0.41800000000E+01 0.  1.
         -5    1    1    2    0  502  0.69892942497E+01 -0.31798328024E+02 -0.45889949465E+02  0.56421128677E+02  0.41800000000E+01 0.  1.
        -11    1    3    3    0    0  0.92692902793E+01  0.32411266919E+02  0.32548713408E+01  0.33867449757E+02  0.00000000000E+00 0.  1.
         11    1    3    3    0    0 -0.10430446579E+02 -0.23152562160E+02 -0.86714311550E+02  0.90356002446E+02  0.00000000000E+00 0. -1.
</event>
<event>
 7    1  0.6610867E-006  0.1283724E+03  0.7561462E-02  0.1229891E+00
         -2   -1    0    0    0  501 -0.00000000000E+00  0.00000000000E+00  0.48555827306E+02  0.48555827306E+02  0.00000000000E+00 0.  1.
          2   -1    0    0  501    0  0.00000000000E+00 -0.00000000000E+00 -0.55395863935E+03  0.55395863935E+03  0.00000000000E+00 0. -1.
         23    2    1    2    0    0 -0.57841949971E+02 -0.54371261296E+02 -0.64197593270E+02  0.13709943058E+03  0.91504085435E+02 0.  0.
          5    1    1    2  502    0  0.63994666708E+02  0.90634998810E+02 -0.33829307101E+03  0.35604732083E+03  0.41800000000E+01 0. -1.
         -5    1    1    2    0  502 -0.61527167373E+01 -0.36263737514E+02 -0.10291214776E+03  0.10936771525E+03  0.41800000000E+01 0. -1.
        -11    1    3    3    0    0 -0.75349045762E+02 -0.36663024273E+02 -0.19656193294E+02  0.86069866858E+02  0.00000000000E+00 0.  1.
         11    1    3    3    0    0  0.17507095791E+02 -0.17708237023E+02 -0.44541399976E+02  0.51029563718E+02  0.00000000000E+00 0. -1.
</event>
<event>
 7    1  0.6610867E-006  0.1981699E+03  0.7561462E-02  0.1151292E+00
          2   -1    0    0  501    0  0.00000000000E+00  0.00000000000E+00  0.17638866894E+03  0.17638866894E+03  0.00000000000E+00 0. -1.
         -2   -1    0    0    0  501 -0.00000000000E+00 -0.00000000000E+00 -0.37093202415E+03  0.37093202415E+03  0.00000000000E+00 0.  1.
         23    2    1    2    0    0 -0.87124510173E+02 -0.16029290743E+03 -0.24608543149E+03  0.32018859825E+03  0.93156869902E+02 0.  0.
          5    1    1    2  502    0  0.57730685604E+02  0.40454061551E+02 -0.32544080063E+02  0.77755724570E+02  0.41800000000E+01 0.  1.
         -5    1    1    2    0  502  0.29393824569E+02  0.11983884588E+03  0.84086156345E+02  0.14937637027E+03  0.41800000000E+01 0.  1.
        -11    1    3    3    0    0 -0.10432096525E+03 -0.12361558445E+03 -0.17450274155E+03  0.23793882264E+03  0.00000000000E+00 0. -1.
         11    1    3    3    0    0  0.17196455081E+02 -0.36677322978E+02 -0.71582689942E+02  0.82249775608E+02  0.00000000000E+00 0.  1.
</event>
<event>
 7    1  0.6610867E-006  0.8428432E+02  0.7561462E-02  0.1317315E+00
          2   -1    0    0  501    0  0.00000000000E+00  0.00000000000E+00  0.12361873325E+04  0.12361873325E+04  0.00000000000E+00 0. -1.
         -2   -1    0    0    0  501 -0.00000000000E+00 -0.00000000000E+00 -0.11821665525E+02  0.11821665525E+02  0.00000000000E+00 0.  1.
         23    2    1    2    0    0 -0.59340550356E+02  0.16073839324E+01  0.36729214752E+03  0.37982322819E+03  0.76408628065E+02 0.  0.
          5    1    1    2  502    0 -0.56971241996E+01  0.73954700925E-01 -0.14306194973E+01  0.72098381112E+01  0.41800000000E+01 0.  1.
         -5    1    1    2    0  502  0.65037674556E+02 -0.16813386334E+01  0.85850413897E+03  0.86097593174E+03  0.41800000000E+01 0.  1.
        -11    1    3    3    0    0 -0.68046431889E+02 -0.21704543226E+02  0.25553393919E+03  0.26532809532E+03  0.00000000000E+00 0.  1.
         11    1    3    3    0    0  0.87058815329E+01  0.23311927159E+02  0.11175820834E+03  0.11449513287E+03  0.00000000000E+00 0. -1.
</event>
<event>
 7    1  0.6610867E-006  0.9042837E+02  0.7561462E-02  0.1301818E+00
         -1   -1    0    0    0  501 -0.00000000000E+00  0.00000000000E+00  0.29286163322E+02  0.29286163322E+02  0.00000000000E+00 0.  1.
          1   -1    0    0  501    0  0.00000000000E+00 -0.00000000000E+00 -0.81761163957E+03  0.81761163957E+03  0.00000000000E+00 0. -1.
         23    2    1    2    0    0  0.68972606544E+02 -0.18751833867E+02 -0.12414920587E+03  0.16942740048E+03  0.90464175171E+02 0.  0.
          5    1    1    2  502    0 -0.48581861219E+02  0.34659593879E+02 -0.63670784604E+03  0.63951218776E+03  0.41800000000E+01 0. -1.
         -5    1    1    2    0  502 -0.20390745325E+02 -0.15907760012E+02 -0.27468424339E+02  0.37958214647E+02  0.41800000000E+01 0.  1.
        -11    1    3    3    0    0  0.79258884325E+02 -0.75360588817E+01 -0.50633724552E+02  0.94353256382E+02  0.00000000000E+00 0.  1.
         11    1    3    3    0    0 -0.10286277781E+02 -0.11215774985E+02 -0.73515481316E+02  0.75074144099E+02  0.00000000000E+00 0. -1.
</event>
<event>
 7    1  0.6610867E-006  0.1065067E+03  0.7561462E-02  0.1267179E+00
          1   -1    0    0  501    0  0.00000000000E+00  0.00000000000E+00  0.68852198224E+03  0.68852198224E+03  0.00000000000E+00 0. -1.
         -1   -1    0    0    0  501 -0.00000000000E+00 -0.00000000000E+00 -0.25748827599E+02  0.25748827599E+02  0.00000000000E+00 0.  1.
         23    2    1    2    0    0  0.35590712847E+02 -0.52330670002E+02  0.17756711771E+03  0.20921790816E+03  0.90757115092E+02 0.  0.
          5    1    1    2  502    0 -0.53652701061E+02 -0.12693529269E+02  0.10290843984E+03  0.11682190465E+03  0.41800000000E+01 0.  1.
         -5    1    1    2    0  502  0.18061988214E+02  0.65024199271E+02  0.38229759710E+03  0.38823099703E+03  0.41800000000E+01 0.  1.
        -11    1    3    3    0    0 -0.15843078004E+02 -0.30219466836E+02  0.14984435768E+02  0.37265971231E+02  0.00000000000E+00 0.  1.
         11    1    3    3    0    0  0.51433790851E+02 -0.22111203166E+02  0.16258268194E+03  0.17195193693E+03  0.00000000000E+00 0. -1.
</event>
<event>
 7    1  0.6610867E-006  0.7246255E+02  0.7561462E-02  0.1351914E+00
         -2   -1    0    0    0  501 -0.00000000000E+00  0.00000000000E+00  0.26452559172E+02  0.26452559172E+02  0.00000000000E+00 0.  1.
          2   -1    0    0  501    0  0.00000000000E+00 -0.00000000000E+00 -0.96613719429E+03  0.96613719429E+03  0.00000000000E+00 0. -1.
         23    2    1    2    0    0 -0.57129077162E+02 -0.39205342746E+02 -0.14448688971E+03  0.18463454559E+03  0.91720574404E+02 0.  0.
          5    1    1    2  502    0  0.33061855367E+02  0.28700117653E+02 -0.77021482325E+03  0.77146946109E+03  0.41800000000E+01 0.  1.
         -5    1    1    2    0  502  0.24067221795E+02  0.10505225093E+02 -0.24982922153E+02  0.36485746785E+02  0.41800000000E+01 0.  1.
        -11    1    3    3    0    0 -0.85072910831E+01 -0.20611990483E+02  0.78570880163E+01  0.23642376897E+02  0.00000000000E+00 0.  1.
         11    1    3    3    0    0 -0.48621786079E+02 -0.18593352262E+02 -0.15234397773E+03  0.16099216869E+03  0.00000000000E+00 0. -1.
</event>
<event>
 7    1  0.6610867E-006  0.7577230E+02  0.7561462E-02  0.1341496E+00
          1   -1    0    0  501    0  0.00000000000E+00  0.00000000000E+00  0.93525889327E+03  0.93525889327E+03  0.00000000000E+00 0. -1.
         -1   -1    0    0    0  501 -0.00000000000E+00 -0.00000000000E+00 -0.19981452401E+02  0.19981452401E+02  0.00000000000E+00 0.  1.
         23    2    1    2    0    0 -0.36402332022E+02  0.26992460486E+02  0.17405306721E+03  0.20217013160E+03  0.92328593655E+02 0.  0.
          5    1    1    2  502    0 -0.13550430765E+01  0.22782661415E+02  0.57461578967E+03  0.57508404946E+03  0.41800000000E+01 0.  1.
         -5    1    1    2    0  502  0.37757375099E+02 -0.49775121901E+02  0.16660858399E+03  0.17798616461E+03  0.41800000000E+01 0.  1.
        -11    1    3    3    0    0 -0.14723368890E+02  0.38474186087E+02  0.17276071440E+03  0.17760434968E+03  0.00000000000E+00 0. -1.
         11    1    3    3    0    0 -0.21678963132E+02 -0.11481725601E+02  0.12923528069E+01  0.24565781914E+02  0.00000000000E+00 0.  1.
</event>
<event>
 7    1  0.6610867E-006  0.2190386E+03  0.7561462E-02  0.1134602E+00
          2   -1    0    0  501    0  0.00000000000E+00  0.00000000000E+00  0.11858141496E+04  0.11858141496E+04  0.00000000000E+00 0. -1.
         -2   -1    0    0    0  501 -0.00000000000E+00 -0.00000000000E+00 -0.42565877106E+02  0.42565877106E+02  0.00000000000E+00 0.  1.
         23    2    1    2    0    0  0.16416884616E+03 -0.10485136837E+03  0.61383183896E+03  0.65056109383E+03  0.92168274277E+02 0.  0.
          5    1    1    2  502    0 -0.17725860347E+03  0.10915638930E+03  0.43445653891E+03  0.48177348041E+03  0.41800000000E+01 0.  1.
         -5    1    1    2    0  502  0.13089757313E+02 -0.43050209321E+01  0.94959894668E+02  0.96045452506E+02  0.41800000000E+01 0.  1.
        -11    1    3    3    0    0  0.14108305989E+03 -0.40027670915E+02  0.42335116426E+03  0.44803220030E+03  0.00000000000E+00 0.  1.
         11    1    3    3    0    0  0.23085786277E+02 -0.64823697453E+02  0.19048067470E+03  0.20252889353E+03  0.00000000000E+00 0. -1.
</event>
<event>
 6    1  0.6610867E-006  0.1025181E+03  0.7561462E-02  0.1275088E+00
         -1   -1    0    0    0  501 -0.00000000000E+00  0.00000000000E+00  0.28139789636E+02  0.28139789636E+02  0.00000000000E+00 0.  1.
          1   -1    0    0  501    0  0.00000000000E+00 -0.00000000000E+00 -0.74591878263E+03  0.74591878263E+03  0.00000000000E+00 0. -1.
          5    1    1    2  502    0  0.70324394462E+01  0.28248431410E+02 -0.36405472633E+03  0.36524066757E+03  0.41800000000E+01 0.  1.
         -5    1    1    2    0  502  0.29993309955E+02 -0.70958723824E+01 -0.11958301702E+02  0.33323016468E+02  0.41800000000E+01 0.  1.
        -11    1    1    2    0    0 -0.88710735356E+02 -0.87647611939E-01 -0.13663903110E+03  0.16291048791E+03  0.00000000000E+00 0.  1.
         11    1    1    2    0    0  0.51684985954E+02 -0.21064911416E+02 -0.20512693386E+03  0.21258440033E+03  0.00000000000E+00 0. -1.
</event>
<event>
 7    1  0.6610867E-006  0.1076686E+03  0.7561462E-02  0.1264949E+00
         -1   -1    0    0    0  501 -0.00000000000E+00  0.00000000000E+00  0.10837829057E+02  0.10837829057E+02  0.00000000000E+00 0.  1.
          1   -1    0    0  501    0  0.00000000000E+00 -0.00000000000E+00 -0.14794661162E+04  0.14794661162E+04  0.00000000000E+00 0. -1.
         23    2    1    2    0    0 -0.20227055570E+02 -0.29716772047E+02 -0.30797244982E+03  0.32237375660E+03  0.88235983441E+02 0.  0.
          5    1    1    2  502    0  0.51055899373E+02 -0.32443135367E+02 -0.53686562187E+03  0.54027902998E+03  0.41800000000E+01 0. -1.
         -5    1    1    2    0  502 -0.30828843803E+02  0.62159907414E+02 -0.62379021544E+03  0.62765115867E+03  0.41800000000E+01 0. -1.
        -11    1    3    3    0    0  0.20601186766E+02  0.14358027567E+02 -0.36310234622E+02  0.44147423369E+02  0.00000000000E+00 0. -1.
         11    1    3    3    0    0 -0.40828242336E+02 -0.44074799614E+02 -0.27166221520E+03  0.27822633323E+03  0.00000000000E+00 0.  1.
</event>
<event>
 7    1  0.6610867E-006  0.1316445E+03  0.7561462E-02  0.1225036E+00
         -2   -1    0    0    0  501 -0.00000000000E+00  0.00000000000E+00  0.18000119686E+03  0.18000119686E+03  0.00000000000E+00 0.  1.
          2   -1    0    0  501    0  0.00000000000E+00 -0.00000000000E+00 -0.14247421096E+03  0.14247421096E+03  0.00000000000E+00 0. -1.
         23    2    1    2    0    0 -0.34367030621E+02  0.80143768367E+02  0.10560346657E+03  0.16559082173E+03  0.93081210185E+02 0.  0.
          5    1    1    2  502    0 -0.55393885494E+01 -0.93362446130E+02 -0.66079321604E+02  0.11459136231E+03  0.41800000000E+01 0. -1.
         -5    1    1    2    0  502  0.39906419171E+02  0.13218677763E+02 -0.19971590668E+01  0.42293223773E+02  0.41800000000E+01 0.  1.
        -11    1    3    3    0    0 -0.64383683087E+02  0.71436616547E+02  0.82791938578E+02  0.12689741497E+03  0.00000000000E+00 0.  1.
         11    1    3    3    0    0  0.30016652466E+02  0.87071518203E+01  0.22811527991E+02  0.38693406768E+02  0.00000000000E+00 0. -1.
</event>
<event>
 7    1  0.6610867E-006  0.1053049E+03  0.7561462E-02  0.1269520E+00
          1   -1    0    0  501    0  0.00000000000E+00  0.00000000000E+00  0.79261174208E+02  0.79261174208E+02  0.00000000000E+00 0. -1.
         -1   -1    0    0    0  501 -0.00000000000E+00 -0.00000000000E+00 -0.47201615888E+03  0.47201615888E+03  0.00000000000E+00 0.  1.
         23    2    1    2    0    0  0.22427856928E+02  0.39005975056E+02 -0.40608472350E+03  0.41766226565E+03  0.86674625075E+02 0.  0.
          5    1    1    2  502    0 -0.18414714087E+02  0.34762254798E+02  0.38748518707E+02  0.55375411109E+02  0.41800000000E+01 0.  1.
         -5    1    1    2    0  502 -0.40131428409E+01 -0.73768229854E+02 -0.25418779872E+02  0.78239656322E+02  0.41800000000E+01 0.  1.
        -11    1    3    3    0    0 -0.31051101865E+02  0.29318200824E+02 -0.15597797414E+03  0.16171844744E+03  0.00000000000E+00 0.  1.
         11    1    3    3    0    0  0.53478958793E+02  0.96877742313E+01 -0.25010674936E+03  0.25594381821E+03  0.00000000000E+00 0. -1.
</event>
<event>
 7    1  0.6610867E-006  0.1081832E+03  0.7561462E-02  0.1263972E+00
         -2   -1    0    0    0  501 -0.00000000000E+00  0.00000000000E+00  0.25615617679E+02  0.25615617679E+02  0.00000000000E+00 0.  1.
          2   -1    0    0  501    0  0.00000000000E+00 -0.00000000000E+00 -0.90625333143E+03  0.90625333143E+03  0.00000000000E+00 0. -1.
         23    2    1    2    0    0  0.39782599674E+02  0.34339055899E+02 -0.12683822414E+03  0.16595579107E+03  0.93228555126E+02 0.  0.
          5    1    1    2  502    0 -0.74053510415E+02 -0.25791302719E+02 -0.28066522492E+03  0.29144391327E+03  0.41800000000E+01 0. -1.
         -5    1    1    2    0  502  0.34270910741E+02 -0.85477531796E+01 -0.47313426469E+03  0.47446924476E+03  0.41800000000E+01 0. -1.
        -11    1    3    3    0    0  0.52549402235E+02  0.56209388103E+02 -0.71241186442E+02  0.10486296597E+03  0.00000000000E+00 0.  1.
         11    1    3    3    0    0 -0.12766802561E+02 -0.21870332204E+02 -0.55597037696E+02  0.61092825102E+02  0.00000000000E+00 0. -1.
</event>
<event>
 7    1  0.6610867E-006  0.9806581E+02  0.7561462E-02  0.1284417E+00
         -1   -1    0    0    0  501 -0.00000000000E+00  0.00000000000E+00  0.67886516088E+01  0.67886516088E+01  0.00000000000E+00 0.  1.
          1   -1    0    0  501    0  0.00000000000E+00 -0.00000000000E+00 -0.19407441896E+04  0.19407441896E+04  0.00000000000E+00 0. -1.
         23    2    1    2    0    0 -0.10521842497E+02  0.10269800833E+02 -0.52497166121E+03  0.53308826588E+03  0.91496864261E+02 0.  0.
          5    1    1    2  502    0  0.31156072682E+02  0.38878469915E+02 -0.10789421577E+04  0.10800999437E+04  0.41800000000E+01 0. -1.
         -5    1    1    2    0  502 -0.20634230185E+02 -0.49148270748E+02 -0.33004171912E+03  0.33434463168E+03  0.41800000000E+01 0.  1.
        -11    1    3    3    0    0  0.27140377427E+02  0.37428965870E+02 -0.25949078471E+03  0.26357730351E+03  0.00000000000E+00 0. -1.
         11    1    3    3    0    0 -0.37662219924E+02 -0.27159165037E+02 -0.26548087649E+03  0.26951096237E+03  0.00000000000E+00 0.  1.
</event>
<event>
 7    1  0.6610867E-006  0.1915472E+03  0.7561462E-02  0.1157073E+00
         -2   -1    0    0    0  501 -0.00000000000E+00  0.00000000000E+00  0.36666339649E+02  0.36666339649E+02  0.00000000000E+00 0. -1.
          2   -1    0    0  501    0  0.00000000000E+00 -0.00000000000E+00 -0.13577011046E+04  0.13577011046E+04  0.00000000000E+00 0.  1.
         23    2    1    2    0    0  0.35414187573E+02  0.17802599249E+03 -0.41894320259E+03  0.46573165879E+03  0.91897509870E+02 0.  0.
          5    1    1    2  502    0 -0.74086887099E+01 -0.16337484906E+03 -0.51791699235E+03  0.54314060181E+03  0.41800000000E+01 0. -1.
         -5    1    1    2    0  502 -0.28005498863E+02 -0.14651143423E+02 -0.38417457003E+03  0.38549518367E+03  0.41800000000E+01 0. -1.
        -11    1    3    3    0    0  0.17778792738E+02  0.16432638593E+03 -0.40928848940E+03  0.44140266667E+03  0.00000000000E+00 0.  1.
         11    1    3    3    0    0  0.17635394835E+02  0.13699606559E+02 -0.96547131830E+01  0.24328992119E+02  0.00000000000E+00 0. -1.
</event>
<event>
 7    1  0.6610867E-006  0.1025593E+03  0.7561462E-02  0.1275004E+00
          3   -1    0    0  501    0  0.00000000000E+00  0.00000000000E+00  0.12887638308E+03  0.12887638308E+03  0.00000000000E+00 0. -1.
         -3   -1    0    0    0  501 -0.00000000000E+00 -0.00000000000E+00 -0.15849899541E+03  0.15849899541E+03  0.00000000000E+00 0.  1.
         23    2    1    2    0    0  0.34162460233E+02  0.73181195671E+02 -0.59823117624E+02  0.13544457065E+03  0.90795733527E+02 0.  0.
          5    1    1    2  502    0  0.17607166625E+01 -0.95753198249E+01  0.68520581813E+02  0.69334907549E+02  0.41800000000E+01 0. -1.
         -5    1    1    2    0  502 -0.35923176896E+02 -0.63605875846E+02 -0.38320076521E+02  0.82595900291E+02  0.41800000000E+01 0. -1.
        -11    1    3    3    0    0  0.27028534446E+02  0.94806006826E+02 -0.45812019768E+02  0.10870814946E+03  0.00000000000E+00 0.  1.
         11    1    3    3    0    0  0.71339257872E+01 -0.21624811155E+02 -0.14011097856E+02  0.26736421184E+02  0.00000000000E+00 0. -1.
</event>
<event>
 7    1  0.6610867E-006  0.1422347E+03  0.7561462E-02  0.1210353E+00
         -4   -1    0    0    0  501 -0.00000000000E+00  0.00000000000E+00  0.33163580917E+03  0.33163580917E+03  0.00000000000E+00 0.  1.
          4   -1    0    0  501    0  0.00000000000E+00 -0.00000000000E+00 -0.75508597598E+02  0.75508597598E+02  0.00000000000E+00 0. -1.
         23    2    1    2    0    0  0.35889361545E+02  0.92181437324E+02  0.19398486729E+03  0.23598760055E+03  0.90964582192E+02 0.  0.
          5    1    1    2  502    0 -0.13185073309E+02  0.28624482951E+02  0.30732873453E+02  0.44217520205E+02  0.41800000000E+01 0.  1.
         -5    1    1    2    0  502 -0.22704288236E+02 -0.12080592028E+03  0.31409470831E+02  0.12693928602E+03  0.41800000000E+01 0.  1.
        -11    1    3    3    0    0 -0.26921753241E+02  0.17532015316E+02  0.24397758422E+02  0.40341082963E+02  0.00000000000E+00 0.  1.
         11    1    3    3    0    0  0.62811114786E+02  0.74649422008E+02  0.16958710887E+03  0.19564651758E+03  0.00000000000E+00 0. -1.
</event>
<event>
 7    1  0.6610867E-006  0.1704585E+03  0.7561462E-02  0.1177371E+00
         -1   -1    0    0    0  501 -0.00000000000E+00  0.00000000000E+00  0.85974726477E+02  0.85974726477E+02  0.00000000000E+00 0.  1.
          1   -1    0    0  501    0  0.00000000000E+00 -0.00000000000E+00 -0.49639730059E+03  0.49639730059E+03  0.00000000000E+00 0. -1.
         23    2    1    2    0    0 -0.16438689729E+03 -0.33988535754E+01 -0.11176467087E+03  0.21922033294E+03  0.92366706728E+02 0.  0.
          5    1    1    2  502    0  0.51256008148E+02 -0.28586114085E+02 -0.20352596385E+03  0.21185994112E+03  0.41800000000E+01 0.  1.
         -5    1    1    2    0  502  0.11313088915E+03  0.31984967660E+02 -0.95131939395E+02  0.15129175301E+03  0.41800000000E+01 0.  1.
        -11    1    3    3    0    0 -0.56242257290E+02 -0.23165548784E+01  0.91136119799E+01  0.57022941479E+02  0.00000000000E+00 0.  1.
         11    1    3    3    0    0 -0.10814464000E+03 -0.10822986970E+01 -0.12087828285E+03  0.16219739146E+03  0.00000000000E+00 0. -1.
</event>
<event>
 7    1  0.6610867E-006  0.1387800E+03  0.7561462E-02  0.1214980E+00
          1   -1    0    0  501    0  0.00000000000E+00  0.00000000000E+00  0.55427571550E+03  0.55427571550E+03  0.00000000000E+00 0. -1.
         -1   -1    0    0    0  501 -0.00000000000E+00 -0.00000000000E+00 -0.78996221480E+02  0.78996221480E+02  0.00000000000E+00 0.  1.
         23    2    1    2    0    0 -0.77721292098E+02 -0.69456489996E+02  0.76233537042E+01  0.13808020148E+03  0.90239809795E+02 0.  0.
          5    1    1    2  502    0  0.28841161015E+02 -0.29227737735E+02  0.59465350564E+02  0.72385589308E+02  0.41800000000E+01 0. -1.
         -5    1    1    2    0  502  0.48880131083E+02  0.98684227731E+02  0.40819078976E+03  0.42280614619E+03  0.41800000000E+01 0. -1.
        -11    1    3    3    0    0 -0.15048982623E+02  0.14775765862E+02  0.23857021027E+02  0.31842622177E+02  0.00000000000E+00 0. -1.
         11    1    3    3    0    0 -0.62672309475E+02 -0.84232255858E+02 -0.16233667323E+02  0.10623757931E+03  0.00000000000E+00 0.  1.
</event>
<event>
 7    1  0.6610867E-006  0.1164954E+03  0.7561462E-02  0.1248993E+00
         -1   -1    0    0    0  501 -0.00000000000E+00  0.00000000000E+00  0.23317429798E+02  0.23317429798E+02  0.00000000000E+00 0.  1.
          1   -1    0    0  501    0  0.00000000000E+00 -0.00000000000E+00 -0.80269716915E+03  0.80269716915E+03  0.00000000000E+00 0. -1.
         23    2    1    2    0    0  0.71801726090E+02 -0.45498733378E+02 -0.32978490911E+03  0.35166350703E+03  0.87655651766E+02 0.  0.
          5    1    1    2  502    0 -0.68125788349E+02 -0.13726881222E+02 -0.11440492626E+03  0.13392352242E+03  0.41800000000E+01 0.  1.
         -5    1    1    2    0  502 -0.36759377407E+01  0.59225614600E+02 -0.33518990398E+03  0.34042756950E+03  0.41800000000E+01 0.  1.
        -11    1    3    3    0    0  0.49693874037E+02  0.38159211368E+01 -0.25240993918E+03  0.25728353964E+03  0.00000000000E+00 0. -1.
         11    1    3    3    0    0  0.22107852053E+02 -0.49314654515E+02 -0.77374969933E+02  0.94379967390E+02  0.00000000000E+00 0.  1.
</event>
<event>
 7    1  0.6610867E-006  0.1426395E+03  0.7561462E-02  0.1209821E+00
          2   -1    0    0  501    0  0.00000000000E+00  0.00000000000E+00  0.44805286259E+03  0.44805286259E+03  0.00000000000E+00 0.  1.
         -2   -1    0    0    0  501 -0.00000000000E+00 -0.00000000000E+00 -0.89979962024E+02  0.89979962024E+02  0.00000000000E+00 0. -1.
         23    2    1    2    0    0 -0.45673867090E+02  0.95166014645E+02 -0.54808337164E+01  0.13933281378E+03  0.90779518507E+02 0.  0.
          5    1    1    2  502    0 -0.41699740219E+02 -0.14898427089E+02  0.11315242205E+03  0.12158032111E+03  0.41800000000E+01 0.  1.
         -5    1    1    2    0  502  0.87373607308E+02 -0.80267587556E+02  0.25040131223E+03  0.27711968972E+03  0.41800000000E+01 0.  1.
        -11    1    3    3    0    0 -0.27969297691E+02  0.28862325041E+01  0.27905663215E+02  0.39614870830E+02  0.00000000000E+00 0.  1.
         11    1    3    3    0    0 -0.17704569399E+02  0.92279782141E+02 -0.33386496932E+02  0.99717942954E+02  0.00000000000E+00 0. -1.
</event>
<event>
 7    1  0.6610867E-006  0.9562871E+02  0.7561462E-02  0.1289766E+00
          1   -1    0    0  501    0  0.00000000000E+00  0.00000000000E+00  0.56992468902E+03  0.56992468902E+03  0.00000000000E+00 0. -1.
         -1   -1    0    0    0  501 -0.00000000000E+00 -0.00000000000E+00 -0.86250898376E+02  0.86250898376E+02  0.00000000000E+00 0.  1.
         23    2    1    2    0    0 -0.14926858405E+02 -0.10950181558E+02 -0.48337223028E+02  0.10959879503E+03  0.96605854713E+02 0.  0.
          5    1    1    2  502    0  0.39777280933E+02 -0.38456311679E+02  0.39320777822E+03  0.39710319722E+03  0.41800000000E+01 0. -1.
         -5    1    1    2    0  502 -0.24850422528E+02  0.49406493237E+02  0.13880323545E+03  0.14947359515E+03  0.41800000000E+01 0.  1.
        -11    1    3    3    0    0  0.16269499481E+02  0.26791599134E+02  0.10495427298E+02  0.33055111431E+02  0.00000000000E+00 0. -1.
         11    1    3    3    0    0 -0.31196357886E+02 -0.37741780692E+02 -0.58832650326E+02  0.76543683603E+02  0.00000000000E+00 0.  1.
</event>
<event>
 7    1  0.6610867E-006  0.1674845E+03  0.7561462E-02  0.1180497E+00
         -2   -1    0    0    0  501 -0.00000000000E+00  0.00000000000E+00  0.86857027070E+02  0.86857027070E+02  0.00000000000E+00 0.  1.
          2   -1    0    0  501    0  0.00000000000E+00 -0.00000000000E+00 -0.54050225981E+03  0.54050225981E+03  0.00000000000E+00 0. -1.
         23    2    1    2    0    0  0.77870669594E+02  0.70694300310E+01 -0.72012438115E+02  0.14488891525E+03  0.98453991774E+02 0.  0.
          5    1    1    2  502    0 -0.10329633197E+03  0.77983199384E+02 -0.37101955672E+03  0.39296882250E+03  0.41800000000E+01 0. -1.
         -5    1    1    2    0  502  0.25425662378E+02 -0.85052629415E+02 -0.10613237905E+02  0.89501549129E+02  0.41800000000E+01 0.  1.
        -11    1    3    3    0    0  0.33572166919E+02 -0.39829622033E+02 -0.57481012460E+01  0.52407345390E+02  0.00000000000E+00 0. -1.
         11    1    3    3    0    0  0.44298502675E+02  0.46899052064E+02 -0.66264336869E+02  0.92481569863E+02  0.00000000000E+00 0.  1.
</event>
<event>
 7    1  0.6610867E-006  0.1760327E+03  0.7561462E-02  0.1171699E+00
          2   -1    0    0  501    0  0.00000000000E+00  0.00000000000E+00  0.32228742676E+03  0.32228742676E+03  0.00000000000E+00 0. -1.
         -2   -1    0    0    0  501 -0.00000000000E+00 -0.00000000000E+00 -0.11089159599E+03  0.11089159599E+03  0.00000000000E+00 0.  1.
         23    2    1    2    0    0 -0.13688251899E+03  0.68646853356E+02  0.96199632841E+02  0.20434159369E+03  0.95141489763E+02 0.  0.
          5    1    1    2  502    0  0.59310440762E+02 -0.98012044052E+02  0.69125116188E+02  0.13386501877E+03  0.41800000000E+01 0. -1.
         -5    1    1    2    0  502  0.77572078224E+02  0.29365190697E+02  0.46071081740E+02  0.94972410295E+02  0.41800000000E+01 0. -1.
        -11    1    3    3    0    0 -0.22298563143E+02  0.19790673515E+02  0.71341206038E+02  0.77320529973E+02  0.00000000000E+00 0. -1.
         11    1    3    3    0    0 -0.11458395584E+03  0.48856179840E+02  0.24858426804E+02  0.12702106372E+03  0.00000000000E+00 0.  1.
</event>
<event>
 7    1  0.6610867E-006  0.1079931E+03  0.7561462E-02  0.1264332E+00
         -1   -1    0    0    0  501 -0.00000000000E+00  0.00000000000E+00  0.28963978101E+03  0.28963978101E+03  0.00000000000E+00 0.  1.
          1   -1    0    0  501    0  0.00000000000E+00 -0.00000000000E+00 -0.51178630724E+02  0.51178630724E+02  0.00000000000E+00 0. -1.
         23    2    1    2    0    0 -0.13014530252E+02 -0.48148109167E+02  0.13786235188E+03  0.17272283054E+03  0.91321025549E+02 0.  0.
          5    1    1    2  502    0  0.61980323137E+02  0.28075199465E+02  0.19035551126E+02  0.70778541154E+02  0.41800000000E+01 0.  1.
         -5    1    1    2    0  502 -0.48965792885E+02  0.20072909702E+02  0.81563247279E+02  0.97317040047E+02  0.41800000000E+01 0.  1.
        -11    1    3    3    0    0 -0.12875325071E+01  0.22791525058E+02  0.70841308731E+02  0.74428505138E+02  0.00000000000E+00 0.  1.
         11    1    3    3    0    0 -0.11726997745E+02 -0.70939634225E+02  0.67021043153E+02  0.98294325397E+02  0.00000000000E+00 0. -1.
</event>
<event>
 7    1  0.6610867E-006  0.9214363E+02  0.7561462E-02  0.1297742E+00
         -1   -1    0    0    0  501 -0.00000000000E+00  0.00000000000E+00  0.44756327397E+02  0.44756327397E+02  0.00000000000E+00 0.  1.
          1   -1    0    0  501    0  0.00000000000E+00 -0.00000000000E+00 -0.40087266022E+03  0.40087266022E+03  0.00000000000E+00 0. -1.
         23    2    1    2    0    0  0.15234694498E+02  0.30570341529E+02 -0.46000074695E+02  0.10948401215E+03  0.93295768104E+02 0.  0.
          5    1    1    2  502    0 -0.59295238262E+02  0.33953999614E+01 -0.82185666168E+02  0.10148600960E+03  0.41800000000E+01 0. -1.
         -5    1    1    2    0  502  0.44060543764E+02 -0.33965741490E+02 -0.22793059196E+03  0.23465896587E+03  0.41800000000E+01 0. -1.
        -11    1    3    3    0    0  0.13347156492E+02  0.48819868890E+02 -0.65456820892E+02  0.82741293114E+02  0.00000000000E+00 0.  1.
         11    1    3    3    0    0  0.18875380055E+01 -0.18249527362E+02  0.19456746197E+02  0.26742719032E+02  0.00000000000E+00 0. -1.
</event>
<event>
 7    1  0.6610867E-006  0.2506242E+03  0.7561462E-02  0.1112911E+00
         -1   -1    0    0    0  501 -0.00000000000E+00  0.00000000000E+00  0.18848334065E+03  0.18848334065E+03  0.00000000000E+00 0.  1.
          1   -1    0    0  501    0  0.00000000000E+00 -0.00000000000E+00 -0.33897463316E+03  0.33897463316E+03  0.00000000000E+00 0. -1.
         23    2    1    2    0    0  0.21647380269E+03  0.77351236817E+02 -0.82876010865E+02  0.26058554235E+03  0.90511162939E+02 0.  0.
          5    1    1    2  502    0 -0.19600977090E+03 -0.20192922581E+02 -0.56294341580E+02  0.20497343658E+03  0.41800000000E+01 0. -1.
         -5    1    1    2    0  502 -0.20464031795E+02 -0.57158314237E+02 -0.11320940069E+02  0.61898994885E+02  0.41800000000E+01 0.  1.
        -11    1    3    3    0    0  0.23662467817E+02  0.40639942143E+02  0.12452029327E+01  0.47043254680E+02  0.00000000000E+00 0. -1.
         11    1    3    3    0    0  0.19281133488E+03  0.36711294674E+02 -0.84121213797E+02  0.21354228767E+03  0.00000000000E+00 0.  1.
</event>
<event>
 7    1  0.6610867E-006  0.9681698E+02  0.7561462E-02  0.1287135E+00
          1   -1    0    0  501    0  0.00000000000E+00  0.00000000000E+00  0.53641851115E+03  0.53641851115E+03  0.00000000000E+00 0. -1.
         -1   -1    0    0    0  501 -0.00000000000E+00 -0.00000000000E+00 -0.26314116420E+02  0.26314116420E+02  0.00000000000E+00 0.  1.
         23    2    1    2    0    0  0.91081079351E+01  0.12528544971E+01  0.11262340351E+03  0.14593123898E+03  0.92343750295E+02 0.  0.
          5    1    1    2  502    0 -0.51505310444E+02 -0.18480616027E+02  0.86480119384E+02  0.10242369658E+03  0.41800000000E+01 0. -1.
         -5    1    1    2    0  502  0.42397202509E+02  0.17227761530E+02  0.31100087183E+03  0.31437769200E+03  0.41800000000E+01 0. -1.
        -11    1    3    3    0    0 -0.34671670364E+02  0.25234094455E+02  0.51812376865E+02  0.67256275880E+02  0.00000000000E+00 0. -1.
         11    1    3    3    0    0  0.43779778299E+02 -0.23981239958E+02  0.60811026645E+02  0.78674963104E+02  0.00000000000E+00 0.  1.
</event>
<event>
 7    1  0.6610867E-006  0.1768829E+03  0.7561462E-02  0.1170854E+00
          1   -1    0    0  501    0  0.00000000000E+00  0.00000000000E+00  0.31970870356E+03  0.31970870356E+03  0.00000000000E+00 0. -1.
         -1   -1    0    0    0  501 -0.00000000000E+00 -0.00000000000E+00 -0.11539808276E+03  0.11539808276E+03  0.00000000000E+00 0.  1.
         23    2    1    2    0    0 -0.14380677250E+03  0.79191352286E+01  0.23369997688E+02  0.17218245521E+03  0.91419585275E+02 0.  0.
          5    1    1    2  502    0  0.42254536360E+02  0.55792179723E+02  0.77722089114E+02  0.10467286514E+03  0.41800000000E+01 0.  1.
         -5    1    1    2    0  502  0.10155223614E+03 -0.63711314951E+02  0.10321853400E+03  0.15825146596E+03  0.41800000000E+01 0.  1.
        -11    1    3    3    0    0 -0.15031585383E+03  0.18319878792E+02  0.68216466494E+01  0.15158168997E+03  0.00000000000E+00 0.  1.
         11    1    3    3    0    0  0.65090813311E+01 -0.10400743563E+02  0.16548351038E+02  0.20600765241E+02  0.00000000000E+00 0. -1.
</event>
<event>
 7    1  0.6610867E-006  0.1110688E+03  0.7561462E-02  0.1258603E+00
          2   -1    0    0  501    0  0.00000000000E+00  0.00000000000E+00  0.19244939736E+03  0.19244939736E+03  0.00000000000E+00 0. -1.
         -2   -1    0    0    0  501 -0.00000000000E+00 -0.00000000000E+00 -0.87386479133E+02  0.87386479133E+02  0.00000000000E+00 0.  1.
         23    2    1    2    0    0  0.55996235573E+02 -0.25891872776E+02  0.57422451675E+01  0.10861119568E+03  0.89204545697E+02 0.  0.
          5    1    1    2  502    0  0.28251283190E+02  0.39842143671E+02  0.15298909352E+02  0.51352316808E+02  0.41800000000E+01 0. -1.
         -5    1    1    2    0  502 -0.84247518763E+02 -0.13950270895E+02  0.84021763709E+02  0.11987236401E+03  0.41800000000E+01 0. -1.
        -11    1    3    3    0    0  0.19036840406E+02 -0.42900793690E+02 -0.28948178665E+02  0.55144142390E+02  0.00000000000E+00 0.  1.
         11    1    3    3    0    0  0.36959395167E+02  0.17008920913E+02  0.34690423832E+02  0.53467053289E+02  0.00000000000E+00 0. -1.
</event>
<event>
 7    1  0.6610867E-006  0.1237496E+03  0.7561462E-02  0.1237037E+00
          1   -1    0    0  501    0  0.00000000000E+00  0.00000000000E+00  0.11800655821E+03  0.11800655821E+03  0.00000000000E+00 0. -1.
         -1   -1    0    0    0  501 -0.00000000000E+00 -0.00000000000E+00 -0.17451975537E+03  0.17451975537E+03  0.00000000000E+00 0.  1.
         23    2    1    2    0    0 -0.55628777667E+02  0.29430667634E+02 -0.86806369124E+02  0.14925863536E+03  0.10383674401E+03 0.  0.
          5    1    1    2  502    0 -0.26152209465E+02 -0.48984272607E+02  0.15344392716E+02  0.57760884780E+02  0.41800000000E+01 0. -1.
         -5    1    1    2    0  502  0.81780987132E+02  0.19553604972E+02  0.14948779244E+02  0.85506793441E+02  0.41800000000E+01 0. -1.
        -11    1    3    3    0    0 -0.64813377316E+02 -0.11369106263E+02 -0.17131752788E+02  0.67996524984E+02  0.00000000000E+00 0. -1.
         11    1    3    3    0    0  0.91845996489E+01  0.40799773898E+02 -0.69674616337E+02  0.81262110374E+02  0.00000000000E+00 0.  1.
</event>
<event>
 7    1  0.6610867E-006  0.1297920E+03  0.7561462E-02  0.1227765E+00
         -1   -1    0    0    0  501 -0.00000000000E+00  0.00000000000E+00  0.20269901448E+02  0.20269901448E+02  0.00000000000E+00 0.  1.
          1   -1    0    0  501    0  0.00000000000E+00 -0.00000000000E+00 -0.97964779036E+03  0.97964779036E+03  0.00000000000E+00 0. -1.
         23    2    1    2    0    0 -0.56426188631E+02  0.46192439305E+02 -0.25432347532E+03  0.28014900114E+03  0.92116103522E+02 0.  0.
          5    1    1    2  502    0  0.76929614576E+01  0.41107591986E+02 -0.15052658353E+03  0.15628416595E+03  0.41800000000E+01 0.  1.
         -5    1    1    2    0  502  0.48733227174E+02 -0.87300031291E+02 -0.55452783005E+03  0.56348452472E+03  0.41800000000E+01 0.  1.
        -11    1    3    3    0    0 -0.34637152816E+02  0.74267598236E+02 -0.17708770750E+03  0.19512935364E+03  0.00000000000E+00 0.  1.
         11    1    3    3    0    0 -0.21789035815E+02 -0.28075158931E+02 -0.77235767821E+02  0.85019647504E+02  0.00000000000E+00 0. -1.
</event>
<event>
 7    1  0.6610867E-006  0.1107268E+03  0.7561462E-02  0.1259230E+00
         -2   -1    0    0    0  501 -0.00000000000E+00  0.00000000000E+00  0.15251930490E+03  0.15251930490E+03  0.00000000000E+00 0.  1.
          2   -1    0    0  501    0  0.00000000000E+00 -0.00000000000E+00 -0.83803795706E+02  0.83803795706E+02  0.00000000000E+00 0. -1.
         23    2    1    2    0    0 -0.88146446462E+01 -0.42205702846E+02  0.48382149831E+02  0.10246112770E+03  0.79362654659E+02 0.  0.
          5    1    1    2  502    0  0.51646550704E+02  0.65271102124E+02  0.97991700370E+01  0.83911734016E+02  0.41800000000E+01 0. -1.
         -5    1    1    2    0  502 -0.42831906058E+02 -0.23065399278E+02  0.10534189329E+02  0.49950238891E+02  0.41800000000E+01 0. -1.
        -11    1    3    3    0    0 -0.26992919856E+02  0.13864812628E+02  0.93025989923E+01  0.31739393497E+02  0.00000000000E+00 0.  1.
         11    1    3    3    0    0  0.18178275210E+02 -0.56070515474E+02  0.39079550838E+02  0.70721734204E+02  0.00000000000E+00 0. -1.
</event>
<event>
 7    1  0.6610867E-006  0.9261723E+02  0.7561462E-02  0.1296635E+00
          2   -1    0    0  501    0  0.00000000000E+00  0.00000000000E+00  0.18352751953E+04  0.18352751953E+04  0.00000000000E+00 0. -1.
         -2   -1    0    0    0  501 -0.00000000000E+00 -0.00000000000E+00 -0.74569698367E+01  0.74569698367E+01  0.00000000000E+00 0.  1.
         23    2    1    2    0    0 -0.11423474132E+02  0.15250657472E+02  0.48383986266E+03  0.49281087623E+03  0.91643159680E+02 0.  0.
          5    1    1    2  502    0 -0.15830393225E+02  0.32795928873E+02  0.10575589987E+04  0.10581940665E+04  0.41800000000E+01 0.  1.
         -5    1    1    2    0  502  0.27253867357E+02 -0.48046586345E+02  0.28641936415E+03  0.29172722243E+03  0.41800000000E+01 0.  1.
        -11    1    3    3    0    0 -0.36117668256E+02 -0.26416722985E+02  0.20911979805E+03  0.21385373308E+03  0.00000000000E+00 0.  1.
         11    1    3    3    0    0  0.24694194123E+02  0.41667380457E+02  0.27472006460E+03  0.27895714315E+03  0.00000000000E+00 0. -1.
</event>
<event>
 7    1  0.6610867E-006  0.1078736E+03  0.7561462E-02  0.1264559E+00
         -1   -1    0    0    0  501 -0.00000000000E+00  0.00000000000E+00  0.45161707737E+03  0.45161707737E+03  0.00000000000E+00 0.  1.
          1   -1    0    0  501    0  0.00000000000E+00 -0.00000000000E+00 -0.29232995187E+02  0.29232995187E+02  0.00000000000E+00 0. -1.
         23    2    1    2    0    0 -0.94200943231E+01  0.31943075352E+02  0.22527291696E+03  0.24501676581E+03  0.90422509216E+02 0.  0.
          5    1    1    2  502    0 -0.25453105999E+02 -0.65756234323E+02  0.15889159646E+03  0.17388431437E+03  0.41800000000E+01 0. -1.
         -5    1    1    2    0  502  0.34873200322E+02  0.33813158971E+02  0.38219568763E+02  0.61948992378E+02  0.41800000000E+01 0. -1.
        -11    1    3    3    0    0 -0.37593743111E+02  0.50252717252E+02  0.14609287234E+03  0.15900236621E+03  0.00000000000E+00 0.  1.
         11    1    3    3    0    0  0.28173648788E+02 -0.18309641899E+02  0.79180044619E+02  0.86014399599E+02  0.00000000000E+00 0. -1.
</event>
<event>
 7    1  0.6610867E-006  0.9554172E+02  0.7561462E-02  0.1289961E+00
          1   -1    0    0  501    0  0.00000000000E+00  0.00000000000E+00  0.18171608999E+03  0.18171608999E+03  0.00000000000E+00 0. -1.
         -1   -1    0    0    0  501 -0.00000000000E+00 -0.00000000000E+00 -0.56440064927E+02  0.56440064927E+02  0.00000000000E+00 0.  1.
         23    2    1    2    0    0  0.16799154320E+02 -0.37116365820E+01  0.21755810591E+02  0.74877027551E+02  0.69550457427E+02 0.  0.
          5    1    1    2  502    0 -0.70865816653E+02 -0.49670463336E+01  0.53998810540E+02  0.89330730764E+02  0.41800000000E+01 0. -1.
         -5    1    1    2    0  502  0.54066662333E+02  0.86786829156E+01  0.49521403936E+02  0.73948396607E+02  0.41800000000E+01 0. -1.
        -11    1    3    3    0    0 -0.13397674023E+01 -0.31657740336E+02 -0.50874772860E+01  0.32091898121E+02  0.00000000000E+00 0.  1.
         11    1    3    3    0    0  0.18138921722E+02  0.27946103754E+02  0.26843287877E+02  0.42785129430E+02  0.00000000000E+00 0. -1.
</event>
<event>
 7    1  0.6610867E-006  0.1012883E+03  0.7561462E-02  0.1277610E+00
          2   -1    0    0  501    0  0.00000000000E+00  0.00000000000E+00  0.10654317465E+04  0.10654317465E+04  0.00000000000E+00 0. -1.
         -2   -1    0    0    0  501 -0.00000000000E+00 -0.00000000000E+00 -0.16502320615E+02  0.16502320615E+02  0.00000000000E+00 0.  1.
         23    2    1    2    0    0  0.45731776912E+02 -0.44022079306E+02  0.29680960114E+03  0.31684567023E+03  0.90916998029E+02 0.  0.
          5    1    1    2  502    0 -0.32609870625E+02  0.61525927732E+02  0.73123896044E+03  0.73455886974E+03  0.41800000000E+01 0. -1.
         -5    1    1    2    0  502 -0.13121906287E+02 -0.17503848426E+02  0.20880864349E+02  0.30529527187E+02  0.41800000000E+01 0. -1.
        -11    1    3    3    0    0  0.47589776378E+01  0.27613352615E+02  0.86447623305E+02  0.90875390981E+02  0.00000000000E+00 0.  1.
         11    1    3    3    0    0  0.40972799274E+02 -0.71635431921E+02  0.21036197783E+03  0.22597027925E+03  0.00000000000E+00 0. -1.
</event>
<event>
 7    1  0.6610867E-006  0.4687087E+02  0.7561462E-02  0.1462989E+00
          1   -1    0    0  501    0  0.00000000000E+00  0.00000000000E+00  0.46329881522E+03  0.46329881522E+03  0.00000000000E+00 0. -1.
         -1   -1    0    0    0  501 -0.00000000000E+00 -0.00000000000E+00 -0.33422082437E+02  0.33422082437E+02  0.00000000000E+00 0.  1.
         23    2    1    2    0    0  0.32240936220E+02  0.24885249418E+02  0.96990744848E+02  0.13878297016E+03  0.90524883948E+02 0.  0.
          5    1    1    2  502    0 -0.36143284242E+02 -0.23245023486E+02  0.34326780051E+03  0.34597243153E+03  0.41800000000E+01 0. -1.
         -5    1    1    2    0  502  0.39023480224E+01 -0.16402259320E+01 -0.10381812577E+02  0.11965495961E+02  0.41800000000E+01 0. -1.
        -11    1    3    3    0    0  0.16576936070E+02  0.23681417779E+02  0.11282992113E+03  0.11647401195E+03  0.00000000000E+00 0. -1.
         11    1    3    3    0    0  0.15664000150E+02  0.12038316392E+01 -0.15839176281E+02  0.22308958213E+02  0.00000000000E+00 0.  1.
</event>
<event>
 7    1  0.6610867E-006  0.1576647E+03  0.7561462E-02  0.1191359E+00
          2   -1    0    0  501    0  0.00000000000E+00  0.00000000000E+00  0.30206431456E+03  0.30206431456E+03  0.00000000000E+00 0.  1.
         -2   -1    0    0    0  501 -0.00000000000E+00 -0.00000000000E+00 -0.10368633941E+03  0.10368633941E+03  0.00000000000E+00 0. -1.
         23    2    1    2    0    0 -0.13894003464E+03 -0.38413129912E+01  0.10988507070E+03  0.19887022294E+03  0.90308072155E+02 0.  0.
          5    1    1    2  502    0  0.51559840123E+02 -0.27467927854E+02 -0.21954174824E+02  0.62548879817E+02  0.41800000000E+01 0.  1.
         -5    1    1    2    0  502  0.87380194519E+02  0.31309240846E+02  0.11044707927E+03  0.14433155122E+03  0.41800000000E+01 0.  1.
        -11    1    3    3    0    0 -0.68714940120E+02  0.41481812290E+02  0.68900327986E+02  0.10578156240E+03  0.00000000000E+00 0. -1.
         11    1    3    3    0    0 -0.70225094523E+02 -0.45323125281E+02  0.40984742718E+02  0.93088660543E+02  0.00000000000E+00 0.  1.
</event>
<event>
 7    1  0.6610867E-006  0.9941405E+02  0.7561462E-02  0.1281533E+00
          1   -1    0    0  501    0  0.00000000000E+00  0.00000000000E+00  0.89256485641E+02  0.89256485641E+02  0.00000000000E+00 0. -1.
         -1   -1    0    0    0  501 -0.00000000000E+00 -0.00000000000E+00 -0.16165649222E+03  0.16165649222E+03  0.00000000000E+00 0.  1.
         23    2    1    2    0    0 -0.37311339598E+02 -0.28506510957E+02 -0.58137393219E+02  0.11654205003E+03  0.89427824004E+02 0.  0.
          5    1    1    2  502    0 -0.18460213737E+02 -0.32534100905E+02  0.22429928142E+02  0.43815765306E+02  0.41800000000E+01 0.  1.
         -5    1    1    2    0  502  0.55771553334E+02  0.61040611862E+02 -0.36692541507E+02  0.90555162526E+02  0.41800000000E+01 0.  1.
        -11    1    3    3    0    0 -0.23818367866E+02  0.18077537651E+02 -0.61025308037E+02  0.67957341298E+02  0.00000000000E+00 0.  1.
         11    1    3    3    0    0 -0.13492971732E+02 -0.46584048608E+02  0.28879148183E+01  0.48584708735E+02  0.00000000000E+00 0. -1.
</event>
<event>
 7    1  0.6610867E-006  0.3305471E+03  0.7561462E-02  0.1070895E+00
         -2   -1    0    0    0  501 -0.00000000000E+00  0.00000000000E+00  0.57440293124E+02  0.57440293124E+02  0.00000000000E+00 0.  1.
          2   -1    0    0  501    0  0.00000000000E+00 -0.00000000000E+00 -0.19835377800E+04  0.19835377800E+04  0.00000000000E+00 0. -1.
         23    2    1    2    0    0 -0.14453858675E+03 -0.28465205563E+03 -0.94431047917E+03  0.10010400036E+04  0.91872802793E+02 0.  0.
          5    1    1    2  502    0 -0.17808875790E+02  0.68549567181E+02 -0.16588193237E+03  0.18041753547E+03  0.41800000000E+01 0.  1.
         -5    1    1    2    0  502  0.16234746254E+03  0.21610248845E+03 -0.81590507528E+03  0.85952053401E+03  0.41800000000E+01 0.  1.
        -11    1    3    3    0    0 -0.64516682649E+02 -0.14825577624E+03 -0.34165089653E+03  0.37797819068E+03  0.00000000000E+00 0.  1.
         11    1    3    3    0    0 -0.80021904098E+02 -0.13639627939E+03 -0.60265958264E+03  0.62306181292E+03  0.00000000000E+00 0. -1.
</event>
<event>
 7    1  0.6610867E-006  0.9959335E+02  0.7561462E-02  0.1281153E+00
          2   -1    0    0  501    0  0.00000000000E+00  0.00000000000E+00  0.15313341540E+03  0.15313341540E+03  0.00000000000E+00 0. -1.
         -2   -1    0    0    0  501 -0.00000000000E+00 -0.00000000000E+00 -0.12838820433E+03  0.12838820433E+03  0.00000000000E+00 0.  1.
         23    2    1    2    0    0 -0.51981287201E+02  0.70697897527E+02  0.30025635789E+02  0.12863157080E+03  0.89130776212E+02 0.  0.
          5    1    1    2  502    0 -0.74937611162E+00 -0.13345803895E+02  0.53437603817E+02  0.55242392669E+02  0.41800000000E+01 0.  1.
         -5    1    1    2    0  502  0.52730663312E+02 -0.57352093632E+02 -0.58718028541E+02  0.97647656260E+02  0.41800000000E+01 0.  1.
        -11    1    3    3    0    0 -0.11946880305E+02  0.65744286131E+02  0.50153791757E+02  0.83549039105E+02  0.00000000000E+00 0. -1.
         11    1    3    3    0    0 -0.40034406895E+02  0.49536113960E+01 -0.20128155968E+02  0.45082531695E+02  0.00000000000E+00 0.  1.
</event>
<event>
 7    1  0.6610867E-006  0.1365757E+03  0.7561462E-02  0.1218012E+00
          1   -1    0    0  501    0  0.00000000000E+00  0.00000000000E+00  0.60250450460E+02  0.60250450460E+02  0.00000000000E+00 0. -1.
         -1   -1    0    0    0  501 -0.00000000000E+00 -0.00000000000E+00 -0.37766589799E+03  0.37766589799E+03  0.00000000000E+00 0.  1.
         23    2    1    2    0    0  0.89460853379E+02 -0.34224745307E+02 -0.20651503046E+03  0.24524666593E+03  0.91229884713E+02 0.  0.
          5    1    1    2  502    0 -0.11175478342E+03  0.48931528197E+02 -0.11192918197E+03  0.16561714961E+03  0.41800000000E+01 0. -1.
         -5    1    1    2    0  502  0.22293930041E+02 -0.14706782889E+02  0.10287648992E+01  0.27052532910E+02  0.41800000000E+01 0. -1.
        -11    1    3    3    0    0  0.73853528382E+02  0.12394967250E+02 -0.16385010470E+03  0.18015225693E+03  0.00000000000E+00 0. -1.
         11    1    3    3    0    0  0.15607324997E+02 -0.46619712557E+02 -0.42664925758E+02  0.65094408995E+02  0.00000000000E+00 0.  1.
</event>
<event>
 7    1  0.6610867E-006  0.1752591E+03  0.7561462E-02  0.1172472E+00
          1   -1    0    0  501    0  0.00000000000E+00  0.00000000000E+00  0.85888415146E+03  0.85888415146E+03  0.00000000000E+00 0. -1.
         -1   -1    0    0    0  501 -0.00000000000E+00 -0.00000000000E+00 -0.51201733285E+02  0.51201733285E+02  0.00000000000E+00 0.  1.
         23    2    1    2    0    0  0.14987702076E+03 -0.70788444232E+02  0.24027634844E+03  0.30587394222E+03  0.91389385180E+02 0.  0.
          5    1    1    2  502    0 -0.59241285433E+02  0.17874292469E+02  0.60868598220E+02  0.86899245568E+02  0.41800000000E+01 0. -1.
         -5    1    1    2    0  502 -0.90635735332E+02  0.52914151763E+02  0.50653747152E+03  0.51731269696E+03  0.41800000000E+01 0. -1.
        -11    1    3    3    0    0  0.22227158048E+02  0.17472117452E+02  0.14149429863E+02  0.31615309718E+02  0.00000000000E+00 0.  1.
         11    1    3    3    0    0  0.12764986272E+03 -0.88260561684E+02  0.22612691857E+03  0.27425863251E+03  0.00000000000E+00 0. -1.
</event>
<event>
 7    1  0.6610867E-006  0.1255525E+03  0.7561462E-02  0.1234208E+00
         -2   -1    0    0    0  501 -0.00000000000E+00  0.00000000000E+00  0.27830284732E+02  0.27830284732E+02  0.00000000000E+00 0.  1.
          2   -1    0    0  501    0  0.00000000000E+00 -0.00000000000E+00 -0.14629910400E+04  0.14629910400E+04  0.00000000000E+00 0. -1.
         23    2    1    2    0    0  0.10074831789E+03  0.38468834509E+02 -0.19891646530E+03  0.24359090998E+03  0.90214724248E+02 0.  0.
          5    1    1    2  502    0  0.71272392404E+01 -0.57847865196E+01 -0.58163124824E+01  0.11643160446E+02  0.41800000000E+01 0. -1.
         -5    1    1    2    0  502 -0.10787555713E+03 -0.32684047989E+02 -0.12304279774E+04  0.12355872543E+04  0.41800000000E+01 0. -1.
        -11    1    3    3    0    0  0.46581258902E+02 -0.18033821480E+02 -0.32241845549E+02  0.59452241358E+02  0.00000000000E+00 0.  1.
         11    1    3    3    0    0  0.54167058992E+02  0.56502655988E+02 -0.16667461975E+03  0.18413866862E+03  0.00000000000E+00 0. -1.
</event>
<event>
 7    1  0.6610867E-006  0.2117780E+03  0.7561462E-02  0.1140166E+00
          1   -1    0    0  501    0  0.00000000000E+00  0.00000000000E+00  0.58339629644E+03  0.58339629644E+03  0.00000000000E+00 0. -1.
         -1   -1    0    0    0  501 -0.00000000000E+00 -0.00000000000E+00 -0.86904103282E+02  0.86904103282E+02  0.00000000000E+00 0.  1.
         23    2    1    2    0    0 -0.17018418580E+03  0.98296740470E+02  0.25823044901E+03  0.33707757297E+03  0.91177953033E+02 0.  0.
          5    1    1    2  502    0  0.11308519219E+03 -0.10186338658E+02  0.65874311679E+02  0.13133514201E+03  0.41800000000E+01 0. -1.
         -5    1    1    2    0  502  0.57098993613E+02 -0.88110401811E+02  0.17238743246E+03  0.20188768474E+03  0.41800000000E+01 0. -1.
        -11    1    3    3    0    0 -0.34294418051E+02  0.50021938125E+02  0.31422675328E+02  0.68305826457E+02  0.00000000000E+00 0.  1.
         11    1    3    3    0    0 -0.13588976775E+03  0.48274802345E+02  0.22680777368E+03  0.26877174651E+03  0.00000000000E+00 0. -1.
</event>
<event>
 7    1  0.6610867E-006  0.1148825E+03  0.7561462E-02  0.1251786E+00
         -3   -1    0    0    0  501 -0.00000000000E+00  0.00000000000E+00  0.11013839702E+02  0.11013839702E+02  0.00000000000E+00 0.  1.
          3   -1    0    0  501    0  0.00000000000E+00 -0.00000000000E+00 -0.20634981481E+04  0.20634981481E+04  0.00000000000E+00 0. -1.
         23    2    1    2    0    0  0.37041028144E+01  0.51107658818E+02 -0.32809415694E+03  0.34483123131E+03  0.92935940858E+02 0.  0.
          5    1    1    2  502    0 -0.49269726097E+02 -0.59249637425E+02 -0.13816983793E+04  0.13838518378E+04  0.41800000000E+01 0. -1.
         -5    1    1    2    0  502  0.45565623282E+02  0.81419786066E+01 -0.34269177219E+03  0.34582891864E+03  0.41800000000E+01 0. -1.
        -11    1    3    3    0    0 -0.43830636926E+02  0.34449210225E+02 -0.17458635286E+03  0.18327102178E+03  0.00000000000E+00 0.  1.
         11    1    3    3    0    0  0.47534739740E+02  0.16658448593E+02 -0.15350780408E+03  0.16156020953E+03  0.00000000000E+00 0. -1.
</event>
<event>
 7    1  0.6610867E-006  0.9514680E+02  0.7561462E-02  0.1290846E+00
          2   -1    0    0  501    0  0.00000000000E+00  0.00000000000E+00  0.85212818284E+03  0.85212818284E+03  0.00000000000E+00 0. -1.
         -2   -1    0    0    0  501 -0.00000000000E+00 -0.00000000000E+00 -0.15769033780E+02  0.15769033780E+02  0.00000000000E+00 0.  1.
         23    2    1    2    0    0 -0.23166020858E+02 -0.23647049677E+02  0.17572751835E+03  0.19731312206E+03  0.83405395200E+02 0.  0.
          5    1    1    2  502    0  0.17201309187E+02  0.67622228145E+02  0.36846110258E+03  0.37503294161E+03  0.41800000000E+01 0. -1.
         -5    1    1    2    0  502  0.59647116712E+01 -0.43975178468E+02  0.29217052813E+03  0.29555115296E+03  0.41800000000E+01 0.  1.
        -11    1    3    3    0    0 -0.38035940569E+02  0.97456408236E+01  0.37359596501E+02  0.54198244812E+02  0.00000000000E+00 0. -1.
         11    1    3    3    0    0  0.14869919711E+02 -0.33392690501E+02  0.13836792185E+03  0.14311487724E+03  0.00000000000E+00 0.  1.
</event>
<event>
 7    1  0.6610867E-006  0.9902638E+02  0.7561462E-02  0.1282357E+00
          2   -1    0    0  501    0  0.00000000000E+00  0.00000000000E+00  0.12934509866E+03  0.12934509866E+03  0.00000000000E+00 0.  1.
         -2   -1    0    0    0  501 -0.00000000000E+00 -0.00000000000E+00 -0.11170758852E+03  0.11170758852E+03  0.00000000000E+00 0. -1.
         23    2    1    2    0    0  0.62463807757E+01  0.19169217912E+02 -0.39281848434E+02  0.10213945352E+03  0.92102812995E+02 0.  0.
          5    1    1    2  502    0 -0.48013698605E+02 -0.37439242685E+02 -0.57555141139E+01  0.61299351459E+02  0.41800000000E+01 0.  1.
         -5    1    1    2    0  502  0.41767317829E+02  0.18270024773E+02  0.62674872681E+02  0.77613882196E+02  0.41800000000E+01 0.  1.
        -11    1    3    3    0    0 -0.17272022930E+02 -0.31196331666E+02 -0.30522591191E+01  0.35788967172E+02  0.00000000000E+00 0.  1.
         11    1    3    3    0    0  0.23518403705E+02  0.50365549578E+02 -0.36229589315E+02  0.66350486352E+02  0.00000000000E+00 0. -1.
</event>
<event>
 7    1  0.6610867E-006  0.1003687E+03  0.7561462E-02  0.1279523E+00
         -1   -1    0    0    0  501 -0.00000000000E+00  0.00000000000E+00  0.71260271209E+02  0.71260271209E+02  0.00000000000E+00 0.  1.
          1   -1    0    0  501    0  0.00000000000E+00 -0.00000000000E+00 -0.18070621779E+03  0.18070621779E+03  0.00000000000E+00 0. -1.
         23    2    1    2    0    0 -0.23392458299E+02 -0.18589541484E+02 -0.22006753827E+02  0.96447212939E+02  0.89022410167E+02 0.  0.
          5    1    1    2  502    0  0.23701511361E+02 -0.49823729908E+02 -0.18596000868E+02  0.58373361656E+02  0.41800000000E+01 0.  1.
         -5    1    1    2    0  502 -0.30905306219E+00  0.68413271391E+02 -0.68843191885E+02  0.97145914403E+02  0.41800000000E+01 0.  1.
        -11    1    3    3    0    0  0.25534484429E+02 -0.43105674367E+01  0.18097485966E+02  0.31592877125E+02  0.00000000000E+00 0.  1.
         11    1    3    3    0    0 -0.48926942728E+02 -0.14278974047E+02 -0.40104239793E+02  0.64854335815E+02  0.00000000000E+00 0. -1.
</event>
<event>
 7    1  0.6610867E-006  0.9961196E+02  0.7561462E-02  0.1281114E+00
         -2   -1    0    0    0  501 -0.00000000000E+00  0.00000000000E+00  0.10430771870E+02  0.10430771870E+02  0.00000000000E+00 0.  1.
          2   -1    0    0  501    0  0.00000000000E+00 -0.00000000000E+00 -0.18911625214E+04  0.18911625214E+04  0.00000000000E+00 0. -1.
         23    2    1    2    0    0 -0.32293727982E+02  0.73452713845E+01 -0.24228555272E+03  0.25804515387E+03  0.82390378696E+02 0.  0.
          5    1    1    2  502    0  0.38147434112E+02 -0.52685548442E+02 -0.50722265552E+03  0.51139347710E+03  0.41800000000E+01 0. -1.
         -5    1    1    2    0  502 -0.58537061297E+01  0.45340277058E+02 -0.11312235413E+04  0.11321546624E+04  0.41800000000E+01 0. -1.
        -11    1    3    3    0    0  0.15414570766E+02 -0.25793133042E+02 -0.98085756552E+02  0.10258513704E+03  0.00000000000E+00 0. -1.
         11    1    3    3    0    0 -0.47708298748E+02  0.33138404426E+02 -0.14419979616E+03  0.15546001682E+03  0.00000000000E+00 0.  1.
</event>
<event>
 7    1  0.6610867E-006  0.8702990E+02  0.7561462E-02  0.1310208E+00
          4   -1    0    0  501    0  0.00000000000E+00  0.00000000000E+00  0.41033555691E+02  0.41033555691E+02  0.00000000000E+00 0. -1.
         -4   -1    0    0    0  501 -0.00000000000E+00 -0.00000000000E+00 -0.36346052989E+03  0.36346052989E+03  0.00000000000E+00 0.  1.
         23    2    1    2    0    0 -0.24462318916E+02  0.21415965037E+01 -0.22155670635E+03  0.24193511182E+03  0.94033146942E+02 0.  0.
          5    1    1    2  502    0  0.50813213205E+02  0.25859479948E+02 -0.29123309025E+01  0.57242024866E+02  0.41800000000E+01 0.  1.
         -5    1    1    2    0  502 -0.26350894289E+02 -0.28001076452E+02 -0.97957936948E+02  0.10531694889E+03  0.41800000000E+01 0.  1.
        -11    1    3    3    0    0 -0.28807534267E+02 -0.32426688870E+02 -0.47083664818E+02  0.64017463823E+02  0.00000000000E+00 0. -1.
         11    1    3    3    0    0  0.43452153509E+01  0.34568285374E+02 -0.17447304153E+03  0.17791764800E+03  0.00000000000E+00 0.  1.
</event>
<event>
 7    1  0.6610867E-006  0.1289098E+03  0.7561462E-02  0.1229082E+00
         -2   -1    0    0    0  501 -0.00000000000E+00  0.00000000000E+00  0.65127902572E+02  0.65127902572E+02  0.00000000000E+00 0.  1.
          2   -1    0    0  501    0  0.00000000000E+00 -0.00000000000E+00 -0.30332736564E+03  0.30332736564E+03  0.00000000000E+00 0. -1.
         23    2    1    2    0    0 -0.26743668885E+02 -0.80313815341E+02 -0.73017244116E+02  0.14463741676E+03  0.91776530926E+02 0.  0.
          5    1    1    2  502    0  0.26292604938E+02  0.10642832883E+03 -0.83239901324E+02  0.13771217747E+03  0.41800000000E+01 0.  1.
         -5    1    1    2    0  502  0.45106394699E+00 -0.26114513486E+02 -0.81942317626E+02  0.86105673978E+02  0.41800000000E+01 0.  1.
        -11    1    3    3    0    0 -0.52421191867E+02 -0.19996292973E+02 -0.17612975047E+02  0.58805186671E+02  0.00000000000E+00 0. -1.
         11    1    3    3    0    0  0.25677522982E+02 -0.60317522368E+02 -0.55404269069E+02  0.85832230090E+02  0.00000000000E+00 0.  1.
</event>
<event>
 7    1  0.6610867E-006  0.2076223E+03  0.7561462E-02  0.1143463E+00
         -1   -1    0    0    0  501 -0.00000000000E+00  0.00000000000E+00  0.29228955171E+03  0.29228955171E+03  0.00000000000E+00 0.  1.
          1   -1    0    0  501    0  0.00000000000E+00 -0.00000000000E+00 -0.18666441646E+03  0.18666441646E+03  0.00000000000E+00 0. -1.
         23    2    1    2    0    0  0.74712553127E+02  0.17231418789E+03 -0.34991992384E+02  0.21307006976E+03  0.94341243126E+02 0.  0.
          5    1    1    2  502    0 -0.10372570215E+03 -0.12419216985E+03  0.72163374381E+02  0.17722229358E+03  0.41800000000E+01 0.  1.
         -5    1    1    2    0  502  0.29013149027E+02 -0.48122018033E+02  0.68453753253E+02  0.88661604826E+02  0.41800000000E+01 0.  1.
        -11    1    3    3    0    0 -0.62021485344E+01  0.49961333052E+02  0.22980563491E+02  0.55341736015E+02  0.00000000000E+00 0.  1.
         11    1    3    3    0    0  0.80914701662E+02  0.12235285483E+03 -0.57972555875E+02  0.15772833374E+03  0.00000000000E+00 0. -1.
</event>
<event>
 7    1  0.6610867E-006  0.8138014E+02  0.7561462E-02  0.1325180E+00
         -1   -1    0    0    0  501 -0.00000000000E+00  0.00000000000E+00  0.28930535798E+02  0.28930535798E+02  0.00000000000E+00 0.  1.
          1   -1    0    0  501    0  0.00000000000E+00 -0.00000000000E+00 -0.59543561219E+03  0.59543561219E+03  0.00000000000E+00 0. -1.
         23    2    1    2    0    0  0.10860282338E+02 -0.21041861706E+02 -0.96544200488E+02  0.13358731391E+03  0.89241706126E+02 0.  0.
          5    1    1    2  502    0  0.23767793944E+02  0.42348060248E+02 -0.43280883820E+03  0.43554474978E+03  0.41800000000E+01 0. -1.
         -5    1    1    2    0  502 -0.34628076282E+02 -0.21306198542E+02 -0.37152037705E+02  0.55234084304E+02  0.41800000000E+01 0.  1.
        -11    1    3    3    0    0  0.19468640693E+02  0.21927704718E+02 -0.82519246747E+02  0.87574415718E+02  0.00000000000E+00 0.  1.
         11    1    3    3    0    0 -0.86083583557E+01 -0.42969566424E+02 -0.14024953740E+02  0.46012898188E+02  0.00000000000E+00 0. -1.
</event>
<event>
 7    1  0.6610867E-006  0.1255232E+03  0.7561462E-02  0.1234254E+00
          1   -1    0    0  501    0  0.00000000000E+00  0.00000000000E+00  0.43295055597E+03  0.43295055597E+03  0.00000000000E+00 0. -1.
         -1   -1    0    0    0  501 -0.00000000000E+00 -0.00000000000E+00 -0.88648798815E+02  0.88648798815E+02  0.00000000000E+00 0.  1.
         23    2    1    2    0    0  0.81296847836E+02 -0.10114062923E+02 -0.22926415100E+02  0.12509123677E+03  0.91710006381E+02 0.  0.
          5    1    1    2  502    0 -0.83134610975E+02 -0.44491459200E+02  0.24535934397E+03  0.26288692162E+03  0.41800000000E+01 0. -1.
         -5    1    1    2    0  502  0.18377631392E+01  0.54605522123E+02  0.12186882828E+03  0.13362119640E+03  0.41800000000E+01 0. -1.
        -11    1    3    3    0    0  0.24848242780E+02  0.25112453408E+02 -0.42943009711E+02  0.55607306790E+02  0.00000000000E+00 0.  1.
         11    1    3    3    0    0  0.56448605056E+02 -0.35226516331E+02  0.20016594611E+02  0.69483929979E+02  0.00000000000E+00 0. -1.
</event>
<event>
 7    1  0.6610867E-006  0.1915486E+03  0.7561462E-02  0.1157072E+00
         -1   -1    0    0    0  501 -0.00000000000E+00  0.00000000000E+00  0.15099669223E+03  0.15099669223E+03  0.00000000000E+00 0.  1.
          1   -1    0    0  501    0  0.00000000000E+00 -0.00000000000E+00 -0.25652995983E+03  0.25652995983E+03  0.00000000000E+00 0. -1.
         23    2    1    2    0    0  0.16017822228E+03  0.30838743921E+02 -0.40237682563E+02  0.19184385159E+03  0.92611561240E+02 0.  0.
          5    1    1    2  502    0 -0.54569734426E+02  0.47473316219E+02 -0.36071175227E+02  0.80933143708E+02  0.41800000000E+01 0.  1.
         -5    1    1    2    0  502 -0.10560848785E+03 -0.78312060141E+02 -0.29224409810E+02  0.13474965677E+03  0.41800000000E+01 0.  1.
        -11    1    3    3    0    0  0.37035074878E+02 -0.24179660465E+02  0.14117665739E+02  0.46428022114E+02  0.00000000000E+00 0.  1.
         11    1    3    3    0    0  0.12314314740E+03  0.55018404387E+02 -0.54355348302E+02  0.14541582948E+03  0.00000000000E+00 0. -1.
</event>
<event>
 7    1  0.6610867E-006  0.1015945E+03  0.7561462E-02  0.1276978E+00
         -1   -1    0    0    0  501 -0.00000000000E+00  0.00000000000E+00  0.29216253592E+02  0.29216253592E+02  0.00000000000E+00 0.  1.
          1   -1    0    0  501    0  0.00000000000E+00 -0.00000000000E+00 -0.53390361380E+03  0.53390361380E+03  0.00000000000E+00 0. -1.
         23    2    1    2    0    0 -0.63269693793E+01 -0.13757057679E+02 -0.86532227545E+02  0.12639342873E+03  0.90874557735E+02 0.  0.
          5    1    1    2  502    0 -0.76907197972E+01  0.62046327394E+02 -0.32299817176E+03  0.32902003780E+03  0.41800000000E+01 0.  1.
         -5    1    1    2    0  502  0.14017689177E+02 -0.48289269715E+02 -0.95156960909E+02  0.10770640087E+03  0.41800000000E+01 0.  1.
        -11    1    3    3    0    0  0.31216910263E+02  0.22027512661E+02 -0.23866059207E+02  0.45047703410E+02  0.00000000000E+00 0.  1.
         11    1    3    3    0    0 -0.37543879642E+02 -0.35784570340E+02 -0.62666168338E+02  0.81345725316E+02  0.00000000000E+00 0. -1.
</event>
<event>
 7    1  0.6610867E-006  0.1172680E+03  0.7561462E-02  0.1247673E+00
         -1   -1    0    0    0  501 -0.00000000000E+00  0.00000000000E+00  0.46881891842E+03  0.46881891842E+03  0.00000000000E+00 0.  1.
          1   -1    0    0  501    0  0.00000000000E+00 -0.00000000000E+00 -0.31254976325E+02  0.31254976325E+02  0.00000000000E+00 0. -1.
         23    2    1    2    0    0 -0.16286682717E+02  0.46860799578E+02  0.21217410916E+03  0.23756037705E+03  0.94635561888E+02 0.  0.
          5    1    1    2  502    0  0.17704839766E+02 -0.88361127761E+02  0.17660602740E+03  0.19831366964E+03  0.41800000000E+01 0. -1.
         -5    1    1    2    0  502 -0.14181570488E+01  0.41500328183E+02  0.48783805529E+02  0.64199848058E+02  0.41800000000E+01 0. -1.
        -11    1    3    3    0    0  0.50893982389E+01 -0.26083543274E+02  0.88410960336E+02  0.92318747347E+02  0.00000000000E+00 0.  1.
         11    1    3    3    0    0 -0.21376080956E+02  0.72944342852E+02  0.12376314883E+03  0.14524162970E+03  0.00000000000E+00 0. -1.
</event>
<event>
 7    1  0.6610867E-006  0.8305082E+02  0.7561462E-02  0.1320610E+00
         -1   -1    0    0    0  501 -0.00000000000E+00  0.00000000000E+00  0.37041790503E+02  0.37041790503E+02  0.00000000000E+00 0.  1.
          1   -1    0    0  501    0  0.00000000000E+00 -0.00000000000E+00 -0.55018204732E+03  0.55018204732E+03  0.00000000000E+00 0. -1.
         23    2    1    2    0    0  0.30797739190E+02  0.28782115727E+02 -0.56213247435E+02  0.11533083764E+03  0.91456886005E+02 0.  0.
          5    1    1    2  502    0 -0.57920772493E+02 -0.31472416959E+00 -0.38887538529E+03  0.39318755400E+03  0.41800000000E+01 0. -1.
         -5    1    1    2    0  502  0.27123033303E+02 -0.28467391557E+02 -0.68051624094E+02  0.78705446187E+02  0.41800000000E+01 0.  1.
        -11    1    3    3    0    0 -0.10091349640E+02 -0.84693433447E+01 -0.58504841278E+02  0.59969838813E+02  0.00000000000E+00 0.  1.
         11    1    3    3    0    0  0.40889088830E+02  0.37251459072E+02  0.22915938438E+01  0.55360998823E+02  0.00000000000E+00 0. -1.
</event>
<event>
 7    1  0.6610867E-006  0.9445793E+02  0.7561462E-02  0.1292402E+00
         -1   -1    0    0    0  501 -0.00000000000E+00  0.00000000000E+00  0.46756842152E+02  0.46756842152E+02  0.00000000000E+00 0.  1.
          1   -1    0    0  501    0  0.00000000000E+00 -0.00000000000E+00 -0.34566378909E+03  0.34566378909E+03  0.00000000000E+00 0. -1.
         23    2    1    2    0    0 -0.23818109056E+02  0.69643244803E+00 -0.37299214327E+02  0.10146536563E+03  0.91302802237E+02 0.  0.
          5    1    1    2  502    0  0.49433907323E+02 -0.49318334009E+02 -0.11858676325E+03  0.13768188727E+03  0.41800000000E+01 0.  1.
         -5    1    1    2    0  502 -0.25615798267E+02  0.48621901561E+02 -0.14302096936E+03  0.15327337834E+03  0.41800000000E+01 0.  1.
        -11    1    3    3    0    0  0.18466783991E+02  0.93294886905E+01 -0.51926665005E+02  0.55896690499E+02  0.00000000000E+00 0. -1.
         11    1    3    3    0    0 -0.42284893047E+02 -0.86330562425E+01  0.14627450678E+02  0.45568675133E+02  0.00000000000E+00 0.  1.
</event>
<event>
 7    1  0.6610867E-006  0.8377670E+02  0.7561462E-02  0.1318663E+00
          1   -1    0    0  501    0  0.00000000000E+00  0.00000000000E+00  0.57920596428E+03  0.57920596428E+03  0.00000000000E+00 0. -1.
         -1   -1    0    0    0  501 -0.00000000000E+00 -0.00000000000E+00 -0.28628633361E+02  0.28628633361E+02  0.00000000000E+00 0.  1.
         23    2    1    2    0    0  0.36169473935E+01  0.59327260853E+02  0.20633940967E+03  0.23316874179E+03  0.90878512186E+02 0.  0.
          5    1    1    2  502    0  0.22229932026E+02 -0.31980374952E+02  0.33282612630E+03  0.33512328628E+03  0.41800000000E+01 0. -1.
         -5    1    1    2    0  502 -0.25846879419E+02 -0.27346885901E+02  0.11411794953E+02  0.39542569571E+02  0.41800000000E+01 0.  1.
        -11    1    3    3    0    0 -0.27693187919E+02  0.54748659057E+01  0.15046590091E+02  0.31988852546E+02  0.00000000000E+00 0.  1.
         11    1    3    3    0    0  0.31310135313E+02  0.53852394948E+02  0.19129281958E+03  0.20117988924E+03  0.00000000000E+00 0. -1.
</event>
<event>
 7    1  0.6610867E-006  0.1146553E+03  0.7561462E-02  0.1252184E+00
          2   -1    0    0  501    0  0.00000000000E+00  0.00000000000E+00  0.36358456760E+03  0.36358456760E+03  0.00000000000E+00 0. -1.
         -2   -1    0    0    0  501 -0.00000000000E+00 -0.00000000000E+00 -0.38261218677E+02  0.38261218677E+02  0.00000000000E+00 0.  1.
         23    2    1    2    0    0  0.87266145454E+01  0.48182312714E+02  0.11516749014E+03  0.15242483074E+03  0.87017752109E+02 0.  0.
          5    1    1    2  502    0  0.62556177222E+01  0.40619979174E+02  0.91564252336E+02  0.10045197941E+03  0.41800000000E+01 0. -1.
         -5    1    1    2    0  502 -0.14982232268E+02 -0.88802291888E+02  0.11859160645E+03  0.14896897613E+03  0.41800000000E+01 0. -1.
        -11    1    3    3    0    0  0.19634341438E+02 -0.20451208862E+02  0.48171617673E+02  0.55895116575E+02  0.00000000000E+00 0.  1.
         11    1    3    3    0    0 -0.10907726893E+02  0.68633521576E+02  0.66995872467E+02  0.96529714169E+02  0.00000000000E+00 0. -1.
</event>
<event>
 7    1  0.6866239E-006  0.3625163E+03  0.7561462E-02  0.1057592E+00
          1   -1    0    0  501    0  0.00000000000E+00  0.00000000000E+00  0.52220140972E+03  0.52220140972E+03  0.00000000000E+00 0. -1.
         -1   -1    0    0    0  501 -0.00000000000E+00 -0.00000000000E+00 -0.32413916098E+03  0.32413916098E+03  0.00000000000E+00 0.  1.
         23    2    1    2    0    0 -0.27723768017E+03 -0.22544904729E+03 -0.78061201987E+02  0.37774777190E+03  0.94402455930E+02 0.  0.
          5    1    1    2  502    0  0.25309151533E+03  0.23083834646E+03  0.22005172610E+03  0.40716322511E+03  0.41800000000E+01 0.  1.
         -5    1    1    2    0  502  0.24146164847E+02 -0.53892991701E+01  0.56071724624E+02  0.61429573698E+02  0.41800000000E+01 0.  1.
        -11    1    3    3    0    0 -0.53766268160E+02 -0.46096671667E+02 -0.56128963769E+02  0.90366892745E+02  0.00000000000E+00 0.  1.
         11    1    3    3    0    0 -0.22347141201E+03 -0.17935237562E+03 -0.21932238218E+02  0.28738087915E+03  0.00000000000E+00 0. -1.
</event>
<event>
 7    1  0.6610867E-006  0.8811453E+02  0.7561462E-02  0.1307483E+00
         -1   -1    0    0    0  501 -0.00000000000E+00  0.00000000000E+00  0.52651656041E+02  0.52651656041E+02  0.00000000000E+00 0.  1.
          1   -1    0    0  501    0  0.00000000000E+00 -0.00000000000E+00 -0.29475287483E+03  0.29475287483E+03  0.00000000000E+00 0. -1.
         23    2    1    2    0    0 -0.53806176599E+02  0.28204956817E+02 -0.10179321223E+03  0.14985810361E+03  0.91678617645E+02 0.  0.
          5    1    1    2  502    0  0.58562295607E+02 -0.51042229469E+02 -0.27870157582E+02  0.82638185723E+02  0.41800000000E+01 0. -1.
         -5    1    1    2    0  502 -0.47561190077E+01  0.22837272652E+02 -0.11243784898E+03  0.11490824154E+03  0.41800000000E+01 0. -1.
        -11    1    3    3    0    0 -0.59542937178E+00  0.21033270460E+02 -0.93123058435E+02  0.95470712864E+02  0.00000000000E+00 0. -1.
         11    1    3    3    0    0 -0.53210747227E+02  0.71716863565E+01 -0.86701537937E+01  0.54387390749E+02  0.00000000000E+00 0.  1.
</event>
<event>
 7    1  0.6610867E-006  0.1059660E+03  0.7561462E-02  0.1268228E+00
         -2   -1    0    0    0  501 -0.00000000000E+00  0.00000000000E+00  0.54100780489E+02  0.54100780489E+02  0.00000000000E+00 0.  1.
          2   -1    0    0  501    0  0.00000000000E+00 -0.00000000000E+00 -0.40512599767E+03  0.40512599767E+03  0.00000000000E+00 0. -1.
         23    2    1    2    0    0  0.13751277814E+02 -0.92629178682E+02 -0.10182574531E+03  0.16508799275E+03  0.90090513139E+02 0.  0.
          5    1    1    2  502    0 -0.41695660696E+02  0.37191081723E+02 -0.24799121394E+02  0.61271310599E+02  0.41800000000E+01 0. -1.
         -5    1    1    2    0  502  0.27944382882E+02  0.55438096959E+02 -0.22440035048E+03  0.23286747481E+03  0.41800000000E+01 0. -1.
        -11    1    3    3    0    0  0.80549196302E+01 -0.45427672406E+02  0.66854392374E+01  0.46618132183E+02  0.00000000000E+00 0.  1.
         11    1    3    3    0    0  0.56963581838E+01 -0.47201506277E+02 -0.10851118454E+03  0.11846986056E+03  0.00000000000E+00 0. -1.
</event>
<event>
 7    1  0.6610867E-006  0.1583306E+03  0.7561462E-02  0.1190595E+00
         -1   -1    0    0    0  501 -0.00000000000E+00  0.00000000000E+00  0.24502913698E+02  0.24502913698E+02  0.00000000000E+00 0.  1.
          1   -1    0    0  501    0  0.00000000000E+00 -0.00000000000E+00 -0.16395859139E+04  0.16395859139E+04  0.00000000000E+00 0. -1.
         23    2    1    2    0    0  0.21758343451E+02 -0.14388312188E+03 -0.41370121995E+03  0.44747837573E+03  0.88951779596E+02 0.  0.
          5    1    1    2  502    0 -0.31265602905E+02  0.38119270196E+02 -0.11697621193E+03  0.12700993364E+03  0.41800000000E+01 0.  1.
         -5    1    1    2    0  502  0.95072594542E+01  0.10576385168E+03 -0.10844055684E+04  0.10896005183E+04  0.41800000000E+01 0.  1.
        -11    1    3    3    0    0  0.46898181455E+02 -0.94292161561E+02 -0.19279101733E+03  0.21967891915E+03  0.00000000000E+00 0. -1.
         11    1    3    3    0    0 -0.25139838004E+02 -0.49590960317E+02 -0.22091020262E+03  0.22779945658E+03  0.00000000000E+00 0.  1.
</event>
<event>
 7    1  0.6610867E-006  0.1478040E+03  0.7561462E-02  0.1203198E+00
         -2   -1    0    0    0  501 -0.00000000000E+00  0.00000000000E+00  0.65134323466E+02  0.65134323466E+02  0.00000000000E+00 0.  1.
          2   -1    0    0  501    0  0.00000000000E+00 -0.00000000000E+00 -0.10830781860E+04  0.10830781860E+04  0.00000000000E+00 0. -1.
         23    2    1    2    0    0  0.71685129268E+02  0.83768691402E+02 -0.26489322502E+02  0.14439898488E+03  0.89405990916E+02 0.  0.
          5    1    1    2  502    0 -0.70209359794E+02  0.21076001253E+01 -0.40027169106E+03  0.40640951668E+03  0.41800000000E+01 0. -1.
         -5    1    1    2    0  502 -0.14757694742E+01 -0.85876291527E+02 -0.59118284901E+03  0.59740400794E+03  0.41800000000E+01 0.  1.
        -11    1    3    3    0    0  0.46890775371E+02 -0.49336006154E+01  0.41550615565E+01  0.47332333203E+02  0.00000000000E+00 0. -1.
         11    1    3    3    0    0  0.24794353897E+02  0.88702292017E+02 -0.30644384058E+02  0.97066651681E+02  0.00000000000E+00 0.  1.
</event>
<event>
 7    1  0.6610867E-006  0.1356320E+03  0.7561462E-02  0.1219330E+00
          2   -1    0    0  501    0  0.00000000000E+00  0.00000000000E+00  0.10133657336E+04  0.10133657336E+04  0.00000000000E+00 0. -1.
         -2   -1    0    0    0  501 -0.00000000000E+00 -0.00000000000E+00 -0.22982397419E+02  0.22982397419E+02  0.00000000000E+00 0.  1.
         23    2    1    2    0    0  0.10497394582E+03  0.14856508769E+02  0.38353731724E+03  0.40773797506E+03  0.88933331413E+02 0.  0.
          5    1    1    2  502    0 -0.98371292347E+02 -0.40589336935E+02  0.58306265518E+03  0.59270898230E+03  0.41800000000E+01 0.  1.
         -5    1    1    2    0  502 -0.66026534768E+01  0.25732828166E+02  0.23783363759E+02  0.35901173658E+02  0.41800000000E+01 0.  1.
        -11    1    3    3    0    0  0.47334767012E+02  0.51203024920E+02  0.17649653612E+03  0.18977185564E+03  0.00000000000E+00 0. -1.
         11    1    3    3    0    0  0.57639178811E+02 -0.36346516151E+02  0.20704078112E+03  0.21796611943E+03  0.00000000000E+00 0.  1.
</event>
<event>
 7    1  0.6610867E-006  0.1384130E+03  0.7561462E-02  0.1215480E+00
          2   -1    0    0  501    0  0.00000000000E+00  0.00000000000E+00  0.83807585572E+03  0.83807585572E+03  0.00000000000E+00 0. -1.
         -2   -1    0    0    0  501 -0.00000000000E+00 -0.00000000000E+00 -0.39749112500E+02  0.39749112500E+02  0.00000000000E+00 0.  1.
         23    2    1    2    0    0 -0.81187720612E+02  0.96225491116E+02  0.19377672247E+03  0.24776256111E+03  0.89364855491E+02 0.  0.
          5    1    1    2  502    0  0.75001007790E+02 -0.11103405644E+03  0.59695391279E+03  0.61182118242E+03  0.41800000000E+01 0. -1.
         -5    1    1    2    0  502  0.61867128218E+01  0.14808565320E+02  0.75961079674E+01  0.18241224702E+02  0.41800000000E+01 0. -1.
        -11    1    3    3    0    0 -0.50747472612E+02  0.53671424808E+02  0.37254893676E+02  0.82727594672E+02  0.00000000000E+00 0.  1.
         11    1    3    3    0    0 -0.30440248000E+02  0.42554066308E+02  0.15652182879E+03  0.16503496643E+03  0.00000000000E+00 0. -1.
</event>
<event>
 7    1  0.6610867E-006  0.1458904E+03  0.7561462E-02  0.1205616E+00
          1   -1    0    0  501    0  0.00000000000E+00  0.00000000000E+00  0.18667249805E+03  0.18667249805E+03  0.00000000000E+00 0. -1.
         -1   -1    0    0    0  501 -0.00000000000E+00 -0.00000000000E+00 -0.15956932135E+03  0.15956932135E+03  0.00000000000E+00 0.  1.
         23    2    1    2    0    0  0.68394711092E+02 -0.11236232101E+03 -0.53692595168E+01  0.16183880849E+03  0.94126740602E+02 0.  0.
          5    1    1    2  502    0 -0.83255996418E+01  0.91802155633E+02 -0.28198031711E+02  0.96486023758E+02  0.41800000000E+01 0.  1.
         -5    1    1    2    0  502 -0.60069111450E+02  0.20560165376E+02  0.60670467928E+02  0.87916987149E+02  0.41800000000E+01 0.  1.
        -11    1    3    3    0    0  0.47157190968E+02 -0.10173115665E+03  0.32849107059E+02  0.11684217016E+03  0.00000000000E+00 0. -1.
         11    1    3    3    0    0  0.21237520124E+02 -0.10631164357E+02 -0.38218366576E+02  0.44996638323E+02  0.00000000000E+00 0.  1.
</event>
<event>
 7    1  0.6610867E-006  0.3366453E+03  0.7561462E-02  0.1068234E+00
         -2   -1    0    0    0  501 -0.00000000000E+00  0.00000000000E+00  0.88132947851E+02  0.88132947851E+02  0.00000000000E+00 0. -1.
          2   -1    0    0  501    0  0.00000000000E+00 -0.00000000000E+00 -0.18955041328E+04  0.18955041328E+04  0.00000000000E+00 0.  1.
         23    2    1    2    0    0  0.25887315416E+03 -0.20184578576E+03 -0.36583263121E+03  0.49991028110E+03  0.91212630235E+02 0.  0.
          5    1    1    2  502    0 -0.10490264727E+03  0.23356670068E+02 -0.31725570907E+03  0.33499068163E+03  0.41800000000E+01 0. -1.
         -5    1    1    2    0  502 -0.15397050688E+03  0.17848911569E+03 -0.11242828447E+04  0.11487361179E+04  0.41800000000E+01 0. -1.
        -11    1    3    3    0    0  0.12081797014E+03 -0.11549942540E+03 -0.24736712459E+03  0.29854244841E+03  0.00000000000E+00 0.  1.
         11    1    3    3    0    0  0.13805518401E+03 -0.86346360359E+02 -0.11846550663E+03  0.20136783269E+03  0.00000000000E+00 0. -1.
</event>
<event>
 7    1  0.6610867E-006  0.1019091E+03  0.7561462E-02  0.1276332E+00
         -1   -1    0    0    0  501 -0.00000000000E+00  0.00000000000E+00  0.12882666897E+03  0.12882666897E+03  0.00000000000E+00 0.  1.
          1   -1    0    0  501    0  0.00000000000E+00 -0.00000000000E+00 -0.10748418460E+03  0.10748418460E+03  0.00000000000E+00 0. -1.
         23    2    1    2    0    0  0.21070862439E+02 -0.30183794240E+02  0.36326016813E+02  0.10506014692E+03  0.91449506807E+02 0.  0.
          5    1    1    2  502    0 -0.55458184789E+02  0.62026418016E+02 -0.10961886672E+02  0.84026913257E+02  0.41800000000E+01 0. -1.
         -5    1    1    2    0  502  0.34387322350E+02 -0.31842623776E+02 -0.40216457781E+01  0.47223793390E+02  0.41800000000E+01 0. -1.
        -11    1    3    3    0    0  0.36647052704E+01 -0.48239033912E+02  0.55401284585E+02  0.73550912918E+02  0.00000000000E+00 0.  1.
         11    1    3    3    0    0  0.17406157169E+02  0.18055239672E+02 -0.19075267772E+02  0.31509234005E+02  0.00000000000E+00 0. -1.
</event>
<event>
 7    1  0.6610867E-006  0.9596165E+02  0.7561462E-02  0.1289025E+00
          1   -1    0    0  501    0  0.00000000000E+00  0.00000000000E+00  0.34906762471E+02  0.34906762471E+02  0.00000000000E+00 0. -1.
         -1   -1    0    0    0  501 -0.00000000000E+00 -0.00000000000E+00 -0.37673793512E+03  0.37673793512E+03  0.00000000000E+00 0.  1.
         23    2    1    2    0    0  0.16487151537E+02  0.33563306882E+02 -0.14498753580E+03  0.17543950194E+03  0.91429270853E+02 0.  0.
          5    1    1    2  502    0  0.46168333761E+02 -0.21654752536E+02 -0.34438314584E+02  0.61675872600E+02  0.41800000000E+01 0.  1.
         -5    1    1    2    0  502 -0.62655485298E+02 -0.11908554346E+02 -0.16240532227E+03  0.17452932305E+03  0.41800000000E+01 0.  1.
        -11    1    3    3    0    0 -0.23010632114E+02  0.29094186196E+02 -0.15877846779E+02  0.40349310763E+02  0.00000000000E+00 0. -1.
         11    1    3    3    0    0  0.39497783651E+02  0.44691206864E+01 -0.12910968902E+03  0.13509019118E+03  0.00000000000E+00 0.  1.
</event>
<event>
 7    1  0.6610867E-006  0.2521931E+03  0.7561462E-02  0.1111927E+00
         -3   -1    0    0    0  501 -0.00000000000E+00  0.00000000000E+00  0.56561575038E+02  0.56561575038E+02  0.00000000000E+00 0.  1.
          3   -1    0    0  501    0  0.00000000000E+00 -0.00000000000E+00 -0.18675116201E+04  0.18675116201E+04  0.00000000000E+00 0. -1.
         23    2    1    2    0    0 -0.57353753963E+02  0.23476564750E+03 -0.33408837377E+03  0.42234970988E+03  0.91432344428E+02 0.  0.
          5    1    1    2  502    0  0.12687812790E+02 -0.20865738372E+03 -0.97393131708E+03  0.99612176322E+03  0.41800000000E+01 0. -1.
         -5    1    1    2    0  502  0.44665941173E+02 -0.26108263784E+02 -0.50293035425E+03  0.50560172207E+03  0.41800000000E+01 0. -1.
        -11    1    3    3    0    0 -0.46746114374E+02  0.13101513981E+03 -0.25848303099E+03  0.29353644301E+03  0.00000000000E+00 0.  1.
         11    1    3    3    0    0 -0.10607639589E+02  0.10375050769E+03 -0.75605342779E+02  0.12881326686E+03  0.00000000000E+00 0. -1.
</event>
<event>
 7    1  0.6610867E-006  0.1107889E+03  0.7561462E-02  0.1259116E+00
          1   -1    0    0  501    0  0.00000000000E+00  0.00000000000E+00  0.54892674927E+03  0.54892674927E+03  0.00000000000E+00 0.  1.
         -1   -1    0    0    0  501 -0.00000000000E+00 -0.00000000000E+00 -0.28746602984E+02  0.28746602984E+02  0.00000000000E+00 0. -1.
         23    2    1    2    0    0  0.24108304835E+02 -0.50123737921E+02  0.16643750090E+03  0.19836508743E+03  0.92486035372E+02 0.  0.
          5    1    1    2  502    0 -0.32996719038E+02  0.79330295681E+02  0.32819540676E+03  0.33928126488E+03  0.41800000000E+01 0. -1.
         -5    1    1    2    0  502  0.88884142031E+01 -0.29206557760E+02  0.25547238618E+02  0.40026999941E+02  0.41800000000E+01 0. -1.
        -11    1    3    3    0    0  0.54075647085E+02 -0.10536642102E+02  0.11115778766E+03  0.12406147747E+03  0.00000000000E+00 0.  1.
         11    1    3    3    0    0 -0.29967342250E+02 -0.39587095819E+02  0.55279713245E+02  0.74303609961E+02  0.00000000000E+00 0. -1.
</event>
<event>
 7    1  0.6610867E-006  0.1096579E+03  0.7561462E-02  0.1261205E+00
          2   -1    0    0  501    0  0.00000000000E+00  0.00000000000E+00  0.29311149704E+03  0.29311149704E+03  0.00000000000E+00 0. -1.
         -2   -1    0    0    0  501 -0.00000000000E+00 -0.00000000000E+00 -0.65961823694E+02  0.65961823694E+02  0.00000000000E+00 0.  1.
         23    2    1    2    0    0  0.32897422280E+02 -0.52745790468E+02  0.25123166489E+02  0.11345872329E+03  0.91527862378E+02 0.  0.
          5    1    1    2  502    0  0.45161369066E+02  0.39870151039E+02  0.91340352228E+02  0.10949753671E+03  0.41800000000E+01 0. -1.
         -5    1    1    2    0  502 -0.78058791346E+02  0.12875639429E+02  0.11068615463E+03  0.13611706073E+03  0.41800000000E+01 0. -1.
        -11    1    3    3    0    0  0.44081797893E+02 -0.52452523612E+02 -0.16402527081E+02  0.70452218087E+02  0.00000000000E+00 0.  1.
         11    1    3    3    0    0 -0.11184375613E+02 -0.29326685541E+00  0.41525693570E+02  0.43006505203E+02  0.00000000000E+00 0. -1.
</event>
<event>
 7    1  0.1259475E-005  0.2980693E+03  0.7561462E-02  0.1086210E+00
         -2   -1    0    0    0  501 -0.00000000000E+00  0.00000000000E+00  0.79997956597E+02  0.79997956597E+02  0.00000000000E+00 0.  1.
          2   -1    0    0  501    0  0.00000000000E+00 -0.00000000000E+00 -0.12223819968E+04  0.12223819968E+04  0.00000000000E+00 0. -1.
         23    2    1    2    0    0 -0.30531253729E+02  0.28854602942E+03 -0.46901957340E+03  0.55856705805E+03  0.88469370734E+02 0.  0.
          5    1    1    2  502    0  0.34661040477E+02 -0.10450185905E+03 -0.13172757151E+03  0.17173133601E+03  0.41800000000E+01 0. -1.
         -5    1    1    2    0  502 -0.41297867479E+01 -0.18404417037E+03 -0.54163689524E+03  0.57208155928E+03  0.41800000000E+01 0. -1.
        -11    1    3    3    0    0  0.28998508518E+02  0.94865879440E+02 -0.12868017736E+03  0.16247780348E+03  0.00000000000E+00 0.  1.
         11    1    3    3    0    0 -0.59529762247E+02  0.19368014998E+03 -0.34033939604E+03  0.39608925457E+03  0.00000000000E+00 0. -1.
</event>
<event>
 7    1  0.6610867E-006  0.1302706E+03  0.7561462E-02  0.1227055E+00
         -2   -1    0    0    0  501 -0.00000000000E+00  0.00000000000E+00  0.60765512217E+02  0.60765512217E+02  0.00000000000E+00 0.  1.
          2   -1    0    0  501    0  0.00000000000E+00 -0.00000000000E+00 -0.49360156624E+03  0.49360156624E+03  0.00000000000E+00 0. -1.
         23    2    1    2    0    0  0.86802490445E+02  0.48158752081E+02 -0.56058735213E+02  0.14514528970E+03  0.89836716208E+02 0.  0.
          5    1    1    2  502    0 -0.90196435572E+02  0.46893988915E+01 -0.14073566140E+03  0.16727637682E+03  0.41800000000E+01 0. -1.
         -5    1    1    2    0  502  0.33939451264E+01 -0.52848150973E+02 -0.23604165741E+03  0.24194541194E+03  0.41800000000E+01 0. -1.
        -11    1    3    3    0    0  0.40212874262E+02 -0.11011930424E+02 -0.56022091473E+02  0.69834179318E+02  0.00000000000E+00 0.  1.
         11    1    3    3    0    0  0.46589616183E+02  0.59170682505E+02 -0.36643739966E-01  0.75311110382E+02  0.00000000000E+00 0. -1.
</event>
<event>
 7    1  0.6610867E-006  0.1622460E+03  0.7561462E-02  0.1186184E+00
          2   -1    0    0  501    0  0.00000000000E+00  0.00000000000E+00  0.10788836453E+04  0.10788836453E+04  0.00000000000E+00 0. -1.
         -2   -1    0    0    0  501 -0.00000000000E+00 -0.00000000000E+00 -0.30094408406E+02  0.30094408406E+02  0.00000000000E+00 0.  1.
         23    2    1    2    0    0 -0.12803314507E+03 -0.56843172238E+02  0.58608406411E+03  0.60962514499E+03  0.92329056814E+02 0.  0.
          5    1    1    2  502    0  0.13010935167E+03  0.68264254466E+02  0.46420780833E+03  0.48692382725E+03  0.41800000000E+01 0.  1.
         -5    1    1    2    0  502 -0.20762066018E+01 -0.11421082228E+02 -0.15026355265E+01  0.12429081488E+02  0.41800000000E+01 0.  1.
        -11    1    3    3    0    0 -0.14447584263E+02 -0.49250089219E+02  0.13585242883E+03  0.14522460672E+03  0.00000000000E+00 0. -1.
         11    1    3    3    0    0 -0.11358556080E+03 -0.75930830188E+01  0.45023163529E+03  0.46440053827E+03  0.00000000000E+00 0.  1.
</event>
<event>
 7    1  0.6610867E-006  0.1012962E+03  0.7561462E-02  0.1277594E+00
         -2   -1    0    0    0  501 -0.00000000000E+00  0.00000000000E+00  0.26217778436E+02  0.26217778436E+02  0.00000000000E+00 0.  1.
          2   -1    0    0  501    0  0.00000000000E+00 -0.00000000000E+00 -0.12401151508E+04  0.12401151508E+04  0.00000000000E+00 0. -1.
         23    2    1    2    0    0 -0.34037608133E+02  0.30027292656E+02 -0.96872389886E+02  0.14140949564E+03  0.92478043138E+02 0.  0.
          5    1    1    2  502    0 -0.19948016410E+02  0.33605795114E+02 -0.18323172544E+03  0.18739960094E+03  0.41800000000E+01 0. -1.
         -5    1    1    2    0  502  0.53985624544E+02 -0.63633087770E+02 -0.93379325706E+03  0.93752383268E+03  0.41800000000E+01 0. -1.
        -11    1    3    3    0    0 -0.40998984046E+02 -0.74047540848E+01 -0.94482969853E+02  0.10326073149E+03  0.00000000000E+00 0. -1.
         11    1    3    3    0    0  0.69613759128E+01  0.37432046741E+02 -0.23894200330E+01  0.38148764146E+02  0.00000000000E+00 0.  1.
</event>
<event>
 7    1  0.6610867E-006  0.9307875E+02  0.7561462E-02  0.1295563E+00
         -2   -1    0    0    0  501 -0.00000000000E+00  0.00000000000E+00  0.33005806424E+03  0.33005806424E+03  0.00000000000E+00 0.  1.
          2   -1    0    0  501    0  0.00000000000E+00 -0.00000000000E+00 -0.43676634131E+02  0.43676634131E+02  0.00000000000E+00 0. -1.
         23    2    1    2    0    0  0.14646238101E+02  0.92160581415E+01  0.19901824042E+03  0.22018049915E+03  0.92583714374E+02 0.  0.
          5    1    1    2  502    0 -0.31867185559E+02  0.37193408901E+02 -0.42491128705E+01  0.49339583919E+02  0.41800000000E+01 0. -1.
         -5    1    1    2    0  502  0.17220947458E+02 -0.46409467043E+02  0.91612302553E+02  0.10421461530E+03  0.41800000000E+01 0. -1.
        -11    1    3    3    0    0 -0.34193713315E+02  0.16460190941E+02  0.47367431680E+02  0.60694493161E+02  0.00000000000E+00 0. -1.
         11    1    3    3    0    0  0.48839951417E+02 -0.72441327994E+01  0.15165080874E+03  0.15948600599E+03  0.00000000000E+00 0.  1.
</event>
<event>
 7    1  0.6610867E-006  0.8776579E+02  0.7561462E-02  0.1308354E+00
         -1   -1    0    0    0  501 -0.00000000000E+00  0.00000000000E+00  0.38610678154E+02  0.38610678154E+02  0.00000000000E+00 0.  1.
          1   -1    0    0  501    0  0.00000000000E+00 -0.00000000000E+00 -0.32211891607E+03  0.32211891607E+03  0.00000000000E+00 0. -1.
         23    2    1    2    0    0 -0.86000908207E+01  0.31654530698E+01 -0.80993573146E+02  0.12251621079E+03  0.91467378666E+02 0.  0.
          5    1    1    2  502    0  0.45800039950E+00 -0.63469876970E+02 -0.89685940070E+02  0.10995305950E+03  0.41800000000E+01 0.  1.
         -5    1    1    2    0  502  0.81420904212E+01  0.60304423900E+02 -0.11282872470E+03  0.12826032393E+03  0.41800000000E+01 0.  1.
        -11    1    3    3    0    0 -0.12778327676E+02  0.25331054462E+02  0.89796396481E+01  0.29758728241E+02  0.00000000000E+00 0.  1.
         11    1    3    3    0    0  0.41782368549E+01 -0.22165601392E+02 -0.89973212794E+02  0.92757482549E+02  0.00000000000E+00 0. -1.
</event>
<event>
 7    1  0.6610867E-006  0.1243163E+03  0.7561462E-02  0.1236142E+00
         -1   -1    0    0    0  501 -0.00000000000E+00  0.00000000000E+00  0.58781768313E+03  0.58781768313E+03  0.00000000000E+00 0.  1.
          1   -1    0    0  501    0  0.00000000000E+00 -0.00000000000E+00 -0.27179719081E+02  0.27179719081E+02  0.00000000000E+00 0. -1.
         23    2    1    2    0    0 -0.59481666385E+02  0.25942715894E+02  0.26225482374E+03  0.28501151148E+03  0.90790285592E+02 0.  0.
          5    1    1    2  502    0 -0.23350021625E+02 -0.46914583902E+02  0.83149396427E+02  0.98374266039E+02  0.41800000000E+01 0.  1.
         -5    1    1    2    0  502  0.82831688010E+02  0.20971868007E+02  0.21523374389E+03  0.23161162470E+03  0.41800000000E+01 0.  1.
        -11    1    3    3    0    0  0.23729681398E+02  0.10189831481E+02  0.79458970423E+02  0.83550334683E+02  0.00000000000E+00 0. -1.
         11    1    3    3    0    0 -0.83211347783E+02  0.15752884413E+02  0.18279585331E+03  0.20146117679E+03  0.00000000000E+00 0.  1.
</event>
<event>
 7    1  0.6610867E-006  0.9496703E+02  0.7561462E-02  0.1291250E+00
         -1   -1    0    0    0  501 -0.00000000000E+00  0.00000000000E+00  0.42968790304E+02  0.42968790304E+02  0.00000000000E+00 0.  1.
          1   -1    0    0  501    0  0.00000000000E+00 -0.00000000000E+00 -0.40453637078E+03  0.40453637078E+03  0.00000000000E+00 0. -1.
         23    2    1    2    0    0  0.15757082712E+02  0.71470040961E+01 -0.37042217290E+02  0.99276655759E+02  0.90467470363E+02 0.  0.
          5    1    1    2  502    0  0.23174997284E+02  0.50807984398E+02 -0.15701771162E+03  0.16670502674E+03  0.41800000000E+01 0. -1.
         -5    1    1    2    0  502 -0.38932079995E+02 -0.57954988494E+02 -0.16750765156E+03  0.18152347858E+03  0.41800000000E+01 0. -1.
        -11    1    3    3    0    0  0.35760107960E+02 -0.10549808055E+02  0.15467654508E+02  0.40364986155E+02  0.00000000000E+00 0.  1.
         11    1    3    3    0    0 -0.20003025248E+02  0.17696812151E+02 -0.52509871798E+02  0.58911669605E+02  0.00000000000E+00 0. -1.
</event>
<event>
 7    1  0.6610867E-006  0.1026757E+03  0.7561462E-02  0.1274768E+00
         -3   -1    0    0    0  501 -0.00000000000E+00  0.00000000000E+00  0.29553124223E+02  0.29553124223E+02  0.00000000000E+00 0.  1.
          3   -1    0    0  501    0  0.00000000000E+00 -0.00000000000E+00 -0.45729294635E+03  0.45729294635E+03  0.00000000000E+00 0. -1.
         23    2    1    2    0    0 -0.11832797668E+02  0.15728591180E+02 -0.10569561568E+03  0.14080022269E+03  0.90916092392E+02 0.  0.
          5    1    1    2  502    0 -0.50582489489E+02  0.11002992307E+02 -0.86674444191E+02  0.10104249482E+03  0.41800000000E+01 0. -1.
         -5    1    1    2    0  502  0.62415287157E+02 -0.26731583487E+02 -0.23536976226E+03  0.24500335306E+03  0.41800000000E+01 0. -1.
        -11    1    3    3    0    0 -0.47874497839E+02  0.82329410581E+01 -0.31280427979E+02  0.57777279586E+02  0.00000000000E+00 0.  1.
         11    1    3    3    0    0  0.36041700171E+02  0.74956501220E+01 -0.74415187696E+02  0.83022943105E+02  0.00000000000E+00 0. -1.
</event>
<event>
 7    1  0.6610867E-006  0.9929014E+02  0.7561462E-02  0.1281796E+00
         -3   -1    0    0    0  501 -0.00000000000E+00  0.00000000000E+00  0.10695897890E+03  0.10695897890E+03  0.00000000000E+00 0. -1.
          3   -1    0    0  501    0  0.00000000000E+00 -0.00000000000E+00 -0.14262323163E+03  0.14262323163E+03  0.00000000000E+00 0.  1.
         23    2    1    2    0    0 -0.11081480003E+02 -0.20970890580E+02  0.45078639832E+02  0.98824440569E+02  0.84685351944E+02 0.  0.
          5    1    1    2  502    0  0.28927916722E+02 -0.39238717621E+02 -0.69871489392E+00  0.48933239510E+02  0.41800000000E+01 0.  1.
         -5    1    1    2    0  502 -0.17846436719E+02  0.60209608201E+02 -0.80044177665E+02  0.10182453045E+03  0.41800000000E+01 0.  1.
        -11    1    3    3    0    0 -0.31104064693E+02 -0.45459519091E+02  0.36402213817E+02  0.66023873615E+02  0.00000000000E+00 0. -1.
         11    1    3    3    0    0  0.20022584690E+02  0.24488628511E+02  0.86764260154E+01  0.32800566953E+02  0.00000000000E+00 0.  1.
</event>
<event>
 7    1  0.6610867E-006  0.1033809E+03  0.7561462E-02  0.1273343E+00
         -2   -1    0    0    0  501 -0.00000000000E+00  0.00000000000E+00  0.63750739191E+02  0.63750739191E+02  0.00000000000E+00 0.  1.
          2   -1    0    0  501    0  0.00000000000E+00 -0.00000000000E+00 -0.28616348217E+03  0.28616348217E+03  0.00000000000E+00 0. -1.
         23    2    1    2    0    0 -0.52820169677E+02  0.32573491674E+02 -0.39480368955E+02  0.11977960200E+03  0.94538091990E+02 0.  0.
          5    1    1    2  502    0  0.57620850850E+02  0.18276631523E+02 -0.27631990650E+02  0.66597274867E+02  0.41800000000E+01 0. -1.
         -5    1    1    2    0  502 -0.48006811730E+01 -0.50850123197E+02 -0.15530038337E+03  0.16353734449E+03  0.41800000000E+01 0. -1.
        -11    1    3    3    0    0 -0.70429682118E+01 -0.22342898901E+02  0.16769644526E+02  0.28810232732E+02  0.00000000000E+00 0.  1.
         11    1    3    3    0    0 -0.45777201465E+02  0.54916390575E+02 -0.56250013481E+02  0.90969369264E+02  0.00000000000E+00 0. -1.
</event>
<event>
 7    1  0.6610867E-006  0.8473707E+02  0.7561462E-02  0.1316122E+00
         -1   -1    0    0    0  501 -0.00000000000E+00  0.00000000000E+00  0.42283447181E+03  0.42283447181E+03  0.00000000000E+00 0.  1.
          1   -1    0    0  501    0  0.00000000000E+00 -0.00000000000E+00 -0.34358276434E+02  0.34358276434E+02  0.00000000000E+00 0. -1.
         23    2    1    2    0    0 -0.66751390318E+01 -0.48478129008E+02  0.16139755408E+03  0.19336149221E+03  0.94577004244E+02 0.  0.
          5    1    1    2  502    0  0.21124209656E+02 -0.49948342113E+00 -0.81932253700E+01  0.23045239406E+02  0.41800000000E+01 0. -1.
         -5    1    1    2    0  502 -0.14449070625E+02  0.48977612429E+02  0.23527186667E+03  0.24078601663E+03  0.41800000000E+01 0. -1.
        -11    1    3    3    0    0 -0.43217721768E+02 -0.11522575820E+02  0.11610819232E+03  0.12442529306E+03  0.00000000000E+00 0.  1.
         11    1    3    3    0    0  0.36542582736E+02 -0.36955553187E+02  0.45289361759E+02  0.68936199148E+02  0.00000000000E+00 0. -1.
</event>
<event>
 7    1  0.6610867E-006  0.1101484E+03  0.7561462E-02  0.1260295E+00
         -1   -1    0    0    0  501 -0.00000000000E+00  0.00000000000E+00  0.28102968655E+02  0.28102968655E+02  0.00000000000E+00 0.  1.
          1   -1    0    0  501    0  0.00000000000E+00 -0.00000000000E+00 -0.55527400812E+03  0.55527400812E+03  0.00000000000E+00 0. -1.
         23    2    1    2    0    0 -0.34366698981E+02 -0.50804745698E+02 -0.20574100805E+03  0.23305185628E+03  0.90673111435E+02 0.  0.
          5    1    1    2  502    0 -0.46077992668E+02  0.15529775788E+02 -0.14860360640E+03  0.15641246619E+03  0.41800000000E+01 0. -1.
         -5    1    1    2    0  502  0.80444691648E+02  0.35274969910E+02 -0.17282642501E+03  0.19391265430E+03  0.41800000000E+01 0. -1.
        -11    1    3    3    0    0 -0.50319519502E+02 -0.37005465641E+02 -0.20224552601E+03  0.21167123404E+03  0.00000000000E+00 0. -1.
         11    1    3    3    0    0  0.15952820521E+02 -0.13799280057E+02 -0.34954820454E+01  0.21380622241E+02  0.00000000000E+00 0.  1.
</event>
<event>
 7    1  0.6610867E-006  0.1048214E+03  0.7561462E-02  0.1270472E+00
         -1   -1    0    0    0  501 -0.00000000000E+00  0.00000000000E+00  0.27553546381E+02  0.27553546381E+02  0.00000000000E+00 0.  1.
          1   -1    0    0  501    0  0.00000000000E+00 -0.00000000000E+00 -0.55353510918E+03  0.55353510918E+03  0.00000000000E+00 0. -1.
         23    2    1    2    0    0 -0.45579250717E+02 -0.23874345579E+02 -0.16454153292E+03  0.19516885750E+03  0.91485050193E+02 0.  0.
          5    1    1    2  502    0 -0.26613166205E+02  0.47933728808E+02 -0.10685068810E+03  0.12016840234E+03  0.41800000000E+01 0.  1.
         -5    1    1    2    0  502  0.72192416922E+02 -0.24059383229E+02 -0.25458934177E+03  0.26575139572E+03  0.41800000000E+01 0.  1.
        -11    1    3    3    0    0  0.23984546646E+01 -0.29985699304E+02 -0.77168424723E+01  0.31055505232E+02  0.00000000000E+00 0.  1.
         11    1    3    3    0    0 -0.47977705382E+02  0.61113537243E+01 -0.15682469045E+03  0.16411335226E+03  0.00000000000E+00 0. -1.
</event>
<event>
 7    1  0.6610867E-006  0.1400421E+03  0.7561462E-02  0.1213272E+00
         -1   -1    0    0    0  501 -0.00000000000E+00  0.00000000000E+00  0.38005329925E+02  0.38005329925E+02  0.00000000000E+00 0.  1.
          1   -1    0    0  501    0  0.00000000000E+00 -0.00000000000E+00 -0.57247912142E+03  0.57247912142E+03  0.00000000000E+00 0. -1.
         23    2    1    2    0    0  0.82343174537E+02  0.52011332794E+02 -0.18994420383E+03  0.23123004620E+03  0.88898574587E+02 0.  0.
          5    1    1    2  502    0  0.22959734969E+02  0.11457320977E+02 -0.12433687554E+03  0.12702578735E+03  0.41800000000E+01 0.  1.
         -5    1    1    2    0  502 -0.10530290951E+03 -0.63468653771E+02 -0.22019271213E+03  0.25222861780E+03  0.41800000000E+01 0.  1.
        -11    1    3    3    0    0  0.81803695930E+02  0.73257415899E+02 -0.16779614027E+03  0.20053438194E+03  0.00000000000E+00 0.  1.
         11    1    3    3    0    0  0.53947860657E+00 -0.21246083105E+02 -0.22148063562E+02  0.30695664255E+02  0.00000000000E+00 0. -1.
</event>
<event>
 7    1  0.6610867E-006  0.9824995E+02  0.7561462E-02  0.1284020E+00
          2   -1    0    0  501    0  0.00000000000E+00  0.00000000000E+00  0.64152935585E+03  0.64152935585E+03  0.00000000000E+00 0. -1.
         -2   -1    0    0    0  501 -0.00000000000E+00 -0.00000000000E+00 -0.28511297324E+02  0.28511297324E+02  0.00000000000E+00 0.  1.
         23    2    1    2    0    0  0.78215052279E+02  0.91115773878E+00  0.20367023712E+03  0.23670234118E+03  0.91804184115E+02 0.  0.
          5    1    1    2  502    0 -0.28520001371E+02 -0.12708496020E+02  0.36262088450E+03  0.36398664072E+03  0.41800000000E+01 0. -1.
         -5    1    1    2    0  502 -0.49695050909E+02  0.11797338281E+02  0.46726936909E+02  0.69351671272E+02  0.41800000000E+01 0.  1.
        -11    1    3    3    0    0  0.58025676080E+02 -0.38384320365E+02  0.16051402601E+03  0.17494309841E+03  0.00000000000E+00 0.  1.
         11    1    3    3    0    0  0.20189376199E+02  0.39295478104E+02  0.43156211111E+02  0.61759242775E+02  0.00000000000E+00 0. -1.
</event>
<event>
 7    1  0.6610867E-006  0.2260599E+03  0.7561462E-02  0.1129444E+00
         -1   -1    0    0    0  501 -0.00000000000E+00  0.00000000000E+00  0.46557445843E+03  0.46557445843E+03  0.00000000000E+00 0.  1.
          1   -1    0    0  501    0  0.00000000000E+00 -0.00000000000E+00 -0.30944763537E+03  0.30944763537E+03  0.00000000000E+00 0. -1.
         23    2    1    2    0    0  0.25855580879E+02  0.59315164081E+02  0.34593713243E+03  0.36542574005E+03  0.98370077479E+02 0.  0.
          5    1    1    2  502    0 -0.55319137797E+02 -0.19184239106E+03 -0.33459745675E+02  0.20248638719E+03  0.41800000000E+01 0. -1.
         -5    1    1    2    0  502  0.29463556918E+02  0.13252722698E+03 -0.15635056370E+03  0.20710996656E+03  0.41800000000E+01 0.  1.
        -11    1    3    3    0    0  0.59359826417E+02  0.15348083149E+02  0.15626686685E+03  0.16786448798E+03  0.00000000000E+00 0.  1.
         11    1    3    3    0    0 -0.33504245538E+02  0.43967080931E+02  0.18967026559E+03  0.19756125208E+03  0.00000000000E+00 0. -1.
</event>
<event>
 6    1  0.6610867E-006  0.5201918E+02  0.7561462E-02  0.1434745E+00
          3   -1    0    0  501    0  0.00000000000E+00  0.00000000000E+00  0.26361088622E+02  0.26361088622E+02  0.00000000000E+00 0. -1.
         -3   -1    0    0    0  501 -0.00000000000E+00 -0.00000000000E+00 -0.29272281900E+03  0.29272281900E+03  0.00000000000E+00 0.  1.
          5    1    1    2  502    0 -0.19199799503E+02 -0.26202371334E+02  0.75182669245E+01  0.33603471577E+02  0.41800000000E+01 0.  1.
         -5    1    1    2    0  502  0.38275713432E+02  0.10157841704E+01 -0.16774981780E+03  0.17211489136E+03  0.41800000000E+01 0.  1.
        -11    1    1    2    0    0 -0.11678955169E+02  0.82804974228E+01 -0.80616070878E+02  0.81877442041E+02  0.00000000000E+00 0.  1.
         11    1    1    2    0    0 -0.73969587608E+01  0.16906089741E+02 -0.25514108629E+02  0.31488102648E+02  0.00000000000E+00 0. -1.
</event>
<event>
 7    1  0.6610867E-006  0.1275305E+03  0.7561462E-02  0.1231167E+00
          2   -1    0    0  501    0  0.00000000000E+00  0.00000000000E+00  0.67143117507E+03  0.67143117507E+03  0.00000000000E+00 0. -1.
         -2   -1    0    0    0  501 -0.00000000000E+00 -0.00000000000E+00 -0.28433573821E+02  0.28433573821E+02  0.00000000000E+00 0.  1.
         23    2    1    2    0    0  0.50426962750E+02 -0.66666398019E+02  0.24505367512E+03  0.27442965159E+03  0.90956268515E+02 0.  0.
          5    1    1    2  502    0 -0.26205263431E+02 -0.33796531151E+02  0.16609628829E+03  0.17156447981E+03  0.41800000000E+01 0. -1.
         -5    1    1    2    0  502 -0.24221699319E+02  0.10046292917E+03  0.23184763783E+03  0.25387061749E+03  0.41800000000E+01 0. -1.
        -11    1    3    3    0    0 -0.97972703876E+01 -0.42762595875E+02  0.39950904751E+02  0.59335494465E+02  0.00000000000E+00 0.  1.
         11    1    3    3    0    0  0.60224233137E+02 -0.23903802144E+02  0.20510277037E+03  0.21509415712E+03  0.00000000000E+00 0. -1.
</event>
<event>
 7    1  0.6610867E-006  0.6818143E+02  0.7561462E-02  0.1366389E+00
          2   -1    0    0  501    0  0.00000000000E+00  0.00000000000E+00  0.44654382446E+03  0.44654382446E+03  0.00000000000E+00 0. -1.
         -2   -1    0    0    0  501 -0.00000000000E+00 -0.00000000000E+00 -0.27240938909E+02  0.27240938909E+02  0.00000000000E+00 0.  1.
         23    2    1    2    0    0 -0.11508997879E+02  0.12025727409E+02  0.14038201804E+03  0.16764384690E+03  0.90112558863E+02 0.  0.
          5    1    1    2  502    0 -0.84131656035E+01  0.15669270688E+02 -0.59422378318E+01  0.19211714911E+02  0.41800000000E+01 0.  1.
         -5    1    1    2    0  502  0.19922163483E+02 -0.27694998097E+02  0.28486310535E+03  0.28692920156E+03  0.41800000000E+01 0.  1.
        -11    1    3    3    0    0 -0.17249324613E+02 -0.33582780416E+02  0.30501364190E+02  0.48535302178E+02  0.00000000000E+00 0.  1.
         11    1    3    3    0    0  0.57403267333E+01  0.45608507825E+02  0.10988065385E+03  0.11910854473E+03  0.00000000000E+00 0. -1.
</event>
<event>
 7    1  0.6610867E-006  0.1898642E+03  0.7561462E-02  0.1158584E+00
          2   -1    0    0  501    0  0.00000000000E+00  0.00000000000E+00  0.92740200969E+02  0.92740200969E+02  0.00000000000E+00 0.  1.
         -2   -1    0    0    0  501 -0.00000000000E+00 -0.00000000000E+00 -0.48580561925E+03  0.48580561925E+03  0.00000000000E+00 0. -1.
         23    2    1    2    0    0  0.19286242193E+02  0.17117676453E+03 -0.26587579104E+03  0.33056709660E+03  0.94399286245E+02 0.  0.
          5    1    1    2  502    0 -0.25281568191E+01 -0.17404261403E+03 -0.14229043201E+03  0.22485831654E+03  0.41800000000E+01 0. -1.
         -5    1    1    2    0  502 -0.16758085374E+02  0.28658495047E+01  0.15100804768E+02  0.23120407077E+02  0.41800000000E+01 0. -1.
        -11    1    3    3    0    0  0.48609264590E+02  0.11048244379E+03 -0.12167019310E+03  0.17138514194E+03  0.00000000000E+00 0.  1.
         11    1    3    3    0    0 -0.29323022396E+02  0.60694320735E+02 -0.14420559794E+03  0.15918195466E+03  0.00000000000E+00 0. -1.
</event>
<event>
 7    1  0.6610867E-006  0.9879212E+02  0.7561462E-02  0.1282857E+00
          2   -1    0    0  501    0  0.00000000000E+00  0.00000000000E+00  0.48698598929E+03  0.48698598929E+03  0.00000000000E+00 0. -1.
         -2   -1    0    0    0  501 -0.00000000000E+00 -0.00000000000E+00 -0.36075229131E+02  0.36075229131E+02  0.00000000000E+00 0.  1.
         23    2    1    2    0    0 -0.73496787950E+02 -0.45824471482E+01  0.17494327350E+03  0.21124602359E+03  0.92719776104E+02 0.  0.
          5    1    1    2  502    0  0.32208525762E+02 -0.38913408927E+02  0.30636655678E+02  0.59226004400E+02  0.41800000000E+01 0. -1.
         -5    1    1    2    0  502  0.41288262188E+02  0.43495856075E+02  0.24533083098E+03  0.25258919043E+03  0.41800000000E+01 0. -1.
        -11    1    3    3    0    0 -0.62428381095E+02 -0.21959416365E+02  0.17846921728E+03  0.19034384742E+03  0.00000000000E+00 0. -1.
         11    1    3    3    0    0 -0.11068406855E+02  0.17376969217E+02 -0.35259437778E+01  0.20902176179E+02  0.00000000000E+00 0.  1.
</event>
<event>
 7    1  0.6610867E-006  0.1072675E+03  0.7561462E-02  0.1265715E+00
          2   -1    0    0  501    0  0.00000000000E+00  0.00000000000E+00  0.57778031508E+03  0.57778031508E+03  0.00000000000E+00 0. -1.
         -2   -1    0    0    0  501 -0.00000000000E+00 -0.00000000000E+00 -0.39431320564E+02  0.39431320564E+02  0.00000000000E+00 0.  1.
         23    2    1    2    0    0  0.37815798922E+02 -0.80272361833E+02  0.13213933453E+03  0.18301363432E+03  0.90329950151E+02 0.  0.
          5    1    1    2  502    0 -0.20147688675E+02  0.96389718951E+02  0.16817689083E+03  0.19493036266E+03  0.41800000000E+01 0.  1.
         -5    1    1    2    0  502 -0.17668110247E+02 -0.16117357117E+02  0.23803276915E+03  0.23926763866E+03  0.41800000000E+01 0.  1.
        -11    1    3    3    0    0  0.12374590230E+02 -0.71897289469E+01 -0.12482140141E+02  0.18990168725E+02  0.00000000000E+00 0.  1.
         11    1    3    3    0    0  0.25441208692E+02 -0.73082632886E+02  0.14462147468E+03  0.16402346560E+03  0.00000000000E+00 0. -1.
</event>
<event>
 7    1  0.6610868E-006  0.3142197E+03  0.7561462E-02  0.1078341E+00
          1   -1    0    0  501    0  0.00000000000E+00  0.00000000000E+00  0.65065491900E+03  0.65065491900E+03  0.00000000000E+00 0. -1.
         -1   -1    0    0    0  501 -0.00000000000E+00 -0.00000000000E+00 -0.16670933957E+03  0.16670933957E+03  0.00000000000E+00 0.  1.
         23    2    1    2    0    0 -0.30323563109E+03 -0.44495402818E+02  0.17532102241E+03  0.36478455039E+03  0.91643976721E+02 0.  0.
          5    1    1    2  502    0  0.13720265835E+03 -0.73891311084E+01  0.62118900303E+02  0.15084892738E+03  0.41800000000E+01 0. -1.
         -5    1    1    2    0  502  0.16603297274E+03  0.51884533926E+02  0.24650565671E+03  0.30173078081E+03  0.41800000000E+01 0. -1.
        -11    1    3    3    0    0 -0.21737382440E+03  0.58257371935E+01  0.96834367259E+02  0.23803826044E+03  0.00000000000E+00 0.  1.
         11    1    3    3    0    0 -0.85861806685E+02 -0.50321140012E+02  0.78486655156E+02  0.12674628995E+03  0.00000000000E+00 0. -1.
</event>
<event>
 7    1  0.6610867E-006  0.2380742E+03  0.7561462E-02  0.1121082E+00
         -3   -1    0    0    0  501 -0.00000000000E+00  0.00000000000E+00  0.31129626005E+03  0.31129626005E+03  0.00000000000E+00 0.  1.
          3   -1    0    0  501    0  0.00000000000E+00 -0.00000000000E+00 -0.24313726134E+03  0.24313726134E+03  0.00000000000E+00 0. -1.
         23    2    1    2    0    0  0.21836897612E+03 -0.63425289641E+02  0.14385132010E+03  0.28408561359E+03  0.91124400985E+02 0.  0.
          5    1    1    2  502    0 -0.11096410058E+03 -0.16359958715E+02  0.79172694277E+01  0.11252037781E+03  0.41800000000E+01 0.  1.
         -5    1    1    2    0  502 -0.10740487554E+03  0.79785248356E+02 -0.83609590818E+02  0.15782752999E+03  0.41800000000E+01 0.  1.
        -11    1    3    3    0    0  0.17581439397E+03 -0.65042299903E+02  0.15124200644E+03  0.24086375073E+03  0.00000000000E+00 0.  1.
         11    1    3    3    0    0  0.42554582152E+02  0.16170102619E+01 -0.73906863420E+01  0.43221862858E+02  0.00000000000E+00 0. -1.
</event>
<event>
 7    1  0.6610867E-006  0.1333752E+03  0.7561462E-02  0.1222532E+00
         -2   -1    0    0    0  501 -0.00000000000E+00  0.00000000000E+00  0.31969689267E+02  0.31969689267E+02  0.00000000000E+00 0.  1.
          2   -1    0    0  501    0  0.00000000000E+00 -0.00000000000E+00 -0.71113836307E+03  0.71113836307E+03  0.00000000000E+00 0. -1.
         23    2    1    2    0    0  0.23461735695E+02  0.10100133281E+03 -0.29475837520E+03  0.32577008940E+03  0.92151663738E+02 0.  0.
          5    1    1    2  502    0 -0.62841206705E+02 -0.10524139953E+03 -0.28863304892E+03  0.31361007440E+03  0.41800000000E+01 0. -1.
         -5    1    1    2    0  502  0.39379471011E+02  0.42400667120E+01 -0.95777249687E+02  0.10372788854E+03  0.41800000000E+01 0. -1.
        -11    1    3    3    0    0  0.15999780305E+02  0.44586771913E+02 -0.24693420744E+03  0.25143682309E+03  0.00000000000E+00 0. -1.
         11    1    3    3    0    0  0.74619553894E+01  0.56414560901E+02 -0.47824167755E+02  0.74333266317E+02  0.00000000000E+00 0.  1.
</event>
<event>
 7    1  0.6610867E-006  0.1006425E+03  0.7561462E-02  0.1278951E+00
         -1   -1    0    0    0  501 -0.00000000000E+00  0.00000000000E+00  0.16021976052E+03  0.16021976052E+03  0.00000000000E+00 0.  1.
          1   -1    0    0  501    0  0.00000000000E+00 -0.00000000000E+00 -0.88397742221E+02  0.88397742221E+02  0.00000000000E+00 0. -1.
         23    2    1    2    0    0  0.22816930686E+02  0.41711287538E+02  0.39176697607E+02  0.11087774101E+03  0.92187938381E+02 0.  0.
          5    1    1    2  502    0  0.24204314653E+02 -0.44711140306E+02 -0.30046590502E+02  0.59204771059E+02  0.41800000000E+01 0. -1.
         -5    1    1    2    0  502 -0.47021245340E+02  0.29998527679E+01  0.62691911193E+02  0.78534990667E+02  0.41800000000E+01 0. -1.
        -11    1    3    3    0    0 -0.34812197198E+02  0.25345588572E+02  0.98351603967E+01  0.44170332961E+02  0.00000000000E+00 0. -1.
         11    1    3    3    0    0  0.57629127884E+02  0.16365698967E+02  0.29341537211E+02  0.66707408054E+02  0.00000000000E+00 0.  1.
</event>
<event>
 7    1  0.6610867E-006  0.1479790E+03  0.7561462E-02  0.1202979E+00
         -1   -1    0    0    0  501 -0.00000000000E+00  0.00000000000E+00  0.61818534369E+03  0.61818534369E+03  0.00000000000E+00 0.  1.
          1   -1    0    0  501    0  0.00000000000E+00 -0.00000000000E+00 -0.36677297287E+02  0.36677297287E+02  0.00000000000E+00 0. -1.
         23    2    1    2    0    0 -0.84672050813E+02  0.61168442807E+02  0.26886860544E+03  0.30229881014E+03  0.90461644026E+02 0.  0.
          5    1    1    2  502    0  0.10334066844E+03 -0.64387855768E+01  0.17789614176E+03  0.20587681114E+03  0.41800000000E+01 0.  1.
         -5    1    1    2    0  502 -0.18668617628E+02 -0.54729657230E+02  0.13474329921E+03  0.14668701969E+03  0.41800000000E+01 0.  1.
        -11    1    3    3    0    0  0.12434516296E+02  0.29829277273E+02  0.37985134965E+02  0.49872572186E+02  0.00000000000E+00 0. -1.
         11    1    3    3    0    0 -0.97106567108E+02  0.31339165534E+02  0.23088347047E+03  0.25242623796E+03  0.00000000000E+00 0.  1.
</event>
<event>
 7    1  0.6610867E-006  0.1225666E+03  0.7561462E-02  0.1238922E+00
         -1   -1    0    0    0  501 -0.00000000000E+00  0.00000000000E+00  0.12854659605E+02  0.12854659605E+02  0.00000000000E+00 0.  1.
          1   -1    0    0  501    0  0.00000000000E+00 -0.00000000000E+00 -0.12431668231E+04  0.12431668231E+04  0.00000000000E+00 0. -1.
         23    2    1    2    0    0  0.25644047738E+02 -0.60268766932E+02 -0.50951695792E+03  0.52152614494E+03  0.89955811366E+02 0.  0.
          5    1    1    2  502    0 -0.70688945352E+02  0.17416586715E+02 -0.28101317269E+03  0.29032075384E+03  0.41800000000E+01 0.  1.
         -5    1    1    2    0  502  0.45044897613E+02  0.42852180216E+02 -0.43978203291E+03  0.44417458394E+03  0.41800000000E+01 0.  1.
        -11    1    3    3    0    0  0.30514819282E+01 -0.79905929828E+02 -0.33136450282E+03  0.34087637480E+03  0.00000000000E+00 0.  1.
         11    1    3    3    0    0  0.22592565810E+02  0.19637162896E+02 -0.17815245510E+03  0.18064977015E+03  0.00000000000E+00 0. -1.
</event>
<event>
 7    1  0.6610867E-006  0.9996146E+02  0.7561462E-02  0.1280377E+00
         -1   -1    0    0    0  501 -0.00000000000E+00  0.00000000000E+00  0.12898119532E+03  0.12898119532E+03  0.00000000000E+00 0.  1.
          1   -1    0    0  501    0  0.00000000000E+00 -0.00000000000E+00 -0.12736640285E+03  0.12736640285E+03  0.00000000000E+00 0. -1.
         23    2    1    2    0    0 -0.25662650306E+02 -0.63476630919E+02 -0.45872145231E+01  0.11360647602E+03  0.90540237261E+02 0.  0.
          5    1    1    2  502    0  0.79285678858E+01 -0.13240740713E+02 -0.45649694960E+02  0.48368858300E+02  0.41800000000E+01 0. -1.
         -5    1    1    2    0  502  0.17734082420E+02  0.76717371632E+02  0.51851701950E+02  0.94372263852E+02  0.41800000000E+01 0. -1.
        -11    1    3    3    0    0 -0.38977030126E+02  0.12535766245E+01 -0.22649192481E+02  0.45097297611E+02  0.00000000000E+00 0. -1.
         11    1    3    3    0    0  0.13314379820E+02 -0.64730207543E+02  0.18061977958E+02  0.68509178409E+02  0.00000000000E+00 0.  1.
</event>
<event>
 7    1  0.6610867E-006  0.8440528E+02  0.7561462E-02  0.1316995E+00
         -1   -1    0    0    0  501 -0.00000000000E+00  0.00000000000E+00  0.15158218756E+02  0.15158218756E+02  0.00000000000E+00 0.  1.
          1   -1    0    0  501    0  0.00000000000E+00 -0.00000000000E+00 -0.10781302468E+04  0.10781302468E+04  0.00000000000E+00 0. -1.
         23    2    1    2    0    0 -0.56135996773E+02 -0.21080141103E+02 -0.30994061501E+03  0.32758668304E+03  0.87488442618E+02 0.  0.
          5    1    1    2  502    0  0.22070860876E+02  0.17193229095E+02 -0.70981496809E+03  0.71037841419E+03  0.41800000000E+01 0.  1.
         -5    1    1    2    0  502  0.34065135898E+02  0.38869120075E+01 -0.43216444941E+02  0.55323368318E+02  0.41800000000E+01 0.  1.
        -11    1    3    3    0    0  0.87629140595E+01  0.24932414947E+02 -0.83001391841E+02  0.87107089410E+02  0.00000000000E+00 0.  1.
         11    1    3    3    0    0 -0.64898910833E+02 -0.46012556049E+02 -0.22693922317E+03  0.24047959363E+03  0.00000000000E+00 0. -1.
</event>
<event>
 7    1  0.6610867E-006  0.9760510E+02  0.7561462E-02  0.1285414E+00
         -2   -1    0    0    0  501 -0.00000000000E+00  0.00000000000E+00  0.65360937478E+02  0.65360937478E+02  0.00000000000E+00 0.  1.
          2   -1    0    0  501    0  0.00000000000E+00 -0.00000000000E+00 -0.21283383442E+03  0.21283383442E+03  0.00000000000E+00 0. -1.
         23    2    1    2    0    0 -0.19891770192E+02  0.40713053585E+02 -0.51412228296E+02  0.11409596875E+03  0.91221914103E+02 0.  0.
          5    1    1    2  502    0  0.18172299456E+02 -0.79067818403E+02 -0.28152132262E+02  0.85976551021E+02  0.41800000000E+01 0.  1.
         -5    1    1    2    0  502  0.17194707364E+01  0.38354764818E+02 -0.67908536384E+02  0.78122252129E+02  0.41800000000E+01 0.  1.
        -11    1    3    3    0    0 -0.30895727657E+02 -0.22747420018E+01  0.14844813219E+02  0.34352422303E+02  0.00000000000E+00 0.  1.
         11    1    3    3    0    0  0.11003957464E+02  0.42987795587E+02 -0.66257041515E+02  0.79743546445E+02  0.00000000000E+00 0. -1.
</event>
<event>
 7    1  0.6610867E-006  0.1290306E+03  0.7561462E-02  0.1228901E+00
          2   -1    0    0  501    0  0.00000000000E+00  0.00000000000E+00  0.27460327644E+03  0.27460327644E+03  0.00000000000E+00 0. -1.
         -2   -1    0    0    0  501 -0.00000000000E+00 -0.00000000000E+00 -0.10981566538E+03  0.10981566538E+03  0.00000000000E+00 0.  1.
         23    2    1    2    0    0 -0.89083094442E+02  0.23799296448E+02 -0.34278436248E+02  0.13187756994E+03  0.87832101388E+02 0.  0.
          5    1    1    2  502    0  0.70868937584E+02  0.32542529126E+02  0.51669794364E+02  0.93641137145E+02  0.41800000000E+01 0. -1.
         -5    1    1    2    0  502  0.18214156859E+02 -0.56341825574E+02  0.14739625294E+03  0.15890023474E+03  0.41800000000E+01 0. -1.
        -11    1    3    3    0    0 -0.93504219402E+02 -0.28936518146E+01 -0.75629547288E+01  0.93854198366E+02  0.00000000000E+00 0. -1.
         11    1    3    3    0    0  0.44211249596E+01  0.26692948263E+02 -0.26715481519E+02  0.38023371571E+02  0.00000000000E+00 0.  1.
</event>
<event>
 7    1  0.6610867E-006  0.1336262E+03  0.7561462E-02  0.1222172E+00
          2   -1    0    0  501    0  0.00000000000E+00  0.00000000000E+00  0.42585711862E+03  0.42585711862E+03  0.00000000000E+00 0. -1.
         -2   -1    0    0    0  501 -0.00000000000E+00 -0.00000000000E+00 -0.61063778239E+02  0.61063778239E+02  0.00000000000E+00 0.  1.
         23    2    1    2    0    0 -0.26269589018E+02 -0.10377816550E+03  0.87956068994E+02  0.16482455314E+03  0.89279697041E+02 0.  0.
          5    1    1    2  502    0  0.22024897329E+02 -0.23667208842E+02  0.91131716062E+02  0.96786853183E+02  0.41800000000E+01 0.  1.
         -5    1    1    2    0  502  0.42446916890E+01  0.12744537434E+03  0.18570555532E+03  0.22530949054E+03  0.41800000000E+01 0.  1.
        -11    1    3    3    0    0 -0.19369141472E+02 -0.79836367815E+02  0.10596555617E+03  0.13408097688E+03  0.00000000000E+00 0. -1.
         11    1    3    3    0    0 -0.69004475462E+01 -0.23941797681E+02 -0.18009487178E+02  0.30743576255E+02  0.00000000000E+00 0.  1.
</event>
<event>
 7    1  0.6610867E-006  0.1114131E+03  0.7561462E-02  0.1257975E+00
         -3   -1    0    0    0  501 -0.00000000000E+00  0.00000000000E+00  0.21308496944E+02  0.21308496944E+02  0.00000000000E+00 0.  1.
          3   -1    0    0  501    0  0.00000000000E+00 -0.00000000000E+00 -0.70461563058E+03  0.70461563058E+03  0.00000000000E+00 0. -1.
         23    2    1    2    0    0 -0.34355081606E+02 -0.31461469534E+02 -0.22359468403E+03  0.24722516036E+03  0.94634039830E+02 0.  0.
          5    1    1    2  502    0  0.74927306830E+02  0.34986047321E+02 -0.21143788349E+03  0.22707174151E+03  0.41800000000E+01 0.  1.
         -5    1    1    2    0  502 -0.40572225224E+02 -0.35245777876E+01 -0.24827456613E+03  0.25162722566E+03  0.41800000000E+01 0.  1.
        -11    1    3    3    0    0  0.29666731830E+02 -0.64838243070E+01 -0.11307697116E+03  0.11708354437E+03  0.00000000000E+00 0. -1.
         11    1    3    3    0    0 -0.64021813435E+02 -0.24977645227E+02 -0.11051771287E+03  0.13014161599E+03  0.00000000000E+00 0.  1.
</event>
<event>
 7    1  0.6610867E-006  0.1548001E+03  0.7561462E-02  0.1194696E+00
          2   -1    0    0  501    0  0.00000000000E+00  0.00000000000E+00  0.67795738947E+03  0.67795738947E+03  0.00000000000E+00 0. -1.
         -2   -1    0    0    0  501 -0.00000000000E+00 -0.00000000000E+00 -0.59222315231E+02  0.59222315231E+02  0.00000000000E+00 0.  1.
         23    2    1    2    0    0 -0.95852249072E+02  0.11383605594E+03  0.15148933921E+03  0.23110565122E+03  0.91183884801E+02 0.  0.
          5    1    1    2  502    0  0.20457201942E+02 -0.64989725363E+02  0.66276167251E+02  0.95142862368E+02  0.41800000000E+01 0.  1.
         -5    1    1    2    0  502  0.75395047131E+02 -0.48846330581E+02  0.40096956778E+03  0.41093119111E+03  0.41800000000E+01 0.  1.
        -11    1    3    3    0    0 -0.12686974280E+02  0.33308392574E+02 -0.54844002878E+01  0.36062265303E+02  0.00000000000E+00 0.  1.
         11    1    3    3    0    0 -0.83165274793E+02  0.80527663370E+02  0.15697373950E+03  0.19504338592E+03  0.00000000000E+00 0. -1.
</event>
<event>
 7    1  0.6610867E-006  0.9903115E+02  0.7561462E-02  0.1282347E+00
         -1   -1    0    0    0  501 -0.00000000000E+00  0.00000000000E+00  0.30671507474E+03  0.30671507474E+03  0.00000000000E+00 0.  1.
          1   -1    0    0  501    0  0.00000000000E+00 -0.00000000000E+00 -0.52907455451E+02  0.52907455451E+02  0.00000000000E+00 0. -1.
         23    2    1    2    0    0 -0.11111300137E+02 -0.64032836463E+02  0.12888052198E+03  0.17126483977E+03  0.92183465217E+02 0.  0.
          5    1    1    2  502    0 -0.29906225068E+02  0.43613405413E+01 -0.12494994981E+02  0.32969696521E+02  0.41800000000E+01 0. -1.
         -5    1    1    2    0  502  0.41017525205E+02  0.59671495921E+02  0.13742209229E+03  0.15538799390E+03  0.41800000000E+01 0. -1.
        -11    1    3    3    0    0  0.28219318069E+02 -0.14357707295E+02  0.49087234181E+01  0.32040119174E+02  0.00000000000E+00 0. -1.
         11    1    3    3    0    0 -0.39330618207E+02 -0.49675129167E+02  0.12397179857E+03  0.13922472060E+03  0.00000000000E+00 0.  1.
</event>
<event>
 7    1  0.6610867E-006  0.1202545E+03  0.7561462E-02  0.1242678E+00
         -2   -1    0    0    0  501 -0.00000000000E+00  0.00000000000E+00  0.16487185168E+03  0.16487185168E+03  0.00000000000E+00 0.  1.
          2   -1    0    0  501    0  0.00000000000E+00 -0.00000000000E+00 -0.21348423670E+03  0.21348423670E+03  0.00000000000E+00 0. -1.
         23    2    1    2    0    0 -0.31574645089E+02 -0.57487820382E+02  0.11591705712E+03  0.16151786605E+03  0.91375320616E+02 0.  0.
          5    1    1    2  502    0  0.71497240549E+02  0.22208712916E+02 -0.13827289665E+03  0.15729573638E+03  0.41800000000E+01 0. -1.
         -5    1    1    2    0  502 -0.39922595461E+02  0.35279107465E+02 -0.26256545479E+02  0.59542485944E+02  0.41800000000E+01 0. -1.
        -11    1    3    3    0    0 -0.52281359512E+02 -0.14037591859E+01  0.47384616686E+02  0.70573458118E+02  0.00000000000E+00 0. -1.
         11    1    3    3    0    0  0.20706714424E+02 -0.56084061196E+02  0.68532440435E+02  0.90944407934E+02  0.00000000000E+00 0.  1.
</event>
<event>
 7    1  0.6610867E-006  0.1548194E+03  0.7561462E-02  0.1194673E+00
          2   -1    0    0  501    0  0.00000000000E+00  0.00000000000E+00  0.91886426633E+03  0.91886426633E+03  0.00000000000E+00 0. -1.
         -2   -1    0    0    0  501 -0.00000000000E+00 -0.00000000000E+00 -0.34888113550E+02  0.34888113550E+02  0.00000000000E+00 0.  1.
         23    2    1    2    0    0 -0.14076026025E+03 -0.92228095637E+01  0.46600984581E+03  0.49523164656E+03  0.90502465596E+02 0.  0.
          5    1    1    2  502    0  0.92155741352E+02  0.40774974924E+02  0.12888199873E+03  0.16365610664E+03  0.41800000000E+01 0.  1.
         -5    1    1    2    0  502  0.48604518901E+02 -0.31552165360E+02  0.28908430824E+03  0.29486462668E+03  0.41800000000E+01 0.  1.
        -11    1    3    3    0    0 -0.93502522982E+02  0.19312107133E+02  0.17810375963E+03  0.20208074742E+03  0.00000000000E+00 0. -1.
         11    1    3    3    0    0 -0.47257737271E+02 -0.28534916697E+02  0.28790608618E+03  0.29315089914E+03  0.00000000000E+00 0.  1.
</event>
<event>
 7    1  0.6610867E-006  0.1369860E+03  0.7561462E-02  0.1217443E+00
          1   -1    0    0  501    0  0.00000000000E+00  0.00000000000E+00  0.60735184103E+02  0.60735184103E+02  0.00000000000E+00 0. -1.
         -1   -1    0    0    0  501 -0.00000000000E+00 -0.00000000000E+00 -0.31619999188E+03  0.31619999188E+03  0.00000000000E+00 0.  1.
         23    2    1    2    0    0  0.49926855920E+02 -0.65423358535E+02 -0.13343824910E+03  0.18377173201E+03  0.95882096241E+02 0.  0.
          5    1    1    2  502    0  0.24832918285E+02  0.69444264438E+02 -0.71046187105E+02  0.10249006194E+03  0.41800000000E+01 0.  1.
         -5    1    1    2    0  502 -0.74759774205E+02 -0.40209059030E+01 -0.50980371568E+02  0.90673382030E+02  0.41800000000E+01 0.  1.
        -11    1    3    3    0    0 -0.10070293908E+02 -0.64327883186E+02 -0.82214716501E+02  0.10487491113E+03  0.00000000000E+00 0. -1.
         11    1    3    3    0    0  0.59997149829E+02 -0.10954753491E+01 -0.51223532602E+02  0.78896820887E+02  0.00000000000E+00 0.  1.
</event>
<event>
 7    1  0.6610867E-006  0.2786298E+03  0.7561462E-02  0.1096440E+00
          1   -1    0    0  501    0  0.00000000000E+00  0.00000000000E+00  0.22991444596E+04  0.22991444596E+04  0.00000000000E+00 0. -1.
         -1   -1    0    0    0  501 -0.00000000000E+00 -0.00000000000E+00 -0.37025872688E+02  0.37025872688E+02  0.00000000000E+00 0.  1.
         23    2    1    2    0    0  0.12735240669E+03 -0.23732479055E+03  0.11863143921E+04  0.12201311075E+04  0.94002078256E+02 0.  0.
          5    1    1    2  502    0 -0.21983498247E+02  0.76672191981E+02  0.55872662491E+03  0.56440660255E+03  0.41800000000E+01 0.  1.
         -5    1    1    2    0  502 -0.10536890844E+03  0.16065259857E+03  0.51707756984E+03  0.55163262224E+03  0.41800000000E+01 0.  1.
        -11    1    3    3    0    0  0.77432156789E+02 -0.51961623655E+02  0.37722683411E+03  0.38858182357E+03  0.00000000000E+00 0.  1.
         11    1    3    3    0    0  0.49920249903E+02 -0.18536316689E+03  0.80908755802E+03  0.83154928388E+03  0.00000000000E+00 0. -1.
</event>
<event>
 7    1  0.6610867E-006  0.1524849E+03  0.7561462E-02  0.1197452E+00
         -1   -1    0    0    0  501 -0.00000000000E+00  0.00000000000E+00  0.10954230820E+03  0.10954230820E+03  0.00000000000E+00 0.  1.
          1   -1    0    0  501    0  0.00000000000E+00 -0.00000000000E+00 -0.28342691815E+03  0.28342691815E+03  0.00000000000E+00 0. -1.
         23    2    1    2    0    0 -0.26875852577E+01 -0.12461545694E+03 -0.16078815547E+02  0.15614152584E+03  0.92657501370E+02 0.  0.
          5    1    1    2  502    0  0.22279468878E+02 -0.22918912006E+01  0.10501088315E+02  0.25087302657E+02  0.41800000000E+01 0.  1.
         -5    1    1    2    0  502 -0.19591883621E+02  0.12690734814E+03 -0.16830688272E+03  0.21174039786E+03  0.41800000000E+01 0.  1.
        -11    1    3    3    0    0  0.41720285857E+02 -0.38283270802E+02 -0.16772191864E+02  0.59055037848E+02  0.00000000000E+00 0. -1.
         11    1    3    3    0    0 -0.44407871115E+02 -0.86332186136E+02  0.69337631720E+00  0.97086487993E+02  0.00000000000E+00 0.  1.
</event>
<event>
 7    1  0.6610867E-006  0.1559294E+03  0.7561462E-02  0.1193371E+00
         -1   -1    0    0    0  501 -0.00000000000E+00  0.00000000000E+00  0.74262813771E+02  0.74262813771E+02  0.00000000000E+00 0.  1.
          1   -1    0    0  501    0  0.00000000000E+00 -0.00000000000E+00 -0.42805884359E+03  0.42805884359E+03  0.00000000000E+00 0. -1.
         23    2    1    2    0    0 -0.85249570363E+02  0.74442326472E+02 -0.48699207740E+02  0.15371477025E+03  0.91910111193E+02 0.  0.
          5    1    1    2  502    0  0.41196720640E+02  0.31754699338E+02 -0.11710596121E+03  0.12820612026E+03  0.41800000000E+01 0. -1.
         -5    1    1    2    0  502  0.44052849723E+02 -0.10619702581E+03 -0.18799086087E+03  0.22040076686E+03  0.41800000000E+01 0. -1.
        -11    1    3    3    0    0  0.11699370205E+02  0.40108476239E+02 -0.23046748635E+02  0.47714963608E+02  0.00000000000E+00 0.  1.
         11    1    3    3    0    0 -0.96948940568E+02  0.34333850233E+02 -0.25652459106E+02  0.10599980664E+03  0.00000000000E+00 0. -1.
</event>
<event>
 7    1  0.6610867E-006  0.1132637E+03  0.7561462E-02  0.1254643E+00
          1   -1    0    0  501    0  0.00000000000E+00  0.00000000000E+00  0.10623804293E+03  0.10623804293E+03  0.00000000000E+00 0. -1.
         -1   -1    0    0    0  501 -0.00000000000E+00 -0.00000000000E+00 -0.18732959914E+03  0.18732959914E+03  0.00000000000E+00 0.  1.
         23    2    1    2    0    0 -0.61416690879E+02  0.66693362890E+02 -0.32657691911E+02  0.13166245237E+03  0.89713220601E+02 0.  0.
          5    1    1    2  502    0  0.33555174317E+02  0.54630734443E+01 -0.73004049141E+02  0.80640303111E+02  0.41800000000E+01 0.  1.
         -5    1    1    2    0  502  0.27861516563E+02 -0.72156436335E+02  0.24570184837E+02  0.81264886591E+02  0.41800000000E+01 0.  1.
        -11    1    3    3    0    0  0.11043707682E+02  0.33195314022E+02 -0.38004364869E+02  0.51654855545E+02  0.00000000000E+00 0.  1.
         11    1    3    3    0    0 -0.72460398561E+02  0.33498048869E+02  0.53466729578E+01  0.80007596823E+02  0.00000000000E+00 0. -1.
</event>
<event>
 6    1  0.6610867E-006  0.1748053E+03  0.7561462E-02  0.1172927E+00
         -1   -1    0    0    0  501 -0.00000000000E+00  0.00000000000E+00  0.31669894977E+03  0.31669894977E+03  0.00000000000E+00 0.  1.
          1   -1    0    0  501    0  0.00000000000E+00 -0.00000000000E+00 -0.16439635608E+03  0.16439635608E+03  0.00000000000E+00 0. -1.
          5    1    1    2  502    0  0.22223351306E+02  0.87500825924E+00 -0.25115001788E+02  0.33806488986E+02  0.41800000000E+01 0. -1.
         -5    1    1    2    0  502 -0.98105159651E+02  0.81795662435E+02  0.44634432319E+02  0.13536933808E+03  0.41800000000E+01 0. -1.
        -11    1    1    2    0    0  0.97118565157E+02 -0.12112522423E+03  0.18641178616E+03  0.24259573298E+03  0.00000000000E+00 0.  1.
         11    1    1    2    0    0 -0.21236756812E+02  0.38454553533E+02 -0.53628622998E+02  0.69323745802E+02  0.00000000000E+00 0. -1.
</event>
<event>
 7    1  0.6610867E-006  0.2254199E+03  0.7561462E-02  0.1129906E+00
         -1   -1    0    0    0  501 -0.00000000000E+00  0.00000000000E+00  0.88775945490E+02  0.88775945490E+02  0.00000000000E+00 0.  1.
          1   -1    0    0  501    0  0.00000000000E+00 -0.00000000000E+00 -0.66942712469E+03  0.66942712469E+03  0.00000000000E+00 0. -1.
         23    2    1    2    0    0  0.13952518447E+03  0.16243739723E+03 -0.21484345453E+03  0.31625589075E+03  0.89481245835E+02 0.  0.
          5    1    1    2  502    0  0.18439469342E+01  0.91631777046E-01  0.87352466726E+01  0.98582691742E+01  0.41800000000E+01 0. -1.
         -5    1    1    2    0  502 -0.14136913141E+03 -0.16252902901E+03 -0.37454297135E+03  0.43208891026E+03  0.41800000000E+01 0. -1.
        -11    1    3    3    0    0  0.43483656619E+02  0.11651609230E+03 -0.13205156650E+03  0.18139582237E+03  0.00000000000E+00 0. -1.
         11    1    3    3    0    0  0.96041527855E+02  0.45921304932E+02 -0.82791888029E+02  0.13486006838E+03  0.00000000000E+00 0.  1.
</event>
<event>
 7    1  0.6610867E-006  0.9730959E+02  0.7561462E-02  0.1286057E+00
         -1   -1    0    0    0  501 -0.00000000000E+00  0.00000000000E+00  0.47702077731E+02  0.47702077731E+02  0.00000000000E+00 0.  1.
          1   -1    0    0  501    0  0.00000000000E+00 -0.00000000000E+00 -0.33021618939E+03  0.33021618939E+03  0.00000000000E+00 0. -1.
         23    2    1    2    0    0  0.56714704076E+02 -0.12613521392E+02 -0.69152447099E+02  0.12385728785E+03  0.84752039695E+02 0.  0.
          5    1    1    2  502    0 -0.40163294020E+02 -0.41100080359E+02 -0.17901515226E+03  0.18805904374E+03  0.41800000000E+01 0.  1.
         -5    1    1    2    0  502 -0.16551410055E+02  0.53713601751E+02 -0.34346512302E+02  0.66001935541E+02  0.41800000000E+01 0.  1.
        -11    1    3    3    0    0  0.68142365477E+02 -0.12045272967E+02 -0.81572783748E+02  0.10697004077E+03  0.00000000000E+00 0. -1.
         11    1    3    3    0    0 -0.11427661401E+02 -0.56824842510E+00  0.12420336649E+02  0.16887247077E+02  0.00000000000E+00 0.  1.
</event>
<event>
 7    1  0.6610867E-006  0.1164318E+03  0.7561462E-02  0.1249102E+00
          2   -1    0    0  501    0  0.00000000000E+00  0.00000000000E+00  0.77826332739E+03  0.77826332739E+03  0.00000000000E+00 0. -1.
         -2   -1    0    0    0  501 -0.00000000000E+00 -0.00000000000E+00 -0.30131715160E+02  0.30131715160E+02  0.00000000000E+00 0.  1.
         23    2    1    2    0    0  0.37147101929E+02 -0.80507112168E+02  0.18710113436E+03  0.22679105701E+03  0.92552940375E+02 0.  0.
          5    1    1    2  502    0  0.24545879300E+02  0.11335916381E+02  0.35013297765E+03  0.35120019594E+03  0.41800000000E+01 0.  1.
         -5    1    1    2    0  502 -0.61692981229E+02  0.69171195788E+02  0.21089750022E+03  0.23040378960E+03  0.41800000000E+01 0.  1.
        -11    1    3    3    0    0 -0.20566176722E+02 -0.15215571878E+02  0.67003324898E+01  0.26445712469E+02  0.00000000000E+00 0.  1.
         11    1    3    3    0    0  0.57713278651E+02 -0.65291540290E+02  0.18040080187E+03  0.20034534455E+03  0.00000000000E+00 0. -1.
</event>
<event>
 7    1  0.6610867E-006  0.1906276E+03  0.7561462E-02  0.1157896E+00
         -1   -1    0    0    0  501 -0.00000000000E+00  0.00000000000E+00  0.11883860864E+03  0.11883860864E+03  0.00000000000E+00 0.  1.
          1   -1    0    0  501    0  0.00000000000E+00 -0.00000000000E+00 -0.63591773085E+03  0.63591773085E+03  0.00000000000E+00 0. -1.
         23    2    1    2    0    0 -0.37574614020E+01 -0.49658268212E+02  0.51827420851E+02  0.11726633067E+03  0.92656616815E+02 0.  0.
          5    1    1    2  502    0  0.33002301488E+02  0.16384224119E+03 -0.29128824149E+03  0.33585673126E+03  0.41800000000E+01 0. -1.
         -5    1    1    2    0  502 -0.29244840086E+02 -0.11418397298E+03 -0.27761830157E+03  0.30163327755E+03  0.41800000000E+01 0.  1.
        -11    1    3    3    0    0  0.19866955050E+02 -0.64992779413E+02  0.12830354400E+02  0.69161949602E+02  0.00000000000E+00 0.  1.
         11    1    3    3    0    0 -0.23624416452E+02  0.15334511201E+02  0.38997066451E+02  0.48104381071E+02  0.00000000000E+00 0. -1.
</event>
<event>
 7    1  0.6610867E-006  0.1101318E+03  0.7561462E-02  0.1260326E+00
          2   -1    0    0  501    0  0.00000000000E+00  0.00000000000E+00  0.37686503447E+03  0.37686503447E+03  0.00000000000E+00 0. -1.
         -2   -1    0    0    0  501 -0.00000000000E+00 -0.00000000000E+00 -0.53794245438E+02  0.53794245438E+02  0.00000000000E+00 0.  1.
         23    2    1    2    0    0 -0.89514621524E+02 -0.58016120974E+01  0.13018384646E+03  0.18388081640E+03  0.93903112781E+02 0.  0.
          5    1    1    2  502    0  0.62723559611E+02  0.81691127048E+01  0.20673804968E+03  0.21623846309E+03  0.41800000000E+01 0.  1.
         -5    1    1    2    0  502  0.26791061914E+02 -0.23675006074E+01 -0.13851107111E+02  0.30540000422E+02  0.41800000000E+01 0.  1.
        -11    1    3    3    0    0 -0.94774732201E+02 -0.34212019191E+02  0.96716011125E+02  0.13966638439E+03  0.00000000000E+00 0. -1.
         11    1    3    3    0    0  0.52601106766E+01  0.28410407094E+02  0.33467835336E+02  0.44214432006E+02  0.00000000000E+00 0.  1.
</event>
<event>
 7    1  0.6610867E-006  0.8790846E+02  0.7561462E-02  0.1307997E+00
         -1   -1    0    0    0  501 -0.00000000000E+00  0.00000000000E+00  0.18006411662E+03  0.18006411662E+03  0.00000000000E+00 0.  1.
          1   -1    0    0  501    0  0.00000000000E+00 -0.00000000000E+00 -0.13280893958E+03  0.13280893958E+03  0.00000000000E+00 0. -1.
         23    2    1    2    0    0  0.32134288175E+02  0.42371058660E+02  0.11772918990E+03  0.15975845520E+03  0.93992993172E+02 0.  0.
          5    1    1    2  502    0 -0.47385118430E+02 -0.13076922892E+02  0.22601682691E+02  0.54264756716E+02  0.41800000000E+01 0.  1.
         -5    1    1    2    0  502  0.15250830255E+02 -0.29294135768E+02 -0.93075695548E+02  0.98849844287E+02  0.41800000000E+01 0.  1.
        -11    1    3    3    0    0  0.16424708629E+02 -0.21705304636E+02  0.29621263165E+01  0.27380020000E+02  0.00000000000E+00 0. -1.
         11    1    3    3    0    0  0.15709579545E+02  0.64076363296E+02  0.11476706358E+03  0.13237843520E+03  0.00000000000E+00 0.  1.
</event>
<event>
 7    1  0.6610867E-006  0.1046645E+03  0.7561462E-02  0.1270782E+00
         -3   -1    0    0    0  501 -0.00000000000E+00  0.00000000000E+00  0.41922937707E+03  0.41922937707E+03  0.00000000000E+00 0.  1.
          3   -1    0    0  501    0  0.00000000000E+00 -0.00000000000E+00 -0.33827566441E+02  0.33827566441E+02  0.00000000000E+00 0. -1.
         23    2    1    2    0    0 -0.14649308546E+02 -0.62337286185E+01  0.25748350909E+03  0.27343571562E+03  0.90641444751E+02 0.  0.
          5    1    1    2  502    0 -0.95016039158E+01  0.58789491954E+02  0.32523483961E+02  0.67983338034E+02  0.41800000000E+01 0. -1.
         -5    1    1    2    0  502  0.24150912462E+02 -0.52555763336E+02  0.95394817576E+02  0.11163788986E+03  0.41800000000E+01 0. -1.
        -11    1    3    3    0    0 -0.46106665348E+02  0.20403736414E+02  0.15405054083E+03  0.16209165981E+03  0.00000000000E+00 0.  1.
         11    1    3    3    0    0  0.31457356802E+02 -0.26637465032E+02  0.10343296826E+03  0.11134405581E+03  0.00000000000E+00 0. -1.
</event>
<event>
 7    1  0.6610867E-006  0.1032334E+03  0.7561462E-02  0.1273640E+00
          2   -1    0    0  501    0  0.00000000000E+00  0.00000000000E+00  0.70123103954E+03  0.70123103954E+03  0.00000000000E+00 0. -1.
         -2   -1    0    0    0  501 -0.00000000000E+00 -0.00000000000E+00 -0.26723827117E+02  0.26723827117E+02  0.00000000000E+00 0.  1.
         23    2    1    2    0    0  0.34456403916E+02 -0.13000459939E+01  0.10789112381E+03  0.14667116312E+03  0.93182625002E+02 0.  0.
          5    1    1    2  502    0  0.44208033051E+02 -0.18284081987E+02  0.23736011883E+03  0.24216927190E+03  0.41800000000E+01 0.  1.
         -5    1    1    2    0  502 -0.78664436967E+02  0.19584127981E+02  0.32925596978E+03  0.33911443165E+03  0.41800000000E+01 0.  1.
        -11    1    3    3    0    0  0.44972995729E+02 -0.24920188791E+02  0.10928734309E+03  0.12077793471E+03  0.00000000000E+00 0. -1.
         11    1    3    3    0    0 -0.10516591813E+02  0.23620142798E+02 -0.13962192720E+01  0.25893228408E+02  0.00000000000E+00 0.  1.
</event>
<event>
 7    1  0.6610867E-006  0.9875203E+02  0.7561462E-02  0.1282942E+00
          3   -1    0    0  501    0  0.00000000000E+00  0.00000000000E+00  0.83573323546E+02  0.83573323546E+02  0.00000000000E+00 0. -1.
         -3   -1    0    0    0  501 -0.00000000000E+00 -0.00000000000E+00 -0.23946991971E+03  0.23946991971E+03  0.00000000000E+00 0.  1.
         23    2    1    2    0    0 -0.24841058206E+02 -0.26896906781E+02 -0.16504554136E+03  0.19238798477E+03  0.91829103194E+02 0.  0.
          5    1    1    2  502    0  0.58679232733E+02 -0.25557230537E+02  0.19944921968E+02  0.67169164794E+02  0.41800000000E+01 0.  1.
         -5    1    1    2    0  502 -0.33838174527E+02  0.52454137317E+02 -0.10795976763E+02  0.63486093684E+02  0.41800000000E+01 0.  1.
        -11    1    3    3    0    0 -0.40894009820E+02 -0.17030666375E+01 -0.22420542375E+02  0.46667988981E+02  0.00000000000E+00 0. -1.
         11    1    3    3    0    0  0.16052951615E+02 -0.25193840143E+02 -0.14262499899E+03  0.14571999579E+03  0.00000000000E+00 0.  1.
</event>
<event>
 7    1  0.6610867E-006  0.1136246E+03  0.7561462E-02  0.1254001E+00
          1   -1    0    0  501    0  0.00000000000E+00  0.00000000000E+00  0.14382392653E+03  0.14382392653E+03  0.00000000000E+00 0. -1.
         -1   -1    0    0    0  501 -0.00000000000E+00 -0.00000000000E+00 -0.24728211585E+03  0.24728211585E+03  0.00000000000E+00 0.  1.
         23    2    1    2    0    0 -0.16112715954E+02  0.42463453802E+02 -0.22253570152E+02  0.10568651722E+03  0.92798997915E+02 0.  0.
          5    1    1    2  502    0  0.69837794598E+02 -0.87175833497E+02  0.60687593736E+02  0.12719040818E+03  0.41800000000E+01 0. -1.
         -5    1    1    2    0  502 -0.53725078644E+02  0.44712379695E+02 -0.14189221291E+03  0.15822911697E+03  0.41800000000E+01 0.  1.
        -11    1    3    3    0    0 -0.59574722813E+01  0.13478266570E+02  0.36515073208E+02  0.39376461460E+02  0.00000000000E+00 0.  1.
         11    1    3    3    0    0 -0.10155243672E+02  0.28985187232E+02 -0.58768643360E+02  0.66310055763E+02  0.00000000000E+00 0. -1.
</event>
<event>
 7    1  0.6610867E-006  0.1309729E+03  0.7561462E-02  0.1226019E+00
         -2   -1    0    0    0  501 -0.00000000000E+00  0.00000000000E+00  0.42043771054E+02  0.42043771054E+02  0.00000000000E+00 0.  1.
          2   -1    0    0  501    0  0.00000000000E+00 -0.00000000000E+00 -0.49986903339E+03  0.49986903339E+03  0.00000000000E+00 0. -1.
         23    2    1    2    0    0  0.87310075457E+02  0.27004685353E+02 -0.15593071099E+03  0.20258930533E+03  0.91519056477E+02 0.  0.
          5    1    1    2  502    0 -0.56290306792E+01 -0.47865936780E+02 -0.20585961506E+03  0.21146746181E+03  0.41800000000E+01 0.  1.
         -5    1    1    2    0  502 -0.81681044778E+02  0.20861251428E+02 -0.96034936281E+02  0.12785603730E+03  0.41800000000E+01 0.  1.
        -11    1    3    3    0    0  0.71618488084E+02  0.59478641317E+02 -0.11701509931E+03  0.14953076632E+03  0.00000000000E+00 0.  1.
         11    1    3    3    0    0  0.15691587373E+02 -0.32473955965E+02 -0.38915611677E+02  0.53058539016E+02  0.00000000000E+00 0. -1.
</event>
<event>
 7    1  0.6610867E-006  0.2419098E+03  0.7561462E-02  0.1118527E+00
         -2   -1    0    0    0  501 -0.00000000000E+00  0.00000000000E+00  0.83919840692E+02  0.83919840692E+02  0.00000000000E+00 0.  1.
          2   -1    0    0  501    0  0.00000000000E+00 -0.00000000000E+00 -0.74236437794E+03  0.74236437794E+03  0.00000000000E+00 0. -1.
         23    2    1    2    0    0  0.81176338126E+02  0.20723994015E+03 -0.26864467435E+03  0.36031319098E+03  0.90097968232E+02 0.  0.
          5    1    1    2  502    0 -0.68973481917E+02 -0.45792910464E+02 -0.19976360496E+03  0.21628060968E+03  0.41800000000E+01 0. -1.
         -5    1    1    2    0  502 -0.12202856209E+02 -0.16144702968E+03 -0.19003625794E+03  0.24969041797E+03  0.41800000000E+01 0. -1.
        -11    1    3    3    0    0  0.66180021121E+02  0.55186287131E+02 -0.11418357726E+03  0.14304967948E+03  0.00000000000E+00 0. -1.
         11    1    3    3    0    0  0.14996317005E+02  0.15205365302E+03 -0.15446109709E+03  0.21726351151E+03  0.00000000000E+00 0.  1.
</event>
<event>
 7    1  0.6610867E-006  0.1378141E+03  0.7561462E-02  0.1216301E+00
         -1   -1    0    0    0  501 -0.00000000000E+00  0.00000000000E+00  0.50400492362E+02  0.50400492362E+02  0.00000000000E+00 0. -1.
          1   -1    0    0  501    0  0.00000000000E+00 -0.00000000000E+00 -0.46809159421E+03  0.46809159421E+03  0.00000000000E+00 0.  1.
         23    2    1    2    0    0  0.46330440629E+02 -0.93469929267E+02 -0.18863981253E+03  0.23743174850E+03  0.99527478190E+02 0.  0.
          5    1    1    2  502    0 -0.70009926056E+02  0.72086997866E+02 -0.22762080197E+03  0.24885061161E+03  0.41800000000E+01 0.  1.
         -5    1    1    2    0  502  0.23679485428E+02  0.21382931401E+02 -0.14304873478E+01  0.32209726473E+02  0.41800000000E+01 0.  1.
        -11    1    3    3    0    0 -0.84063830735E+01 -0.87399019787E+02 -0.99994949062E+02  0.13307233286E+03  0.00000000000E+00 0.  1.
         11    1    3    3    0    0  0.54736823702E+02 -0.60709094800E+01 -0.88644863472E+02  0.10435941563E+03  0.00000000000E+00 0. -1.
</event>
<event>
 7    1  0.6610867E-006  0.1127321E+03  0.7561462E-02  0.1255592E+00
         -1   -1    0    0    0  501 -0.00000000000E+00  0.00000000000E+00  0.60070476095E+02  0.60070476095E+02  0.00000000000E+00 0.  1.
          1   -1    0    0  501    0  0.00000000000E+00 -0.00000000000E+00 -0.25798757866E+03  0.25798757866E+03  0.00000000000E+00 0. -1.
         23    2    1    2    0    0  0.36843721628E+02 -0.43179287586E+02 -0.99250481074E+02  0.14893115516E+03  0.95435424684E+02 0.  0.
          5    1    1    2  502    0  0.41604193069E+02  0.35498693551E+02 -0.22026434343E+02  0.59107548880E+02  0.41800000000E+01 0.  1.
         -5    1    1    2    0  502 -0.78447914698E+02  0.76805940355E+01 -0.76640187148E+02  0.11001935071E+03  0.41800000000E+01 0.  1.
        -11    1    3    3    0    0  0.28455344236E+02  0.15500976376E+02  0.10538718319E+01  0.32420634325E+02  0.00000000000E+00 0.  1.
         11    1    3    3    0    0  0.83883773926E+01 -0.58680263962E+02 -0.10030435291E+03  0.11651052084E+03  0.00000000000E+00 0. -1.
</event>
<event>
 7    1  0.6610867E-006  0.1195183E+03  0.7561462E-02  0.1243894E+00
         -1   -1    0    0    0  501 -0.00000000000E+00  0.00000000000E+00  0.39999911122E+03  0.39999911122E+03  0.00000000000E+00 0.  1.
          1   -1    0    0  501    0  0.00000000000E+00 -0.00000000000E+00 -0.46325672271E+02  0.46325672271E+02  0.00000000000E+00 0. -1.
         23    2    1    2    0    0 -0.39240155130E+02  0.33966589774E+02  0.26442020666E+03  0.28412479790E+03  0.90085160232E+02 0.  0.
          5    1    1    2  502    0 -0.40664341284E+02 -0.37295327350E+02  0.37731971692E+02  0.66975399827E+02  0.41800000000E+01 0. -1.
         -5    1    1    2    0  502  0.79904496413E+02  0.33287375758E+01  0.51521260593E+02  0.95224585765E+02  0.41800000000E+01 0. -1.
        -11    1    3    3    0    0 -0.17639405625E+02 -0.30717940009E+02  0.10168478538E+03  0.10767792739E+03  0.00000000000E+00 0. -1.
         11    1    3    3    0    0 -0.21600749504E+02  0.64684529783E+02  0.16273542128E+03  0.17644687051E+03  0.00000000000E+00 0.  1.
</event>
<event>
 7    1  0.6610867E-006  0.1890207E+03  0.7561462E-02  0.1159348E+00
          1   -1    0    0  501    0  0.00000000000E+00  0.00000000000E+00  0.14048906108E+03  0.14048906108E+03  0.00000000000E+00 0. -1.
         -1   -1    0    0    0  501 -0.00000000000E+00 -0.00000000000E+00 -0.30989058445E+03  0.30989058445E+03  0.00000000000E+00 0.  1.
         23    2    1    2    0    0  0.14526791428E+03  0.84484600495E+02 -0.14417295039E+03  0.23937093968E+03  0.90951594266E+02 0.  0.
          5    1    1    2  502    0 -0.16285519702E+03 -0.94993555560E+02 -0.22344665202E+02  0.18990088798E+03  0.41800000000E+01 0.  1.
         -5    1    1    2    0  502  0.17587282739E+02  0.10508955065E+02 -0.28839077734E+01  0.21107817858E+02  0.41800000000E+01 0.  1.
        -11    1    3    3    0    0  0.18482345978E+02  0.59729551810E+01 -0.70331163523E+02  0.72964003926E+02  0.00000000000E+00 0.  1.
         11    1    3    3    0    0  0.12678556830E+03  0.78511645314E+02 -0.73841786869E+02  0.16640693576E+03  0.00000000000E+00 0. -1.
</event>
<event>
 7    1  0.6610867E-006  0.1285994E+03  0.7561462E-02  0.1229549E+00
         -1   -1    0    0    0  501 -0.00000000000E+00  0.00000000000E+00  0.30790839365E+02  0.30790839365E+02  0.00000000000E+00 0.  1.
          1   -1    0    0  501    0  0.00000000000E+00 -0.00000000000E+00 -0.84399746884E+03  0.84399746884E+03  0.00000000000E+00 0. -1.
         23    2    1    2    0    0 -0.63052730173E+02 -0.57772461226E+02 -0.15471970577E+03  0.19909042095E+03  0.91572399237E+02 0.  0.
          5    1    1    2  502    0  0.16472429374E+02 -0.31381898336E+02 -0.33528003825E+03  0.33717405138E+03  0.41800000000E+01 0.  1.
         -5    1    1    2    0  502  0.46580300800E+02  0.89154359563E+02 -0.32320688545E+03  0.33852383588E+03  0.41800000000E+01 0.  1.
        -11    1    3    3    0    0 -0.74905240233E+02 -0.14924714739E+02 -0.12182247184E+03  0.14378545396E+03  0.00000000000E+00 0. -1.
         11    1    3    3    0    0  0.11852510060E+02 -0.42847746488E+02 -0.32897233929E+02  0.55304966992E+02  0.00000000000E+00 0.  1.
</event>
<event>
 7    1  0.6610867E-006  0.1295489E+03  0.7561462E-02  0.1228127E+00
         -1   -1    0    0    0  501 -0.00000000000E+00  0.00000000000E+00  0.29305141953E+03  0.29305141953E+03  0.00000000000E+00 0.  1.
          1   -1    0    0  501    0  0.00000000000E+00 -0.00000000000E+00 -0.89755315172E+02  0.89755315172E+02  0.00000000000E+00 0. -1.
         23    2    1    2    0    0  0.27666317787E-01 -0.10818944861E+03  0.15541455346E+03  0.21064144611E+03  0.92256044976E+02 0.  0.
          5    1    1    2  502    0 -0.25147173519E+02  0.52151920087E+02  0.83010869560E+02  0.10129402732E+03  0.41800000000E+01 0. -1.
         -5    1    1    2    0  502  0.25119507202E+02  0.56037528528E+02 -0.35129318662E+02  0.70871261279E+02  0.41800000000E+01 0. -1.
        -11    1    3    3    0    0  0.26103320544E+02 -0.11028975483E+03  0.10835375819E+03  0.15679843838E+03  0.00000000000E+00 0. -1.
         11    1    3    3    0    0 -0.26075654226E+02  0.21003062198E+01  0.47060795278E+02  0.53843007733E+02  0.00000000000E+00 0.  1.
</event>
<event>
 7    1  0.6610867E-006  0.1089543E+03  0.7561462E-02  0.1262519E+00
         -1   -1    0    0    0  501 -0.00000000000E+00  0.00000000000E+00  0.12272773356E+02  0.12272773356E+02  0.00000000000E+00 0.  1.
          1   -1    0    0  501    0  0.00000000000E+00 -0.00000000000E+00 -0.10877016576E+04  0.10877016576E+04  0.00000000000E+00 0. -1.
         23    2    1    2    0    0 -0.30894296011E+02 -0.31497777040E+02 -0.33941315837E+03  0.35210107673E+03  0.82627529764E+02 0.  0.
          5    1    1    2  502    0 -0.20406137026E+02  0.63027251987E+02 -0.27372724458E+03  0.28166100501E+03  0.41800000000E+01 0.  1.
         -5    1    1    2    0  502  0.51300433036E+02 -0.31529474947E+02 -0.46228848133E+03  0.46621234924E+03  0.41800000000E+01 0.  1.
        -11    1    3    3    0    0  0.54333347169E+01 -0.50073407245E+02 -0.14638181978E+03  0.15480472990E+03  0.00000000000E+00 0.  1.
         11    1    3    3    0    0 -0.36327630728E+02  0.18575630205E+02 -0.19303133859E+03  0.19729634682E+03  0.00000000000E+00 0. -1.
</event>
<event>
 7    1  0.6610867E-006  0.1240246E+03  0.7561462E-02  0.1236602E+00
         -1   -1    0    0    0  501 -0.00000000000E+00  0.00000000000E+00  0.11137283451E+03  0.11137283451E+03  0.00000000000E+00 0.  1.
          1   -1    0    0  501    0  0.00000000000E+00 -0.00000000000E+00 -0.21032577929E+03  0.21032577929E+03  0.00000000000E+00 0. -1.
         23    2    1    2    0    0  0.24551864423E+02 -0.80869010688E+02  0.27205371085E+02  0.12332595095E+03  0.85595368008E+02 0.  0.
          5    1    1    2  502    0  0.42427923582E+02 -0.28075732869E+01 -0.19021913160E+02  0.46768758242E+02  0.41800000000E+01 0. -1.
         -5    1    1    2    0  502 -0.66979788005E+02  0.83676583975E+02 -0.10713640271E+03  0.15160390461E+03  0.41800000000E+01 0.  1.
        -11    1    3    3    0    0  0.11007697235E+02  0.43020361169E+01 -0.21315216921E+02  0.24372430851E+02  0.00000000000E+00 0. -1.
         11    1    3    3    0    0  0.13544167188E+02 -0.85171046805E+02  0.48520588006E+02  0.98953520095E+02  0.00000000000E+00 0.  1.
</event>
<event>
 7    1  0.6610867E-006  0.6254244E+02  0.7561462E-02  0.1387462E+00
          2   -1    0    0  501    0  0.00000000000E+00  0.00000000000E+00  0.90984279837E+02  0.90984279837E+02  0.00000000000E+00 0. -1.
         -2   -1    0    0    0  501 -0.00000000000E+00 -0.00000000000E+00 -0.17066203257E+03  0.17066203257E+03  0.00000000000E+00 0.  1.
         23    2    1    2    0    0 -0.19373469080E+02  0.56232913576E+02 -0.43561933064E+02  0.11850407130E+03  0.92779852497E+02 0.  0.
          5    1    1    2  502    0  0.12228631939E+02 -0.50768584459E+02 -0.81390977382E+02  0.96793347945E+02  0.41800000000E+01 0.  1.
         -5    1    1    2    0  502  0.71448371411E+01 -0.54643291173E+01  0.45275157717E+02  0.46348893156E+02  0.41800000000E+01 0.  1.
        -11    1    3    3    0    0 -0.23566101760E+02  0.45170731959E+02  0.19342663488E+02  0.54496741267E+02  0.00000000000E+00 0. -1.
         11    1    3    3    0    0  0.41926326801E+01  0.11062181618E+02 -0.62904596552E+02  0.64007330036E+02  0.00000000000E+00 0.  1.
</event>
<event>
 7    1  0.6610867E-006  0.9624389E+02  0.7561462E-02  0.1288399E+00
         -2   -1    0    0    0  501 -0.00000000000E+00  0.00000000000E+00  0.59014469739E+02  0.59014469739E+02  0.00000000000E+00 0.  1.
          2   -1    0    0  501    0  0.00000000000E+00 -0.00000000000E+00 -0.29648203671E+03  0.29648203671E+03  0.00000000000E+00 0. -1.
         23    2    1    2    0    0  0.17264362246E+02  0.50547156304E+02 -0.33028252519E+02  0.10995337645E+03  0.90254120760E+02 0.  0.
          5    1    1    2  502    0  0.34912534158E+02 -0.14925472975E+02 -0.16842415147E+03  0.17270154019E+03  0.41800000000E+01 0.  1.
         -5    1    1    2    0  502 -0.52176896404E+02 -0.35621683329E+02 -0.36015162981E+02  0.72841589810E+02  0.41800000000E+01 0.  1.
        -11    1    3    3    0    0 -0.28856402344E+02  0.25401707040E+02  0.12514475026E+02  0.40429577811E+02  0.00000000000E+00 0.  1.
         11    1    3    3    0    0  0.46120764590E+02  0.25145449264E+02 -0.45542727544E+02  0.69523798639E+02  0.00000000000E+00 0. -1.
</event>
<event>
 7    1  0.6610867E-006  0.1013154E+03  0.7561462E-02  0.1277554E+00
          2   -1    0    0  501    0  0.00000000000E+00  0.00000000000E+00  0.87333733848E+03  0.87333733848E+03  0.00000000000E+00 0.  1.
         -2   -1    0    0    0  501 -0.00000000000E+00 -0.00000000000E+00 -0.26071079665E+02  0.26071079665E+02  0.00000000000E+00 0. -1.
         23    2    1    2    0    0  0.11971459182E+01  0.83693844481E+02  0.19128077658E+03  0.22561996891E+03  0.85498199516E+02 0.  0.
          5    1    1    2  502    0 -0.16727498359E+02 -0.29986572384E+02  0.31476414052E+02  0.46767945928E+02  0.41800000000E+01 0. -1.
         -5    1    1    2    0  502  0.15530352441E+02 -0.53707272096E+02  0.62450906819E+03  0.62702050331E+03  0.41800000000E+01 0.  1.
        -11    1    3    3    0    0  0.19548122090E+02 -0.59819124526E+01  0.74428604158E+02  0.77185033981E+02  0.00000000000E+00 0.  1.
         11    1    3    3    0    0 -0.18350976171E+02  0.89675756933E+02  0.11685217242E+03  0.14843493493E+03  0.00000000000E+00 0. -1.
</event>
<event>
 7    1  0.6610867E-006  0.6265411E+02  0.7561462E-02  0.1387020E+00
          2   -1    0    0  501    0  0.00000000000E+00  0.00000000000E+00  0.58988023376E+03  0.58988023376E+03  0.00000000000E+00 0.  1.
         -2   -1    0    0    0  501 -0.00000000000E+00 -0.00000000000E+00 -0.18995848332E+02  0.18995848332E+02  0.00000000000E+00 0. -1.
         23    2    1    2    0    0 -0.25849401358E+01  0.10863713202E+02  0.10888873191E+03  0.13011561393E+03  0.70346392029E+02 0.  0.
          5    1    1    2  502    0  0.36124187962E+02 -0.29812396837E+02  0.66920675110E+02  0.81789883960E+02  0.41800000000E+01 0. -1.
         -5    1    1    2    0  502 -0.33539247826E+02  0.18948683635E+02  0.39507497841E+03  0.39697058420E+03  0.41800000000E+01 0. -1.
        -11    1    3    3    0    0  0.17371651343E+02  0.88008876916E+01  0.10830749114E+03  0.11004427533E+03  0.00000000000E+00 0.  1.
         11    1    3    3    0    0 -0.19956591478E+02  0.20628255105E+01  0.58124076734E+00  0.20071338604E+02  0.00000000000E+00 0. -1.
</event>
<event>
 7    1  0.6610867E-006  0.1152937E+03  0.7561462E-02  0.1251069E+00
         -1   -1    0    0    0  501 -0.00000000000E+00  0.00000000000E+00  0.45348958862E+02  0.45348958862E+02  0.00000000000E+00 0.  1.
          1   -1    0    0  501    0  0.00000000000E+00 -0.00000000000E+00 -0.41537884291E+03  0.41537884291E+03  0.00000000000E+00 0. -1.
         23    2    1    2    0    0 -0.15453859489E+02  0.53582297873E+02 -0.61463660753E+02  0.12450885005E+03  0.92815880809E+02 0.  0.
          5    1    1    2  502    0 -0.51464543338E+01 -0.89722216281E+02 -0.18386470152E+03  0.20469553720E+03  0.41800000000E+01 0. -1.
         -5    1    1    2    0  502  0.20600313823E+02  0.36139918408E+02 -0.12470152178E+03  0.13152341452E+03  0.41800000000E+01 0.  1.
        -11    1    3    3    0    0 -0.31754189601E+02  0.69262305808E+02 -0.22484190132E+02  0.79442648301E+02  0.00000000000E+00 0.  1.
         11    1    3    3    0    0  0.16300330112E+02 -0.15680007935E+02 -0.38979470621E+02  0.45066201754E+02  0.00000000000E+00 0. -1.
</event>
<event>
 7    1  0.6610867E-006  0.1916664E+03  0.7561462E-02  0.1156967E+00
         -1   -1    0    0    0  501 -0.00000000000E+00  0.00000000000E+00  0.89280057667E+03  0.89280057667E+03  0.00000000000E+00 0.  1.
          1   -1    0    0  501    0  0.00000000000E+00 -0.00000000000E+00 -0.55539774425E+02  0.55539774425E+02  0.00000000000E+00 0. -1.
         23    2    1    2    0    0  0.16142290254E+03  0.14105464516E+02  0.61949687000E+03  0.64946820444E+03  0.10851847327E+03 0.  0.
          5    1    1    2  502    0 -0.31482564451E+02 -0.51864686768E+02  0.11057389452E+03  0.12619491331E+03  0.41800000000E+01 0. -1.
         -5    1    1    2    0  502 -0.12994033809E+03  0.37759222252E+02  0.10719003773E+03  0.17267723335E+03  0.41800000000E+01 0. -1.
        -11    1    3    3    0    0  0.74948544256E+02  0.53527844326E+02  0.39665335463E+03  0.40720559689E+03  0.00000000000E+00 0.  1.
         11    1    3    3    0    0  0.86474358282E+02 -0.39422379810E+02  0.22284351538E+03  0.24226260755E+03  0.00000000000E+00 0. -1.
</event>
<event>
 7    1  0.6610867E-006  0.1252725E+03  0.7561462E-02  0.1234644E+00
          2   -1    0    0  501    0  0.00000000000E+00  0.00000000000E+00  0.11863299864E+03  0.11863299864E+03  0.00000000000E+00 0. -1.
         -2   -1    0    0    0  501 -0.00000000000E+00 -0.00000000000E+00 -0.14008444593E+03  0.14008444593E+03  0.00000000000E+00 0.  1.
         23    2    1    2    0    0  0.49081309896E+02  0.45405816530E+02 -0.26674922503E+02  0.11678257387E+03  0.91956266302E+02 0.  0.
          5    1    1    2  502    0  0.25134609672E+02  0.26520895024E+02 -0.80586134189E+01  0.37649968479E+02  0.41800000000E+01 0.  1.
         -5    1    1    2    0  502 -0.74215919568E+02 -0.71926711555E+02  0.13282088636E+02  0.10428490222E+03  0.41800000000E+01 0.  1.
        -11    1    3    3    0    0  0.22947391031E+02  0.70475678946E+02 -0.43611089249E+01  0.74245695828E+02  0.00000000000E+00 0.  1.
         11    1    3    3    0    0  0.26133918865E+02 -0.25069862415E+02 -0.22313813578E+02  0.42536878037E+02  0.00000000000E+00 0. -1.
</event>
<event>
 7    1  0.6610867E-006  0.1004219E+03  0.7561462E-02  0.1279411E+00
         -2   -1    0    0    0  501 -0.00000000000E+00  0.00000000000E+00  0.93467797787E+01  0.93467797787E+01  0.00000000000E+00 0.  1.
          2   -1    0    0  501    0  0.00000000000E+00 -0.00000000000E+00 -0.20188999281E+04  0.20188999281E+04  0.00000000000E+00 0. -1.
         23    2    1    2    0    0 -0.63085798034E+02 -0.83991883050E+01 -0.47000063709E+03  0.48282106021E+03  0.90361568368E+02 0.  0.
          5    1    1    2  502    0  0.76735842749E+02  0.15882158151E+02 -0.15075721264E+04  0.15096131363E+04  0.41800000000E+01 0. -1.
         -5    1    1    2    0  502 -0.13650044715E+02 -0.74829698456E+01 -0.31980384807E+02  0.35812511373E+02  0.41800000000E+01 0.  1.
        -11    1    3    3    0    0 -0.82851105331E+02  0.39518014172E+01 -0.41286544337E+03  0.42111494478E+03  0.00000000000E+00 0.  1.
         11    1    3    3    0    0  0.19765307298E+02 -0.12350989722E+02 -0.57135193723E+02  0.61706115430E+02  0.00000000000E+00 0. -1.
</event>
<event>
 7    1  0.6610867E-006  0.1149926E+03  0.7561462E-02  0.1251594E+00
         -2   -1    0    0    0  501 -0.00000000000E+00  0.00000000000E+00  0.32385936520E+03  0.32385936520E+03  0.00000000000E+00 0.  1.
          2   -1    0    0  501    0  0.00000000000E+00 -0.00000000000E+00 -0.24444752172E+03  0.24444752172E+03  0.00000000000E+00 0. -1.
         23    2    1    2    0    0 -0.97113532910E+01  0.52159119249E+02  0.18608160965E+03  0.21347826626E+03  0.90176053425E+02 0.  0.
          5    1    1    2  502    0  0.66933759932E+02 -0.20248064922E+02 -0.21612431374E+03  0.22719441837E+03  0.41800000000E+01 0. -1.
         -5    1    1    2    0  502 -0.57222406641E+02 -0.31911054327E+02  0.10945454757E+03  0.12763420229E+03  0.41800000000E+01 0.  1.
        -11    1    3    3    0    0 -0.21375524187E+02  0.69873076666E+02  0.17479440631E+03  0.18945248575E+03  0.00000000000E+00 0.  1.
         11    1    3    3    0    0  0.11664170896E+02 -0.17713957417E+02  0.11287203338E+02  0.24025780514E+02  0.00000000000E+00 0. -1.
</event>
<event>
 7    1  0.6610867E-006  0.1666303E+03  0.7561462E-02  0.1181408E+00
         -2   -1    0    0    0  501 -0.00000000000E+00  0.00000000000E+00  0.20885154069E+03  0.20885154069E+03  0.00000000000E+00 0.  1.
          2   -1    0    0  501    0  0.00000000000E+00 -0.00000000000E+00 -0.22813484277E+03  0.22813484277E+03  0.00000000000E+00 0. -1.
         23    2    1    2    0    0 -0.79955510864E+02  0.14574840128E+03  0.88729233439E+02  0.20926802583E+03  0.91020599738E+02 0.  0.
          5    1    1    2  502    0  0.32809333698E+02 -0.71794048524E+02 -0.11509989088E+03  0.13962913400E+03  0.41800000000E+01 0. -1.
         -5    1    1    2    0  502  0.47146177166E+02 -0.73954352757E+02  0.70873553633E+01  0.88089223626E+02  0.41800000000E+01 0.  1.
        -11    1    3    3    0    0 -0.27603867107E+02  0.57959775348E+02 -0.12508683992E+02  0.65404710938E+02  0.00000000000E+00 0. -1.
         11    1    3    3    0    0 -0.52351643757E+02  0.87788625933E+02  0.10123791743E+03  0.14386331490E+03  0.00000000000E+00 0.  1.
</event>
<event>
 7    1  0.6610867E-006  0.9704628E+02  0.7561462E-02  0.1286633E+00
         -1   -1    0    0    0  501 -0.00000000000E+00  0.00000000000E+00  0.64170375043E+02  0.64170375043E+02  0.00000000000E+00 0.  1.
          1   -1    0    0  501    0  0.00000000000E+00 -0.00000000000E+00 -0.27151858607E+03  0.27151858607E+03  0.00000000000E+00 0. -1.
         23    2    1    2    0    0  0.39268417890E+02  0.59902035652E+02 -0.99256046786E+02  0.15552521512E+03  0.95948252693E+02 0.  0.
          5    1    1    2  502    0  0.58013978626E+01 -0.17375304768E+02 -0.11603903241E+03  0.11755035889E+03  0.41800000000E+01 0.  1.
         -5    1    1    2    0  502 -0.45069815753E+02 -0.42526730884E+02  0.79468681644E+01  0.62613387109E+02  0.41800000000E+01 0.  1.
        -11    1    3    3    0    0  0.55913519534E+02  0.53585844142E+01 -0.23948152054E+02  0.61061854545E+02  0.00000000000E+00 0. -1.
         11    1    3    3    0    0 -0.16645101644E+02  0.54543451238E+02 -0.75307894733E+02  0.94463360573E+02  0.00000000000E+00 0.  1.
</event>
<event>
 7    1  0.6610867E-006  0.1340637E+03  0.7561462E-02  0.1221548E+00
         -1   -1    0    0    0  501 -0.00000000000E+00  0.00000000000E+00  0.32308220438E+03  0.32308220438E+03  0.00000000000E+00 0.  1.
          1   -1    0    0  501    0  0.00000000000E+00 -0.00000000000E+00 -0.73372468834E+02  0.73372468834E+02  0.00000000000E+00 0. -1.
         23    2    1    2    0    0  0.84935572628E+02 -0.60726234065E+02  0.15316327069E+03  0.20706199502E+03  0.92271096725E+02 0.  0.
          5    1    1    2  502    0 -0.82254364878E+02  0.89626528998E+02  0.10290032790E+03  0.15938834688E+03  0.41800000000E+01 0.  1.
         -5    1    1    2    0  502 -0.26812077496E+01 -0.28900294932E+02 -0.63538630373E+01  0.30004331315E+02  0.41800000000E+01 0.  1.
        -11    1    3    3    0    0  0.76256379092E+02 -0.24899081825E+02  0.43256730913E+02  0.91138051314E+02  0.00000000000E+00 0. -1.
         11    1    3    3    0    0  0.86791935355E+01 -0.35827152240E+02  0.10990653978E+03  0.11592394371E+03  0.00000000000E+00 0.  1.
</event>
<event>
 7    1  0.6610867E-006  0.9404742E+02  0.7561462E-02  0.1293336E+00
         -3   -1    0    0    0  501 -0.00000000000E+00  0.00000000000E+00  0.86414601517E+02  0.86414601517E+02  0.00000000000E+00 0.  1.
          3   -1    0    0  501    0  0.00000000000E+00 -0.00000000000E+00 -0.16214076127E+03  0.16214076127E+03  0.00000000000E+00 0. -1.
         23    2    1    2    0    0 -0.29689339513E+02 -0.24467529520E+02  0.11649745622E+01  0.96768851218E+02  0.88784776391E+02 0.  0.
          5    1    1    2  502    0  0.71110609334E+02  0.13072960772E+02 -0.80728296786E+02  0.10845345253E+03  0.41800000000E+01 0.  1.
         -5    1    1    2    0  502 -0.41421269821E+02  0.11394568747E+02  0.38371624659E+01  0.43333059047E+02  0.41800000000E+01 0.  1.
        -11    1    3    3    0    0  0.13795876729E+02 -0.25520843134E+02  0.32194647740E+02  0.43337454841E+02  0.00000000000E+00 0.  1.
         11    1    3    3    0    0 -0.43485216242E+02  0.10533136142E+01 -0.31029673178E+02  0.53431396376E+02  0.00000000000E+00 0. -1.
</event>
<event>
 7    1  0.6610867E-006  0.1088279E+03  0.7561462E-02  0.1262756E+00
          1   -1    0    0  501    0  0.00000000000E+00  0.00000000000E+00  0.31417678896E+03  0.31417678896E+03  0.00000000000E+00 0. -1.
         -1   -1    0    0    0  501 -0.00000000000E+00 -0.00000000000E+00 -0.42889416952E+02  0.42889416952E+02  0.00000000000E+00 0.  1.
         23    2    1    2    0    0  0.11468705149E+02 -0.35051453597E+02  0.83353654742E+02  0.12831562412E+03  0.90315735267E+02 0.  0.
          5    1    1    2  502    0 -0.29092110685E+02  0.78008579476E+02  0.11142074637E+03  0.13915367224E+03  0.41800000000E+01 0. -1.
         -5    1    1    2    0  502  0.17623405537E+02 -0.42957125878E+02  0.76512970898E+02  0.89596909556E+02  0.41800000000E+01 0. -1.
        -11    1    3    3    0    0  0.33728330910E+02 -0.50394203069E+02  0.28165914038E+02  0.66861758297E+02  0.00000000000E+00 0.  1.
         11    1    3    3    0    0 -0.22259625761E+02  0.15342749472E+02  0.55187740704E+02  0.61453865821E+02  0.00000000000E+00 0. -1.
</event>
<event>
 7    1  0.6610867E-006  0.1086469E+03  0.7561462E-02  0.1263096E+00
          3   -1    0    0  501    0  0.00000000000E+00  0.00000000000E+00  0.80643891457E+02  0.80643891457E+02  0.00000000000E+00 0. -1.
         -3   -1    0    0    0  501 -0.00000000000E+00 -0.00000000000E+00 -0.20679277884E+03  0.20679277884E+03  0.00000000000E+00 0.  1.
         23    2    1    2    0    0  0.65057774634E+02  0.41955992368E+01 -0.83287159329E+02  0.14000470686E+03  0.91730310917E+02 0.  0.
          5    1    1    2  502    0 -0.53419441954E+02  0.36181633719E+02 -0.71508467280E+02  0.96403737947E+02  0.41800000000E+01 0. -1.
         -5    1    1    2    0  502 -0.11638332680E+02 -0.40377232956E+02  0.28646739223E+02  0.51028225492E+02  0.41800000000E+01 0. -1.
        -11    1    3    3    0    0  0.86597389366E+02  0.12157645287E+02 -0.53954554409E+02  0.10275217820E+03  0.00000000000E+00 0. -1.
         11    1    3    3    0    0 -0.21539614732E+02 -0.79620460500E+01 -0.29332604920E+02  0.37252528659E+02  0.00000000000E+00 0.  1.
</event>
<event>
 7    1  0.6610867E-006  0.1102374E+03  0.7561462E-02  0.1260131E+00
         -1   -1    0    0    0  501 -0.00000000000E+00  0.00000000000E+00  0.42500425507E+02  0.42500425507E+02  0.00000000000E+00 0.  1.
          1   -1    0    0  501    0  0.00000000000E+00 -0.00000000000E+00 -0.43107871538E+03  0.43107871538E+03  0.00000000000E+00 0. -1.
         23    2    1    2    0    0  0.39376404134E+02 -0.65654091914E+01 -0.55856652803E+02  0.11588198206E+03  0.93354498041E+02 0.  0.
          5    1    1    2  502    0  0.40287763833E+02 -0.45220121270E+01 -0.18510024095E+03  0.18953396558E+03  0.41800000000E+01 0. -1.
         -5    1    1    2    0  502 -0.79664167968E+02  0.11087421318E+02 -0.14762139611E+03  0.16816319324E+03  0.41800000000E+01 0. -1.
        -11    1    3    3    0    0  0.14220151786E+00  0.39027910703E+02 -0.10122487149E+02  0.40319508693E+02  0.00000000000E+00 0.  1.
         11    1    3    3    0    0  0.39234202617E+02 -0.45593319895E+02 -0.45734165654E+02  0.75562473372E+02  0.00000000000E+00 0. -1.
</event>
<event>
 7    1  0.6610867E-006  0.1400895E+03  0.7561462E-02  0.1213209E+00
          2   -1    0    0  501    0  0.00000000000E+00  0.00000000000E+00  0.55469127308E+03  0.55469127308E+03  0.00000000000E+00 0.  1.
         -2   -1    0    0    0  501 -0.00000000000E+00 -0.00000000000E+00 -0.55116106616E+02  0.55116106616E+02  0.00000000000E+00 0. -1.
         23    2    1    2    0    0 -0.42402418245E+02  0.11497183711E+03  0.12730643064E+03  0.19840398756E+03  0.90225975166E+02 0.  0.
          5    1    1    2  502    0  0.24325138031E+02  0.18816193896E+01  0.20516684115E+03  0.20665468284E+03  0.41800000000E+01 0.  1.
         -5    1    1    2    0  502  0.18077280214E+02 -0.11685345650E+03  0.16710189467E+03  0.20474870930E+03  0.41800000000E+01 0.  1.
        -11    1    3    3    0    0  0.10048872014E+02  0.61096094382E+02  0.10152391904E+03  0.11891517445E+03  0.00000000000E+00 0.  1.
         11    1    3    3    0    0 -0.52451290259E+02  0.53875742729E+02  0.25782511598E+02  0.79488813104E+02  0.00000000000E+00 0. -1.
</event>
<event>
 7    1  0.6610867E-006  0.7651851E+02  0.7561462E-02  0.1339232E+00
          1   -1    0    0  501    0  0.00000000000E+00  0.00000000000E+00  0.12235376820E+03  0.12235376820E+03  0.00000000000E+00 0. -1.
         -1   -1    0    0    0  501 -0.00000000000E+00 -0.00000000000E+00 -0.13922086723E+03  0.13922086723E+03  0.00000000000E+00 0.  1.
         23    2    1    2    0    0  0.64384043950E+02 -0.31903019350E+02  0.37970545786E+01  0.11584469469E+03  0.90788038341E+02 0.  0.
          5    1    1    2  502    0 -0.41201327240E+02  0.13739824022E+02 -0.73280893995E+02  0.85287126550E+02  0.41800000000E+01 0.  1.
         -5    1    1    2    0  502 -0.23182716710E+02  0.18163195328E+02  0.52616740379E+02  0.60442814186E+02  0.41800000000E+01 0.  1.
        -11    1    3    3    0    0  0.24289835277E+02 -0.31223241505E+02  0.43926686601E+02  0.59113794529E+02  0.00000000000E+00 0. -1.
         11    1    3    3    0    0  0.40094208673E+02 -0.67977784484E+00 -0.40129632022E+02  0.56730900163E+02  0.00000000000E+00 0.  1.
</event>
<event>
 7    1  0.6610867E-006  0.1255222E+03  0.7561462E-02  0.1234255E+00
          1   -1    0    0  501    0  0.00000000000E+00  0.00000000000E+00  0.36618946228E+03  0.36618946228E+03  0.00000000000E+00 0. -1.
         -1   -1    0    0    0  501 -0.00000000000E+00 -0.00000000000E+00 -0.48178013150E+02  0.48178013150E+02  0.00000000000E+00 0.  1.
         23    2    1    2    0    0 -0.67660750175E+02  0.26535660041E+02  0.10263850613E+03  0.15491549403E+03  0.90454568610E+02 0.  0.
          5    1    1    2  502    0 -0.35831414816E+02 -0.71657499359E+01  0.78744323910E+02  0.86910178966E+02  0.41800000000E+01 0.  1.
         -5    1    1    2    0  502  0.10349216499E+03 -0.19369910105E+02  0.13662861910E+03  0.17254180244E+03  0.41800000000E+01 0.  1.
        -11    1    3    3    0    0 -0.81096201880E+02  0.39516024361E+02  0.10207474518E+03  0.13622541520E+03  0.00000000000E+00 0.  1.
         11    1    3    3    0    0  0.13435451705E+02 -0.12980364320E+02  0.56376094094E+00  0.18690078833E+02  0.00000000000E+00 0. -1.
</event>
<event>
 7    1  0.6610867E-006  0.1025994E+03  0.7561462E-02  0.1274923E+00
         -3   -1    0    0    0  501 -0.00000000000E+00  0.00000000000E+00  0.59924682437E+02  0.59924682437E+02  0.00000000000E+00 0.  1.
          3   -1    0    0  501    0  0.00000000000E+00 -0.00000000000E+00 -0.31283515703E+03  0.31283515703E+03  0.00000000000E+00 0. -1.
         23    2    1    2    0    0  0.45251217064E+02 -0.51523962001E+01 -0.21233183103E+02  0.10556044271E+03  0.92832856076E+02 0.  0.
          5    1    1    2  502    0 -0.66067409519E+02  0.47729413881E+02 -0.11342052934E+03  0.13973077122E+03  0.41800000000E+01 0. -1.
         -5    1    1    2    0  502  0.20816192455E+02 -0.42577017681E+02 -0.11825676215E+03  0.12746862554E+03  0.41800000000E+01 0. -1.
        -11    1    3    3    0    0 -0.83089085848E+01 -0.18958170321E+02  0.25715172116E+02  0.33010911237E+02  0.00000000000E+00 0.  1.
         11    1    3    3    0    0  0.53560125648E+02  0.13805774120E+02 -0.46948355219E+02  0.72549531469E+02  0.00000000000E+00 0. -1.
</event>
<event>
 7    1  0.6610867E-006  0.9583659E+02  0.7561462E-02  0.1289303E+00
         -2   -1    0    0    0  501 -0.00000000000E+00  0.00000000000E+00  0.86689930390E+02  0.86689930390E+02  0.00000000000E+00 0.  1.
          2   -1    0    0  501    0  0.00000000000E+00 -0.00000000000E+00 -0.14023260694E+03  0.14023260694E+03  0.00000000000E+00 0. -1.
         23    2    1    2    0    0 -0.19725697371E+02  0.45112598242E+01 -0.17502670771E+02  0.95132414565E+02  0.91292815790E+02 0.  0.
          5    1    1    2  502    0  0.25193888099E+02  0.57156575687E+02 -0.61154316269E+01  0.62900532953E+02  0.41800000000E+01 0.  1.
         -5    1    1    2    0  502 -0.54681907276E+01 -0.61667835512E+02 -0.29924574155E+02  0.68889589815E+02  0.41800000000E+01 0.  1.
        -11    1    3    3    0    0 -0.42863411151E+02  0.80510078369E+01 -0.42493576415E+02  0.60891664283E+02  0.00000000000E+00 0. -1.
         11    1    3    3    0    0  0.23137713780E+02 -0.35397480126E+01  0.24990905644E+02  0.34240750282E+02  0.00000000000E+00 0.  1.
</event>
<event>
 7    1  0.6610867E-006  0.1078022E+03  0.7561462E-02  0.1264695E+00
          3   -1    0    0  501    0  0.00000000000E+00  0.00000000000E+00  0.47272274868E+02  0.47272274868E+02  0.00000000000E+00 0.  1.
         -3   -1    0    0    0  501 -0.00000000000E+00 -0.00000000000E+00 -0.27862463459E+03  0.27862463459E+03  0.00000000000E+00 0. -1.
         23    2    1    2    0    0  0.14936849749E+02 -0.12510707988E+02 -0.12518679843E+03  0.16067554081E+03  0.98819368635E+02 0.  0.
          5    1    1    2  502    0  0.37074086266E+02 -0.34599732755E+02 -0.68909637879E+02  0.85660025519E+02  0.41800000000E+01 0.  1.
         -5    1    1    2    0  502 -0.52010936015E+02  0.47110440743E+02 -0.37255923417E+02  0.79561343137E+02  0.41800000000E+01 0.  1.
        -11    1    3    3    0    0 -0.29239440936E+02  0.23432607849E+02 -0.78682984517E+02  0.87149550024E+02  0.00000000000E+00 0. -1.
         11    1    3    3    0    0  0.44176290685E+02 -0.35943315837E+02 -0.46503813912E+02  0.73525990782E+02  0.00000000000E+00 0.  1.
</event>
<event>
 7    1  0.6610867E-006  0.1755237E+03  0.7561462E-02  0.1172207E+00
         -1   -1    0    0    0  501 -0.00000000000E+00  0.00000000000E+00  0.40048466173E+02  0.40048466173E+02  0.00000000000E+00 0.  1.
          1   -1    0    0  501    0  0.00000000000E+00 -0.00000000000E+00 -0.99637984207E+03  0.99637984207E+03  0.00000000000E+00 0. -1.
         23    2    1    2    0    0  0.15152622455E+03  0.20133514732E+02 -0.29351183012E+03  0.34480491754E+03  0.96828103351E+02 0.  0.
          5    1    1    2  502    0 -0.16264448637E+03 -0.35561154253E+02 -0.48615352425E+03  0.51388767856E+03  0.41800000000E+01 0. -1.
         -5    1    1    2    0  502  0.11118261826E+02  0.15427639521E+02 -0.17666602153E+03  0.17773571214E+03  0.41800000000E+01 0. -1.
        -11    1    3    3    0    0  0.14320254751E+03  0.35521842254E+02 -0.29210602244E+03  0.32725326466E+03  0.00000000000E+00 0. -1.
         11    1    3    3    0    0  0.83236770358E+01 -0.15388327522E+02 -0.14058076813E+01  0.17551652872E+02  0.00000000000E+00 0.  1.
</event>
<event>
 7    1  0.6610867E-006  0.6684853E+02  0.7561462E-02  0.1371150E+00
          1   -1    0    0  501    0  0.00000000000E+00  0.00000000000E+00  0.10978313947E+03  0.10978313947E+03  0.00000000000E+00 0. -1.
         -1   -1    0    0    0  501 -0.00000000000E+00 -0.00000000000E+00 -0.21960199768E+03  0.21960199768E+03  0.00000000000E+00 0.  1.
         23    2    1    2    0    0 -0.45149331962E+01  0.30722429777E+02 -0.17357237952E+03  0.19629170746E+03  0.86248543013E+02 0.  0.
          5    1    1    2  502    0  0.22795601549E+02 -0.16882220630E+02  0.92062720861E+02  0.96424404565E+02  0.41800000000E+01 0. -1.
         -5    1    1    2    0  502 -0.18280668353E+02 -0.13840209147E+02 -0.28309199549E+02  0.36669025127E+02  0.41800000000E+01 0.  1.
        -11    1    3    3    0    0  0.34946265979E+02  0.22029422224E+02 -0.43078546818E+02  0.59684990955E+02  0.00000000000E+00 0. -1.
         11    1    3    3    0    0 -0.39461199175E+02  0.86930075527E+01 -0.13049383270E+03  0.13660671650E+03  0.00000000000E+00 0.  1.
</event>
<event>
 7    1  0.6610867E-006  0.1204327E+03  0.7561462E-02  0.1242385E+00
          1   -1    0    0  501    0  0.00000000000E+00  0.00000000000E+00  0.81050209362E+03  0.81050209362E+03  0.00000000000E+00 0. -1.
         -1   -1    0    0    0  501 -0.00000000000E+00 -0.00000000000E+00 -0.25088753430E+02  0.25088753430E+02  0.00000000000E+00 0.  1.
         23    2    1    2    0    0  0.22433453430E+02  0.38834448494E+02  0.16000666086E+03  0.19622027989E+03  0.10434985623E+03 0.  0.
          5    1    1    2  502    0  0.25188087161E+02 -0.70602412052E+02  0.32898781640E+03  0.33744569350E+03  0.41800000000E+01 0.  1.
         -5    1    1    2    0  502 -0.47621540591E+02  0.31767963558E+02  0.29641886293E+03  0.30192487366E+03  0.41800000000E+01 0.  1.
        -11    1    3    3    0    0  0.29458496393E+02 -0.28323521778E+02  0.90580427695E+02  0.99372223367E+02  0.00000000000E+00 0.  1.
         11    1    3    3    0    0 -0.70250429629E+01  0.67157970272E+02  0.69426233169E+02  0.96848056520E+02  0.00000000000E+00 0. -1.
</event>
<event>
 7    1  0.6610867E-006  0.3070361E+03  0.7561462E-02  0.1081775E+00
         -1   -1    0    0    0  501 -0.00000000000E+00  0.00000000000E+00  0.14703043414E+03  0.14703043414E+03  0.00000000000E+00 0. -1.
          1   -1    0    0  501    0  0.00000000000E+00 -0.00000000000E+00 -0.81275530465E+03  0.81275530465E+03  0.00000000000E+00 0.  1.
         23    2    1    2    0    0  0.22431827646E+03 -0.18899754846E+03 -0.12403799411E+03  0.33120699407E+03  0.90960906227E+02 0.  0.
          5    1    1    2  502    0 -0.23899149634E+03  0.18310581230E+03 -0.52497890310E+03  0.60519831041E+03  0.41800000000E+01 0.  1.
         -5    1    1    2    0  502  0.14673219883E+02  0.58917361577E+01 -0.16707973303E+02  0.23380434311E+02  0.41800000000E+01 0.  1.
        -11    1    3    3    0    0  0.11851191850E+03 -0.12819782618E+03 -0.29993537482E+02  0.17714223030E+03  0.00000000000E+00 0. -1.
         11    1    3    3    0    0  0.10580635796E+03 -0.60799722275E+02 -0.94044456632E+02  0.15406476378E+03  0.00000000000E+00 0.  1.
</event>
<event>
 7    1  0.6610867E-006  0.1163554E+03  0.7561462E-02  0.1249234E+00
         -2   -1    0    0    0  501 -0.00000000000E+00  0.00000000000E+00  0.31723089560E+03  0.31723089560E+03  0.00000000000E+00 0. -1.
          2   -1    0    0  501    0  0.00000000000E+00 -0.00000000000E+00 -0.76070707402E+02  0.76070707402E+02  0.00000000000E+00 0.  1.
         23    2    1    2    0    0 -0.12907732813E+02 -0.10890627467E+03  0.85986161217E+02  0.16580783910E+03  0.89841156253E+02 0.  0.
          5    1    1    2  502    0  0.23087941711E+02  0.23026693529E+02  0.13452500887E+03  0.13848368886E+03  0.41800000000E+01 0.  1.
         -5    1    1    2    0  502 -0.10180208899E+02  0.85879581144E+02  0.20649018108E+02  0.89010075045E+02  0.41800000000E+01 0.  1.
        -11    1    3    3    0    0 -0.21102671740E+02 -0.92962413327E+02  0.19964471558E+02  0.97395652730E+02  0.00000000000E+00 0.  1.
         11    1    3    3    0    0  0.81949389269E+01 -0.15943861346E+02  0.66021689659E+02  0.68412186371E+02  0.00000000000E+00 0. -1.
</event>
<event>
 7    1  0.6610867E-006  0.1154239E+03  0.7561462E-02  0.1250843E+00
          2   -1    0    0  501    0  0.00000000000E+00  0.00000000000E+00  0.15477369590E+03  0.15477369590E+03  0.00000000000E+00 0.  1.
         -2   -1    0    0    0  501 -0.00000000000E+00 -0.00000000000E+00 -0.12667245290E+03  0.12667245290E+03  0.00000000000E+00 0. -1.
         23    2    1    2    0    0  0.55296792326E+01  0.73010767428E+02 -0.35627365906E+02  0.12311517880E+03  0.92341153000E+02 0.  0.
          5    1    1    2  502    0 -0.52883052076E+02 -0.15675678744E+02 -0.68309062357E+01  0.55735785461E+02  0.41800000000E+01 0.  1.
         -5    1    1    2    0  502  0.47353372844E+02 -0.57335088684E+02  0.70559515136E+02  0.10259518454E+03  0.41800000000E+01 0.  1.
        -11    1    3    3    0    0  0.26650572521E+02  0.17273324878E+01 -0.40606853993E+02  0.48601988482E+02  0.00000000000E+00 0. -1.
         11    1    3    3    0    0 -0.21120893288E+02  0.71283434940E+02  0.49794880866E+01  0.74513190321E+02  0.00000000000E+00 0.  1.
</event>
<event>
 7    1  0.6610867E-006  0.1032942E+03  0.7561462E-02  0.1273517E+00
          1   -1    0    0  501    0  0.00000000000E+00  0.00000000000E+00  0.77015553909E+03  0.77015553909E+03  0.00000000000E+00 0. -1.
         -1   -1    0    0    0  501 -0.00000000000E+00 -0.00000000000E+00 -0.18513033146E+02  0.18513033146E+02  0.00000000000E+00 0.  1.
         23    2    1    2    0    0 -0.10448471051E+02 -0.39512064180E+02  0.22755776489E+03  0.24831252995E+03  0.90588091965E+02 0.  0.
          5    1    1    2  502    0  0.47496969307E+02 -0.65699938718E+01  0.39949787139E+03  0.40238681459E+03  0.41800000000E+01 0. -1.
         -5    1    1    2    0  502 -0.37048498256E+02  0.46082058052E+02  0.12458686966E+03  0.13796922769E+03  0.41800000000E+01 0. -1.
        -11    1    3    3    0    0  0.30287780343E+00  0.29417221806E+02  0.74867909034E+02  0.80440465419E+02  0.00000000000E+00 0.  1.
         11    1    3    3    0    0 -0.10751348855E+02 -0.68929285986E+02  0.15268985586E+03  0.16787206454E+03  0.00000000000E+00 0. -1.
</event>
<event>
 7    1  0.6610867E-006  0.1435306E+03  0.7561462E-02  0.1208656E+00
          1   -1    0    0  501    0  0.00000000000E+00  0.00000000000E+00  0.16297428017E+04  0.16297428017E+04  0.00000000000E+00 0. -1.
         -1   -1    0    0    0  501 -0.00000000000E+00 -0.00000000000E+00 -0.15156580505E+02  0.15156580505E+02  0.00000000000E+00 0.  1.
         23    2    1    2    0    0  0.33272734820E+02  0.10439436359E+03  0.59033074188E+03  0.60723299475E+03  0.90753881868E+02 0.  0.
          5    1    1    2  502    0 -0.59098589600E+02 -0.60934989865E+00  0.35991920603E+03  0.36476337792E+03  0.41800000000E+01 0. -1.
         -5    1    1    2    0  502  0.25825854780E+02 -0.10378501369E+03  0.66433627327E+03  0.67290300953E+03  0.41800000000E+01 0. -1.
        -11    1    3    3    0    0 -0.12965738127E+02  0.13030432881E+02  0.17698663381E+02  0.25517547526E+02  0.00000000000E+00 0.  1.
         11    1    3    3    0    0  0.46238472947E+02  0.91363930710E+02  0.57263207849E+03  0.58171544722E+03  0.00000000000E+00 0. -1.
</event>
<event>
 7    1  0.6610867E-006  0.1120519E+03  0.7561462E-02  0.1256817E+00
         -2   -1    0    0    0  501 -0.00000000000E+00  0.00000000000E+00  0.39281961262E+02  0.39281961262E+02  0.00000000000E+00 0.  1.
          2   -1    0    0  501    0  0.00000000000E+00 -0.00000000000E+00 -0.39575194265E+03  0.39575194265E+03  0.00000000000E+00 0. -1.
         23    2    1    2    0    0 -0.15459629319E+02  0.48916283148E+02 -0.96852978467E+02  0.14232356854E+03  0.90794800660E+02 0.  0.
          5    1    1    2  502    0 -0.48406840720E+02 -0.50782665547E+02 -0.15247279606E+03  0.16789141517E+03  0.41800000000E+01 0.  1.
         -5    1    1    2    0  502  0.63866470039E+02  0.18663823987E+01 -0.10714420686E+03  0.12481892021E+03  0.41800000000E+01 0.  1.
        -11    1    3    3    0    0 -0.14820570349E+02 -0.17748953011E+02  0.18694808760E+01  0.23198482649E+02  0.00000000000E+00 0.  1.
         11    1    3    3    0    0 -0.63905896993E+00  0.66665236160E+02 -0.98722459343E+02  0.11912508589E+03  0.00000000000E+00 0. -1.
</event>
<event>
 7    1  0.6610867E-006  0.1495818E+03  0.7561462E-02  0.1200988E+00
         -1   -1    0    0    0  501 -0.00000000000E+00  0.00000000000E+00  0.86748627422E+02  0.86748627422E+02  0.00000000000E+00 0.  1.
          1   -1    0    0  501    0  0.00000000000E+00 -0.00000000000E+00 -0.46402964718E+03  0.46402964718E+03  0.00000000000E+00 0. -1.
         23    2    1    2    0    0  0.93072196640E+02  0.62543611489E+02  0.69035695311E+00  0.13995571369E+03  0.83743585288E+02 0.  0.
          5    1    1    2  502    0 -0.11989223051E+03 -0.56933983811E+02 -0.30013183017E+03  0.32819538895E+03  0.41800000000E+01 0. -1.
         -5    1    1    2    0  502  0.26820033874E+02 -0.56096276776E+01 -0.77839546546E+02  0.82627171961E+02  0.41800000000E+01 0.  1.
        -11    1    3    3    0    0  0.10629777431E+03  0.42149417186E+02  0.78428102032E+01  0.11461806081E+03  0.00000000000E+00 0.  1.
         11    1    3    3    0    0 -0.13225577670E+02  0.20394194303E+02 -0.71524532501E+01  0.25337652880E+02  0.00000000000E+00 0. -1.
</event>
<event>
 7    1  0.6610867E-006  0.1821970E+03  0.7561462E-02  0.1165694E+00
         -2   -1    0    0    0  501 -0.00000000000E+00  0.00000000000E+00  0.21231249649E+02  0.21231249649E+02  0.00000000000E+00 0.  1.
          2   -1    0    0  501    0  0.00000000000E+00 -0.00000000000E+00 -0.18041983673E+04  0.18041983673E+04  0.00000000000E+00 0. -1.
         23    2    1    2    0    0 -0.14029867080E+03 -0.75958540857E+02 -0.69874000899E+03  0.72241184593E+03  0.90486783686E+02 0.  0.
          5    1    1    2  502    0  0.89211396335E+02 -0.17363945684E+01 -0.77372733987E+03  0.77886658496E+03  0.41800000000E+01 0.  1.
         -5    1    1    2    0  502  0.51087274464E+02  0.77694935425E+02 -0.31049976876E+03  0.32415118603E+03  0.41800000000E+01 0.  1.
        -11    1    3    3    0    0 -0.10925047333E+03 -0.10766182649E+02 -0.37635333198E+03  0.39203750727E+03  0.00000000000E+00 0.  1.
         11    1    3    3    0    0 -0.31048197471E+02 -0.65192358208E+02 -0.32238667701E+03  0.33037433866E+03  0.00000000000E+00 0. -1.
</event>
<event>
 7    1  0.6610867E-006  0.9371834E+02  0.7561462E-02  0.1294089E+00
         -1   -1    0    0    0  501 -0.00000000000E+00  0.00000000000E+00  0.15723145777E+03  0.15723145777E+03  0.00000000000E+00 0.  1.
          1   -1    0    0  501    0  0.00000000000E+00 -0.00000000000E+00 -0.59049990411E+02  0.59049990411E+02  0.00000000000E+00 0. -1.
         23    2    1    2    0    0 -0.13229527623E+02 -0.29030994148E+02  0.30124246115E+02  0.70346808277E+02  0.54985309024E+02 0.  0.
          5    1    1    2  502    0  0.57202618449E+02  0.53606643779E+02  0.43152589675E+02  0.89584765504E+02  0.41800000000E+01 0.  1.
         -5    1    1    2    0  502 -0.43973090826E+02 -0.24575649631E+02  0.24904631572E+02  0.56349874404E+02  0.41800000000E+01 0.  1.
        -11    1    3    3    0    0  0.30627978039E+01 -0.39106542585E+02  0.32634933018E+02  0.51026867986E+02  0.00000000000E+00 0. -1.
         11    1    3    3    0    0 -0.16292325427E+02  0.10075548437E+02 -0.25106869033E+01  0.19319940291E+02  0.00000000000E+00 0.  1.
</event>
<event>
 7    1  0.6610867E-006  0.1070074E+03  0.7561462E-02  0.1266214E+00
         -2   -1    0    0    0  501 -0.00000000000E+00  0.00000000000E+00  0.20078258235E+02  0.20078258235E+02  0.00000000000E+00 0.  1.
          2   -1    0    0  501    0  0.00000000000E+00 -0.00000000000E+00 -0.11887001849E+04  0.11887001849E+04  0.00000000000E+00 0. -1.
         23    2    1    2    0    0  0.34372909160E+01  0.68294738737E+02 -0.21375315909E+03  0.24267239380E+03  0.92322756591E+02 0.  0.
          5    1    1    2  502    0  0.35087939512E+02 -0.39664843648E+02 -0.83818186221E+03  0.83986354240E+03  0.41800000000E+01 0. -1.
         -5    1    1    2    0  502 -0.38525230428E+02 -0.28629895089E+02 -0.11668690536E+03  0.12624250692E+03  0.41800000000E+01 0.  1.
        -11    1    3    3    0    0 -0.36376711030E+02  0.33436752525E+01 -0.92748590290E+02  0.99683229635E+02  0.00000000000E+00 0.  1.
         11    1    3    3    0    0  0.39814001946E+02  0.64951063484E+02 -0.12100456880E+03  0.14298916416E+03  0.00000000000E+00 0. -1.
</event>
<event>
 6    1  0.8037089E-006  0.1345114E+03  0.7561462E-02  0.1220911E+00
         -2   -1    0    0    0  501 -0.00000000000E+00  0.00000000000E+00  0.15768903026E+02  0.15768903026E+02  0.00000000000E+00 0.  1.
          2   -1    0    0  501    0  0.00000000000E+00 -0.00000000000E+00 -0.13810462431E+04  0.13810462431E+04  0.00000000000E+00 0. -1.
          5    1    1    2  502    0 -0.99500000344E+02  0.32864436776E+02 -0.81600975227E+03  0.82272091834E+03  0.41800000000E+01 0.  1.
         -5    1    1    2    0  502  0.17205917313E+02  0.40595433053E+02 -0.11748735788E+03  0.12555789277E+03  0.41800000000E+01 0.  1.
        -11    1    1    2    0    0  0.29432148362E+02 -0.88035688385E-01 -0.14014465649E+03  0.14320189891E+03  0.00000000000E+00 0.  1.
         11    1    1    2    0    0  0.52861934668E+02 -0.73371834141E+02 -0.29163557339E+03  0.30533443607E+03  0.00000000000E+00 0. -1.
</event>
<event>
 7    1  0.6610867E-006  0.2397384E+03  0.7561462E-02  0.1119967E+00
         -2   -1    0    0    0  501 -0.00000000000E+00  0.00000000000E+00  0.47509981453E+03  0.47509981453E+03  0.00000000000E+00 0.  1.
          2   -1    0    0  501    0  0.00000000000E+00 -0.00000000000E+00 -0.13538836544E+03  0.13538836544E+03  0.00000000000E+00 0. -1.
         23    2    1    2    0    0  0.77727243681E+02 -0.20388788380E+03  0.79132219214E+02  0.24832758320E+03  0.88277329430E+02 0.  0.
          5    1    1    2  502    0 -0.10017416177E+03  0.93341305243E+02  0.16329391506E+03  0.21314276212E+03  0.41800000000E+01 0.  1.
         -5    1    1    2    0  502  0.22446918085E+02  0.11054657855E+03  0.97285314824E+02  0.14901783464E+03  0.41800000000E+01 0.  1.
        -11    1    3    3    0    0  0.85730723043E+02 -0.13275860453E+03  0.79156556543E+02  0.17674943958E+03  0.00000000000E+00 0.  1.
         11    1    3    3    0    0 -0.80034793621E+01 -0.71129279269E+02 -0.24337329785E-01  0.71578143617E+02  0.00000000000E+00 0. -1.
</event>
<event>
 7    1  0.6610867E-006  0.9665210E+02  0.7561462E-02  0.1287498E+00
         -1   -1    0    0    0  501 -0.00000000000E+00  0.00000000000E+00  0.35054846767E+03  0.35054846767E+03  0.00000000000E+00 0.  1.
          1   -1    0    0  501    0  0.00000000000E+00 -0.00000000000E+00 -0.36873972319E+02  0.36873972319E+02  0.00000000000E+00 0. -1.
         23    2    1    2    0    0  0.63404183023E+01  0.12694937699E+02  0.18372296392E+03  0.20649261956E+03  0.93186437392E+02 0.  0.
          5    1    1    2  502    0 -0.57127519065E+02 -0.34356323075E+02  0.48944647371E+02  0.82806770714E+02  0.41800000000E+01 0.  1.
         -5    1    1    2    0  502  0.50787100763E+02  0.21661385376E+02  0.81006884061E+02  0.98123049716E+02  0.41800000000E+01 0.  1.
        -11    1    3    3    0    0  0.37187635349E+02 -0.14223356792E+01  0.16197671260E+03  0.16619686725E+03  0.00000000000E+00 0.  1.
         11    1    3    3    0    0 -0.30847217047E+02  0.14117273378E+02  0.21746251321E+02  0.40295752303E+02  0.00000000000E+00 0. -1.
</event>
<event>
 7    1  0.6610867E-006  0.1968036E+03  0.7561462E-02  0.1152464E+00
          2   -1    0    0  501    0  0.00000000000E+00  0.00000000000E+00  0.42874951088E+03  0.42874951088E+03  0.00000000000E+00 0.  1.
         -2   -1    0    0    0  501 -0.00000000000E+00 -0.00000000000E+00 -0.98379952449E+02  0.98379952449E+02  0.00000000000E+00 0. -1.
         23    2    1    2    0    0  0.93638908193E+02  0.14373521670E+03  0.12185283722E+03  0.22954640407E+03  0.91735380515E+02 0.  0.
          5    1    1    2  502    0  0.71703687905E+01  0.12949966240E+02 -0.30088737008E+01  0.15672955533E+02  0.41800000000E+01 0. -1.
         -5    1    1    2    0  502 -0.10080927698E+03 -0.15668518294E+03  0.21152559491E+03  0.28191010372E+03  0.41800000000E+01 0. -1.
        -11    1    3    3    0    0  0.10908566019E+03  0.11079846283E+03  0.11269737297E+03  0.19203301409E+03  0.00000000000E+00 0.  1.
         11    1    3    3    0    0 -0.15446751998E+02  0.32936753870E+02  0.91554642470E+01  0.37513389988E+02  0.00000000000E+00 0. -1.
</event>
<event>
 6    1  0.6610867E-006  0.2527849E+03  0.7561462E-02  0.1111557E+00
          2   -1    0    0  501    0  0.00000000000E+00  0.00000000000E+00  0.46142060180E+03  0.46142060180E+03  0.00000000000E+00 0. -1.
         -2   -1    0    0    0  501 -0.00000000000E+00 -0.00000000000E+00 -0.17579481310E+03  0.17579481310E+03  0.00000000000E+00 0.  1.
          5    1    1    2  502    0 -0.47664495764E+02 -0.95364544430E+01  0.44790986717E+02  0.66231057751E+02  0.41800000000E+01 0. -1.
         -5    1    1    2    0  502 -0.80158122461E+02  0.20633988907E+03  0.13496000151E+03  0.25929355724E+03  0.41800000000E+01 0.  1.
        -11    1    1    2    0    0  0.44988536414E+02 -0.85752358164E+02 -0.45064279857E+02  0.10680929107E+03  0.00000000000E+00 0.  1.
         11    1    1    2    0    0  0.82834081812E+02 -0.11105107647E+03  0.15093908033E+03  0.20488150884E+03  0.00000000000E+00 0. -1.
</event>
<event>
 7    1  0.6610867E-006  0.8668047E+02  0.7561462E-02  0.1311096E+00
          1   -1    0    0  501    0  0.00000000000E+00  0.00000000000E+00  0.10122568581E+03  0.10122568581E+03  0.00000000000E+00 0. -1.
         -1   -1    0    0    0  501 -0.00000000000E+00 -0.00000000000E+00 -0.14906758983E+03  0.14906758983E+03  0.00000000000E+00 0.  1.
         23    2    1    2    0    0 -0.40932545194E+02 -0.59153895574E+01 -0.58263619828E+02  0.11813651986E+03  0.94080406243E+02 0.  0.
          5    1    1    2  502    0 -0.27249713432E+02  0.25482408506E+02 -0.32060483374E+02  0.49368482046E+02  0.41800000000E+01 0.  1.
         -5    1    1    2    0  502  0.68182258626E+02 -0.19567018949E+02  0.42482199180E+02  0.82788273741E+02  0.41800000000E+01 0.  1.
        -11    1    3    3    0    0 -0.16038857447E+02  0.22085719609E+02 -0.72953815395E+02  0.77892766926E+02  0.00000000000E+00 0.  1.
         11    1    3    3    0    0 -0.24893687747E+02 -0.28001109166E+02  0.14690195566E+02  0.40243752931E+02  0.00000000000E+00 0. -1.
</event>
<event>
 7    1  0.6610867E-006  0.1294341E+03  0.7561462E-02  0.1228298E+00
         -1   -1    0    0    0  501 -0.00000000000E+00  0.00000000000E+00  0.11228667972E+03  0.11228667972E+03  0.00000000000E+00 0.  1.
          1   -1    0    0  501    0  0.00000000000E+00 -0.00000000000E+00 -0.20845329766E+03  0.20845329766E+03  0.00000000000E+00 0. -1.
         23    2    1    2    0    0 -0.96277806013E+02  0.19860904394E+02  0.27310690293E+01  0.13341164760E+03  0.90151747200E+02 0.  0.
          5    1    1    2  502    0  0.12525861574E+02  0.36338370615E+02  0.88685023298E+01  0.39667330648E+02  0.41800000000E+01 0.  1.
         -5    1    1    2    0  502  0.83751944439E+02 -0.56199275009E+02 -0.10776618930E+03  0.14766099913E+03  0.41800000000E+01 0.  1.
        -11    1    3    3    0    0  0.36466140439E+01  0.18982937872E+02 -0.23176602833E+02  0.30179540141E+02  0.00000000000E+00 0. -1.
         11    1    3    3    0    0 -0.99924420057E+02  0.87796652177E+00  0.25907671862E+02  0.10323210746E+03  0.00000000000E+00 0.  1.
</event>
<event>
 7    1  0.6610867E-006  0.1134070E+03  0.7561462E-02  0.1254388E+00
          2   -1    0    0  501    0  0.00000000000E+00  0.00000000000E+00  0.15124339240E+04  0.15124339240E+04  0.00000000000E+00 0. -1.
         -2   -1    0    0    0  501 -0.00000000000E+00 -0.00000000000E+00 -0.90933285062E+01  0.90933285062E+01  0.00000000000E+00 0.  1.
         23    2    1    2    0    0 -0.36846613476E+02  0.17214017684E+02  0.52636615762E+03  0.53573774534E+03  0.91102165514E+02 0.  0.
          5    1    1    2  502    0  0.18598165571E+02 -0.69386586167E+02  0.42607539742E+03  0.43210890616E+03  0.41800000000E+01 0. -1.
         -5    1    1    2    0  502  0.18248447905E+02  0.52172568482E+02  0.55089904044E+03  0.55368060099E+03  0.41800000000E+01 0. -1.
        -11    1    3    3    0    0  0.14122315095E+02 -0.27957484305E+02  0.14591865194E+03  0.14924246613E+03  0.00000000000E+00 0.  1.
         11    1    3    3    0    0 -0.50968928571E+02  0.45171501989E+02  0.38044750568E+03  0.38649527921E+03  0.00000000000E+00 0. -1.
</event>
<event>
 7    1  0.6610867E-006  0.1288622E+03  0.7561462E-02  0.1229154E+00
          1   -1    0    0  501    0  0.00000000000E+00  0.00000000000E+00  0.22728761996E+03  0.22728761996E+03  0.00000000000E+00 0. -1.
         -1   -1    0    0    0  501 -0.00000000000E+00 -0.00000000000E+00 -0.10985379368E+03  0.10985379368E+03  0.00000000000E+00 0.  1.
         23    2    1    2    0    0 -0.19835931277E+02  0.11129395824E+03  0.48554073832E+02  0.15500805418E+03  0.94287801254E+02 0.  0.
          5    1    1    2  502    0 -0.19328134510E+02 -0.39295886497E+02 -0.30289626677E+02  0.53410461180E+02  0.41800000000E+01 0. -1.
         -5    1    1    2    0  502  0.39164065787E+02 -0.71998071745E+02  0.99169379129E+02  0.12872289828E+03  0.41800000000E+01 0. -1.
        -11    1    3    3    0    0  0.13313914425E+02  0.92712929914E+02  0.39995140863E+00  0.93664868823E+02  0.00000000000E+00 0.  1.
         11    1    3    3    0    0 -0.33149845702E+02  0.18581028328E+02  0.48154122423E+02  0.61343185360E+02  0.00000000000E+00 0. -1.
</event>
<event>
 7    1  0.6610867E-006  0.1390384E+03  0.7561462E-02  0.1214629E+00
          2   -1    0    0  501    0  0.00000000000E+00  0.00000000000E+00  0.57830349227E+03  0.57830349227E+03  0.00000000000E+00 0. -1.
         -2   -1    0    0    0  501 -0.00000000000E+00 -0.00000000000E+00 -0.39835256022E+02  0.39835256022E+02  0.00000000000E+00 0.  1.
         23    2    1    2    0    0  0.69408516343E+01 -0.92758742865E+02  0.14307814186E+03  0.19313073472E+03  0.90419943687E+02 0.  0.
          5    1    1    2  502    0  0.17637096225E+02  0.11421015619E+03  0.24304384767E+03  0.26915202253E+03  0.41800000000E+01 0.  1.
         -5    1    1    2    0  502 -0.24577947859E+02 -0.21451413328E+02  0.15234624672E+03  0.15585599104E+03  0.41800000000E+01 0.  1.
        -11    1    3    3    0    0 -0.32680144440E+02 -0.82327910422E+02  0.10242510944E+03  0.13541336610E+03  0.00000000000E+00 0.  1.
         11    1    3    3    0    0  0.39620996075E+02 -0.10430832442E+02  0.40653032421E+02  0.57717368620E+02  0.00000000000E+00 0. -1.
</event>
<event>
 7    1  0.6610867E-006  0.1046977E+03  0.7561462E-02  0.1270716E+00
         -1   -1    0    0    0  501 -0.00000000000E+00  0.00000000000E+00  0.25275268326E+03  0.25275268326E+03  0.00000000000E+00 0.  1.
          1   -1    0    0  501    0  0.00000000000E+00 -0.00000000000E+00 -0.71256692495E+02  0.71256692495E+02  0.00000000000E+00 0. -1.
         23    2    1    2    0    0  0.51660230366E+02 -0.48350948748E+02  0.12608510983E+03  0.16998399831E+03  0.89389658876E+02 0.  0.
          5    1    1    2  502    0 -0.78875209955E+02 -0.21414859856E+01  0.78660105635E+01  0.79405486145E+02  0.41800000000E+01 0.  1.
         -5    1    1    2    0  502  0.27214979589E+02  0.50492434733E+02  0.47544870368E+02  0.74619891300E+02  0.41800000000E+01 0.  1.
        -11    1    3    3    0    0  0.39119093896E+02 -0.25182630418E+02  0.13450704085E+03  0.14232572649E+03  0.00000000000E+00 0.  1.
         11    1    3    3    0    0  0.12541136470E+02 -0.23168318330E+02 -0.84219310171E+01  0.27658271823E+02  0.00000000000E+00 0. -1.
</event>
<event>
 7    1  0.6610867E-006  0.1387885E+03  0.7561462E-02  0.1214968E+00
         -1   -1    0    0    0  501 -0.00000000000E+00  0.00000000000E+00  0.30269306737E+02  0.30269306737E+02  0.00000000000E+00 0.  1.
          1   -1    0    0  501    0  0.00000000000E+00 -0.00000000000E+00 -0.76717253437E+03  0.76717253437E+03  0.00000000000E+00 0. -1.
         23    2    1    2    0    0  0.65792147277E+01  0.98006834154E+02 -0.24796279179E+03  0.28328343293E+03  0.95474246024E+02 0.  0.
          5    1    1    2  502    0  0.52136042916E+01  0.29656993765E+02 -0.10822205217E+03  0.11241087102E+03  0.41800000000E+01 0.  1.
         -5    1    1    2    0  502 -0.11792819019E+02 -0.12766382792E+03 -0.38071838367E+03  0.40174753715E+03  0.41800000000E+01 0.  1.
        -11    1    3    3    0    0 -0.11666092572E+02 -0.61296209206E+01  0.57813912832E+00  0.13191065665E+02  0.00000000000E+00 0.  1.
         11    1    3    3    0    0  0.18245307299E+02  0.10413645507E+03 -0.24854093092E+03  0.27009236727E+03  0.00000000000E+00 0. -1.
</event>
<event>
 7    1  0.6610867E-006  0.1436757E+03  0.7561462E-02  0.1208467E+00
          2   -1    0    0  501    0  0.00000000000E+00  0.00000000000E+00  0.11106046712E+04  0.11106046712E+04  0.00000000000E+00 0. -1.
         -2   -1    0    0    0  501 -0.00000000000E+00 -0.00000000000E+00 -0.38405220953E+02  0.38405220953E+02  0.00000000000E+00 0.  1.
         23    2    1    2    0    0 -0.11997684317E+03 -0.23475888110E+02  0.16703468298E+03  0.22652419446E+03  0.92016656844E+02 0.  0.
          5    1    1    2  502    0  0.49143061323E+02  0.40480754473E+02  0.72928633042E+03  0.73207223420E+03  0.41800000000E+01 0. -1.
         -5    1    1    2    0  502  0.70833781846E+02 -0.17004866363E+02  0.17587843686E+03  0.19041346350E+03  0.41800000000E+01 0.  1.
        -11    1    3    3    0    0 -0.13115979688E+03 -0.78904314111E+01  0.15746796986E+03  0.20508854858E+03  0.00000000000E+00 0.  1.
         11    1    3    3    0    0  0.11182953715E+02 -0.15585456698E+02  0.95667131233E+01  0.21435645880E+02  0.00000000000E+00 0. -1.
</event>
<event>
 7    1  0.6610867E-006  0.2041491E+03  0.7561462E-02  0.1146285E+00
          2   -1    0    0  501    0  0.00000000000E+00  0.00000000000E+00  0.19057998674E+04  0.19057998674E+04  0.00000000000E+00 0. -1.
         -2   -1    0    0    0  501 -0.00000000000E+00 -0.00000000000E+00 -0.28813847417E+02  0.28813847417E+02  0.00000000000E+00 0.  1.
         23    2    1    2    0    0 -0.17580371533E+03  0.85131949909E+02  0.85471510798E+03  0.88166066861E+03  0.92915141644E+02 0.  0.
          5    1    1    2  502    0  0.10986793591E+03 -0.25786917379E+02  0.23540858417E+03  0.26109500637E+03  0.41800000000E+01 0. -1.
         -5    1    1    2    0  502  0.65935779425E+02 -0.59345032530E+02  0.78686232786E+03  0.79185803987E+03  0.41800000000E+01 0.  1.
        -11    1    3    3    0    0 -0.17558318338E+03  0.66234338137E+02  0.82759782045E+03  0.84860744414E+03  0.00000000000E+00 0.  1.
         11    1    3    3    0    0 -0.22053195029E+00  0.18897611772E+02  0.27117287531E+02  0.33053224473E+02  0.00000000000E+00 0. -1.
</event>
<event>
 7    1  0.6610867E-006  0.8435046E+02  0.7561462E-02  0.1317140E+00
          1   -1    0    0  501    0  0.00000000000E+00  0.00000000000E+00  0.34283266446E+03  0.34283266446E+03  0.00000000000E+00 0. -1.
         -1   -1    0    0    0  501 -0.00000000000E+00 -0.00000000000E+00 -0.46682101027E+02  0.46682101027E+02  0.00000000000E+00 0.  1.
         23    2    1    2    0    0  0.42254535837E+01  0.19641681882E+02  0.31342397735E+02  0.95961385107E+02  0.88445414865E+02 0.  0.
          5    1    1    2  502    0  0.51523071420E+02 -0.41872892576E+02  0.13995705720E+03  0.15496262866E+03  0.41800000000E+01 0. -1.
         -5    1    1    2    0  502 -0.55748525003E+02  0.22231210694E+02  0.12485110849E+03  0.13859075172E+03  0.41800000000E+01 0. -1.
        -11    1    3    3    0    0  0.19369883006E+02  0.18566851844E+02 -0.25566738638E+02  0.37061819702E+02  0.00000000000E+00 0.  1.
         11    1    3    3    0    0 -0.15144429422E+02  0.10748300383E+01  0.56909136373E+02  0.58899565404E+02  0.00000000000E+00 0. -1.
</event>
<event>
 7    1  0.6610867E-006  0.5030064E+02  0.7561462E-02  0.1443727E+00
         -3   -1    0    0    0  501 -0.00000000000E+00  0.00000000000E+00  0.17896776264E+03  0.17896776264E+03  0.00000000000E+00 0.  1.
          3   -1    0    0  501    0  0.00000000000E+00 -0.00000000000E+00 -0.71156472879E+02  0.71156472879E+02  0.00000000000E+00 0. -1.
         23    2    1    2    0    0 -0.14410029932E+01  0.27687589424E+01  0.83419850043E+02  0.12265830577E+03  0.89869049604E+02 0.  0.
          5    1    1    2  502    0 -0.15557894459E+02 -0.18534204226E+02  0.71062665788E+02  0.75186033778E+02  0.41800000000E+01 0.  1.
         -5    1    1    2    0  502  0.16998897452E+02  0.15765445284E+02 -0.46671226073E+02  0.52279895971E+02  0.41800000000E+01 0.  1.
        -11    1    3    3    0    0 -0.84811351472E+01 -0.23660963897E+02  0.90893082796E+02  0.94304418593E+02  0.00000000000E+00 0.  1.
         11    1    3    3    0    0  0.70401321541E+01  0.26429722839E+02 -0.74732327534E+01  0.28353887174E+02  0.00000000000E+00 0. -1.
</event>
<event>
 7    1  0.6610867E-006  0.1980741E+03  0.7561462E-02  0.1151374E+00
         -2   -1    0    0    0  501 -0.00000000000E+00  0.00000000000E+00  0.99824633467E+02  0.99824633467E+02  0.00000000000E+00 0.  1.
          2   -1    0    0  501    0  0.00000000000E+00 -0.00000000000E+00 -0.83794960774E+03  0.83794960774E+03  0.00000000000E+00 0. -1.
         23    2    1    2    0    0 -0.45424601801E+01  0.40747483656E+02 -0.14074509898E+03  0.17302091869E+03  0.91902470323E+02 0.  0.
          5    1    1    2  502    0 -0.13087759747E+03  0.53005403908E+02 -0.58243019493E+03  0.59931704692E+03  0.41800000000E+01 0. -1.
         -5    1    1    2    0  502  0.13542005765E+03 -0.93752887564E+02 -0.14949680368E+02  0.16543627559E+03  0.41800000000E+01 0.  1.
        -11    1    3    3    0    0  0.32099677214E+02  0.42710741365E+02 -0.11880841552E+03  0.13026909189E+03  0.00000000000E+00 0.  1.
         11    1    3    3    0    0 -0.36642137394E+02 -0.19632577091E+01 -0.21936683458E+02  0.42751826800E+02  0.00000000000E+00 0. -1.
</event>
<event>
 7    1  0.6610867E-006  0.1022035E+03  0.7561462E-02  0.1275729E+00
          3   -1    0    0  501    0  0.00000000000E+00  0.00000000000E+00  0.11187648555E+03  0.11187648555E+03  0.00000000000E+00 0. -1.
         -3   -1    0    0    0  501 -0.00000000000E+00 -0.00000000000E+00 -0.12045513952E+03  0.12045513952E+03  0.00000000000E+00 0.  1.
         23    2    1    2    0    0 -0.31747654829E+02 -0.25482670469E+02 -0.17162263984E+02  0.10050778951E+03  0.90277308142E+02 0.  0.
          5    1    1    2  502    0  0.64984225485E+02  0.43534408745E+02  0.34698702639E+02  0.85671854605E+02  0.41800000000E+01 0.  1.
         -5    1    1    2    0  502 -0.33236570656E+02 -0.18051738276E+02 -0.26115092622E+02  0.46151980959E+02  0.41800000000E+01 0.  1.
        -11    1    3    3    0    0 -0.42334497577E+02  0.15965433340E+02  0.14248581187E+02  0.47435501607E+02  0.00000000000E+00 0. -1.
         11    1    3    3    0    0  0.10586842748E+02 -0.41448103809E+02 -0.31410845172E+02  0.53072287902E+02  0.00000000000E+00 0.  1.
</event>
<event>
 7    1  0.6610867E-006  0.9237847E+02  0.7561462E-02  0.1297192E+00
          2   -1    0    0  501    0  0.00000000000E+00  0.00000000000E+00  0.58317748407E+03  0.58317748407E+03  0.00000000000E+00 0. -1.
         -2   -1    0    0    0  501 -0.00000000000E+00 -0.00000000000E+00 -0.26040552880E+02  0.26040552880E+02  0.00000000000E+00 0.  1.
         23    2    1    2    0    0  0.74048432542E+01 -0.28621640084E+02  0.12704580295E+03  0.16033014976E+03  0.93226020447E+02 0.  0.
          5    1    1    2  502    0  0.24125185842E+02  0.71251003138E+02  0.25486225880E+03  0.26576488368E+03  0.41800000000E+01 0. -1.
         -5    1    1    2    0  502 -0.31530029096E+02 -0.42629363054E+02  0.17522886944E+03  0.18312300351E+03  0.41800000000E+01 0. -1.
        -11    1    3    3    0    0  0.12630927022E+02  0.10704823214E+02 -0.88417188942E+01  0.18769910774E+02  0.00000000000E+00 0.  1.
         11    1    3    3    0    0 -0.52260837675E+01 -0.39326463298E+02  0.13588752185E+03  0.14156023898E+03  0.00000000000E+00 0. -1.
</event>
<event>
 7    1  0.6610867E-006  0.1205461E+03  0.7561462E-02  0.1242199E+00
          3   -1    0    0  501    0  0.00000000000E+00  0.00000000000E+00  0.23637201822E+03  0.23637201822E+03  0.00000000000E+00 0. -1.
         -3   -1    0    0    0  501 -0.00000000000E+00 -0.00000000000E+00 -0.72599024678E+02  0.72599024678E+02  0.00000000000E+00 0.  1.
         23    2    1    2    0    0  0.41077420601E+02 -0.57887244364E+02  0.92056139285E+02  0.14825418871E+03  0.92014586594E+02 0.  0.
          5    1    1    2  502    0  0.11907250792E+02  0.81360234174E+02  0.58861570801E+02  0.10120981792E+03  0.41800000000E+01 0. -1.
         -5    1    1    2    0  502 -0.52984671393E+02 -0.23472989810E+02  0.12855283459E+02  0.59507036273E+02  0.41800000000E+01 0. -1.
        -11    1    3    3    0    0  0.43939466178E+02 -0.12599134715E+01  0.78479729904E+02  0.89951831975E+02  0.00000000000E+00 0. -1.
         11    1    3    3    0    0 -0.28620455770E+01 -0.56627330893E+02  0.13576409381E+02  0.58302356733E+02  0.00000000000E+00 0.  1.
</event>
<event>
 7    1  0.6610867E-006  0.1028913E+03  0.7561462E-02  0.1274331E+00
          2   -1    0    0  501    0  0.00000000000E+00  0.00000000000E+00  0.89178596547E+03  0.89178596547E+03  0.00000000000E+00 0. -1.
         -2   -1    0    0    0  501 -0.00000000000E+00 -0.00000000000E+00 -0.25155269386E+02  0.25155269386E+02  0.00000000000E+00 0.  1.
         23    2    1    2    0    0 -0.92388211013E+01  0.84597770122E+02  0.23245265695E+03  0.26496686466E+03  0.94504302138E+02 0.  0.
          5    1    1    2  502    0  0.11875495252E+02  0.30125162780E+01  0.12643592105E+01  0.13006676978E+02  0.41800000000E+01 0. -1.
         -5    1    1    2    0  502 -0.26366741509E+01 -0.87610286400E+02  0.63291367992E+03  0.63896769321E+03  0.41800000000E+01 0. -1.
        -11    1    3    3    0    0  0.20420840886E+02  0.63152587373E+01  0.41150784328E+01  0.21767570051E+02  0.00000000000E+00 0.  1.
         11    1    3    3    0    0 -0.29659661988E+02  0.78282511385E+02  0.22833757852E+03  0.24319929461E+03  0.00000000000E+00 0. -1.
</event>
<event>
 7    1  0.6610867E-006  0.1866935E+03  0.7561462E-02  0.1161478E+00
          2   -1    0    0  501    0  0.00000000000E+00  0.00000000000E+00  0.14877979759E+04  0.14877979759E+04  0.00000000000E+00 0. -1.
         -2   -1    0    0    0  501 -0.00000000000E+00 -0.00000000000E+00 -0.29025388032E+02  0.29025388032E+02  0.00000000000E+00 0.  1.
         23    2    1    2    0    0 -0.17188956848E+03 -0.44074705864E+02  0.70796791161E+03  0.73525874207E+03  0.88872101743E+02 0.  0.
          5    1    1    2  502    0  0.48330267973E+02 -0.23671263455E+02  0.82758334838E+02  0.98805657233E+02  0.41800000000E+01 0.  1.
         -5    1    1    2    0  502  0.12355930051E+03  0.67745969319E+02  0.66804634142E+03  0.68275896463E+03  0.41800000000E+01 0.  1.
        -11    1    3    3    0    0 -0.33015548947E+02 -0.98961286272E+00  0.41124399428E+02  0.52746772737E+02  0.00000000000E+00 0.  1.
         11    1    3    3    0    0 -0.13887401954E+03 -0.43085093002E+02  0.66684351218E+03  0.68251196933E+03  0.00000000000E+00 0. -1.
</event>
<event>
 7    1  0.6610867E-006  0.1294629E+03  0.7561462E-02  0.1228255E+00
         -2   -1    0    0    0  501 -0.00000000000E+00  0.00000000000E+00  0.81624589999E+02  0.81624589999E+02  0.00000000000E+00 0.  1.
          2   -1    0    0  501    0  0.00000000000E+00 -0.00000000000E+00 -0.35015492039E+03  0.35015492039E+03  0.00000000000E+00 0. -1.
         23    2    1    2    0    0  0.44748149855E+02 -0.10094881492E+03 -0.38071899090E+02  0.14726306969E+03  0.89687691717E+02 0.  0.
          5    1    1    2  502    0  0.27973733879E+02  0.52348779045E+02 -0.16437427905E+03  0.17481218627E+03  0.41800000000E+01 0. -1.
         -5    1    1    2    0  502 -0.72721883733E+02  0.48600035877E+02 -0.66084152249E+02  0.10970425443E+03  0.41800000000E+01 0. -1.
        -11    1    3    3    0    0  0.31223797886E+02 -0.86981729568E+02  0.12335970511E+02  0.93235846119E+02  0.00000000000E+00 0.  1.
         11    1    3    3    0    0  0.13524351968E+02 -0.13967085354E+02 -0.50407869601E+02  0.54027223574E+02  0.00000000000E+00 0. -1.
</event>
<event>
 7    1  0.6610867E-006  0.1538293E+03  0.7561462E-02  0.1195845E+00
         -2   -1    0    0    0  501 -0.00000000000E+00  0.00000000000E+00  0.59747938797E+02  0.59747938797E+02  0.00000000000E+00 0.  1.
          2   -1    0    0  501    0  0.00000000000E+00 -0.00000000000E+00 -0.49634460996E+03  0.49634460996E+03  0.00000000000E+00 0. -1.
         23    2    1    2    0    0  0.11656518312E+03  0.48324691557E+02 -0.13886688566E+03  0.20937432610E+03  0.92902522921E+02 0.  0.
          5    1    1    2  502    0  0.12741185914E+02 -0.44871629374E+02 -0.99652195798E+02  0.11010828065E+03  0.41800000000E+01 0.  1.
         -5    1    1    2    0  502 -0.12930636904E+03 -0.34530621830E+01 -0.19807758970E+03  0.23660994200E+03  0.41800000000E+01 0.  1.
        -11    1    3    3    0    0  0.94086337849E+02  0.53646538946E+02 -0.53236281334E+02  0.12068260753E+03  0.00000000000E+00 0.  1.
         11    1    3    3    0    0  0.22478845276E+02 -0.53218473894E+01 -0.85630604329E+02  0.88691718567E+02  0.00000000000E+00 0. -1.
</event>
<event>
 7    1  0.6610867E-006  0.9705562E+02  0.7561462E-02  0.1286612E+00
         -3   -1    0    0    0  501 -0.00000000000E+00  0.00000000000E+00  0.14194897089E+03  0.14194897089E+03  0.00000000000E+00 0.  1.
          3   -1    0    0  501    0  0.00000000000E+00 -0.00000000000E+00 -0.11042506581E+03  0.11042506581E+03  0.00000000000E+00 0. -1.
         23    2    1    2    0    0  0.35827545694E+02 -0.15008193562E+02  0.61062160219E+02  0.11809926716E+03  0.93327330340E+02 0.  0.
          5    1    1    2  502    0 -0.66967994917E+02  0.11148226975E+02  0.23957942935E+02  0.72114150744E+02  0.41800000000E+01 0.  1.
         -5    1    1    2    0  502  0.31140449223E+02  0.38599665868E+01 -0.53496198083E+02  0.62160618797E+02  0.41800000000E+01 0.  1.
        -11    1    3    3    0    0 -0.67438792832E+01 -0.42975188642E+02  0.49441537512E+02  0.65854478801E+02  0.00000000000E+00 0.  1.
         11    1    3    3    0    0  0.42571424977E+02  0.27966995080E+02  0.11620622707E+02  0.52244788358E+02  0.00000000000E+00 0. -1.
</event>
<event>
 7    1  0.6610867E-006  0.1644178E+03  0.7561462E-02  0.1183797E+00
         -1   -1    0    0    0  501 -0.00000000000E+00  0.00000000000E+00  0.36224875060E+03  0.36224875060E+03  0.00000000000E+00 0.  1.
          1   -1    0    0  501    0  0.00000000000E+00 -0.00000000000E+00 -0.87766738274E+02  0.87766738274E+02  0.00000000000E+00 0. -1.
         23    2    1    2    0    0  0.90962698522E+02 -0.92960240372E+02  0.19933413868E+03  0.25453050339E+03  0.90198999453E+02 0.  0.
          5    1    1    2  502    0  0.23731462148E+02 -0.70565876132E+00  0.34104025952E+02  0.41764066326E+02  0.41800000000E+01 0. -1.
         -5    1    1    2    0  502 -0.11469416067E+03  0.93665899134E+02  0.41043847697E+02  0.15372091916E+03  0.41800000000E+01 0. -1.
        -11    1    3    3    0    0 -0.17395334079E+02 -0.16445101171E+02  0.45418431233E+02  0.51340752779E+02  0.00000000000E+00 0. -1.
         11    1    3    3    0    0  0.10835803260E+03 -0.76515139201E+02  0.15391570744E+03  0.20318975061E+03  0.00000000000E+00 0.  1.
</event>
<event>
 7    1  0.6610867E-006  0.2206265E+03  0.7561462E-02  0.1133417E+00
         -4   -1    0    0    0  501 -0.00000000000E+00  0.00000000000E+00  0.46631250532E+02  0.46631250532E+02  0.00000000000E+00 0.  1.
          4   -1    0    0  501    0  0.00000000000E+00 -0.00000000000E+00 -0.12658410370E+04  0.12658410370E+04  0.00000000000E+00 0. -1.
         23    2    1    2    0    0  0.29903602420E+01 -0.21585240708E+03 -0.52964167087E+03  0.57915618271E+03  0.91106424311E+02 0.  0.
          5    1    1    2  502    0  0.29817627317E+02  0.84442382323E+02 -0.44285669062E+03  0.45183971457E+03  0.41800000000E+01 0.  1.
         -5    1    1    2    0  502 -0.32807987559E+02  0.13141002476E+03 -0.24671142494E+03  0.28147639022E+03  0.41800000000E+01 0.  1.
        -11    1    3    3    0    0  0.60504483076E+01 -0.88773116435E+02 -0.33551932167E+03  0.34711739994E+03  0.00000000000E+00 0. -1.
         11    1    3    3    0    0 -0.30600880656E+01 -0.12707929065E+03 -0.19412234919E+03  0.23203878277E+03  0.00000000000E+00 0.  1.
</event>
<event>
 7    1  0.6610867E-006  0.5746751E+02  0.7561462E-02  0.1408778E+00
          1   -1    0    0  501    0  0.00000000000E+00  0.00000000000E+00  0.46427276528E+03  0.46427276528E+03  0.00000000000E+00 0. -1.
         -1   -1    0    0    0  501 -0.00000000000E+00 -0.00000000000E+00 -0.45034705906E+02  0.45034705906E+02  0.00000000000E+00 0.  1.
         23    2    1    2    0    0 -0.28892531339E+02 -0.86214610601E+01  0.32841806202E+02  0.10204886323E+03  0.91794761798E+02 0.  0.
          5    1    1    2  502    0  0.22117848225E+02  0.16365803455E+02  0.83590467957E+01  0.29058299953E+02  0.41800000000E+01 0.  1.
         -5    1    1    2    0  502  0.67746831138E+01 -0.77443423950E+01  0.37803720638E+03  0.37820030801E+03  0.41800000000E+01 0.  1.
        -11    1    3    3    0    0 -0.50646960360E+02 -0.15859541946E+02 -0.94836590234E+01  0.53912702149E+02  0.00000000000E+00 0.  1.
         11    1    3    3    0    0  0.21754429022E+02  0.72380808861E+01  0.42325465225E+02  0.48136161080E+02  0.00000000000E+00 0. -1.
</event>
<event>
 7    1  0.6610867E-006  0.1032055E+03  0.7561462E-02  0.1273696E+00
          2   -1    0    0  501    0  0.00000000000E+00  0.00000000000E+00  0.21241769390E+03  0.21241769390E+03  0.00000000000E+00 0. -1.
         -2   -1    0    0    0  501 -0.00000000000E+00 -0.00000000000E+00 -0.74392475207E+02  0.74392475207E+02  0.00000000000E+00 0.  1.
         23    2    1    2    0    0  0.42120759207E+01 -0.31651866699E+02 -0.77643918461E+00  0.97250315392E+02  0.91855531880E+02 0.  0.
          5    1    1    2  502    0 -0.62638971457E+02  0.29243604861E+02  0.62106778677E+02  0.93024478112E+02  0.41800000000E+01 0. -1.
         -5    1    1    2    0  502  0.58426895537E+02  0.24082618383E+01  0.76694879197E+02  0.96535375599E+02  0.41800000000E+01 0. -1.
        -11    1    3    3    0    0 -0.28567284742E+02 -0.35453769958E+02  0.28012705980E+02  0.53458126212E+02  0.00000000000E+00 0. -1.
         11    1    3    3    0    0  0.32779360662E+02  0.38019032593E+01 -0.28789145165E+02  0.43792189180E+02  0.00000000000E+00 0.  1.
</event>
<event>
 7    1  0.6610867E-006  0.1226829E+03  0.7561462E-02  0.1238736E+00
         -2   -1    0    0    0  501 -0.00000000000E+00  0.00000000000E+00  0.21582728547E+03  0.21582728547E+03  0.00000000000E+00 0.  1.
          2   -1    0    0  501    0  0.00000000000E+00 -0.00000000000E+00 -0.82643926384E+02  0.82643926384E+02  0.00000000000E+00 0. -1.
         23    2    1    2    0    0 -0.57305452496E+02  0.39945459674E+02  0.96938024360E+02  0.15067872030E+03  0.91801642409E+02 0.  0.
          5    1    1    2  502    0 -0.32980484680E+02 -0.75892829073E+01 -0.16906590223E+02  0.38060672324E+02  0.41800000000E+01 0. -1.
         -5    1    1    2    0  502  0.90285937176E+02 -0.32356176767E+02  0.53151924950E+02  0.10973181923E+03  0.41800000000E+01 0. -1.
        -11    1    3    3    0    0 -0.62611170970E+02  0.64649924456E+02  0.73184640161E+02  0.11599897852E+03  0.00000000000E+00 0. -1.
         11    1    3    3    0    0  0.53057184738E+01 -0.24704464782E+02  0.23753384200E+02  0.34679741776E+02  0.00000000000E+00 0.  1.
</event>
<event>
 7    1  0.6610867E-006  0.1592375E+03  0.7561462E-02  0.1189560E+00
         -2   -1    0    0    0  501 -0.00000000000E+00  0.00000000000E+00  0.28805291095E+02  0.28805291095E+02  0.00000000000E+00 0.  1.
          2   -1    0    0  501    0  0.00000000000E+00 -0.00000000000E+00 -0.11335042849E+04  0.11335042849E+04  0.00000000000E+00 0. -1.
         23    2    1    2    0    0 -0.36687244590E+02  0.13806974427E+03 -0.53907934573E+03  0.56566632762E+03  0.94671247012E+02 0.  0.
          5    1    1    2  502    0  0.70546156782E+02 -0.11185882557E+03 -0.50668708469E+03  0.52367779338E+03  0.41800000000E+01 0.  1.
         -5    1    1    2    0  502 -0.33858912192E+02 -0.26210918699E+02 -0.58932563357E+02  0.72965454961E+02  0.41800000000E+01 0.  1.
        -11    1    3    3    0    0 -0.20560744843E+02  0.93734923983E+02 -0.48272798158E+03  0.49217403874E+03  0.00000000000E+00 0. -1.
         11    1    3    3    0    0 -0.16126499747E+02  0.44334820286E+02 -0.56351364144E+02  0.73492288879E+02  0.00000000000E+00 0.  1.
</event>
<event>
 7    1  0.6610867E-006  0.9870761E+02  0.7561462E-02  0.1283037E+00
         -1   -1    0    0    0  501 -0.00000000000E+00  0.00000000000E+00  0.43700292731E+02  0.43700292731E+02  0.00000000000E+00 0.  1.
          1   -1    0    0  501    0  0.00000000000E+00 -0.00000000000E+00 -0.27579353159E+03  0.27579353159E+03  0.00000000000E+00 0. -1.
         23    2    1    2    0    0 -0.75762159804E+01 -0.48203789839E+01 -0.66460051932E+02  0.11173785986E+03  0.89374357179E+02 0.  0.
          5    1    1    2  502    0 -0.45754943559E+02  0.26050940623E+02 -0.30772125182E+02  0.61127428014E+02  0.41800000000E+01 0.  1.
         -5    1    1    2    0  502  0.53331159539E+02 -0.21230561639E+02 -0.13486106174E+03  0.14662853644E+03  0.41800000000E+01 0.  1.
        -11    1    3    3    0    0 -0.26917311410E+02  0.34183109516E+02 -0.19429070142E+02  0.47649925460E+02  0.00000000000E+00 0.  1.
         11    1    3    3    0    0  0.19341095430E+02 -0.39003488500E+02 -0.47030981790E+02  0.64087934400E+02  0.00000000000E+00 0. -1.
</event>
<event>
 7    1  0.6610867E-006  0.9952503E+02  0.7561462E-02  0.1281298E+00
         -4   -1    0    0    0  501 -0.00000000000E+00  0.00000000000E+00  0.93050246293E+02  0.93050246293E+02  0.00000000000E+00 0.  1.
          4   -1    0    0  501    0  0.00000000000E+00 -0.00000000000E+00 -0.26411546593E+03  0.26411546593E+03  0.00000000000E+00 0. -1.
         23    2    1    2    0    0 -0.23822691334E+02  0.76396071510E+02  0.13536305673E+02  0.12025099446E+03  0.88730996457E+02 0.  0.
          5    1    1    2  502    0 -0.15969711969E+02 -0.22788742194E+02 -0.16475361107E+03  0.16713941256E+03  0.41800000000E+01 0. -1.
         -5    1    1    2    0  502  0.39792403303E+02 -0.53607329315E+02 -0.19847914244E+02  0.69775305207E+02  0.41800000000E+01 0. -1.
        -11    1    3    3    0    0  0.45912661587E+01 -0.11106162464E+02 -0.19157138382E+02  0.22614652786E+02  0.00000000000E+00 0. -1.
         11    1    3    3    0    0 -0.28413957492E+02  0.87502233974E+02  0.32693444056E+02  0.97636341672E+02  0.00000000000E+00 0.  1.
</event>
<event>
 7    1  0.6610867E-006  0.1051814E+03  0.7561462E-02  0.1269763E+00
         -1   -1    0    0    0  501 -0.00000000000E+00  0.00000000000E+00  0.49694227314E+02  0.49694227314E+02  0.00000000000E+00 0.  1.
          1   -1    0    0  501    0  0.00000000000E+00 -0.00000000000E+00 -0.43612524903E+03  0.43612524903E+03  0.00000000000E+00 0. -1.
         23    2    1    2    0    0  0.80661583503E+01 -0.51687489575E+02 -0.41482095375E+02  0.11517988152E+03  0.93856173905E+02 0.  0.
          5    1    1    2  502    0  0.54429583370E+02  0.29000751740E+02 -0.10731984609E+03  0.12384928305E+03  0.41800000000E+01 0. -1.
         -5    1    1    2    0  502 -0.62495741720E+02  0.22686737835E+02 -0.23762908025E+03  0.24679031178E+03  0.41800000000E+01 0. -1.
        -11    1    3    3    0    0  0.35814031122E+02 -0.29721933476E+02 -0.59441563173E+02  0.75493957289E+02  0.00000000000E+00 0.  1.
         11    1    3    3    0    0 -0.27747872772E+02 -0.21965556099E+02  0.17959467798E+02  0.39685924226E+02  0.00000000000E+00 0. -1.
</event>
<event>
 7    1  0.6610867E-006  0.1195969E+03  0.7561462E-02  0.1243764E+00
          2   -1    0    0  501    0  0.00000000000E+00  0.00000000000E+00  0.45791902467E+03  0.45791902467E+03  0.00000000000E+00 0. -1.
         -2   -1    0    0    0  501 -0.00000000000E+00 -0.00000000000E+00 -0.35425019707E+02  0.35425019707E+02  0.00000000000E+00 0.  1.
         23    2    1    2    0    0  0.24591806082E+02 -0.48454207463E+02  0.11177295804E+03  0.15401026808E+03  0.90958239741E+02 0.  0.
          5    1    1    2  502    0 -0.55428861168E+02  0.75104648289E+02  0.24080372357E+03  0.25829628826E+03  0.41800000000E+01 0.  1.
         -5    1    1    2    0  502  0.30837055086E+02 -0.26650440826E+02  0.69917323348E+02  0.81037488034E+02  0.41800000000E+01 0.  1.
        -11    1    3    3    0    0  0.20373151326E+02  0.24412329279E+02  0.23895455184E+02  0.39774613691E+02  0.00000000000E+00 0.  1.
         11    1    3    3    0    0  0.42186547562E+01 -0.72866536742E+02  0.87877502854E+02  0.11423565438E+03  0.00000000000E+00 0. -1.
</event>
<event>
 7    1  0.6610867E-006  0.1181509E+03  0.7561462E-02  0.1246179E+00
         -1   -1    0    0    0  501 -0.00000000000E+00  0.00000000000E+00  0.30654647163E+02  0.30654647163E+02  0.00000000000E+00 0.  1.
          1   -1    0    0  501    0  0.00000000000E+00 -0.00000000000E+00 -0.10553455636E+04  0.10553455636E+04  0.00000000000E+00 0. -1.
         23    2    1    2    0    0  0.96452892751E+02 -0.23672964345E+02 -0.15535914541E+03  0.20212091249E+03  0.82781818304E+02 0.  0.
          5    1    1    2  502    0 -0.91255195933E+02 -0.19129363281E+02 -0.33392562128E+03  0.34672357329E+03  0.41800000000E+01 0.  1.
         -5    1    1    2    0  502 -0.51976968174E+01  0.42802327626E+02 -0.53540614975E+03  0.53715572499E+03  0.41800000000E+01 0.  1.
        -11    1    3    3    0    0  0.70012356127E+02 -0.13392167830E+02 -0.36810732425E+02  0.80225371244E+02  0.00000000000E+00 0.  1.
         11    1    3    3    0    0  0.26440536624E+02 -0.10280796514E+02 -0.11854841299E+03  0.12189554125E+03  0.00000000000E+00 0. -1.
</event>
<event>
 7    1  0.6610867E-006  0.1165118E+03  0.7561462E-02  0.1248965E+00
          1   -1    0    0  501    0  0.00000000000E+00  0.00000000000E+00  0.98563753270E+03  0.98563753270E+03  0.00000000000E+00 0. -1.
         -1   -1    0    0    0  501 -0.00000000000E+00 -0.00000000000E+00 -0.16465125162E+02  0.16465125162E+02  0.00000000000E+00 0.  1.
         23    2    1    2    0    0  0.42576290472E+01 -0.67069764051E+02  0.42291967395E+03  0.43769174524E+03  0.90534703732E+02 0.  0.
          5    1    1    2  502    0  0.51220033029E+02  0.29935636370E+01  0.28826982766E+03  0.29283001750E+03  0.41800000000E+01 0. -1.
         -5    1    1    2    0  502 -0.55477662076E+02  0.64076200414E+02  0.25798290592E+03  0.27158089513E+03  0.41800000000E+01 0. -1.
        -11    1    3    3    0    0 -0.20910098950E+02 -0.68360243015E+02  0.38855890786E+03  0.39508021963E+03  0.00000000000E+00 0. -1.
         11    1    3    3    0    0  0.25167727998E+02  0.12904789632E+01  0.34360766089E+02  0.42611525609E+02  0.00000000000E+00 0.  1.
</event>
<event>
 7    1  0.6610867E-006  0.2287220E+03  0.7561462E-02  0.1127543E+00
          1   -1    0    0  501    0  0.00000000000E+00  0.00000000000E+00  0.52465455405E+03  0.52465455405E+03  0.00000000000E+00 0. -1.
         -1   -1    0    0    0  501 -0.00000000000E+00 -0.00000000000E+00 -0.10991914724E+03  0.10991914724E+03  0.00000000000E+00 0.  1.
         23    2    1    2    0    0  0.21302761164E+03 -0.54511322450E+01  0.22260287569E+03  0.32156655224E+03  0.91883236144E+02 0.  0.
          5    1    1    2  502    0 -0.18840414476E+03 -0.27554109820E+02  0.19361956849E+03  0.27159042773E+03  0.41800000000E+01 0. -1.
         -5    1    1    2    0  502 -0.24623466885E+02  0.33005242065E+02 -0.14870373743E+01  0.41416721326E+02  0.41800000000E+01 0. -1.
        -11    1    3    3    0    0  0.11865301789E+03  0.33822361870E+02  0.15869101125E+03  0.20101076555E+03  0.00000000000E+00 0.  1.
         11    1    3    3    0    0  0.94374593755E+02 -0.39273494115E+02  0.63911864449E+02  0.12055578669E+03  0.00000000000E+00 0. -1.
</event>
<event>
 7    1  0.6610867E-006  0.1343662E+03  0.7561462E-02  0.1221117E+00
          4   -1    0    0  501    0  0.00000000000E+00  0.00000000000E+00  0.42047910784E+03  0.42047910784E+03  0.00000000000E+00 0. -1.
         -4   -1    0    0    0  501 -0.00000000000E+00 -0.00000000000E+00 -0.63002557486E+02  0.63002557486E+02  0.00000000000E+00 0.  1.
         23    2    1    2    0    0 -0.64813213366E+02 -0.51788293561E+02  0.35314318512E+02  0.12806818925E+03  0.90948227188E+02 0.  0.
          5    1    1    2  502    0  0.98533546857E+02  0.15366856322E+02  0.22793666983E+03  0.24883246971E+03  0.41800000000E+01 0.  1.
         -5    1    1    2    0  502 -0.33720333491E+02  0.36421437239E+02  0.94225562006E+02  0.10658100636E+03  0.41800000000E+01 0.  1.
        -11    1    3    3    0    0 -0.24797742795E+02  0.23298802800E+02 -0.41485017573E+01  0.34277869340E+02  0.00000000000E+00 0.  1.
         11    1    3    3    0    0 -0.40015470571E+02 -0.75087096361E+02  0.39462820269E+02  0.93790319909E+02  0.00000000000E+00 0. -1.
</event>
<event>
 7    1  0.6610867E-006  0.1094467E+03  0.7561462E-02  0.1261598E+00
          1   -1    0    0  501    0  0.00000000000E+00  0.00000000000E+00  0.98068783691E+03  0.98068783691E+03  0.00000000000E+00 0.  1.
         -1   -1    0    0    0  501 -0.00000000000E+00 -0.00000000000E+00 -0.15708075470E+02  0.15708075470E+02  0.00000000000E+00 0. -1.
         23    2    1    2    0    0 -0.40781385925E+02  0.27305374073E+02  0.23134333925E+03  0.25055074191E+03  0.82747983443E+02 0.  0.
          5    1    1    2  502    0 -0.10701326234E+02 -0.60306793523E+02  0.21480610554E+03  0.22340672126E+03  0.41800000000E+01 0. -1.
         -5    1    1    2    0  502  0.51482712159E+02  0.33001419450E+02  0.51883031664E+03  0.52243844920E+03  0.41800000000E+01 0. -1.
        -11    1    3    3    0    0 -0.61052347274E+02  0.39343608684E+02  0.17495211134E+03  0.18942953812E+03  0.00000000000E+00 0. -1.
         11    1    3    3    0    0  0.20270961350E+02 -0.12038234611E+02  0.56391227916E+02  0.61121203788E+02  0.00000000000E+00 0.  1.
</event>
<event>
 7    1  0.6610867E-006  0.2063277E+03  0.7561462E-02  0.1144507E+00
         -2   -1    0    0    0  501 -0.00000000000E+00  0.00000000000E+00  0.54858974699E+02  0.54858974699E+02  0.00000000000E+00 0. -1.
          2   -1    0    0  501    0  0.00000000000E+00 -0.00000000000E+00 -0.95711665256E+03  0.95711665256E+03  0.00000000000E+00 0.  1.
         23    2    1    2    0    0 -0.17829995817E+02 -0.18636562274E+03 -0.27952055899E+03  0.34978301830E+03  0.95741124419E+02 0.  0.
          5    1    1    2  502    0 -0.26235862583E+02  0.16593140717E+03 -0.39438216645E+03  0.42869140181E+03  0.41800000000E+01 0.  1.
         -5    1    1    2    0  502  0.44065858400E+02  0.20434215572E+02 -0.22835495243E+03  0.23350120715E+03  0.41800000000E+01 0.  1.
        -11    1    3    3    0    0 -0.14654046140E+02 -0.66125649697E+01  0.15310004908E+01  0.16149645391E+02  0.00000000000E+00 0. -1.
         11    1    3    3    0    0 -0.31759496769E+01 -0.17975305777E+03 -0.28105155948E+03  0.33363337291E+03  0.00000000000E+00 0.  1.
</event>
<event>
 7    1  0.6610867E-006  0.1217254E+03  0.7561462E-02  0.1240278E+00
         -1   -1    0    0    0  501 -0.00000000000E+00  0.00000000000E+00  0.12199588297E+02  0.12199588297E+02  0.00000000000E+00 0.  1.
          1   -1    0    0  501    0  0.00000000000E+00 -0.00000000000E+00 -0.14949006868E+04  0.14949006868E+04  0.00000000000E+00 0. -1.
         23    2    1    2    0    0 -0.64227031268E+02 -0.45579674910E+02 -0.57902870499E+03  0.59141764766E+03  0.91093218417E+02 0.  0.
          5    1    1    2  502    0  0.40376606503E+02 -0.25575350104E+02 -0.13364908729E+03  0.14199971767E+03  0.41800000000E+01 0. -1.
         -5    1    1    2    0  502  0.23850424765E+02  0.71155025014E+02 -0.77002330624E+03  0.77368290978E+03  0.41800000000E+01 0. -1.
        -11    1    3    3    0    0  0.21894452961E+02 -0.21959081086E+02 -0.13857030052E+03  0.14199752286E+03  0.00000000000E+00 0.  1.
         11    1    3    3    0    0 -0.86121484229E+02 -0.23620593824E+02 -0.44045840448E+03  0.44942012480E+03  0.00000000000E+00 0. -1.
</event>
<event>
 7    1  0.6610867E-006  0.6459771E+02  0.7561462E-02  0.1379491E+00
         -2   -1    0    0    0  501 -0.00000000000E+00  0.00000000000E+00  0.10412310716E+03  0.10412310716E+03  0.00000000000E+00 0. -1.
          2   -1    0    0  501    0  0.00000000000E+00 -0.00000000000E+00 -0.18628386256E+03  0.18628386256E+03  0.00000000000E+00 0.  1.
         23    2    1    2    0    0 -0.32309667098E+02 -0.34393027403E+02  0.38781037374E+02  0.11012547442E+03  0.91634362190E+02 0.  0.
          5    1    1    2  502    0 -0.11966472744E+02  0.29958223664E+02  0.15985278391E+02  0.36244905301E+02  0.41800000000E+01 0.  1.
         -5    1    1    2    0  502  0.44276139842E+02  0.44348037389E+01 -0.13692707116E+03  0.14403659001E+03  0.41800000000E+01 0.  1.
        -11    1    3    3    0    0  0.14637332452E+00 -0.13219843852E+02 -0.29099752007E+02  0.31962184898E+02  0.00000000000E+00 0.  1.
         11    1    3    3    0    0 -0.32456040423E+02 -0.21173183551E+02  0.67880789381E+02  0.78163289520E+02  0.00000000000E+00 0. -1.
</event>
<event>
 7    1  0.6610867E-006  0.1421929E+03  0.7561462E-02  0.1210408E+00
         -1   -1    0    0    0  501 -0.00000000000E+00  0.00000000000E+00  0.12243175028E+03  0.12243175028E+03  0.00000000000E+00 0.  1.
          1   -1    0    0  501    0  0.00000000000E+00 -0.00000000000E+00 -0.17822508030E+03  0.17822508030E+03  0.00000000000E+00 0. -1.
         23    2    1    2    0    0 -0.35593834651E+02  0.93791649494E+02 -0.22527687755E+02  0.13689674316E+03  0.90384882537E+02 0.  0.
          5    1    1    2  502    0 -0.57842832679E+01 -0.11036511251E+03 -0.47845490284E+01  0.11069905285E+03  0.41800000000E+01 0. -1.
         -5    1    1    2    0  502  0.41378117919E+02  0.16573463012E+02 -0.28481093237E+02  0.53061034580E+02  0.41800000000E+01 0. -1.
        -11    1    3    3    0    0  0.26174866008E+02  0.21030452758E+02  0.11615940543E+02  0.35529334760E+02  0.00000000000E+00 0.  1.
         11    1    3    3    0    0 -0.61768700659E+02  0.72761196736E+02 -0.34143628299E+02  0.10136740840E+03  0.00000000000E+00 0. -1.
</event>
<event>
 7    1  0.6610867E-006  0.1179148E+03  0.7561462E-02  0.1246577E+00
         -2   -1    0    0    0  501 -0.00000000000E+00  0.00000000000E+00  0.72073203377E+02  0.72073203377E+02  0.00000000000E+00 0.  1.
          2   -1    0    0  501    0  0.00000000000E+00 -0.00000000000E+00 -0.19700659369E+03  0.19700659369E+03  0.00000000000E+00 0. -1.
         23    2    1    2    0    0  0.21142756277E+02 -0.12519882780E+02 -0.69923616390E+02  0.13023575688E+03  0.10709003985E+03 0.  0.
          5    1    1    2  502    0  0.41451439093E+02  0.39848700805E+02 -0.35440015447E+02  0.67672799954E+02  0.41800000000E+01 0. -1.
         -5    1    1    2    0  502 -0.62594195370E+02 -0.27328818025E+02 -0.19569758473E+02  0.71171240226E+02  0.41800000000E+01 0. -1.
        -11    1    3    3    0    0  0.64490513199E+02  0.49222960987E+00 -0.44093477895E+02  0.78124921603E+02  0.00000000000E+00 0. -1.
         11    1    3    3    0    0 -0.43347756922E+02 -0.13012112390E+02 -0.25830138495E+02  0.52110835281E+02  0.00000000000E+00 0.  1.
</event>
<event>
 7    1  0.6610867E-006  0.1179825E+03  0.7561462E-02  0.1246463E+00
          2   -1    0    0  501    0  0.00000000000E+00  0.00000000000E+00  0.34072586263E+03  0.34072586263E+03  0.00000000000E+00 0. -1.
         -2   -1    0    0    0  501 -0.00000000000E+00 -0.00000000000E+00 -0.57907810572E+02  0.57907810572E+02  0.00000000000E+00 0.  1.
         23    2    1    2    0    0  0.60419397977E+02  0.62152190771E+02  0.14961893968E+03  0.19638899919E+03  0.93109684903E+02 0.  0.
          5    1    1    2  502    0  0.42702564290E+01 -0.48554583426E+02  0.12654973258E+03  0.13567641607E+03  0.41800000000E+01 0.  1.
         -5    1    1    2    0  502 -0.64689654406E+02 -0.13597607345E+02  0.66493797897E+01  0.66568257933E+02  0.41800000000E+01 0.  1.
        -11    1    3    3    0    0  0.63789071169E+02  0.80185463200E+02  0.14486249892E+03  0.17743702461E+03  0.00000000000E+00 0. -1.
         11    1    3    3    0    0 -0.33696731921E+01 -0.18033272428E+02  0.47564407643E+01  0.18951974584E+02  0.00000000000E+00 0.  1.
</event>
<event>
 7    1  0.6610867E-006  0.9704285E+02  0.7561462E-02  0.1286640E+00
         -2   -1    0    0    0  501 -0.00000000000E+00  0.00000000000E+00  0.22277667511E+02  0.22277667511E+02  0.00000000000E+00 0.  1.
          2   -1    0    0  501    0  0.00000000000E+00 -0.00000000000E+00 -0.69729670843E+03  0.69729670843E+03  0.00000000000E+00 0. -1.
         23    2    1    2    0    0 -0.50475209632E+02  0.36225280524E+02 -0.24771023152E+03  0.27001831104E+03  0.87689861247E+02 0.  0.
          5    1    1    2  502    0 -0.23364335894E+01 -0.40732624171E+02 -0.36647348059E+03  0.36876129131E+03  0.41800000000E+01 0. -1.
         -5    1    1    2    0  502  0.52811643222E+02  0.45073436475E+01 -0.60835328809E+02  0.80794773580E+02  0.41800000000E+01 0. -1.
        -11    1    3    3    0    0 -0.56780232672E+02  0.55636539624E+02 -0.22871768361E+03  0.24213879937E+03  0.00000000000E+00 0. -1.
         11    1    3    3    0    0  0.63050230395E+01 -0.19411259101E+02 -0.18992547908E+02  0.27879511679E+02  0.00000000000E+00 0.  1.
</event>
<event>
 7    1  0.6610867E-006  0.1089395E+03  0.7561462E-02  0.1262546E+00
          4   -1    0    0  501    0  0.00000000000E+00  0.00000000000E+00  0.15816663048E+03  0.15816663048E+03  0.00000000000E+00 0.  1.
         -4   -1    0    0    0  501 -0.00000000000E+00 -0.00000000000E+00 -0.94961478593E+02  0.94961478593E+02  0.00000000000E+00 0. -1.
         23    2    1    2    0    0 -0.44200382342E+02 -0.25925016103E+02 -0.13255476252E+02  0.97821758273E+02  0.82265475637E+02 0.  0.
          5    1    1    2  502    0 -0.85197425744E+01 -0.42866377747E+02  0.76556701616E+01  0.44566736927E+02  0.41800000000E+01 0. -1.
         -5    1    1    2    0  502  0.52720124917E+02  0.68791393850E+02  0.68804957982E+02  0.11073961388E+03  0.41800000000E+01 0. -1.
        -11    1    3    3    0    0 -0.48298066722E+02  0.11424237892E+02 -0.28547906968E+02  0.57255562636E+02  0.00000000000E+00 0. -1.
         11    1    3    3    0    0  0.40976843801E+01 -0.37349253995E+02  0.15292430716E+02  0.40566195637E+02  0.00000000000E+00 0.  1.
</event>
<event>
 7    1  0.6610867E-006  0.8894114E+02  0.7561462E-02  0.1305436E+00
         -2   -1    0    0    0  501 -0.00000000000E+00  0.00000000000E+00  0.26950486999E+02  0.26950486999E+02  0.00000000000E+00 0.  1.
          2   -1    0    0  501    0  0.00000000000E+00 -0.00000000000E+00 -0.49238335176E+03  0.49238335176E+03  0.00000000000E+00 0. -1.
         23    2    1    2    0    0 -0.34666695758E+02 -0.17638151636E+02 -0.18104245481E+03  0.20621573160E+03  0.90750610623E+02 0.  0.
          5    1    1    2  502    0 -0.32809686723E+02 -0.24235557365E+01 -0.20184509877E+03  0.20455137610E+03  0.41800000000E+01 0.  1.
         -5    1    1    2    0  502  0.67476382481E+02  0.20061707373E+02 -0.82545311185E+02  0.10856673106E+03  0.41800000000E+01 0.  1.
        -11    1    3    3    0    0 -0.46189540349E+02  0.72668571081E+01 -0.37120549170E+02  0.59701055439E+02  0.00000000000E+00 0.  1.
         11    1    3    3    0    0  0.11522844591E+02 -0.24905008744E+02 -0.14392190564E+03  0.14651467616E+03  0.00000000000E+00 0. -1.
</event>
<event>
 7    1  0.6610867E-006  0.1005598E+03  0.7561462E-02  0.1279123E+00
          1   -1    0    0  501    0  0.00000000000E+00  0.00000000000E+00  0.14343584947E+04  0.14343584947E+04  0.00000000000E+00 0. -1.
         -1   -1    0    0    0  501 -0.00000000000E+00 -0.00000000000E+00 -0.10627072581E+02  0.10627072581E+02  0.00000000000E+00 0.  1.
         23    2    1    2    0    0 -0.18314781615E+02 -0.16417615244E+02  0.27813073614E+03  0.29352844577E+03  0.90538791572E+02 0.  0.
          5    1    1    2  502    0  0.95214578799E+01  0.64068954192E+02  0.76782362506E+03  0.77056218481E+03  0.41800000000E+01 0. -1.
         -5    1    1    2    0  502  0.87933237355E+01 -0.47651338948E+02  0.37777706093E+03  0.38089493671E+03  0.41800000000E+01 0.  1.
        -11    1    3    3    0    0 -0.48902911543E+02  0.65305020580E+01  0.10214381674E+03  0.11343501008E+03  0.00000000000E+00 0.  1.
         11    1    3    3    0    0  0.30588129928E+02 -0.22948117302E+02  0.17598691940E+03  0.18009343569E+03  0.00000000000E+00 0. -1.
</event>
<event>
 7    1  0.6610867E-006  0.1467116E+03  0.7561462E-02  0.1204573E+00
         -2   -1    0    0    0  501 -0.00000000000E+00  0.00000000000E+00  0.82578994939E+02  0.82578994939E+02  0.00000000000E+00 0.  1.
          2   -1    0    0  501    0  0.00000000000E+00 -0.00000000000E+00 -0.32365417407E+03  0.32365417407E+03  0.00000000000E+00 0. -1.
         23    2    1    2    0    0 -0.11129857054E+03  0.47966643178E+02 -0.92817101534E+02  0.17750606230E+03  0.90582653710E+02 0.  0.
          5    1    1    2  502    0  0.10531936952E+03 -0.72902481517E+02 -0.15573892380E+03  0.20169042167E+03  0.41800000000E+01 0. -1.
         -5    1    1    2    0  502  0.59792010169E+01  0.24935838340E+02  0.74808461968E+01  0.27036685047E+02  0.41800000000E+01 0. -1.
        -11    1    3    3    0    0 -0.33457650325E+02  0.51442589020E+02 -0.72736146773E+01  0.61795305654E+02  0.00000000000E+00 0.  1.
         11    1    3    3    0    0 -0.77840920213E+02 -0.34759458428E+01 -0.85543486856E+02  0.11571075664E+03  0.00000000000E+00 0. -1.
</event>
<event>
 7    1  0.6610867E-006  0.1403203E+03  0.7561462E-02  0.1212899E+00
          1   -1    0    0  501    0  0.00000000000E+00  0.00000000000E+00  0.22348940065E+04  0.22348940065E+04  0.00000000000E+00 0. -1.
         -1   -1    0    0    0  501 -0.00000000000E+00 -0.00000000000E+00 -0.14399309569E+02  0.14399309569E+02  0.00000000000E+00 0.  1.
         23    2    1    2    0    0  0.34858576512E+02 -0.10472132435E+03  0.48401487395E+03  0.50481876798E+03  0.91596474615E+02 0.  0.
          5    1    1    2  502    0 -0.34440271505E+02  0.12489518357E+03  0.16662392153E+04  0.16712736263E+04  0.41800000000E+01 0. -1.
         -5    1    1    2    0  502 -0.41830500685E+00 -0.20173859216E+02  0.70240607663E+02  0.73200921713E+02  0.41800000000E+01 0. -1.
        -11    1    3    3    0    0 -0.13578842556E+02 -0.68745609600E+02  0.15211593134E+03  0.16748014918E+03  0.00000000000E+00 0. -1.
         11    1    3    3    0    0  0.48437419067E+02 -0.35975714751E+02  0.33189894262E+03  0.33733861879E+03  0.00000000000E+00 0.  1.
</event>
<event>
 7    1  0.6610867E-006  0.1179562E+03  0.7561462E-02  0.1246507E+00
          3   -1    0    0  501    0  0.00000000000E+00  0.00000000000E+00  0.17099792989E+03  0.17099792989E+03  0.00000000000E+00 0. -1.
         -3   -1    0    0    0  501 -0.00000000000E+00 -0.00000000000E+00 -0.10906851713E+03  0.10906851713E+03  0.00000000000E+00 0.  1.
         23    2    1    2    0    0  0.59924103454E+02  0.24364080475E+02 -0.29603359345E+02  0.11210938466E+03  0.86646688645E+02 0.  0.
          5    1    1    2  502    0 -0.75711045698E+02 -0.54585822831E+02  0.95227099304E+02  0.13340707379E+03  0.41800000000E+01 0.  1.
         -5    1    1    2    0  502  0.15786942244E+02  0.30221742357E+02 -0.36943272062E+01  0.34549988567E+02  0.41800000000E+01 0.  1.
        -11    1    3    3    0    0  0.55640929537E+02 -0.23264784851E+02 -0.16378905617E+02  0.62493454083E+02  0.00000000000E+00 0.  1.
         11    1    3    3    0    0  0.42831739163E+01  0.47628865326E+02 -0.13224453728E+02  0.49615930581E+02  0.00000000000E+00 0. -1.
</event>
<event>
 7    1  0.6610867E-006  0.1039112E+03  0.7561462E-02  0.1272280E+00
          2   -1    0    0  501    0  0.00000000000E+00  0.00000000000E+00  0.29486915275E+03  0.29486915275E+03  0.00000000000E+00 0. -1.
         -2   -1    0    0    0  501 -0.00000000000E+00 -0.00000000000E+00 -0.47993629407E+02  0.47993629407E+02  0.00000000000E+00 0.  1.
         23    2    1    2    0    0  0.21445834626E+02  0.29578227862E+02  0.55856488931E+02  0.11162106573E+03  0.89467980713E+02 0.  0.
          5    1    1    2  502    0 -0.19037050274E+02 -0.69572179240E+02  0.59206233271E+02  0.93410641072E+02  0.41800000000E+01 0.  1.
         -5    1    1    2    0  502 -0.24087843527E+01  0.39993951378E+02  0.13181280114E+03  0.13783107536E+03  0.41800000000E+01 0.  1.
        -11    1    3    3    0    0  0.14653976398E+02 -0.31021584952E+02  0.11385823030E+02  0.36148509282E+02  0.00000000000E+00 0. -1.
         11    1    3    3    0    0  0.67918582284E+01  0.60599812814E+02  0.44470665901E+02  0.75472556449E+02  0.00000000000E+00 0.  1.
</event>
<event>
 7    1  0.6610867E-006  0.1411071E+03  0.7561462E-02  0.1211847E+00
         -2   -1    0    0    0  501 -0.00000000000E+00  0.00000000000E+00  0.60642401326E+03  0.60642401326E+03  0.00000000000E+00 0.  1.
          2   -1    0    0  501    0  0.00000000000E+00 -0.00000000000E+00 -0.44695860645E+02  0.44695860645E+02  0.00000000000E+00 0. -1.
         23    2    1    2    0    0 -0.12100641237E+03  0.25199595960E+02  0.26612974487E+03  0.30716660668E+03  0.90822418379E+02 0.  0.
          5    1    1    2  502    0  0.13312684339E+03 -0.17380850642E+02  0.29966772926E+03  0.32839468748E+03  0.41800000000E+01 0.  1.
         -5    1    1    2    0  502 -0.12120431022E+02 -0.78187453183E+01 -0.40693215152E+01  0.15558579759E+02  0.41800000000E+01 0.  1.
        -11    1    3    3    0    0 -0.36718927235E+02 -0.14786185812E+02  0.20839723033E+02  0.44734829432E+02  0.00000000000E+00 0.  1.
         11    1    3    3    0    0 -0.84287485134E+02  0.39985781772E+02  0.24529002184E+03  0.26243177724E+03  0.00000000000E+00 0. -1.
</event>
<event>
 7    1  0.6610867E-006  0.1418355E+03  0.7561462E-02  0.1210880E+00
          1   -1    0    0  501    0  0.00000000000E+00  0.00000000000E+00  0.82602168729E+02  0.82602168729E+02  0.00000000000E+00 0. -1.
         -1   -1    0    0    0  501 -0.00000000000E+00 -0.00000000000E+00 -0.26357074060E+03  0.26357074060E+03  0.00000000000E+00 0.  1.
         23    2    1    2    0    0  0.40723667407E+02  0.90831811337E+02 -0.10176173032E+03  0.16776469505E+03  0.88773352482E+02 0.  0.
          5    1    1    2  502    0 -0.29211599657E+02 -0.11742406941E+03 -0.36179905408E+02  0.12636529423E+03  0.41800000000E+01 0. -1.
         -5    1    1    2    0  502 -0.11512067751E+02  0.26592258069E+02 -0.43026936142E+02  0.52042920045E+02  0.41800000000E+01 0. -1.
        -11    1    3    3    0    0 -0.24592913528E+02  0.44014430282E+01 -0.21042396745E+02  0.32664454033E+02  0.00000000000E+00 0.  1.
         11    1    3    3    0    0  0.65316580935E+02  0.86430368308E+02 -0.80719333576E+02  0.13510024102E+03  0.00000000000E+00 0. -1.
</event>
<event>
 7    1  0.6610867E-006  0.1106996E+03  0.7561462E-02  0.1259280E+00
          2   -1    0    0  501    0  0.00000000000E+00  0.00000000000E+00  0.26364659671E+03  0.26364659671E+03  0.00000000000E+00 0. -1.
         -2   -1    0    0    0  501 -0.00000000000E+00 -0.00000000000E+00 -0.11411954578E+03  0.11411954578E+03  0.00000000000E+00 0.  1.
         23    2    1    2    0    0  0.42980472461E+02  0.44780537526E+02 -0.57057219855E+02  0.12173743986E+03  0.87817198606E+02 0.  0.
          5    1    1    2  502    0 -0.74470026633E+02 -0.43154937243E+02  0.20699855769E+03  0.22421866283E+03  0.41800000000E+01 0. -1.
         -5    1    1    2    0  502  0.31489554171E+02 -0.16256002833E+01 -0.41428690470E+00  0.31810039796E+02  0.41800000000E+01 0.  1.
        -11    1    3    3    0    0  0.63656764134E+02  0.12174057452E+02 -0.19032309066E+02  0.67547169321E+02  0.00000000000E+00 0.  1.
         11    1    3    3    0    0 -0.20676291673E+02  0.32606480074E+02 -0.38024910789E+02  0.54190270535E+02  0.00000000000E+00 0. -1.
</event>
<event>
 7    1  0.6610867E-006  0.1645006E+03  0.7561462E-02  0.1183707E+00
          2   -1    0    0  501    0  0.00000000000E+00  0.00000000000E+00  0.16676195256E+04  0.16676195256E+04  0.00000000000E+00 0. -1.
         -2   -1    0    0    0  501 -0.00000000000E+00 -0.00000000000E+00 -0.18692296382E+02  0.18692296382E+02  0.00000000000E+00 0.  1.
         23    2    1    2    0    0  0.13231884789E+03  0.24014535327E+02  0.61749162357E+03  0.63865153355E+03  0.92167785627E+02 0.  0.
          5    1    1    2  502    0 -0.66091444341E+02 -0.65579908738E+02  0.36794689316E+03  0.37956711137E+03  0.41800000000E+01 0.  1.
         -5    1    1    2    0  502 -0.66227403546E+02  0.41565373411E+02  0.66348871246E+03  0.66809317704E+03  0.41800000000E+01 0.  1.
        -11    1    3    3    0    0  0.20814360605E+02  0.39769275506E+02  0.10980360639E+03  0.11862404839E+03  0.00000000000E+00 0.  1.
         11    1    3    3    0    0  0.11150448728E+03 -0.15754740178E+02  0.50768801718E+03  0.52002748515E+03  0.00000000000E+00 0. -1.
</event>
<event>
 7    1  0.6610867E-006  0.1169724E+03  0.7561462E-02  0.1248177E+00
          1   -1    0    0  501    0  0.00000000000E+00  0.00000000000E+00  0.75848120089E+02  0.75848120089E+02  0.00000000000E+00 0. -1.
         -1   -1    0    0    0  501 -0.00000000000E+00 -0.00000000000E+00 -0.31518834484E+03  0.31518834484E+03  0.00000000000E+00 0.  1.
         23    2    1    2    0    0  0.59106267590E+02  0.16166457493E+02 -0.23860492648E+03  0.26412151649E+03  0.95252082979E+02 0.  0.
          5    1    1    2  502    0 -0.58552034136E+02  0.35874674929E+02 -0.19381865368E+02  0.71473506335E+02  0.41800000000E+01 0. -1.
         -5    1    1    2    0  502 -0.55423345375E+00 -0.52041132422E+02  0.18646567100E+02  0.55441442109E+02  0.41800000000E+01 0.  1.
        -11    1    3    3    0    0  0.55571515268E+02 -0.32343897564E+02 -0.12588735311E+03  0.14135751374E+03  0.00000000000E+00 0.  1.
         11    1    3    3    0    0  0.35347523221E+01  0.48510355058E+02 -0.11271757338E+03  0.12276400274E+03  0.00000000000E+00 0. -1.
</event>
<event>
 7    1  0.6610867E-006  0.1081056E+03  0.7561462E-02  0.1264119E+00
          2   -1    0    0  501    0  0.00000000000E+00  0.00000000000E+00  0.18106381194E+03  0.18106381194E+03  0.00000000000E+00 0. -1.
         -2   -1    0    0    0  501 -0.00000000000E+00 -0.00000000000E+00 -0.88889819376E+02  0.88889819376E+02  0.00000000000E+00 0.  1.
         23    2    1    2    0    0  0.11745093613E+02  0.50044438698E+02 -0.93857301624E+01  0.10081461153E+03  0.86215433061E+02 0.  0.
          5    1    1    2  502    0 -0.54623952735E+02 -0.54547831706E+02  0.25135912696E+02  0.81292857394E+02  0.41800000000E+01 0.  1.
         -5    1    1    2    0  502  0.42878859121E+02  0.45033930077E+01  0.76423810033E+02  0.87846162398E+02  0.41800000000E+01 0.  1.
        -11    1    3    3    0    0  0.15383511733E+02  0.71849828401E+02 -0.20200217159E+02  0.76204324338E+02  0.00000000000E+00 0.  1.
         11    1    3    3    0    0 -0.36384181193E+01 -0.21805389703E+02  0.10814486997E+02  0.24610287189E+02  0.00000000000E+00 0. -1.
</event>
<event>
 7    1  0.6610867E-006  0.1078833E+03  0.7561462E-02  0.1264541E+00
         -2   -1    0    0    0  501 -0.00000000000E+00  0.00000000000E+00  0.41275886266E+02  0.41275886266E+02  0.00000000000E+00 0.  1.
          2   -1    0    0  501    0  0.00000000000E+00 -0.00000000000E+00 -0.52397616547E+03  0.52397616547E+03  0.00000000000E+00 0. -1.
         23    2    1    2    0    0 -0.39667697375E+02  0.70672614710E+02 -0.11175097793E+03  0.16547823927E+03  0.91250325583E+02 0.  0.
          5    1    1    2  502    0  0.35399374054E+01  0.66387703307E+01  0.77344108465E+01  0.11571427720E+02  0.41800000000E+01 0. -1.
         -5    1    1    2    0  502  0.36127759969E+02 -0.77311385041E+02 -0.37868371212E+03  0.38820238475E+03  0.41800000000E+01 0. -1.
        -11    1    3    3    0    0  0.26219858590E+02  0.16076617552E+01 -0.19331380836E+02  0.32615454095E+02  0.00000000000E+00 0. -1.
         11    1    3    3    0    0 -0.65887555965E+02  0.69064952955E+02 -0.92419597095E+02  0.13286278518E+03  0.00000000000E+00 0.  1.
</event>
<event>
 7    1  0.6610867E-006  0.1937876E+03  0.7561462E-02  0.1155089E+00
         -1   -1    0    0    0  501 -0.00000000000E+00  0.00000000000E+00  0.14010161930E+03  0.14010161930E+03  0.00000000000E+00 0.  1.
          1   -1    0    0  501    0  0.00000000000E+00 -0.00000000000E+00 -0.38478681906E+03  0.38478681906E+03  0.00000000000E+00 0. -1.
         23    2    1    2    0    0 -0.60376978330E+02  0.15581001471E+03 -0.16886478947E+02  0.18967693671E+03  0.88147869801E+02 0.  0.
          5    1    1    2  502    0  0.57499597913E+02 -0.17889617751E+03 -0.11584255096E+03  0.22078726209E+03  0.41800000000E+01 0. -1.
         -5    1    1    2    0  502  0.28773804174E+01  0.23086162793E+02 -0.11195616986E+03  0.11442423956E+03  0.41800000000E+01 0.  1.
        -11    1    3    3    0    0 -0.70722585959E+02  0.14285503802E+03  0.81927261324E+01  0.15961317870E+03  0.00000000000E+00 0.  1.
         11    1    3    3    0    0  0.10345607629E+02  0.12954976696E+02 -0.25079205080E+02  0.30063758012E+02  0.00000000000E+00 0. -1.
</event>
<event>
 7    1  0.6610867E-006  0.9106847E+02  0.7561462E-02  0.1300285E+00
          2   -1    0    0  501    0  0.00000000000E+00  0.00000000000E+00  0.51784656314E+03  0.51784656314E+03  0.00000000000E+00 0. -1.
         -2   -1    0    0    0  501 -0.00000000000E+00 -0.00000000000E+00 -0.25624207785E+02  0.25624207785E+02  0.00000000000E+00 0.  1.
         23    2    1    2    0    0  0.26210768399E+01 -0.32932097519E+02  0.15839259194E+03  0.18544666151E+03  0.90613784786E+02 0.  0.
          5    1    1    2  502    0  0.39941219374E+02 -0.19384061061E+02  0.22901386884E+03  0.23331495312E+03  0.41800000000E+01 0. -1.
         -5    1    1    2    0  502 -0.42562296214E+02  0.52316158581E+02  0.10481589457E+03  0.12470915629E+03  0.41800000000E+01 0. -1.
        -11    1    3    3    0    0  0.38027764941E+01 -0.51362821518E+02  0.15883118173E+03  0.16697288652E+03  0.00000000000E+00 0. -1.
         11    1    3    3    0    0 -0.11816996542E+01  0.18430723998E+02 -0.43858979615E+00  0.18473774985E+02  0.00000000000E+00 0.  1.
</event>
<event>
 7    1  0.6610867E-006  0.7674322E+02  0.7561462E-02  0.1338556E+00
          2   -1    0    0  501    0  0.00000000000E+00  0.00000000000E+00  0.82558142893E+03  0.82558142893E+03  0.00000000000E+00 0. -1.
         -2   -1    0    0    0  501 -0.00000000000E+00 -0.00000000000E+00 -0.22764128532E+02  0.22764128532E+02  0.00000000000E+00 0.  1.
         23    2    1    2    0    0  0.26246835046E+02  0.44590515174E+02  0.15717516482E+03  0.18866494188E+03  0.90626803234E+02 0.  0.
          5    1    1    2  502    0 -0.45780653272E+02 -0.73439757933E+01  0.57832096243E+03  0.58019170124E+03  0.41800000000E+01 0.  1.
         -5    1    1    2    0  502  0.19533818226E+02 -0.37246539381E+02  0.67321173145E+02  0.79488914346E+02  0.41800000000E+01 0.  1.
        -11    1    3    3    0    0 -0.33246847781E+01  0.32580873050E+02  0.49407436219E+01  0.33120654660E+02  0.00000000000E+00 0.  1.
         11    1    3    3    0    0  0.29571519824E+02  0.12009642125E+02  0.15223442120E+03  0.15554428722E+03  0.00000000000E+00 0. -1.
</event>
<event>
 7    1  0.6610867E-006  0.1324558E+03  0.7561462E-02  0.1223857E+00
         -1   -1    0    0    0  501 -0.00000000000E+00  0.00000000000E+00  0.60642965392E+02  0.60642965392E+02  0.00000000000E+00 0.  1.
          1   -1    0    0  501    0  0.00000000000E+00 -0.00000000000E+00 -0.15035504355E+04  0.15035504355E+04  0.00000000000E+00 0. -1.
         23    2    1    2    0    0  0.51642395707E+01  0.76758205704E+02 -0.12284163538E+02  0.11888927944E+03  0.89806840382E+02 0.  0.
          5    1    1    2  502    0 -0.26873552712E+02 -0.11453320563E+03 -0.13345348014E+04  0.13397166311E+04  0.41800000000E+01 0. -1.
         -5    1    1    2    0  502  0.21709313141E+02  0.37774999930E+02 -0.96088505117E+02  0.10558749032E+03  0.41800000000E+01 0.  1.
        -11    1    3    3    0    0  0.20908817607E+02 -0.38783607194E+01 -0.28081688779E+02  0.35225013560E+02  0.00000000000E+00 0. -1.
         11    1    3    3    0    0 -0.15744578036E+02  0.80636566423E+02  0.15797525242E+02  0.83664265883E+02  0.00000000000E+00 0.  1.
</event>
<event>
 7    1  0.6610867E-006  0.6488428E+02  0.7561462E-02  0.1378407E+00
          2   -1    0    0  501    0  0.00000000000E+00  0.00000000000E+00  0.13290215001E+04  0.13290215001E+04  0.00000000000E+00 0. -1.
         -2   -1    0    0    0  501 -0.00000000000E+00 -0.00000000000E+00 -0.11913983532E+02  0.11913983532E+02  0.00000000000E+00 0.  1.
         23    2    1    2    0    0  0.18098608822E+02  0.29580634890E+02  0.30473610207E+03  0.32027589302E+03  0.92249564454E+02 0.  0.
          5    1    1    2  502    0 -0.82369048286E+01 -0.67770216593E+01  0.97787807236E+03  0.97794517813E+03  0.41800000000E+01 0. -1.
         -5    1    1    2    0  502 -0.98617039930E+01 -0.22803613230E+02  0.34493342136E+02  0.42714412483E+02  0.41800000000E+01 0. -1.
        -11    1    3    3    0    0  0.15188956610E+02  0.60339677273E+02  0.24784938812E+03  0.25554040825E+03  0.00000000000E+00 0. -1.
         11    1    3    3    0    0  0.29096522116E+01 -0.30759042383E+02  0.56886713947E+02  0.64735484767E+02  0.00000000000E+00 0.  1.
</event>
<event>
 7    1  0.6610867E-006  0.2151842E+03  0.7561462E-02  0.1137525E+00
          2   -1    0    0  501    0  0.00000000000E+00  0.00000000000E+00  0.78471968587E+03  0.78471968587E+03  0.00000000000E+00 0. -1.
         -2   -1    0    0    0  501 -0.00000000000E+00 -0.00000000000E+00 -0.63793260310E+02  0.63793260310E+02  0.00000000000E+00 0.  1.
         23    2    1    2    0    0 -0.74449104891E+02 -0.34340487297E+02  0.16277535697E+03  0.20406877037E+03  0.91794923161E+02 0.  0.
          5    1    1    2  502    0  0.89098070185E+02 -0.12771421162E+03  0.32107965633E+03  0.35687393302E+03  0.41800000000E+01 0. -1.
         -5    1    1    2    0  502 -0.14648965294E+02  0.16205469892E+03  0.23707141226E+03  0.28757024278E+03  0.41800000000E+01 0.  1.
        -11    1    3    3    0    0  0.12459292286E+02 -0.20252726145E+02  0.64207329399E+01  0.24629914577E+02  0.00000000000E+00 0. -1.
         11    1    3    3    0    0 -0.86908397177E+02 -0.14087761152E+02  0.15635462403E+03  0.17943885579E+03  0.00000000000E+00 0.  1.
</event>
<event>
 7    1  0.6610867E-006  0.2361021E+03  0.7561462E-02  0.1122417E+00
         -2   -1    0    0    0  501 -0.00000000000E+00  0.00000000000E+00  0.37581637140E+02  0.37581637140E+02  0.00000000000E+00 0.  1.
          2   -1    0    0  501    0  0.00000000000E+00 -0.00000000000E+00 -0.22736368769E+04  0.22736368769E+04  0.00000000000E+00 0. -1.
         23    2    1    2    0    0 -0.98534304568E+02  0.20416701765E+03 -0.50596788452E+03  0.56186337094E+03  0.91070122249E+02 0.  0.
          5    1    1    2  502    0  0.73406491357E+02 -0.12750430621E+03 -0.65951214075E+03  0.67573633710E+03  0.41800000000E+01 0. -1.
         -5    1    1    2    0  502  0.25127813210E+02 -0.76662711439E+02 -0.10705752145E+04  0.10736188060E+04  0.41800000000E+01 0. -1.
        -11    1    3    3    0    0 -0.10120597205E+03  0.10791687750E+03 -0.31320283531E+03  0.34638810210E+03  0.00000000000E+00 0.  1.
         11    1    3    3    0    0  0.26716674860E+01  0.96250140149E+02 -0.19276504921E+03  0.21547526884E+03  0.00000000000E+00 0. -1.
</event>
<event>
 7    1  0.6610867E-006  0.1567529E+03  0.7561462E-02  0.1192412E+00
          2   -1    0    0  501    0  0.00000000000E+00  0.00000000000E+00  0.91693598636E+03  0.91693598636E+03  0.00000000000E+00 0. -1.
         -2   -1    0    0    0  501 -0.00000000000E+00 -0.00000000000E+00 -0.36851602036E+02  0.36851602036E+02  0.00000000000E+00 0.  1.
         23    2    1    2    0    0  0.48914448553E+02  0.11974949130E+03  0.22730545444E+03  0.27666119230E+03  0.90227943333E+02 0.  0.
          5    1    1    2  502    0 -0.90380996929E+02 -0.66364381091E+02  0.40359091682E+03  0.41889862285E+03  0.41800000000E+01 0. -1.
         -5    1    1    2    0  502  0.41466548377E+02 -0.53385110211E+02  0.24918801306E+03  0.25822777325E+03  0.41800000000E+01 0. -1.
        -11    1    3    3    0    0  0.18868868941E+02  0.87433493059E+02  0.70863100187E+02  0.11411498101E+03  0.00000000000E+00 0.  1.
         11    1    3    3    0    0  0.30045579612E+02  0.32315998243E+02  0.15644235426E+03  0.16254621128E+03  0.00000000000E+00 0. -1.
</event>
<event>
 7    1  0.6610867E-006  0.9949288E+02  0.7561462E-02  0.1281366E+00
          2   -1    0    0  501    0  0.00000000000E+00  0.00000000000E+00  0.10351201087E+04  0.10351201087E+04  0.00000000000E+00 0. -1.
         -2   -1    0    0    0  501 -0.00000000000E+00 -0.00000000000E+00 -0.14387633428E+02  0.14387633428E+02  0.00000000000E+00 0.  1.
         23    2    1    2    0    0  0.33694570703E+02  0.44569235752E+02  0.47602972697E+03  0.48784020288E+03  0.90895663881E+02 0.  0.
          5    1    1    2  502    0  0.78897079559E+00 -0.57873023804E+02  0.50069218508E+03  0.50404369449E+03  0.41800000000E+01 0. -1.
         -5    1    1    2    0  502 -0.34483541499E+02  0.13303788052E+02  0.44010563266E+02  0.57623844803E+02  0.41800000000E+01 0. -1.
        -11    1    3    3    0    0  0.49533996840E+02 -0.68052935439E+01  0.17307551398E+03  0.18015288619E+03  0.00000000000E+00 0.  1.
         11    1    3    3    0    0 -0.15839426137E+02  0.51374529296E+02  0.30295421300E+03  0.30768731669E+03  0.00000000000E+00 0. -1.
</event>
<event>
 7    1  0.6610867E-006  0.1329935E+03  0.7561462E-02  0.1223080E+00
          2   -1    0    0  501    0  0.00000000000E+00  0.00000000000E+00  0.22972266894E+03  0.22972266894E+03  0.00000000000E+00 0. -1.
         -2   -1    0    0    0  501 -0.00000000000E+00 -0.00000000000E+00 -0.18347888390E+03  0.18347888390E+03  0.00000000000E+00 0.  1.
         23    2    1    2    0    0  0.58291000977E+02 -0.39735944723E+02 -0.12858416668E+03  0.17317653695E+03  0.92083869011E+02 0.  0.
          5    1    1    2  502    0 -0.16783350690E+02 -0.56327731384E+02  0.74582385895E+02  0.95049980899E+02  0.41800000000E+01 0. -1.
         -5    1    1    2    0  502 -0.41507650287E+02  0.96063676107E+02  0.10024556583E+03  0.14497503498E+03  0.41800000000E+01 0.  1.
        -11    1    3    3    0    0  0.63433726962E+02 -0.56407426676E+02 -0.64087573744E+02  0.10636189453E+03  0.00000000000E+00 0. -1.
         11    1    3    3    0    0 -0.51427259848E+01  0.16671481953E+02 -0.64496592938E+02  0.66814642419E+02  0.00000000000E+00 0.  1.
</event>
<event>
 7    1  0.6610867E-006  0.1339377E+03  0.7561462E-02  0.1221727E+00
          2   -1    0    0  501    0  0.00000000000E+00  0.00000000000E+00  0.18907225890E+03  0.18907225890E+03  0.00000000000E+00 0. -1.
         -2   -1    0    0    0  501 -0.00000000000E+00 -0.00000000000E+00 -0.20236237295E+03  0.20236237295E+03  0.00000000000E+00 0.  1.
         23    2    1    2    0    0 -0.60415803806E+01 -0.10615034022E+03 -0.12849422086E+03  0.19087556879E+03  0.92834920925E+02 0.  0.
          5    1    1    2  502    0  0.49588275653E+02  0.43403155047E+02  0.47480780588E+01  0.66203078445E+02  0.41800000000E+01 0.  1.
         -5    1    1    2    0  502 -0.43546695272E+02  0.62747185177E+02  0.11045602874E+03  0.13435598462E+03  0.41800000000E+01 0.  1.
        -11    1    3    3    0    0  0.28383914260E+02 -0.27610547655E+02 -0.41302892459E+01  0.39812664063E+02  0.00000000000E+00 0.  1.
         11    1    3    3    0    0 -0.34425494641E+02 -0.78539792569E+02 -0.12436393161E+03  0.15106290473E+03  0.00000000000E+00 0. -1.
</event>
<event>
 7    1  0.6610867E-006  0.2369621E+03  0.7561462E-02  0.1121833E+00
         -1   -1    0    0    0  501 -0.00000000000E+00  0.00000000000E+00  0.43001131223E+02  0.43001131223E+02  0.00000000000E+00 0.  1.
          1   -1    0    0  501    0  0.00000000000E+00 -0.00000000000E+00 -0.14630478864E+04  0.14630478864E+04  0.00000000000E+00 0. -1.
         23    2    1    2    0    0 -0.21022051658E+03 -0.15538430917E+02 -0.45555042414E+03  0.51089306370E+03  0.95138978227E+02 0.  0.
          5    1    1    2  502    0  0.17043317927E+03 -0.39275241466E+02 -0.75220947900E+03  0.77228659569E+03  0.41800000000E+01 0.  1.
         -5    1    1    2    0  502  0.39787337308E+02  0.54813672383E+02 -0.21228685205E+03  0.22286935824E+03  0.41800000000E+01 0.  1.
        -11    1    3    3    0    0 -0.22024837268E+03 -0.17322353536E+02 -0.43133626412E+03  0.48462395973E+03  0.00000000000E+00 0.  1.
         11    1    3    3    0    0  0.10027856103E+02  0.17839226190E+01 -0.24214160015E+02  0.26269103965E+02  0.00000000000E+00 0. -1.
</event>
<event>
 7    1  0.6610867E-006  0.7858254E+02  0.7561462E-02  0.1333123E+00
          2   -1    0    0  501    0  0.00000000000E+00  0.00000000000E+00  0.35483645417E+02  0.35483645417E+02  0.00000000000E+00 0. -1.
         -2   -1    0    0    0  501 -0.00000000000E+00 -0.00000000000E+00 -0.37822228911E+03  0.37822228911E+03  0.00000000000E+00 0.  1.
         23    2    1    2    0    0 -0.64795170491E+01  0.50165517887E+01 -0.22134344318E+03  0.23920233843E+03  0.90319925494E+02 0.  0.
          5    1    1    2  502    0  0.11585207617E+02 -0.34701364892E+02 -0.13590854677E+03  0.14080840616E+03  0.41800000000E+01 0. -1.
         -5    1    1    2    0  502 -0.51056905682E+01  0.29684813103E+02  0.14513346254E+02  0.33695189933E+02  0.41800000000E+01 0. -1.
        -11    1    3    3    0    0 -0.46440470958E+02 -0.95283272783E+01 -0.10117758792E+03  0.11173365948E+03  0.00000000000E+00 0.  1.
         11    1    3    3    0    0  0.39960953908E+02  0.14544879067E+02 -0.12016585526E+03  0.12746867895E+03  0.00000000000E+00 0. -1.
</event>
<event>
 7    1  0.6610867E-006  0.1058412E+03  0.7561462E-02  0.1268471E+00
         -2   -1    0    0    0  501 -0.00000000000E+00  0.00000000000E+00  0.80474571467E+02  0.80474571467E+02  0.00000000000E+00 0.  1.
          2   -1    0    0  501    0  0.00000000000E+00 -0.00000000000E+00 -0.15183208831E+03  0.15183208831E+03  0.00000000000E+00 0. -1.
         23    2    1    2    0    0 -0.86278606690E+01 -0.24894970318E+01 -0.10918231002E+02  0.93091057957E+02  0.92011410858E+02 0.  0.
          5    1    1    2  502    0  0.66014905717E+02  0.11597288774E+02 -0.32270832051E+02  0.74507341148E+02  0.41800000000E+01 0.  1.
         -5    1    1    2    0  502 -0.57387045048E+02 -0.91077917424E+01 -0.28168453786E+02  0.64708260666E+02  0.41800000000E+01 0.  1.
        -11    1    3    3    0    0  0.37655850525E+02  0.87129523518E+01 -0.21615226104E+02  0.44284270537E+02  0.00000000000E+00 0. -1.
         11    1    3    3    0    0 -0.46283711194E+02 -0.11202449384E+02  0.10696995102E+02  0.48806787420E+02  0.00000000000E+00 0.  1.
</event>
<event>
 7    1  0.6610867E-006  0.1276421E+03  0.7561462E-02  0.1230997E+00
         -2   -1    0    0    0  501 -0.00000000000E+00  0.00000000000E+00  0.14839672238E+03  0.14839672238E+03  0.00000000000E+00 0.  1.
          2   -1    0    0  501    0  0.00000000000E+00 -0.00000000000E+00 -0.14070060398E+03  0.14070060398E+03  0.00000000000E+00 0. -1.
         23    2    1    2    0    0 -0.70166789781E+02 -0.37429883743E+02  0.54809910748E+02  0.13356088639E+03  0.92249712579E+02 0.  0.
          5    1    1    2  502    0 -0.24111116002E+02 -0.12074772392E+02 -0.40407879977E+02  0.48758744932E+02  0.41800000000E+01 0. -1.
         -5    1    1    2    0  502  0.94277905783E+02  0.49504656135E+02 -0.67059123770E+01  0.10677769504E+03  0.41800000000E+01 0. -1.
        -11    1    3    3    0    0 -0.88443078652E+02 -0.10755418546E+02  0.44720324100E+02  0.99688337218E+02  0.00000000000E+00 0.  1.
         11    1    3    3    0    0  0.18276288871E+02 -0.26674465197E+02  0.10089586649E+02  0.33872549169E+02  0.00000000000E+00 0. -1.
</event>
<event>
 6    1  0.6610867E-006  0.6328156E+02  0.7561462E-02  0.1384555E+00
          2   -1    0    0  501    0  0.00000000000E+00  0.00000000000E+00  0.39999064822E+03  0.39999064822E+03  0.00000000000E+00 0. -1.
         -2   -1    0    0    0  501 -0.00000000000E+00 -0.00000000000E+00 -0.27685598130E+02  0.27685598130E+02  0.00000000000E+00 0.  1.
          5    1    1    2  502    0 -0.29833780743E+02 -0.21762078158E+02  0.12344983555E+02  0.39160101355E+02  0.41800000000E+01 0. -1.
         -5    1    1    2    0  502 -0.14179817177E+02  0.23817122579E+02  0.28556605548E+03  0.28693861188E+03  0.41800000000E+01 0. -1.
        -11    1    1    2    0    0  0.46549963300E+02  0.11194921929E+02  0.73930297235E+02  0.88079022528E+02  0.00000000000E+00 0. -1.
         11    1    1    2    0    0 -0.25363653799E+01 -0.13249966350E+02  0.46371381872E+00  0.13498510589E+02  0.00000000000E+00 0.  1.
</event>
<event>
 7    1  0.6610867E-006  0.1314174E+03  0.7561462E-02  0.1225368E+00
         -1   -1    0    0    0  501 -0.00000000000E+00  0.00000000000E+00  0.90598427050E+02  0.90598427050E+02  0.00000000000E+00 0.  1.
          1   -1    0    0  501    0  0.00000000000E+00 -0.00000000000E+00 -0.57001638307E+03  0.57001638307E+03  0.00000000000E+00 0. -1.
         23    2    1    2    0    0  0.75411599596E+02  0.57250625121E+01  0.36825527059E+02  0.12336443246E+03  0.90238451104E+02 0.  0.
          5    1    1    2  502    0 -0.64328485495E+02 -0.61725997406E+02 -0.35849680402E+03  0.36943968885E+03  0.41800000000E+01 0. -1.
         -5    1    1    2    0  502 -0.11083114101E+02  0.56000934894E+02 -0.15774667906E+03  0.16781068882E+03  0.41800000000E+01 0.  1.
        -11    1    3    3    0    0  0.88763581125E+02 -0.16627265263E+02  0.20410332188E+02  0.92585209101E+02  0.00000000000E+00 0.  1.
         11    1    3    3    0    0 -0.13351981528E+02  0.22352327775E+02  0.16415194871E+02  0.30779223356E+02  0.00000000000E+00 0. -1.
</event>
<event>
 7    1  0.6610867E-006  0.8112119E+02  0.7561462E-02  0.1325899E+00
          1   -1    0    0  501    0  0.00000000000E+00  0.00000000000E+00  0.42531454330E+03  0.42531454330E+03  0.00000000000E+00 0. -1.
         -1   -1    0    0    0  501 -0.00000000000E+00 -0.00000000000E+00 -0.32031778928E+02  0.32031778928E+02  0.00000000000E+00 0.  1.
         23    2    1    2    0    0 -0.28255542298E+02 -0.16112074844E+02  0.16400696443E+03  0.19414867459E+03  0.98678512537E+02 0.  0.
          5    1    1    2  502    0  0.12729459350E+02  0.62472108930E+02  0.18965905721E+03  0.20013204119E+03  0.41800000000E+01 0. -1.
         -5    1    1    2    0  502  0.15526082948E+02 -0.46360034086E+02  0.39616742732E+02  0.63065606449E+02  0.41800000000E+01 0. -1.
        -11    1    3    3    0    0 -0.11338347774E+02  0.11975626233E+02 -0.84999676063E+01  0.18553253171E+02  0.00000000000E+00 0.  1.
         11    1    3    3    0    0 -0.16917194524E+02 -0.28087701077E+02  0.17250693203E+03  0.17559542141E+03  0.00000000000E+00 0. -1.
</event>
<event>
 7    1  0.6610867E-006  0.5495374E+02  0.7561462E-02  0.1420318E+00
          1   -1    0    0  501    0  0.00000000000E+00  0.00000000000E+00  0.13584292256E+04  0.13584292256E+04  0.00000000000E+00 0. -1.
         -1   -1    0    0    0  501 -0.00000000000E+00 -0.00000000000E+00 -0.10007149725E+02  0.10007149725E+02  0.00000000000E+00 0.  1.
         23    2    1    2    0    0  0.31262533245E+01  0.51816323635E+00  0.31957001252E+03  0.33200275850E+03  0.89948856570E+02 0.  0.
          5    1    1    2  502    0 -0.33737246052E+01  0.13248983595E+02  0.10187535464E+04  0.10188538552E+04  0.41800000000E+01 0.  1.
         -5    1    1    2    0  502  0.24747128072E+00 -0.13767146831E+02  0.10098516984E+02  0.17579761636E+02  0.41800000000E+01 0.  1.
        -11    1    3    3    0    0  0.88109351325E+01  0.40189785076E+02  0.89973752587E+02  0.98934966301E+02  0.00000000000E+00 0.  1.
         11    1    3    3    0    0 -0.56846818080E+01 -0.39671621839E+02  0.22959625993E+03  0.23306779220E+03  0.00000000000E+00 0. -1.
</event>
<event>
 7    1  0.6610867E-006  0.8082717E+02  0.7561462E-02  0.1326720E+00
         -2   -1    0    0    0  501 -0.00000000000E+00  0.00000000000E+00  0.60414328167E+02  0.60414328167E+02  0.00000000000E+00 0.  1.
          2   -1    0    0  501    0  0.00000000000E+00 -0.00000000000E+00 -0.24619565819E+03  0.24619565819E+03  0.00000000000E+00 0. -1.
         23    2    1    2    0    0 -0.50569458892E+02 -0.16861494573E+02 -0.65314105306E+02  0.12494509044E+03  0.92215850593E+02 0.  0.
          5    1    1    2  502    0  0.68245511834E+02 -0.14978981897E+02 -0.12644327346E+03  0.14452402426E+03  0.41800000000E+01 0. -1.
         -5    1    1    2    0  502 -0.17676052942E+02  0.31840476470E+02  0.59760487405E+01  0.37140871665E+02  0.41800000000E+01 0. -1.
        -11    1    3    3    0    0 -0.11881240634E+02 -0.10376415335E+02  0.23241916594E+02  0.28089509806E+02  0.00000000000E+00 0.  1.
         11    1    3    3    0    0 -0.38688218258E+02 -0.64850792374E+01 -0.88556021900E+02  0.96855580631E+02  0.00000000000E+00 0. -1.
</event>
<event>
 7    1  0.6610867E-006  0.1070771E+03  0.7561462E-02  0.1266080E+00
         -3   -1    0    0    0  501 -0.00000000000E+00  0.00000000000E+00  0.18293720227E+03  0.18293720227E+03  0.00000000000E+00 0.  1.
          3   -1    0    0  501    0  0.00000000000E+00 -0.00000000000E+00 -0.89448741283E+02  0.89448741283E+02  0.00000000000E+00 0. -1.
         23    2    1    2    0    0 -0.47473013198E+01 -0.23473587255E+02  0.10526036522E+03  0.14448250173E+03  0.96030738062E+02 0.  0.
          5    1    1    2  502    0  0.58527078935E+02  0.51330618261E+01  0.20570513793E+02  0.62388987250E+02  0.41800000000E+01 0.  1.
         -5    1    1    2    0  502 -0.53779777615E+02  0.18340525429E+02 -0.32342418027E+02  0.65514454567E+02  0.41800000000E+01 0.  1.
        -11    1    3    3    0    0 -0.39166796259E+02 -0.43438258316E+02  0.70882394593E+02  0.91897954700E+02  0.00000000000E+00 0.  1.
         11    1    3    3    0    0  0.34419494939E+02  0.19964671060E+02  0.34377970625E+02  0.52584547033E+02  0.00000000000E+00 0. -1.
</event>
<event>
 7    1  0.6610867E-006  0.8871647E+02  0.7561462E-02  0.1305990E+00
         -2   -1    0    0    0  501 -0.00000000000E+00  0.00000000000E+00  0.33583910287E+02  0.33583910287E+02  0.00000000000E+00 0.  1.
          2   -1    0    0  501    0  0.00000000000E+00 -0.00000000000E+00 -0.45173130959E+03  0.45173130959E+03  0.00000000000E+00 0. -1.
         23    2    1    2    0    0 -0.33048380174E+02  0.28299894657E+02 -0.17083502274E+03  0.20477280789E+03  0.10418358021E+03 0.  0.
          5    1    1    2  502    0  0.46188589054E+02 -0.12689766988E+02 -0.25412085610E+03  0.25862965385E+03  0.41800000000E+01 0. -1.
         -5    1    1    2    0  502 -0.13140208881E+02 -0.15610127669E+02  0.68084795454E+01  0.21912758133E+02  0.41800000000E+01 0. -1.
        -11    1    3    3    0    0  0.77182855304E+01  0.57729513751E+02 -0.63033530541E+02  0.85822460125E+02  0.00000000000E+00 0.  1.
         11    1    3    3    0    0 -0.40766665704E+02 -0.29429619094E+02 -0.10780149220E+03  0.11895034777E+03  0.00000000000E+00 0. -1.
</event>
<event>
 7    1  0.6610867E-006  0.1045501E+03  0.7561462E-02  0.1271009E+00
         -1   -1    0    0    0  501 -0.00000000000E+00  0.00000000000E+00  0.13925124393E+03  0.13925124393E+03  0.00000000000E+00 0.  1.
          1   -1    0    0  501    0  0.00000000000E+00 -0.00000000000E+00 -0.10442062894E+03  0.10442062894E+03  0.00000000000E+00 0. -1.
         23    2    1    2    0    0  0.41793099940E+02 -0.25337534225E+02  0.54247885385E+01  0.10618456214E+03  0.94112055881E+02 0.  0.
          5    1    1    2  502    0  0.34272704670E+02  0.17786205942E+02 -0.22603697116E+02  0.44937366751E+02  0.41800000000E+01 0.  1.
         -5    1    1    2    0  502 -0.76065804610E+02  0.75513282823E+01  0.52009523568E+02  0.92549943984E+02  0.41800000000E+01 0.  1.
        -11    1    3    3    0    0  0.56920237667E+02  0.76356262801E+01 -0.21164944213E+02  0.61205972816E+02  0.00000000000E+00 0. -1.
         11    1    3    3    0    0 -0.15127137727E+02 -0.32973160505E+02  0.26589732751E+02  0.44978589321E+02  0.00000000000E+00 0.  1.
</event>
<event>
 7    1  0.6610867E-006  0.4624671E+03  0.7561462E-02  0.1024068E+00
          2   -1    0    0  501    0  0.00000000000E+00  0.00000000000E+00  0.14815691126E+04  0.14815691126E+04  0.00000000000E+00 0. -1.
         -2   -1    0    0    0  501 -0.00000000000E+00 -0.00000000000E+00 -0.16450868692E+03  0.16450868692E+03  0.00000000000E+00 0.  1.
         23    2    1    2    0    0  0.29447216238E+03  0.34246410348E+03  0.37883357409E+03  0.59731006837E+03  0.96275252913E+02 0.  0.
          5    1    1    2  502    0 -0.35283809361E+00  0.63385038267E+01  0.29960881055E+01  0.81700715675E+01  0.41800000000E+01 0.  1.
         -5    1    1    2    0  502 -0.29411932429E+03 -0.34880260731E+03  0.93523076353E+03  0.10405976596E+04  0.41800000000E+01 0.  1.
        -11    1    3    3    0    0  0.23791543335E+03  0.32316986621E+03  0.31784833988E+03  0.51192781036E+03  0.00000000000E+00 0. -1.
         11    1    3    3    0    0  0.56556729037E+02  0.19294237265E+02  0.60985234207E+02  0.85382258006E+02  0.00000000000E+00 0.  1.
</event>
<event>
 7    1  0.6610867E-006  0.1408687E+03  0.7561462E-02  0.1212165E+00
         -1   -1    0    0    0  501 -0.00000000000E+00  0.00000000000E+00  0.73947421429E+02  0.73947421429E+02  0.00000000000E+00 0.  1.
          1   -1    0    0  501    0  0.00000000000E+00 -0.00000000000E+00 -0.38716645838E+03  0.38716645838E+03  0.00000000000E+00 0. -1.
         23    2    1    2    0    0  0.93078490461E+02  0.73904986539E+02 -0.88796144722E+02  0.17800240812E+03  0.98359288106E+02 0.  0.
          5    1    1    2  502    0  0.30248719861E+01 -0.64806446342E+02 -0.44177989036E+02  0.78601478697E+02  0.41800000000E+01 0.  1.
         -5    1    1    2    0  502 -0.96103362447E+02 -0.90985401967E+01 -0.18024490319E+03  0.20450999300E+03  0.41800000000E+01 0.  1.
        -11    1    3    3    0    0  0.32749326328E+02  0.36861224601E+02 -0.94900143183E+02  0.10694533852E+03  0.00000000000E+00 0. -1.
         11    1    3    3    0    0  0.60329164133E+02  0.37043761938E+02  0.61039984605E+01  0.71057069604E+02  0.00000000000E+00 0.  1.
</event>
<event>
 7    1  0.6610867E-006  0.1150015E+03  0.7561462E-02  0.1251579E+00
         -2   -1    0    0    0  501 -0.00000000000E+00  0.00000000000E+00  0.63462622965E+02  0.63462622965E+02  0.00000000000E+00 0.  1.
          2   -1    0    0  501    0  0.00000000000E+00 -0.00000000000E+00 -0.24771288271E+03  0.24771288271E+03  0.00000000000E+00 0. -1.
         23    2    1    2    0    0  0.27735448073E+02 -0.56669492023E+02 -0.95044052563E+02  0.14508189398E+03  0.89636474875E+02 0.  0.
          5    1    1    2  502    0  0.43973132650E+02  0.18544747257E+02 -0.65948759701E+02  0.81512301845E+02  0.41800000000E+01 0. -1.
         -5    1    1    2    0  502 -0.71708580723E+02  0.38124744766E+02 -0.23257447483E+02  0.84581309851E+02  0.41800000000E+01 0. -1.
        -11    1    3    3    0    0 -0.27518280714E+02 -0.24469361310E+02 -0.64360108447E+02  0.74150043666E+02  0.00000000000E+00 0. -1.
         11    1    3    3    0    0  0.55253728787E+02 -0.32200130713E+02 -0.30683944117E+02  0.70931850317E+02  0.00000000000E+00 0.  1.
</event>
<event>
 7    1  0.1229426E-005  0.2621633E+03  0.7561462E-02  0.1105850E+00
         -2   -1    0    0    0  501 -0.00000000000E+00  0.00000000000E+00  0.12058241099E+03  0.12058241099E+03  0.00000000000E+00 0.  1.
          2   -1    0    0  501    0  0.00000000000E+00 -0.00000000000E+00 -0.62187001606E+03  0.62187001606E+03  0.00000000000E+00 0. -1.
         23    2    1    2    0    0 -0.20836194236E+03 -0.13998989178E+03 -0.23131178802E+03  0.35316237402E+03  0.90590564193E+02 0.  0.
          5    1    1    2  502    0  0.18384746366E+02  0.67064579555E+02 -0.11089661510E+03  0.13096254568E+03  0.41800000000E+01 0.  1.
         -5    1    1    2    0  502  0.18997719599E+03  0.72925312223E+02 -0.15907920195E+03  0.25832750734E+03  0.41800000000E+01 0.  1.
        -11    1    3    3    0    0 -0.11207775246E+03 -0.79644676765E+02 -0.18489810524E+03  0.23041702727E+03  0.00000000000E+00 0. -1.
         11    1    3    3    0    0 -0.96284189895E+02 -0.60345215013E+02 -0.46413682779E+02  0.12274534675E+03  0.00000000000E+00 0.  1.
</event>
<event>
 7    1  0.6610867E-006  0.1146930E+03  0.7561462E-02  0.1252118E+00
          2   -1    0    0  501    0  0.00000000000E+00  0.00000000000E+00  0.11796338719E+04  0.11796338719E+04  0.00000000000E+00 0.  1.
         -2   -1    0    0    0  501 -0.00000000000E+00 -0.00000000000E+00 -0.14592052682E+02  0.14592052682E+02  0.00000000000E+00 0. -1.
         23    2    1    2    0    0 -0.25917784131E+02  0.56489195268E+02  0.33967231170E+03  0.35712060090E+03  0.91077349159E+02 0.  0.
          5    1    1    2  502    0  0.45414810521E+02  0.12667150860E+02  0.13625396275E+03  0.14424138273E+03  0.41800000000E+01 0.  1.
         -5    1    1    2    0  502 -0.19497026390E+02 -0.69156346128E+02  0.68911554481E+03  0.69286394100E+03  0.41800000000E+01 0.  1.
        -11    1    3    3    0    0 -0.13393724370E+02  0.81241834370E+02  0.26273751106E+03  0.27533729719E+03  0.00000000000E+00 0.  1.
         11    1    3    3    0    0 -0.12524059761E+02 -0.24752639102E+02  0.76934800643E+02  0.81783303708E+02  0.00000000000E+00 0. -1.
</event>
<event>
 7    1  0.6610867E-006  0.1406749E+03  0.7561462E-02  0.1212424E+00
         -1   -1    0    0    0  501 -0.00000000000E+00  0.00000000000E+00  0.54464379183E+03  0.54464379183E+03  0.00000000000E+00 0.  1.
          1   -1    0    0  501    0  0.00000000000E+00 -0.00000000000E+00 -0.50886706614E+02  0.50886706614E+02  0.00000000000E+00 0. -1.
         23    2    1    2    0    0 -0.12512196813E+03 -0.92295924365E+01  0.25159338822E+03  0.29547789513E+03  0.90924480926E+02 0.  0.
          5    1    1    2  502    0  0.75082898767E+01  0.33532039701E+02  0.60821890799E+01  0.35145946102E+02  0.41800000000E+01 0.  1.
         -5    1    1    2    0  502  0.11761367825E+03 -0.24302447265E+02  0.23608150792E+03  0.26490665721E+03  0.41800000000E+01 0.  1.
        -11    1    3    3    0    0 -0.31268360817E+02  0.49067635941E+01  0.16164494751E+03  0.16471452812E+03  0.00000000000E+00 0.  1.
         11    1    3    3    0    0 -0.93853607309E+02 -0.14136356031E+02  0.89948440704E+02  0.13076336701E+03  0.00000000000E+00 0. -1.
</event>
<event>
 7    1  0.6610867E-006  0.8846575E+02  0.7561462E-02  0.1306610E+00
          2   -1    0    0  501    0  0.00000000000E+00  0.00000000000E+00  0.56259165432E+02  0.56259165432E+02  0.00000000000E+00 0. -1.
         -2   -1    0    0    0  501 -0.00000000000E+00 -0.00000000000E+00 -0.23277608289E+03  0.23277608289E+03  0.00000000000E+00 0.  1.
         23    2    1    2    0    0 -0.34370401539E+02 -0.13288554199E+02 -0.70836911802E+02  0.12118847324E+03  0.91163961068E+02 0.  0.
          5    1    1    2  502    0  0.81164829063E+02 -0.82451648801E+00 -0.68537002696E+02  0.10631652008E+03  0.41800000000E+01 0.  1.
         -5    1    1    2    0  502 -0.46794427524E+02  0.14113070687E+02 -0.37143002964E+02  0.61530255003E+02  0.41800000000E+01 0.  1.
        -11    1    3    3    0    0 -0.18428430476E+02  0.79282643014E+01 -0.87554353536E+02  0.89823322405E+02  0.00000000000E+00 0.  1.
         11    1    3    3    0    0 -0.15941971062E+02 -0.21216818500E+02  0.16717441735E+02  0.31365150833E+02  0.00000000000E+00 0. -1.
</event>
<event>
 7    1  0.6610867E-006  0.1095443E+03  0.7561462E-02  0.1261416E+00
          1   -1    0    0  501    0  0.00000000000E+00  0.00000000000E+00  0.42811910033E+03  0.42811910033E+03  0.00000000000E+00 0. -1.
         -1   -1    0    0    0  501 -0.00000000000E+00 -0.00000000000E+00 -0.45146503034E+02  0.45146503034E+02  0.00000000000E+00 0.  1.
         23    2    1    2    0    0 -0.24097627325E+02  0.74066139467E+02  0.10977790826E+03  0.16286357025E+03  0.91688956331E+02 0.  0.
          5    1    1    2  502    0  0.16097621183E+02  0.86921210800E+01 -0.54871045190E+01  0.19551651915E+02  0.41800000000E+01 0. -1.
         -5    1    1    2    0  502  0.80000061428E+01 -0.82758260547E+02  0.27868179356E+03  0.29085038121E+03  0.41800000000E+01 0. -1.
        -11    1    3    3    0    0  0.20486144362E+02  0.69266399617E+02  0.85304965330E+02  0.11177859069E+03  0.00000000000E+00 0. -1.
         11    1    3    3    0    0 -0.44583771688E+02  0.47997398496E+01  0.24472942929E+02  0.51084979555E+02  0.00000000000E+00 0.  1.
</event>
<event>
 7    1  0.6610867E-006  0.1456890E+03  0.7561462E-02  0.1205873E+00
          1   -1    0    0  501    0  0.00000000000E+00  0.00000000000E+00  0.35656403543E+03  0.35656403543E+03  0.00000000000E+00 0. -1.
         -1   -1    0    0    0  501 -0.00000000000E+00 -0.00000000000E+00 -0.67539379733E+02  0.67539379733E+02  0.00000000000E+00 0.  1.
         23    2    1    2    0    0 -0.10403185986E+03  0.21375048081E+02  0.84115474073E+02  0.16159206231E+03  0.88074179407E+02 0.  0.
          5    1    1    2  502    0  0.13248351110E+03 -0.17356799784E+02  0.18028214034E+03  0.22443765668E+03  0.41800000000E+01 0.  1.
         -5    1    1    2    0  502 -0.28451651239E+02 -0.40182482971E+01  0.24627041283E+02  0.38073696169E+02  0.41800000000E+01 0.  1.
        -11    1    3    3    0    0  0.64269077536E+01  0.16934053391E+02  0.37446238925E+02  0.41596732049E+02  0.00000000000E+00 0. -1.
         11    1    3    3    0    0 -0.11045876761E+03  0.44409946908E+01  0.46669235148E+02  0.11999533026E+03  0.00000000000E+00 0.  1.
</event>
<event>
 7    1  0.6610867E-006  0.1211542E+03  0.7561462E-02  0.1241205E+00
          1   -1    0    0  501    0  0.00000000000E+00  0.00000000000E+00  0.73672873742E+03  0.73672873742E+03  0.00000000000E+00 0. -1.
         -1   -1    0    0    0  501 -0.00000000000E+00 -0.00000000000E+00 -0.21913683327E+02  0.21913683327E+02  0.00000000000E+00 0.  1.
         23    2    1    2    0    0  0.41827018653E+02  0.46847900820E+02  0.24371119318E+03  0.26718641148E+03  0.89717375657E+02 0.  0.
          5    1    1    2  502    0 -0.23789933770E+02 -0.88825084845E+02  0.27271228865E+03  0.28782863205E+03  0.41800000000E+01 0. -1.
         -5    1    1    2    0  502 -0.18037084883E+02  0.41977184026E+02  0.19839157225E+03  0.20362737721E+03  0.41800000000E+01 0. -1.
        -11    1    3    3    0    0 -0.21782001671E+01  0.58751512062E+02  0.17599602592E+03  0.18555615286E+03  0.00000000000E+00 0. -1.
         11    1    3    3    0    0  0.44005218820E+02 -0.11903611242E+02  0.67715167262E+02  0.81630258613E+02  0.00000000000E+00 0.  1.
</event>
<event>
 7    1  0.6610867E-006  0.1047338E+03  0.7561462E-02  0.1270645E+00
          1   -1    0    0  501    0  0.00000000000E+00  0.00000000000E+00  0.19103790673E+04  0.19103790673E+04  0.00000000000E+00 0. -1.
         -1   -1    0    0    0  501 -0.00000000000E+00 -0.00000000000E+00 -0.32769996852E+02  0.32769996852E+02  0.00000000000E+00 0.  1.
         23    2    1    2    0    0 -0.18420122796E+02  0.27305384083E+02  0.45298752374E+02  0.10614890683E+03  0.90170552459E+02 0.  0.
          5    1    1    2  502    0  0.18742752049E+01 -0.77443271757E+02  0.99823952677E+03  0.10012495186E+04  0.41800000000E+01 0. -1.
         -5    1    1    2    0  502  0.16545847591E+02  0.50137887674E+02  0.83407079135E+03  0.83575063879E+03  0.41800000000E+01 0.  1.
        -11    1    3    3    0    0 -0.31110349926E+02  0.46481184302E+02  0.65993154828E+00  0.55935586850E+02  0.00000000000E+00 0.  1.
         11    1    3    3    0    0  0.12690227130E+02 -0.19175800219E+02  0.44638820826E+02  0.50213319979E+02  0.00000000000E+00 0. -1.
</event>
<event>
 7    1  0.6610867E-006  0.8835716E+02  0.7561462E-02  0.1306880E+00
         -1   -1    0    0    0  501 -0.00000000000E+00  0.00000000000E+00  0.83924534171E+02  0.83924534171E+02  0.00000000000E+00 0.  1.
          1   -1    0    0  501    0  0.00000000000E+00 -0.00000000000E+00 -0.17081898881E+03  0.17081898881E+03  0.00000000000E+00 0. -1.
         23    2    1    2    0    0 -0.46434195878E+02 -0.83669443937E+00 -0.18293521324E+02  0.10470898486E+03  0.92046097057E+02 0.  0.
          5    1    1    2  502    0  0.12300440565E+02 -0.27279813296E+02 -0.94089024160E+02  0.98821586301E+02  0.41800000000E+01 0. -1.
         -5    1    1    2    0  502  0.34133755313E+02  0.28116507736E+02  0.25488090847E+02  0.51212951819E+02  0.41800000000E+01 0. -1.
        -11    1    3    3    0    0 -0.10701631852E+02  0.43693491095E+02 -0.78986101209E+00  0.44991887811E+02  0.00000000000E+00 0. -1.
         11    1    3    3    0    0 -0.35732564027E+02 -0.44530185534E+02 -0.17503660312E+02  0.59717097049E+02  0.00000000000E+00 0.  1.
</event>
<event>
 7    1  0.6610867E-006  0.7052322E+02  0.7561462E-02  0.1358323E+00
          1   -1    0    0  501    0  0.00000000000E+00  0.00000000000E+00  0.20104300795E+04  0.20104300795E+04  0.00000000000E+00 0. -1.
         -1   -1    0    0    0  501 -0.00000000000E+00 -0.00000000000E+00 -0.18303136773E+02  0.18303136773E+02  0.00000000000E+00 0.  1.
         23    2    1    2    0    0  0.66685596415E+02  0.60879975552E+00  0.18876920724E+03  0.21981233905E+03  0.90754126026E+02 0.  0.
          5    1    1    2  502    0 -0.89328569855E+01 -0.10140159717E+02  0.14928216349E+04  0.14928886512E+04  0.41800000000E+01 0. -1.
         -5    1    1    2    0  502 -0.57752739429E+02  0.95313599614E+01  0.31053610065E+03  0.31603222611E+03  0.41800000000E+01 0. -1.
        -11    1    3    3    0    0  0.11924170044E+02 -0.54725084778E+01 -0.80726644908E+01  0.15404612694E+02  0.00000000000E+00 0.  1.
         11    1    3    3    0    0  0.54761426371E+02  0.60813082334E+01  0.19684187173E+03  0.20440772636E+03  0.00000000000E+00 0. -1.
</event>
<event>
 7    1  0.6610867E-006  0.1223837E+03  0.7561462E-02  0.1239216E+00
          1   -1    0    0  501    0  0.00000000000E+00  0.00000000000E+00  0.20040174493E+03  0.20040174493E+03  0.00000000000E+00 0. -1.
         -1   -1    0    0    0  501 -0.00000000000E+00 -0.00000000000E+00 -0.80021207163E+02  0.80021207163E+02  0.00000000000E+00 0.  1.
         23    2    1    2    0    0  0.26270590458E+02  0.58372845089E+02  0.38471491972E+02  0.11777623719E+03  0.91069497552E+02 0.  0.
          5    1    1    2  502    0 -0.65608638394E+02 -0.67091448938E+02  0.33973729034E+02  0.99887149408E+02  0.41800000000E+01 0.  1.
         -5    1    1    2    0  502  0.39338047935E+02  0.87186038487E+01  0.47935316761E+02  0.62759565498E+02  0.41800000000E+01 0.  1.
        -11    1    3    3    0    0  0.24122524535E+02 -0.20358870899E+02  0.40583251397E+01  0.31825301525E+02  0.00000000000E+00 0.  1.
         11    1    3    3    0    0  0.21480659231E+01  0.78731715988E+02  0.34413166832E+02  0.85950935661E+02  0.00000000000E+00 0. -1.
</event>
<event>
 7    1  0.6610867E-006  0.1037429E+03  0.7561462E-02  0.1272616E+00
          2   -1    0    0  501    0  0.00000000000E+00  0.00000000000E+00  0.79696302556E+02  0.79696302556E+02  0.00000000000E+00 0. -1.
         -2   -1    0    0    0  501 -0.00000000000E+00 -0.00000000000E+00 -0.22109751392E+03  0.22109751392E+03  0.00000000000E+00 0.  1.
         23    2    1    2    0    0  0.43047054682E+02 -0.91250638086E+01 -0.13403406654E+03  0.16798464524E+03  0.91199749654E+02 0.  0.
          5    1    1    2  502    0  0.15096019073E+02  0.53879910959E+02 -0.17139998131E+02  0.58670150271E+02  0.41800000000E+01 0. -1.
         -5    1    1    2    0  502 -0.58143073755E+02 -0.44754847151E+02  0.97728532992E+01  0.74139020972E+02  0.41800000000E+01 0. -1.
        -11    1    3    3    0    0 -0.10205242016E+02 -0.20977092220E+02 -0.10218329750E+03  0.10481226860E+03  0.00000000000E+00 0.  1.
         11    1    3    3    0    0  0.53252296698E+02  0.11852028411E+02 -0.31850769039E+02  0.63172376633E+02  0.00000000000E+00 0. -1.
</event>
<event>
 7    1  0.6610867E-006  0.7963651E+02  0.7561462E-02  0.1330086E+00
         -2   -1    0    0    0  501 -0.00000000000E+00  0.00000000000E+00  0.69934995666E+02  0.69934995666E+02  0.00000000000E+00 0.  1.
          2   -1    0    0  501    0  0.00000000000E+00 -0.00000000000E+00 -0.23465381574E+03  0.23465381574E+03  0.00000000000E+00 0. -1.
         23    2    1    2    0    0  0.25250606453E+02 -0.48903420540E+02 -0.27556154701E+02  0.11096541188E+03  0.92330078007E+02 0.  0.
          5    1    1    2  502    0 -0.24004807154E+02  0.60208595181E+02 -0.98019763395E+01  0.65687569908E+02  0.41800000000E+01 0. -1.
         -5    1    1    2    0  502 -0.12457992997E+01 -0.11305174641E+02 -0.12736068903E+03  0.12793582962E+03  0.41800000000E+01 0. -1.
        -11    1    3    3    0    0  0.32672924899E+02  0.67797859323E-01 -0.47431649825E+02  0.57595885471E+02  0.00000000000E+00 0. -1.
         11    1    3    3    0    0 -0.74223184454E+01 -0.48971218399E+02  0.19875495124E+02  0.53369526408E+02  0.00000000000E+00 0.  1.
</event>
<event>
 7    1  0.6610867E-006  0.2814185E+03  0.7561462E-02  0.1094917E+00
          1   -1    0    0  501    0  0.00000000000E+00  0.00000000000E+00  0.14872933461E+04  0.14872933461E+04  0.00000000000E+00 0. -1.
         -1   -1    0    0    0  501 -0.00000000000E+00 -0.00000000000E+00 -0.78420397758E+02  0.78420397758E+02  0.00000000000E+00 0.  1.
         23    2    1    2    0    0  0.16010526042E+03 -0.20647023335E+03  0.25336009636E+03  0.37444474682E+03  0.88056108935E+02 0.  0.
          5    1    1    2  502    0 -0.97173451950E+01  0.10669682790E+03  0.49897133970E+03  0.51036115656E+03  0.41800000000E+01 0.  1.
         -5    1    1    2    0  502 -0.15038791522E+03  0.99773405452E+02  0.65654151229E+03  0.68090784049E+03  0.41800000000E+01 0.  1.
        -11    1    3    3    0    0  0.14709000358E+03 -0.12630088083E+03  0.16687968482E+03  0.25580502509E+03  0.00000000000E+00 0. -1.
         11    1    3    3    0    0  0.13015256836E+02 -0.80169352516E+02  0.86480411536E+02  0.11863972173E+03  0.00000000000E+00 0.  1.
</event>
<event>
 7    1  0.6610867E-006  0.9438916E+02  0.7561462E-02  0.1292558E+00
         -4   -1    0    0    0  501 -0.00000000000E+00  0.00000000000E+00  0.76736043999E+02  0.76736043999E+02  0.00000000000E+00 0.  1.
          4   -1    0    0  501    0  0.00000000000E+00 -0.00000000000E+00 -0.25431330252E+03  0.25431330252E+03  0.00000000000E+00 0. -1.
         23    2    1    2    0    0  0.79987699635E+02 -0.17097891742E+02 -0.41411159505E+02  0.12886442813E+03  0.90558195164E+02 0.  0.
          5    1    1    2  502    0 -0.32593739660E+02  0.37222380506E+02 -0.14177897527E+03  0.15022186161E+03  0.41800000000E+01 0.  1.
         -5    1    1    2    0  502 -0.47393959975E+02 -0.20124488764E+02  0.56128762562E+01  0.51963056780E+02  0.41800000000E+01 0.  1.
        -11    1    3    3    0    0  0.59554063526E+02 -0.26243792193E+02  0.16191765234E+02  0.67064121351E+02  0.00000000000E+00 0.  1.
         11    1    3    3    0    0  0.20433636109E+02  0.91459004514E+01 -0.57602924740E+02  0.61800306781E+02  0.00000000000E+00 0. -1.
</event>
<event>
 7    1  0.6610867E-006  0.1440765E+03  0.7561462E-02  0.1207947E+00
          1   -1    0    0  501    0  0.00000000000E+00  0.00000000000E+00  0.91160788485E+02  0.91160788485E+02  0.00000000000E+00 0. -1.
         -1   -1    0    0    0  501 -0.00000000000E+00 -0.00000000000E+00 -0.24434280550E+03  0.24434280550E+03  0.00000000000E+00 0.  1.
         23    2    1    2    0    0 -0.59463752612E+01 -0.87647334143E+02 -0.94066495196E+02  0.17161015196E+03  0.11350825598E+03 0.  0.
          5    1    1    2  502    0  0.40954051524E+02 -0.12234867108E+02 -0.34652452309E+02  0.55183250723E+02  0.41800000000E+01 0.  1.
         -5    1    1    2    0  502 -0.35007676262E+02  0.99882201252E+02 -0.24463069515E+02  0.10871019131E+03  0.41800000000E+01 0.  1.
        -11    1    3    3    0    0  0.47661323324E+02 -0.17003887891E+02 -0.54903422801E+02  0.74666724716E+02  0.00000000000E+00 0.  1.
         11    1    3    3    0    0 -0.53607698585E+02 -0.70643446252E+02 -0.39163072395E+02  0.96943427242E+02  0.00000000000E+00 0. -1.
</event>
<event>
 7    1  0.6610867E-006  0.1144731E+03  0.7561462E-02  0.1252504E+00
          1   -1    0    0  501    0  0.00000000000E+00  0.00000000000E+00  0.37900215830E+02  0.37900215830E+02  0.00000000000E+00 0. -1.
         -1   -1    0    0    0  501 -0.00000000000E+00 -0.00000000000E+00 -0.55387668317E+03  0.55387668317E+03  0.00000000000E+00 0.  1.
         23    2    1    2    0    0 -0.41586433698E+02 -0.71252296365E+02 -0.33458854908E+03  0.35650227601E+03  0.91312947741E+02 0.  0.
          5    1    1    2  502    0  0.35352106992E+02 -0.17982267866E+02 -0.12064752075E+03  0.12706860387E+03  0.41800000000E+01 0. -1.
         -5    1    1    2    0  502  0.62343267057E+01  0.89234564231E+02 -0.60740397517E+02  0.10820601912E+03  0.41800000000E+01 0. -1.
        -11    1    3    3    0    0 -0.28451654588E+02 -0.79204450264E+02 -0.32987382612E+03  0.34044027781E+03  0.00000000000E+00 0.  1.
         11    1    3    3    0    0 -0.13134779110E+02  0.79521538994E+01 -0.47147229508E+01  0.16061998207E+02  0.00000000000E+00 0. -1.
</event>
<event>
 7    1  0.6610867E-006  0.5196811E+02  0.7561462E-02  0.1435006E+00
         -1   -1    0    0    0  501 -0.00000000000E+00  0.00000000000E+00  0.26130709994E+03  0.26130709994E+03  0.00000000000E+00 0.  1.
          1   -1    0    0  501    0  0.00000000000E+00 -0.00000000000E+00 -0.41127697166E+02  0.41127697166E+02  0.00000000000E+00 0. -1.
         23    2    1    2    0    0  0.20682955476E+02 -0.41161273974E+01  0.71850381985E+02  0.10725831691E+03  0.76792851250E+02 0.  0.
          5    1    1    2  502    0 -0.22870462837E+02  0.44950744952E+00  0.17056953709E+03  0.17214731921E+03  0.41800000000E+01 0.  1.
         -5    1    1    2    0  502  0.21875073611E+01  0.36666199479E+01 -0.22240516303E+02  0.23029160986E+02  0.41800000000E+01 0.  1.
        -11    1    3    3    0    0 -0.25754939893E+02  0.75268372733E+01  0.44932911924E+02  0.52334852462E+02  0.00000000000E+00 0.  1.
         11    1    3    3    0    0  0.46437895368E+02 -0.11642964671E+02  0.26917470061E+02  0.54923464448E+02  0.00000000000E+00 0. -1.
</event>
<event>
 7    1  0.6610867E-006  0.2026156E+03  0.7561462E-02  0.1147551E+00
          2   -1    0    0  501    0  0.00000000000E+00  0.00000000000E+00  0.74278965048E+03  0.74278965048E+03  0.00000000000E+00 0. -1.
         -2   -1    0    0    0  501 -0.00000000000E+00 -0.00000000000E+00 -0.73985159765E+02  0.73985159765E+02  0.00000000000E+00 0.  1.
         23    2    1    2    0    0 -0.51555557787E+02 -0.17977986636E+03  0.17134855651E+03  0.27080229214E+03  0.94840802018E+02 0.  0.
          5    1    1    2  502    0  0.33098010875E+02  0.18799888070E+03  0.36504839261E+03  0.41196706035E+03  0.41800000000E+01 0. -1.
         -5    1    1    2    0  502  0.18457546913E+02 -0.82190143423E+01  0.13240754159E+03  0.13400545775E+03  0.41800000000E+01 0. -1.
        -11    1    3    3    0    0  0.10223409914E+02 -0.25766360608E+02 -0.55315732897E+01  0.28266972818E+02  0.00000000000E+00 0.  1.
         11    1    3    3    0    0 -0.61778967702E+02 -0.15401350575E+03  0.17688012980E+03  0.24253531933E+03  0.00000000000E+00 0. -1.
</event>
<event>
 7    1  0.6610867E-006  0.9682247E+02  0.7561462E-02  0.1287123E+00
         -1   -1    0    0    0  501 -0.00000000000E+00  0.00000000000E+00  0.19908994792E+03  0.19908994792E+03  0.00000000000E+00 0.  1.
          1   -1    0    0  501    0  0.00000000000E+00 -0.00000000000E+00 -0.89660912451E+02  0.89660912451E+02  0.00000000000E+00 0. -1.
         23    2    1    2    0    0 -0.16670982827E+02  0.11317018716E+02  0.13185791483E+03  0.16007645104E+03  0.88498383566E+02 0.  0.
          5    1    1    2  502    0 -0.26599250865E+02  0.38869706020E+02  0.18389132054E+02  0.50734670299E+02  0.41800000000E+01 0.  1.
         -5    1    1    2    0  502  0.43270233692E+02 -0.50186724736E+02 -0.40818011419E+02  0.77939739028E+02  0.41800000000E+01 0.  1.
        -11    1    3    3    0    0  0.17072841479E+02  0.34861624816E+02  0.10229168687E+03  0.10940934148E+03  0.00000000000E+00 0.  1.
         11    1    3    3    0    0 -0.33743824307E+02 -0.23544606101E+02  0.29566227961E+02  0.50667109560E+02  0.00000000000E+00 0. -1.
</event>
<event>
 7    1  0.6610867E-006  0.1202122E+03  0.7561462E-02  0.1242747E+00
         -2   -1    0    0    0  501 -0.00000000000E+00  0.00000000000E+00  0.35908424980E+02  0.35908424980E+02  0.00000000000E+00 0.  1.
          2   -1    0    0  501    0  0.00000000000E+00 -0.00000000000E+00 -0.60735706138E+03  0.60735706138E+03  0.00000000000E+00 0. -1.
         23    2    1    2    0    0 -0.92922830846E+02 -0.24571396684E+02 -0.21738464368E+03  0.25564888452E+03  0.94137467681E+02 0.  0.
          5    1    1    2  502    0  0.14443751155E+01 -0.83132409831E+01 -0.22884487075E+03  0.22903851961E+03  0.41800000000E+01 0. -1.
         -5    1    1    2    0  502  0.91478455731E+02  0.32884637667E+02 -0.12521912197E+03  0.15857808223E+03  0.41800000000E+01 0. -1.
        -11    1    3    3    0    0 -0.49342660801E+02  0.34567898989E+02 -0.11217757841E+03  0.12733203412E+03  0.00000000000E+00 0. -1.
         11    1    3    3    0    0 -0.43580170046E+02 -0.59139295674E+02 -0.10520706527E+03  0.12831685040E+03  0.00000000000E+00 0.  1.
</event>
<event>
 7    1  0.6610867E-006  0.9144587E+02  0.7561462E-02  0.1299388E+00
          2   -1    0    0  501    0  0.00000000000E+00  0.00000000000E+00  0.55237136655E+02  0.55237136655E+02  0.00000000000E+00 0. -1.
         -2   -1    0    0    0  501 -0.00000000000E+00 -0.00000000000E+00 -0.27003089611E+03  0.27003089611E+03  0.00000000000E+00 0.  1.
         23    2    1    2    0    0  0.40561554119E+02  0.33119372773E+02 -0.13870381631E+03  0.16723712250E+03  0.77378123262E+02 0.  0.
          5    1    1    2  502    0  0.19212626347E+02 -0.21362714348E+02 -0.90709371648E+02  0.95242601184E+02  0.41800000000E+01 0. -1.
         -5    1    1    2    0  502 -0.59774180467E+02 -0.11756658425E+02  0.14619428496E+02  0.62788309082E+02  0.41800000000E+01 0.  1.
        -11    1    3    3    0    0  0.34427644997E+02 -0.19670088434E+02 -0.49762057723E+02  0.63627333025E+02  0.00000000000E+00 0. -1.
         11    1    3    3    0    0  0.61339091219E+01  0.52789461207E+02 -0.88941758582E+02  0.10360978948E+03  0.00000000000E+00 0.  1.
</event>
<event>
 7    1  0.6610867E-006  0.1242483E+03  0.7561462E-02  0.1236249E+00
         -2   -1    0    0    0  501 -0.00000000000E+00  0.00000000000E+00  0.19929841474E+02  0.19929841474E+02  0.00000000000E+00 0.  1.
          2   -1    0    0  501    0  0.00000000000E+00 -0.00000000000E+00 -0.81745251282E+03  0.81745251282E+03  0.00000000000E+00 0. -1.
         23    2    1    2    0    0 -0.58253530928E+01 -0.67082820067E+02 -0.33276052515E+03  0.35139442362E+03  0.90633516804E+02 0.  0.
          5    1    1    2  502    0  0.52774357821E+02  0.77047511867E+02 -0.28903439197E+03  0.30377591094E+03  0.41800000000E+01 0. -1.
         -5    1    1    2    0  502 -0.46949004729E+02 -0.99646918006E+01 -0.17572775423E+03  0.18221201973E+03  0.41800000000E+01 0. -1.
        -11    1    3    3    0    0 -0.39121235254E+02 -0.61776504923E+02 -0.27458902144E+03  0.28415829797E+03  0.00000000000E+00 0.  1.
         11    1    3    3    0    0  0.33295882161E+02 -0.53063151439E+01 -0.58171503710E+02  0.67236125656E+02  0.00000000000E+00 0. -1.
</event>
<event>
 7    1  0.6610867E-006  0.1297016E+03  0.7561462E-02  0.1227899E+00
         -1   -1    0    0    0  501 -0.00000000000E+00  0.00000000000E+00  0.18392275501E+03  0.18392275501E+03  0.00000000000E+00 0.  1.
          1   -1    0    0  501    0  0.00000000000E+00 -0.00000000000E+00 -0.12911744046E+03  0.12911744046E+03  0.00000000000E+00 0. -1.
         23    2    1    2    0    0  0.97107169830E+02  0.58861443923E+01  0.82373073101E+02  0.15219199524E+03  0.83142234239E+02 0.  0.
          5    1    1    2  502    0 -0.22882197986E+02  0.56363424131E+02 -0.42603575856E+01  0.61123265711E+02  0.41800000000E+01 0. -1.
         -5    1    1    2    0  502 -0.74224971844E+02 -0.62249568523E+02 -0.23307400959E+02  0.99724934525E+02  0.41800000000E+01 0. -1.
        -11    1    3    3    0    0  0.88916893072E+02  0.13911826804E+02  0.97840199535E+02  0.13293779539E+03  0.00000000000E+00 0.  1.
         11    1    3    3    0    0  0.81902767577E+01 -0.80256824115E+01 -0.15467126435E+02  0.19254199845E+02  0.00000000000E+00 0. -1.
</event>
<event>
 7    1  0.6610867E-006  0.1114445E+03  0.7561462E-02  0.1257918E+00
         -4   -1    0    0    0  501 -0.00000000000E+00  0.00000000000E+00  0.54434255101E+03  0.54434255101E+03  0.00000000000E+00 0.  1.
          4   -1    0    0  501    0  0.00000000000E+00 -0.00000000000E+00 -0.24593179995E+02  0.24593179995E+02  0.00000000000E+00 0. -1.
         23    2    1    2    0    0 -0.29517006222E+02  0.22662458129E+02  0.26812232037E+03  0.28547750591E+03  0.90680687222E+02 0.  0.
          5    1    1    2  502    0 -0.46336142266E+02  0.99393096731E+01  0.83343563859E+02  0.95965879320E+02  0.41800000000E+01 0. -1.
         -5    1    1    2    0  502  0.75853148488E+02 -0.32601767802E+02  0.16828348678E+03  0.18749234577E+03  0.41800000000E+01 0. -1.
        -11    1    3    3    0    0 -0.57963180466E+02  0.29506810723E+01  0.11909156346E+03  0.13248108279E+03  0.00000000000E+00 0. -1.
         11    1    3    3    0    0  0.28446174244E+02  0.19711777057E+02  0.14903075690E+03  0.15299642312E+03  0.00000000000E+00 0.  1.
</event>
<event>
 7    1  0.6610867E-006  0.1103086E+03  0.7561462E-02  0.1260000E+00
          4   -1    0    0  501    0  0.00000000000E+00  0.00000000000E+00  0.29934349376E+03  0.29934349376E+03  0.00000000000E+00 0.  1.
         -4   -1    0    0    0  501 -0.00000000000E+00 -0.00000000000E+00 -0.44519886189E+02  0.44519886189E+02  0.00000000000E+00 0. -1.
         23    2    1    2    0    0  0.36971128279E+02 -0.13409575976E+02  0.84577184331E+02  0.12897128772E+03  0.89070825150E+02 0.  0.
          5    1    1    2  502    0  0.44955092243E+02  0.17801677739E+02  0.54808144143E+02  0.73207001805E+02  0.41800000000E+01 0. -1.
         -5    1    1    2    0  502 -0.81926220522E+02 -0.43921017630E+01  0.11543827909E+03  0.14168509042E+03  0.41800000000E+01 0. -1.
        -11    1    3    3    0    0  0.54233371628E+02 -0.33266969663E+02  0.34433722545E+02  0.72343839523E+02  0.00000000000E+00 0. -1.
         11    1    3    3    0    0 -0.17262243349E+02  0.19857393687E+02  0.50143461785E+02  0.56627448197E+02  0.00000000000E+00 0.  1.
</event>
<event>
 7    1  0.6610867E-006  0.1093401E+03  0.7561462E-02  0.1261797E+00
         -1   -1    0    0    0  501 -0.00000000000E+00  0.00000000000E+00  0.11714200992E+03  0.11714200992E+03  0.00000000000E+00 0.  1.
          1   -1    0    0  501    0  0.00000000000E+00 -0.00000000000E+00 -0.12421600510E+03  0.12421600510E+03  0.00000000000E+00 0. -1.
         23    2    1    2    0    0  0.44921443822E+02  0.22269257036E+02 -0.14914200521E+02  0.10636487758E+03  0.92613162566E+02 0.  0.
          5    1    1    2  502    0 -0.67914555715E+02  0.26656116892E+02 -0.17498929174E+02  0.75143997551E+02  0.41800000000E+01 0. -1.
         -5    1    1    2    0  502  0.22993111893E+02 -0.48925373928E+02  0.25339134518E+02  0.59849139899E+02  0.41800000000E+01 0. -1.
        -11    1    3    3    0    0  0.43288630806E+02  0.48552403217E+02 -0.34420408317E+02  0.73593518219E+02  0.00000000000E+00 0. -1.
         11    1    3    3    0    0  0.16328130166E+01 -0.26283146181E+02  0.19506207796E+02  0.32771359357E+02  0.00000000000E+00 0.  1.
</event>
<event>
 7    1  0.6610867E-006  0.1104223E+03  0.7561462E-02  0.1259790E+00
         -2   -1    0    0    0  501 -0.00000000000E+00  0.00000000000E+00  0.89287616597E+02  0.89287616597E+02  0.00000000000E+00 0.  1.
          2   -1    0    0  501    0  0.00000000000E+00 -0.00000000000E+00 -0.16262048005E+03  0.16262048005E+03  0.00000000000E+00 0. -1.
         23    2    1    2    0    0  0.46727296527E+02  0.97678367025E+01 -0.15645774279E+02  0.10612062574E+03  0.93476981555E+02 0.  0.
          5    1    1    2  502    0 -0.75094819113E+02 -0.33131357733E+02 -0.62359149243E+01  0.82421342854E+02  0.41800000000E+01 0. -1.
         -5    1    1    2    0  502  0.28367522586E+02  0.23363521030E+02 -0.51451174254E+02  0.63366128055E+02  0.41800000000E+01 0. -1.
        -11    1    3    3    0    0  0.34544494056E+02 -0.38596152479E+02 -0.21137412040E+02  0.55944394209E+02  0.00000000000E+00 0. -1.
         11    1    3    3    0    0  0.12182802472E+02  0.48363989181E+02  0.54916377607E+01  0.50176231533E+02  0.00000000000E+00 0.  1.
</event>
<event>
 7    1  0.6610867E-006  0.1281542E+03  0.7561462E-02  0.1230221E+00
         -1   -1    0    0    0  501 -0.00000000000E+00  0.00000000000E+00  0.38765100050E+02  0.38765100050E+02  0.00000000000E+00 0.  1.
          1   -1    0    0  501    0  0.00000000000E+00 -0.00000000000E+00 -0.53810617516E+03  0.53810617516E+03  0.00000000000E+00 0. -1.
         23    2    1    2    0    0  0.40225648790E+02 -0.60979550458E+02 -0.10788253572E+03  0.15946926649E+03  0.91952145409E+02 0.  0.
          5    1    1    2  502    0  0.39019884824E+02 -0.25630464214E+01 -0.15702845307E+03  0.16187812728E+03  0.41800000000E+01 0.  1.
         -5    1    1    2    0  502 -0.79245533614E+02  0.63542596880E+02 -0.23443008632E+03  0.25552388144E+03  0.41800000000E+01 0.  1.
        -11    1    3    3    0    0  0.16231201279E+02  0.22904319423E+02 -0.40272288368E+02  0.49090904998E+02  0.00000000000E+00 0.  1.
         11    1    3    3    0    0  0.23994447511E+02 -0.83883869881E+02 -0.67610247357E+02  0.11037836149E+03  0.00000000000E+00 0. -1.
</event>
<event>
 7    1  0.6610867E-006  0.8563762E+02  0.7561462E-02  0.1313773E+00
          1   -1    0    0  501    0  0.00000000000E+00  0.00000000000E+00  0.70128210306E+03  0.70128210306E+03  0.00000000000E+00 0. -1.
         -1   -1    0    0    0  501 -0.00000000000E+00 -0.00000000000E+00 -0.37343448350E+02  0.37343448350E+02  0.00000000000E+00 0.  1.
         23    2    1    2    0    0  0.29445279867E+02  0.33897299906E+02  0.55614701767E+02  0.11595338888E+03  0.91302474735E+02 0.  0.
          5    1    1    2  502    0 -0.25740748226E+01 -0.54189183310E+02  0.56513718776E+03  0.56775047939E+03  0.41800000000E+01 0.  1.
         -5    1    1    2    0  502 -0.26871205045E+02  0.20291883403E+02  0.43186765174E+02  0.54921683139E+02  0.41800000000E+01 0.  1.
        -11    1    3    3    0    0  0.35376811873E+02 -0.11462477487E+02  0.59368436794E+02  0.70053682957E+02  0.00000000000E+00 0. -1.
         11    1    3    3    0    0 -0.59315320062E+01  0.45359777393E+02 -0.37537350277E+01  0.45899705923E+02  0.00000000000E+00 0.  1.
</event>
<event>
 6    1  0.6610867E-006  0.7955232E+02  0.7561462E-02  0.1330327E+00
          1   -1    0    0  501    0  0.00000000000E+00  0.00000000000E+00  0.45605973316E+02  0.45605973316E+02  0.00000000000E+00 0. -1.
         -1   -1    0    0    0  501 -0.00000000000E+00 -0.00000000000E+00 -0.17578183674E+03  0.17578183674E+03  0.00000000000E+00 0.  1.
          5    1    1    2  502    0 -0.53047726284E+02 -0.11460211499E+02 -0.82776105703E+02  0.99069439218E+02  0.41800000000E+01 0.  1.
         -5    1    1    2    0  502  0.49882185952E+02  0.12511172978E+02 -0.12045636593E+01  0.51610902900E+02  0.41800000000E+01 0.  1.
        -11    1    1    2    0    0 -0.24770455049E+02  0.25805413081E+01 -0.17107604377E+02  0.30214313898E+02  0.00000000000E+00 0.  1.
         11    1    1    2    0    0  0.27935995382E+02 -0.36315027864E+01 -0.29087589682E+02  0.40493154039E+02  0.00000000000E+00 0. -1.
</event>
<event>
 7    1  0.6610867E-006  0.5985935E+02  0.7561462E-02  0.1398423E+00
          1   -1    0    0  501    0  0.00000000000E+00  0.00000000000E+00  0.10444632639E+04  0.10444632639E+04  0.00000000000E+00 0. -1.
         -1   -1    0    0    0  501 -0.00000000000E+00 -0.00000000000E+00 -0.14129851441E+02  0.14129851441E+02  0.00000000000E+00 0.  1.
         23    2    1    2    0    0  0.10770024753E+02  0.22723906517E+02  0.24445677383E+03  0.26242396878E+03  0.92058979773E+02 0.  0.
          5    1    1    2  502    0 -0.39687597852E+01 -0.62729073327E+01  0.77468209156E+03  0.77472893054E+03  0.41800000000E+01 0. -1.
         -5    1    1    2    0  502 -0.68012649676E+01 -0.16450999184E+02  0.11194547066E+02  0.21440216028E+02  0.41800000000E+01 0. -1.
        -11    1    3    3    0    0  0.68240107996E+00  0.57092020606E+02  0.11957535040E+03  0.13250746738E+03  0.00000000000E+00 0.  1.
         11    1    3    3    0    0  0.10087623673E+02 -0.34368114089E+02  0.12488142344E+03  0.12991650140E+03  0.00000000000E+00 0. -1.
</event>
<event>
 7    1  0.6610867E-006  0.8249601E+02  0.7561462E-02  0.1322114E+00
         -2   -1    0    0    0  501 -0.00000000000E+00  0.00000000000E+00  0.33495317805E+03  0.33495317805E+03  0.00000000000E+00 0.  1.
          2   -1    0    0  501    0  0.00000000000E+00 -0.00000000000E+00 -0.41674283458E+02  0.41674283458E+02  0.00000000000E+00 0. -1.
         23    2    1    2    0    0 -0.25092092811E+02  0.37560465669E+02  0.12354338177E+03  0.16099911406E+03  0.92829660382E+02 0.  0.
          5    1    1    2  502    0  0.66679141138E+02 -0.39457007872E+02  0.15103466702E+03  0.16979960652E+03  0.41800000000E+01 0.  1.
         -5    1    1    2    0  502 -0.41587048327E+02  0.18965422023E+01  0.18700845797E+02  0.45828740921E+02  0.41800000000E+01 0.  1.
        -11    1    3    3    0    0 -0.74662003416E+01  0.16411705657E+02 -0.12666572934E+02  0.22034752098E+02  0.00000000000E+00 0. -1.
         11    1    3    3    0    0 -0.17625892469E+02  0.21148760012E+02  0.13620995470E+03  0.13896436196E+03  0.00000000000E+00 0.  1.
</event>
<event>
 7    1  0.6610867E-006  0.7270119E+02  0.7561462E-02  0.1351141E+00
         -1   -1    0    0    0  501 -0.00000000000E+00  0.00000000000E+00  0.66234212096E+02  0.66234212096E+02  0.00000000000E+00 0.  1.
          1   -1    0    0  501    0  0.00000000000E+00 -0.00000000000E+00 -0.22230238179E+03  0.22230238179E+03  0.00000000000E+00 0. -1.
         23    2    1    2    0    0  0.46070747862E+02 -0.28352745242E+02 -0.54069659550E+02  0.11830355181E+03  0.90254142923E+02 0.  0.
          5    1    1    2  502    0 -0.12005302138E+02  0.40354965506E+01  0.29390592884E+02  0.32275251539E+02  0.41800000000E+01 0. -1.
         -5    1    1    2    0  502 -0.34065445724E+02  0.24317248692E+02 -0.13138910302E+03  0.13795779054E+03  0.41800000000E+01 0. -1.
        -11    1    3    3    0    0  0.59811970018E+02 -0.14915258784E+01 -0.62954873605E+02  0.86850518234E+02  0.00000000000E+00 0. -1.
         11    1    3    3    0    0 -0.13741222156E+02 -0.26861219364E+02  0.88852140550E+01  0.31453033572E+02  0.00000000000E+00 0.  1.
</event>
<event>
 7    1  0.6610867E-006  0.1147779E+03  0.7561462E-02  0.1251969E+00
         -1   -1    0    0    0  501 -0.00000000000E+00  0.00000000000E+00  0.55822155275E+02  0.55822155275E+02  0.00000000000E+00 0.  1.
          1   -1    0    0  501    0  0.00000000000E+00 -0.00000000000E+00 -0.32846048276E+03  0.32846048276E+03  0.00000000000E+00 0. -1.
         23    2    1    2    0    0  0.52782862561E+02 -0.61728263579E+02 -0.12147291865E+03  0.17192685373E+03  0.90591191418E+02 0.  0.
          5    1    1    2  502    0 -0.14514969525E+02  0.86024719413E+02 -0.14076700833E+03  0.16566158192E+03  0.41800000000E+01 0. -1.
         -5    1    1    2    0  502 -0.38267893036E+02 -0.24296455834E+02 -0.10398400505E+02  0.46694202387E+02  0.41800000000E+01 0. -1.
        -11    1    3    3    0    0  0.39771253042E+01 -0.44888319723E+02 -0.11023249948E+03  0.11908813004E+03  0.00000000000E+00 0. -1.
         11    1    3    3    0    0  0.48805737257E+02 -0.16839943856E+02 -0.11240419168E+02  0.52838723692E+02  0.00000000000E+00 0.  1.
</event>
<event>
 7    1  0.6610867E-006  0.1246944E+03  0.7561462E-02  0.1235548E+00
          2   -1    0    0  501    0  0.00000000000E+00  0.00000000000E+00  0.33121925211E+03  0.33121925211E+03  0.00000000000E+00 0. -1.
         -2   -1    0    0    0  501 -0.00000000000E+00 -0.00000000000E+00 -0.55750855903E+02  0.55750855903E+02  0.00000000000E+00 0.  1.
         23    2    1    2    0    0  0.77899969639E+02  0.17508791471E+02  0.14024033596E+03  0.18619980066E+03  0.92887302090E+02 0.  0.
          5    1    1    2  502    0 -0.17520207797E+02  0.51958593129E+02  0.63529069801E+02  0.84024211933E+02  0.41800000000E+01 0. -1.
         -5    1    1    2    0  502 -0.60379761841E+02 -0.69467384600E+02  0.71698990447E+02  0.11674609541E+03  0.41800000000E+01 0. -1.
        -11    1    3    3    0    0  0.30197841622E+02  0.39511124976E+02  0.12001292959E+03  0.12990820569E+03  0.00000000000E+00 0.  1.
         11    1    3    3    0    0  0.47702128016E+02 -0.22002333505E+02  0.20227406367E+02  0.56291594979E+02  0.00000000000E+00 0. -1.
</event>
<event>
 7    1  0.6610867E-006  0.1865426E+03  0.7561462E-02  0.1161617E+00
          1   -1    0    0  501    0  0.00000000000E+00  0.00000000000E+00  0.13427950628E+03  0.13427950628E+03  0.00000000000E+00 0. -1.
         -1   -1    0    0    0  501 -0.00000000000E+00 -0.00000000000E+00 -0.32535835501E+03  0.32535835501E+03  0.00000000000E+00 0.  1.
         23    2    1    2    0    0 -0.15410694747E+03 -0.66261712896E+02 -0.15742132577E+03  0.24769429880E+03  0.91822796718E+02 0.  0.
          5    1    1    2  502    0  0.21937336392E+01 -0.23461759367E+02  0.15783816579E+02  0.28668238273E+02  0.41800000000E+01 0.  1.
         -5    1    1    2    0  502  0.15191321383E+03  0.89723472263E+02 -0.49441339532E+02  0.18327532422E+03  0.41800000000E+01 0.  1.
        -11    1    3    3    0    0 -0.42668706611E+02  0.67974085294E+00 -0.93611423036E+02  0.10287943961E+03  0.00000000000E+00 0.  1.
         11    1    3    3    0    0 -0.11143824086E+03 -0.66941453749E+02 -0.63809902735E+02  0.14481485919E+03  0.00000000000E+00 0. -1.
</event>
<event>
 7    1  0.6610867E-006  0.1680940E+03  0.7561462E-02  0.1179850E+00
         -2   -1    0    0    0  501 -0.00000000000E+00  0.00000000000E+00  0.48693549179E+02  0.48693549179E+02  0.00000000000E+00 0.  1.
          2   -1    0    0  501    0  0.00000000000E+00 -0.00000000000E+00 -0.68364134792E+03  0.68364134792E+03  0.00000000000E+00 0. -1.
         23    2    1    2    0    0  0.12487348141E+03  0.65771387201E+02 -0.22303308235E+03  0.27929969574E+03  0.91352627144E+02 0.  0.
          5    1    1    2  502    0 -0.35451687980E+02  0.37580200928E+02 -0.10966094944E+03  0.12129340425E+03  0.41800000000E+01 0. -1.
         -5    1    1    2    0  502 -0.89421793432E+02 -0.10335158813E+03 -0.30225376695E+03  0.33174179711E+03  0.41800000000E+01 0. -1.
        -11    1    3    3    0    0  0.35275052627E+02 -0.19257217061E+01 -0.12609247291E+03  0.13094788836E+03  0.00000000000E+00 0. -1.
         11    1    3    3    0    0  0.89598428785E+02  0.67697108907E+02 -0.96940609439E+02  0.14835180738E+03  0.00000000000E+00 0.  1.
</event>
<event>
 7    1  0.6610867E-006  0.8879781E+02  0.7561462E-02  0.1305789E+00
          3   -1    0    0  501    0  0.00000000000E+00  0.00000000000E+00  0.15513359999E+03  0.15513359999E+03  0.00000000000E+00 0. -1.
         -3   -1    0    0    0  501 -0.00000000000E+00 -0.00000000000E+00 -0.98709562151E+02  0.98709562151E+02  0.00000000000E+00 0.  1.
         23    2    1    2    0    0 -0.12261919597E+02 -0.43387722109E+02 -0.15740488290E+02  0.10255545747E+03  0.90757973661E+02 0.  0.
          5    1    1    2  502    0  0.59586629928E+02 -0.68760671341E+01  0.16074358819E+02  0.62239088818E+02  0.41800000000E+01 0.  1.
         -5    1    1    2    0  502 -0.47324710331E+02  0.50263789243E+02  0.56090167313E+02  0.89048615858E+02  0.41800000000E+01 0.  1.
        -11    1    3    3    0    0 -0.91146231223E+01 -0.62909771645E+01  0.36648373728E+02  0.38285193551E+02  0.00000000000E+00 0. -1.
         11    1    3    3    0    0 -0.31472964743E+01 -0.37096744944E+02 -0.52388862018E+02  0.64270263918E+02  0.00000000000E+00 0.  1.
</event>
<event>
 7    1  0.6610867E-006  0.2651088E+03  0.7561462E-02  0.1104112E+00
          2   -1    0    0  501    0  0.00000000000E+00  0.00000000000E+00  0.79918658854E+03  0.79918658854E+03  0.00000000000E+00 0. -1.
         -2   -1    0    0    0  501 -0.00000000000E+00 -0.00000000000E+00 -0.12134625100E+03  0.12134625100E+03  0.00000000000E+00 0.  1.
         23    2    1    2    0    0 -0.15949621900E+03 -0.20054196660E+03  0.12732121277E+03  0.30055325119E+03  0.92007832998E+02 0.  0.
          5    1    1    2  502    0  0.90611011429E+02  0.14635047742E+03  0.47128771188E+03  0.50175531627E+03  0.41800000000E+01 0.  1.
         -5    1    1    2    0  502  0.68885207573E+02  0.54191489185E+02  0.79231412887E+02  0.11822427209E+03  0.41800000000E+01 0.  1.
        -11    1    3    3    0    0 -0.70976441440E+02 -0.27872205458E+02  0.52554614191E+02  0.92609408536E+02  0.00000000000E+00 0. -1.
         11    1    3    3    0    0 -0.88519777562E+02 -0.17266976115E+03  0.74766598581E+02  0.20794384265E+03  0.00000000000E+00 0.  1.
</event>
<event>
 7    1  0.9122403E-006  0.1254556E+03  0.7561462E-02  0.1234359E+00
         -3   -1    0    0    0  501 -0.00000000000E+00  0.00000000000E+00  0.12333053437E+03  0.12333053437E+03  0.00000000000E+00 0.  1.
          3   -1    0    0  501    0  0.00000000000E+00 -0.00000000000E+00 -0.16968969171E+03  0.16968969171E+03  0.00000000000E+00 0. -1.
         23    2    1    2    0    0  0.53739146417E+02 -0.81181412239E+02  0.20017947827E+02  0.12117275246E+03  0.69309452124E+02 0.  0.
          5    1    1    2  502    0 -0.54427169895E+02 -0.15385407732E+02 -0.46092538716E+02  0.73082296893E+02  0.41800000000E+01 0. -1.
         -5    1    1    2    0  502  0.68802347737E+00  0.96566819971E+02 -0.20284566450E+02  0.98765176715E+02  0.41800000000E+01 0. -1.
        -11    1    3    3    0    0  0.27617301234E+02 -0.36355103180E+02  0.44544252500E+02  0.63785572706E+02  0.00000000000E+00 0.  1.
         11    1    3    3    0    0  0.26121845183E+02 -0.44826309059E+02 -0.24526304673E+02  0.57387179758E+02  0.00000000000E+00 0. -1.
</event>
<event>
 7    1  0.6610867E-006  0.1521319E+03  0.7561462E-02  0.1197878E+00
          2   -1    0    0  501    0  0.00000000000E+00  0.00000000000E+00  0.15877696918E+04  0.15877696918E+04  0.00000000000E+00 0.  1.
         -2   -1    0    0    0  501 -0.00000000000E+00 -0.00000000000E+00 -0.15987066745E+02  0.15987066745E+02  0.00000000000E+00 0. -1.
         23    2    1    2    0    0  0.62427072873E+02 -0.96570690438E+02  0.65587827303E+03  0.67222479065E+03  0.92123951498E+02 0.  0.
          5    1    1    2  502    0 -0.46771979794E+02 -0.11455435220E+02  0.46845319805E+03  0.47094024701E+03  0.41800000000E+01 0.  1.
         -5    1    1    2    0  502 -0.15655093079E+02  0.10802612566E+03  0.44745115395E+03  0.46059172087E+03  0.41800000000E+01 0.  1.
        -11    1    3    3    0    0  0.19384480666E+01 -0.85106148115E+02  0.41125700887E+03  0.41997516757E+03  0.00000000000E+00 0.  1.
         11    1    3    3    0    0  0.60488624806E+02 -0.11464542323E+02  0.24462126416E+03  0.25224962308E+03  0.00000000000E+00 0. -1.
</event>
<event>
 7    1  0.6610867E-006  0.1458175E+03  0.7561462E-02  0.1205709E+00
         -2   -1    0    0    0  501 -0.00000000000E+00  0.00000000000E+00  0.52328411901E+03  0.52328411901E+03  0.00000000000E+00 0.  1.
          2   -1    0    0  501    0  0.00000000000E+00 -0.00000000000E+00 -0.59177572663E+02  0.59177572663E+02  0.00000000000E+00 0. -1.
         23    2    1    2    0    0 -0.11720658260E+03 -0.38740524320E+02  0.31938171160E+03  0.35479459885E+03  0.92931794527E+02 0.  0.
          5    1    1    2  502    0  0.79089310316E+02 -0.20742444427E+02  0.20025232756E+02  0.84284342282E+02  0.41800000000E+01 0.  1.
         -5    1    1    2    0  502  0.38117272286E+02  0.59482968747E+02  0.12469960198E+03  0.14338275054E+03  0.41800000000E+01 0.  1.
        -11    1    3    3    0    0 -0.63473181930E+02 -0.53780883778E+02  0.10889644556E+03  0.13703891469E+03  0.00000000000E+00 0. -1.
         11    1    3    3    0    0 -0.53733400672E+02  0.15040359458E+02  0.21048526604E+03  0.21775568416E+03  0.00000000000E+00 0.  1.
</event>
<event>
 7    1  0.6610867E-006  0.1097176E+03  0.7561462E-02  0.1261094E+00
         -3   -1    0    0    0  501 -0.00000000000E+00  0.00000000000E+00  0.12428930688E+03  0.12428930688E+03  0.00000000000E+00 0.  1.
          3   -1    0    0  501    0  0.00000000000E+00 -0.00000000000E+00 -0.13283691730E+03  0.13283691730E+03  0.00000000000E+00 0. -1.
         23    2    1    2    0    0  0.23993582937E+02  0.29969350065E+02  0.53670017601E+02  0.11223925570E+03  0.90792762742E+02 0.  0.
          5    1    1    2  502    0 -0.43457726046E+02 -0.66823242992E+02 -0.14039949559E+02  0.81046359207E+02  0.41800000000E+01 0.  1.
         -5    1    1    2    0  502  0.19464143108E+02  0.36853892927E+02 -0.48177678457E+02  0.63840609273E+02  0.41800000000E+01 0.  1.
        -11    1    3    3    0    0  0.47495472571E+02 -0.12566945959E+02  0.34327300171E+02  0.59934227138E+02  0.00000000000E+00 0. -1.
         11    1    3    3    0    0 -0.23501889634E+02  0.42536296024E+02  0.19342717430E+02  0.52305028567E+02  0.00000000000E+00 0.  1.
</event>
<event>
 7    1  0.6610867E-006  0.1566266E+03  0.7561462E-02  0.1192559E+00
         -1   -1    0    0    0  501 -0.00000000000E+00  0.00000000000E+00  0.68458369865E+02  0.68458369865E+02  0.00000000000E+00 0.  1.
          1   -1    0    0  501    0  0.00000000000E+00 -0.00000000000E+00 -0.40044907311E+03  0.40044907311E+03  0.00000000000E+00 0. -1.
         23    2    1    2    0    0 -0.12383929160E+03 -0.60708739044E+01 -0.14994940822E+03  0.21560986176E+03  0.92896511269E+02 0.  0.
          5    1    1    2  502    0  0.99036074920E+02  0.59908509604E+02 -0.10803153355E+03  0.15838389533E+03  0.41800000000E+01 0. -1.
         -5    1    1    2    0  502  0.24803216683E+02 -0.53837635700E+02 -0.74009761467E+02  0.94913685883E+02  0.41800000000E+01 0. -1.
        -11    1    3    3    0    0 -0.10760849700E+02  0.19319348039E+02  0.44465821008E+01  0.22556710471E+02  0.00000000000E+00 0.  1.
         11    1    3    3    0    0 -0.11307844190E+03 -0.25390221943E+02 -0.15439599032E+03  0.19305315129E+03  0.00000000000E+00 0. -1.
</event>
<event>
 7    1  0.6610867E-006  0.1234751E+03  0.7561462E-02  0.1237472E+00
          3   -1    0    0  501    0  0.00000000000E+00  0.00000000000E+00  0.13483892873E+03  0.13483892873E+03  0.00000000000E+00 0. -1.
         -3   -1    0    0    0  501 -0.00000000000E+00 -0.00000000000E+00 -0.17159998095E+03  0.17159998095E+03  0.00000000000E+00 0.  1.
         23    2    1    2    0    0 -0.20091017375E+02  0.87417749574E+02 -0.78507186705E+02  0.14694904657E+03  0.85936790738E+02 0.  0.
          5    1    1    2  502    0 -0.49163938617E+02 -0.10770322408E+02  0.11977894438E+02  0.51904094832E+02  0.41800000000E+01 0.  1.
         -5    1    1    2    0  502  0.69254955993E+02 -0.76647427165E+02  0.29768240047E+02  0.10758576828E+03  0.41800000000E+01 0.  1.
        -11    1    3    3    0    0  0.57142568790E+01  0.10856271558E+02  0.17561961295E+02  0.21422741383E+02  0.00000000000E+00 0. -1.
         11    1    3    3    0    0 -0.25805274254E+02  0.76561478015E+02 -0.96069148000E+02  0.12552630518E+03  0.00000000000E+00 0.  1.
</event>
<event>
 7    1  0.6610867E-006  0.6997899E+02  0.7561462E-02  0.1360165E+00
          2   -1    0    0  501    0  0.00000000000E+00  0.00000000000E+00  0.50979631886E+03  0.50979631886E+03  0.00000000000E+00 0. -1.
         -2   -1    0    0    0  501 -0.00000000000E+00 -0.00000000000E+00 -0.28629911488E+02  0.28629911488E+02  0.00000000000E+00 0.  1.
         23    2    1    2    0    0  0.40067919246E+02 -0.21156790684E+02  0.12263224660E+03  0.15600335143E+03  0.85119503101E+02 0.  0.
          5    1    1    2  502    0 -0.98473792506E+01  0.37140924539E+02  0.22693193833E+02  0.44820448459E+02  0.41800000000E+01 0. -1.
         -5    1    1    2    0  502 -0.30220539996E+02 -0.15984133855E+02  0.33584096694E+03  0.33760243045E+03  0.41800000000E+01 0. -1.
        -11    1    3    3    0    0  0.45216338115E+02 -0.31639272798E+02  0.13065681751E+03  0.14183358127E+03  0.00000000000E+00 0. -1.
         11    1    3    3    0    0 -0.51484188681E+01  0.10482482114E+02 -0.80245709092E+01  0.14169770160E+02  0.00000000000E+00 0.  1.
</event>
<event>
 7    1  0.6610867E-006  0.2451783E+03  0.7561462E-02  0.1116390E+00
          1   -1    0    0  501    0  0.00000000000E+00  0.00000000000E+00  0.17794664344E+04  0.17794664344E+04  0.00000000000E+00 0. -1.
         -1   -1    0    0    0  501 -0.00000000000E+00 -0.00000000000E+00 -0.41679997032E+02  0.41679997032E+02  0.00000000000E+00 0.  1.
         23    2    1    2    0    0 -0.19276258118E+03 -0.12157520164E+03  0.50557154823E+03  0.56180517436E+03  0.89913965596E+02 0.  0.
          5    1    1    2  502    0  0.14346011737E+03  0.14599429585E+03  0.98254884028E+03  0.10036507538E+04  0.41800000000E+01 0.  1.
         -5    1    1    2    0  502  0.49302463809E+02 -0.24419094208E+02  0.24966604888E+03  0.25569050327E+03  0.41800000000E+01 0.  1.
        -11    1    3    3    0    0 -0.60716004509E+02 -0.57737580859E+02  0.99614707629E+02  0.13016586120E+03  0.00000000000E+00 0.  1.
         11    1    3    3    0    0 -0.13204657667E+03 -0.63837620783E+02  0.40595684060E+03  0.43163931316E+03  0.00000000000E+00 0. -1.
</event>
<event>
 7    1  0.6610867E-006  0.1511246E+03  0.7561462E-02  0.1199098E+00
          4   -1    0    0  501    0  0.00000000000E+00  0.00000000000E+00  0.30297254386E+03  0.30297254386E+03  0.00000000000E+00 0.  1.
         -4   -1    0    0    0  501 -0.00000000000E+00 -0.00000000000E+00 -0.10958510905E+03  0.10958510905E+03  0.00000000000E+00 0. -1.
         23    2    1    2    0    0 -0.12148038743E+03 -0.26349996137E+01 -0.89454739311E+00  0.15148901900E+03  0.90463776785E+02 0.  0.
          5    1    1    2  502    0  0.50588316062E+02  0.55226951592E+02  0.44660459918E+02  0.87299616174E+02  0.41800000000E+01 0.  1.
         -5    1    1    2    0  502  0.70892071364E+02 -0.52591951978E+02  0.14962152228E+03  0.17376901774E+03  0.41800000000E+01 0.  1.
        -11    1    3    3    0    0 -0.19356527908E+02 -0.27625571391E+02 -0.26944955244E+02  0.43172653155E+02  0.00000000000E+00 0. -1.
         11    1    3    3    0    0 -0.10212385952E+03  0.24990571777E+02  0.26050407851E+02  0.10831636585E+03  0.00000000000E+00 0.  1.
</event>
<event>
 7    1  0.6610867E-006  0.1482310E+03  0.7561462E-02  0.1202664E+00
         -1   -1    0    0    0  501 -0.00000000000E+00  0.00000000000E+00  0.71902621160E+03  0.71902621160E+03  0.00000000000E+00 0.  1.
          1   -1    0    0  501    0  0.00000000000E+00 -0.00000000000E+00 -0.33352756608E+02  0.33352756608E+02  0.00000000000E+00 0. -1.
         23    2    1    2    0    0 -0.10427683585E+03 -0.16162654696E+01  0.24129710467E+03  0.27909905914E+03  0.93785506784E+02 0.  0.
          5    1    1    2  502    0 -0.65004431548E+01  0.39371572774E+02  0.66438477987E+02  0.77613917960E+02  0.41800000000E+01 0.  1.
         -5    1    1    2    0  502  0.11077727900E+03 -0.37755307304E+02  0.37793787233E+03  0.39566599110E+03  0.41800000000E+01 0.  1.
        -11    1    3    3    0    0 -0.92052681707E+02  0.36633619777E+02  0.18625499689E+03  0.21096597397E+03  0.00000000000E+00 0.  1.
         11    1    3    3    0    0 -0.12224154143E+02 -0.38249885247E+02  0.55042107780E+02  0.68133085170E+02  0.00000000000E+00 0. -1.
</event>
<event>
 7    1  0.6610867E-006  0.1014862E+03  0.7561462E-02  0.1277201E+00
         -2   -1    0    0    0  501 -0.00000000000E+00  0.00000000000E+00  0.21659749936E+03  0.21659749936E+03  0.00000000000E+00 0.  1.
          2   -1    0    0  501    0  0.00000000000E+00 -0.00000000000E+00 -0.76904141931E+02  0.76904141931E+02  0.00000000000E+00 0. -1.
         23    2    1    2    0    0  0.95697317860E+01  0.20504627221E+02  0.13705731102E+03  0.16635518443E+03  0.91527708269E+02 0.  0.
          5    1    1    2  502    0  0.14369633799E+02 -0.63870688664E+02  0.28014723574E+02  0.71331959057E+02  0.41800000000E+01 0. -1.
         -5    1    1    2    0  502 -0.23939365585E+02  0.43366061442E+02 -0.25378677165E+02  0.55814497797E+02  0.41800000000E+01 0. -1.
        -11    1    3    3    0    0 -0.14043140702E+02  0.48815547826E+02  0.47655379404E+02  0.69650575709E+02  0.00000000000E+00 0. -1.
         11    1    3    3    0    0  0.23612872488E+02 -0.28310920605E+02  0.89401931613E+02  0.96704608726E+02  0.00000000000E+00 0.  1.
</event>
<event>
 7    1  0.6610867E-006  0.1133314E+03  0.7561462E-02  0.1254522E+00
          1   -1    0    0  501    0  0.00000000000E+00  0.00000000000E+00  0.30249628443E+03  0.30249628443E+03  0.00000000000E+00 0. -1.
         -1   -1    0    0    0  501 -0.00000000000E+00 -0.00000000000E+00 -0.48061481686E+02  0.48061481686E+02  0.00000000000E+00 0.  1.
         23    2    1    2    0    0 -0.28255883757E+02 -0.27208276009E+02  0.58967096514E+02  0.11520912967E+03  0.90869906116E+02 0.  0.
          5    1    1    2  502    0 -0.48671928860E+02  0.22596583197E+02  0.84229708276E+02  0.99958383277E+02  0.41800000000E+01 0.  1.
         -5    1    1    2    0  502  0.76927812617E+02  0.46116928118E+01  0.11123799795E+03  0.13539025317E+03  0.41800000000E+01 0.  1.
        -11    1    3    3    0    0  0.31497077794E+02 -0.13978275018E+02  0.75501147281E+01  0.35276937430E+02  0.00000000000E+00 0.  1.
         11    1    3    3    0    0 -0.59752961550E+02 -0.13230000991E+02  0.51416981786E+02  0.79932192240E+02  0.00000000000E+00 0. -1.
</event>
<event>
 7    1  0.6610867E-006  0.1135943E+03  0.7561462E-02  0.1254055E+00
          4   -1    0    0  501    0  0.00000000000E+00  0.00000000000E+00  0.13873705218E+03  0.13873705218E+03  0.00000000000E+00 0. -1.
         -4   -1    0    0    0  501 -0.00000000000E+00 -0.00000000000E+00 -0.99769648944E+02  0.99769648944E+02  0.00000000000E+00 0.  1.
         23    2    1    2    0    0 -0.38355481123E+02  0.16666827321E+02  0.59410002816E+00  0.10114440187E+03  0.92091861801E+02 0.  0.
          5    1    1    2  502    0  0.29067326039E+00  0.52542926057E+02  0.17785749732E+02  0.55629568245E+02  0.41800000000E+01 0. -1.
         -5    1    1    2    0  502  0.38064807863E+02 -0.69209753378E+02  0.20587553479E+02  0.81732731011E+02  0.41800000000E+01 0. -1.
        -11    1    3    3    0    0 -0.33383387168E+02  0.50855269344E+02 -0.15876414165E+02  0.62871054434E+02  0.00000000000E+00 0. -1.
         11    1    3    3    0    0 -0.49720939551E+01 -0.34188442023E+02  0.16470514193E+02  0.38273347437E+02  0.00000000000E+00 0.  1.
</event>
<event>
 7    1  0.6610867E-006  0.1603914E+03  0.7561462E-02  0.1188256E+00
         -2   -1    0    0    0  501 -0.00000000000E+00  0.00000000000E+00  0.24283508400E+03  0.24283508400E+03  0.00000000000E+00 0.  1.
          2   -1    0    0  501    0  0.00000000000E+00 -0.00000000000E+00 -0.11410426076E+03  0.11410426076E+03  0.00000000000E+00 0. -1.
         23    2    1    2    0    0 -0.91762032972E+02  0.78393607569E+02  0.97068808528E+02  0.18025373665E+03  0.92212946954E+02 0.  0.
          5    1    1    2  502    0 -0.13025537056E+02 -0.61175248668E+02  0.32062394652E+02  0.70409837494E+02  0.41800000000E+01 0.  1.
         -5    1    1    2    0  502  0.10478757003E+03 -0.17218358901E+02 -0.40037994189E+00  0.10627577061E+03  0.41800000000E+01 0.  1.
        -11    1    3    3    0    0 -0.74979559967E+02  0.34896283233E+01  0.45390804735E+02  0.87717940429E+02  0.00000000000E+00 0.  1.
         11    1    3    3    0    0 -0.16782473005E+02  0.74903979245E+02  0.51678003793E+02  0.92535796225E+02  0.00000000000E+00 0. -1.
</event>
<event>
 7    1  0.6610867E-006  0.1732921E+03  0.7561462E-02  0.1174458E+00
          2   -1    0    0  501    0  0.00000000000E+00  0.00000000000E+00  0.16228262694E+04  0.16228262694E+04  0.00000000000E+00 0. -1.
         -2   -1    0    0    0  501 -0.00000000000E+00 -0.00000000000E+00 -0.42441280203E+02  0.42441280203E+02  0.00000000000E+00 0.  1.
         23    2    1    2    0    0  0.16442822504E+03  0.81789787075E+01  0.22079764666E+03  0.29004790941E+03  0.90954120857E+02 0.  0.
          5    1    1    2  502    0 -0.15724487091E+03 -0.66272185318E+01  0.13573820569E+04  0.13664821222E+04  0.41800000000E+01 0.  1.
         -5    1    1    2    0  502 -0.71833541323E+01 -0.15517601757E+01  0.22052856386E+01  0.87375180103E+01  0.41800000000E+01 0.  1.
        -11    1    3    3    0    0  0.12752668025E+03 -0.26273409992E+02  0.11887926371E+03  0.17631116127E+03  0.00000000000E+00 0.  1.
         11    1    3    3    0    0  0.36901544793E+02  0.34452388699E+02  0.10191838295E+03  0.11373674814E+03  0.00000000000E+00 0. -1.
</event>
<event>
 7    1  0.6610867E-006  0.8305520E+02  0.7561462E-02  0.1320598E+00
         -2   -1    0    0    0  501 -0.00000000000E+00  0.00000000000E+00  0.15187157570E+02  0.15187157570E+02  0.00000000000E+00 0.  1.
          2   -1    0    0  501    0  0.00000000000E+00 -0.00000000000E+00 -0.11527880447E+04  0.11527880447E+04  0.00000000000E+00 0. -1.
         23    2    1    2    0    0 -0.46346127411E+02 -0.13901582184E+02 -0.24842185715E+03  0.26870081454E+03  0.90252374563E+02 0.  0.
          5    1    1    2  502    0  0.26395451351E+02  0.37850606077E+02 -0.83748297667E+03  0.83876373124E+03  0.41800000000E+01 0. -1.
         -5    1    1    2    0  502  0.19950676060E+02 -0.23949023893E+02 -0.51696053331E+02  0.60510656506E+02  0.41800000000E+01 0.  1.
        -11    1    3    3    0    0 -0.49958064689E+02  0.20307419984E+02 -0.77906732924E+02  0.94750506958E+02  0.00000000000E+00 0.  1.
         11    1    3    3    0    0  0.36119372776E+01 -0.34209002167E+02 -0.17051512422E+03  0.17395030758E+03  0.00000000000E+00 0. -1.
</event>
<event>
 7    1  0.6610867E-006  0.1033437E+03  0.7561462E-02  0.1273418E+00
          1   -1    0    0  501    0  0.00000000000E+00  0.00000000000E+00  0.18303077599E+03  0.18303077599E+03  0.00000000000E+00 0. -1.
         -1   -1    0    0    0  501 -0.00000000000E+00 -0.00000000000E+00 -0.11062133665E+03  0.11062133665E+03  0.00000000000E+00 0.  1.
         23    2    1    2    0    0 -0.65447371173E+02 -0.47895891194E+02 -0.10676602125E+02  0.12298494953E+03  0.91836448057E+02 0.  0.
          5    1    1    2  502    0  0.71131421749E+02  0.30480170682E+02 -0.77701759934E+01  0.77888176252E+02  0.41800000000E+01 0.  1.
         -5    1    1    2    0  502 -0.56840505766E+01  0.17415720511E+02  0.90856217459E+02  0.92778986860E+02  0.41800000000E+01 0.  1.
        -11    1    3    3    0    0  0.15072869073E+02  0.26819667476E+01  0.18035434009E+02  0.23657159754E+02  0.00000000000E+00 0. -1.
         11    1    3    3    0    0 -0.80520240246E+02 -0.50577857941E+02 -0.28712036134E+02  0.99327789778E+02  0.00000000000E+00 0.  1.
</event>
<event>
 7    1  0.6610867E-006  0.9725428E+02  0.7561462E-02  0.1286178E+00
         -3   -1    0    0    0  501 -0.00000000000E+00  0.00000000000E+00  0.14949384590E+03  0.14949384590E+03  0.00000000000E+00 0.  1.
          3   -1    0    0  501    0  0.00000000000E+00 -0.00000000000E+00 -0.97604013851E+02  0.97604013851E+02  0.00000000000E+00 0. -1.
         23    2    1    2    0    0  0.21030176441E+02 -0.10646957918E+02  0.39062037375E+02  0.11915858891E+03  0.11007861061E+03 0.  0.
          5    1    1    2  502    0 -0.52512003912E+02  0.73463260112E+01 -0.39767529799E+02  0.66410901869E+02  0.41800000000E+01 0. -1.
         -5    1    1    2    0  502  0.31481827471E+02  0.33006319064E+01  0.52595324471E+02  0.61528368970E+02  0.41800000000E+01 0. -1.
        -11    1    3    3    0    0  0.10064578325E+02 -0.58978769417E+02  0.72546813321E+01  0.60269572589E+02  0.00000000000E+00 0. -1.
         11    1    3    3    0    0  0.10965598116E+02  0.48331811499E+02  0.31807356043E+02  0.58889016321E+02  0.00000000000E+00 0.  1.
</event>
<event>
 7    1  0.6610867E-006  0.7415540E+02  0.7561462E-02  0.1346507E+00
          1   -1    0    0  501    0  0.00000000000E+00  0.00000000000E+00  0.25731141721E+04  0.25731141721E+04  0.00000000000E+00 0. -1.
         -1   -1    0    0    0  501 -0.00000000000E+00 -0.00000000000E+00 -0.70599189848E+01  0.70599189848E+01  0.00000000000E+00 0.  1.
         23    2    1    2    0    0 -0.11583534005E+02 -0.25006663192E+02  0.45801166745E+03  0.46824346955E+03  0.93368880230E+02 0.  0.
          5    1    1    2  502    0 -0.15169928941E+02  0.28332887812E+01  0.33778446797E+02  0.37371247469E+02  0.41800000000E+01 0.  1.
         -5    1    1    2    0  502  0.26753462946E+02  0.22173374411E+02  0.20742641389E+04  0.20745593741E+04  0.41800000000E+01 0.  1.
        -11    1    3    3    0    0  0.23263629270E+02 -0.49524386693E+02  0.25200946684E+03  0.25788104370E+03  0.00000000000E+00 0. -1.
         11    1    3    3    0    0 -0.34847163274E+02  0.24517723500E+02  0.20600220061E+03  0.21036242585E+03  0.00000000000E+00 0.  1.
</event>
<event>
 7    1  0.6610867E-006  0.1153488E+03  0.7561462E-02  0.1250973E+00
         -4   -1    0    0    0  501 -0.00000000000E+00  0.00000000000E+00  0.60249365466E+03  0.60249365466E+03  0.00000000000E+00 0.  1.
          4   -1    0    0  501    0  0.00000000000E+00 -0.00000000000E+00 -0.31482011352E+02  0.31482011352E+02  0.00000000000E+00 0. -1.
         23    2    1    2    0    0  0.76198111731E+02 -0.31695660160E+02  0.25656768471E+03  0.28567122440E+03  0.94711691500E+02 0.  0.
          5    1    1    2  502    0 -0.10524276122E+03  0.11622914892E+02  0.17662139335E+03  0.20597019185E+03  0.41800000000E+01 0. -1.
         -5    1    1    2    0  502  0.29044649488E+02  0.20072745268E+02  0.13782256524E+03  0.14233424977E+03  0.41800000000E+01 0. -1.
        -11    1    3    3    0    0  0.13569050994E+02  0.72949038507E+01 -0.31106640175E+01  0.15716583525E+02  0.00000000000E+00 0. -1.
         11    1    3    3    0    0  0.62629060738E+02 -0.38990564010E+02  0.25967834873E+03  0.26995464088E+03  0.00000000000E+00 0.  1.
</event>
<event>
 7    1  0.6610867E-006  0.1180289E+03  0.7561462E-02  0.1246385E+00
          2   -1    0    0  501    0  0.00000000000E+00  0.00000000000E+00  0.83276335565E+03  0.83276335565E+03  0.00000000000E+00 0. -1.
         -2   -1    0    0    0  501 -0.00000000000E+00 -0.00000000000E+00 -0.23211487693E+02  0.23211487693E+02  0.00000000000E+00 0.  1.
         23    2    1    2    0    0 -0.46533850248E+02 -0.13099643836E+02  0.14783084633E+03  0.18080365262E+03  0.92190030853E+02 0.  0.
          5    1    1    2  502    0  0.86605172624E+02 -0.10058542833E+02  0.40853085243E+03  0.41775179233E+03  0.41800000000E+01 0. -1.
         -5    1    1    2    0  502 -0.40071322377E+02  0.23158186669E+02  0.25319016920E+03  0.25741939839E+03  0.41800000000E+01 0. -1.
        -11    1    3    3    0    0 -0.59388578285E-01 -0.45592942342E+02  0.49534624594E+02  0.67323093749E+02  0.00000000000E+00 0.  1.
         11    1    3    3    0    0 -0.46474461669E+02  0.32493298505E+02  0.98296221734E+02  0.11348055887E+03  0.00000000000E+00 0. -1.
</event>
<event>
 7    1  0.6610867E-006  0.1016454E+03  0.7561462E-02  0.1276873E+00
         -2   -1    0    0    0  501 -0.00000000000E+00  0.00000000000E+00  0.37633838786E+02  0.37633838786E+02  0.00000000000E+00 0.  1.
          2   -1    0    0  501    0  0.00000000000E+00 -0.00000000000E+00 -0.43185356654E+03  0.43185356654E+03  0.00000000000E+00 0. -1.
         23    2    1    2    0    0  0.59292122348E+02  0.16985717267E+02 -0.12548785845E+03  0.16671998604E+03  0.90798021808E+02 0.  0.
          5    1    1    2  502    0 -0.37069445343E+02 -0.45780736127E+02 -0.25791634148E+03  0.26459087509E+03  0.41800000000E+01 0. -1.
         -5    1    1    2    0  502 -0.22222677005E+02  0.28795018859E+02 -0.10815527825E+02  0.38176544193E+02  0.41800000000E+01 0. -1.
        -11    1    3    3    0    0  0.67580183887E+02  0.43147757051E+02 -0.10667229178E+03  0.13344582431E+03  0.00000000000E+00 0.  1.
         11    1    3    3    0    0 -0.82880615386E+01 -0.26162039784E+02 -0.18815566663E+02  0.33274161726E+02  0.00000000000E+00 0. -1.
</event>
<event>
 7    1  0.6610867E-006  0.1158547E+03  0.7561462E-02  0.1250096E+00
         -2   -1    0    0    0  501 -0.00000000000E+00  0.00000000000E+00  0.17371629180E+03  0.17371629180E+03  0.00000000000E+00 0.  1.
          2   -1    0    0  501    0  0.00000000000E+00 -0.00000000000E+00 -0.89215545983E+02  0.89215545983E+02  0.00000000000E+00 0. -1.
         23    2    1    2    0    0  0.51378319964E+02 -0.28634324276E+02  0.38051741081E+02  0.11710669667E+03  0.93842352464E+02 0.  0.
          5    1    1    2  502    0 -0.69987879137E+02  0.60737151082E+02  0.94235616555E+01  0.93239372917E+02  0.41800000000E+01 0.  1.
         -5    1    1    2    0  502  0.18609559173E+02 -0.32102826806E+02  0.37025443076E+02  0.52585768193E+02  0.41800000000E+01 0.  1.
        -11    1    3    3    0    0 -0.62879700545E+00 -0.46584220759E+02 -0.55347654930E+01  0.46916080809E+02  0.00000000000E+00 0. -1.
         11    1    3    3    0    0  0.52007116970E+02  0.17949896483E+02  0.43586506574E+02  0.70190615859E+02  0.00000000000E+00 0.  1.
</event>
<event>
 7    1  0.6610867E-006  0.1085155E+03  0.7561462E-02  0.1263344E+00
          1   -1    0    0  501    0  0.00000000000E+00  0.00000000000E+00  0.22521167346E+02  0.22521167346E+02  0.00000000000E+00 0. -1.
         -1   -1    0    0    0  501 -0.00000000000E+00 -0.00000000000E+00 -0.79660985203E+03  0.79660985203E+03  0.00000000000E+00 0.  1.
         23    2    1    2    0    0 -0.29505342907E+02  0.65564396994E+02 -0.41634322957E+03  0.43339063875E+03  0.96522046857E+02 0.  0.
          5    1    1    2  502    0 -0.25219240030E+02 -0.27331537892E+01 -0.91308054339E+01  0.27282305716E+02  0.41800000000E+01 0. -1.
         -5    1    1    2    0  502  0.54724582937E+02 -0.62831243205E+02 -0.34861464968E+03  0.35845807492E+03  0.41800000000E+01 0. -1.
        -11    1    3    3    0    0  0.66858789367E+01 -0.16717960741E+02 -0.19697363430E+02  0.26686650494E+02  0.00000000000E+00 0.  1.
         11    1    3    3    0    0 -0.36191221843E+02  0.82282357735E+02 -0.39664586614E+03  0.40670398825E+03  0.00000000000E+00 0. -1.
</event>
<event>
 7    1  0.6610867E-006  0.1116801E+03  0.7561462E-02  0.1257490E+00
         -4   -1    0    0    0  501 -0.00000000000E+00  0.00000000000E+00  0.14265197834E+03  0.14265197834E+03  0.00000000000E+00 0.  1.
          4   -1    0    0  501    0  0.00000000000E+00 -0.00000000000E+00 -0.16362260684E+03  0.16362260684E+03  0.00000000000E+00 0. -1.
         23    2    1    2    0    0 -0.61275713843E+02  0.47067938608E+02  0.65057088967E+02  0.13592286260E+03  0.90953261628E+02 0.  0.
          5    1    1    2  502    0 -0.13828536327E+02  0.23902185224E+02 -0.56140067662E+02  0.62703448649E+02  0.41800000000E+01 0.  1.
         -5    1    1    2    0  502  0.75104250170E+02 -0.70970123832E+02 -0.29887649797E+02  0.10764827393E+03  0.41800000000E+01 0.  1.
        -11    1    3    3    0    0 -0.33277618152E+02 -0.42586690110E+01 -0.15032658371E+02  0.36762983412E+02  0.00000000000E+00 0. -1.
         11    1    3    3    0    0 -0.27998095691E+02  0.51326607619E+02  0.80089747338E+02  0.99159879188E+02  0.00000000000E+00 0.  1.
</event>
<event>
 7    1  0.6610867E-006  0.1209587E+03  0.7561462E-02  0.1241524E+00
         -2   -1    0    0    0  501 -0.00000000000E+00  0.00000000000E+00  0.25559563619E+03  0.25559563619E+03  0.00000000000E+00 0. -1.
          2   -1    0    0  501    0  0.00000000000E+00 -0.00000000000E+00 -0.77549326347E+02  0.77549326347E+02  0.00000000000E+00 0.  1.
         23    2    1    2    0    0  0.52160061831E+02  0.72069459031E+02  0.71980460747E+02  0.14655747398E+03  0.91559966551E+02 0.  0.
          5    1    1    2  502    0 -0.82704388138E+02 -0.97274705748E+01  0.49715531373E+02  0.97075980349E+02  0.41800000000E+01 0. -1.
         -5    1    1    2    0  502  0.30544326307E+02 -0.62341988456E+02  0.56350317725E+02  0.89511508209E+02  0.41800000000E+01 0. -1.
        -11    1    3    3    0    0  0.20286358201E+02  0.29809758714E+02  0.84754424917E+02  0.92105757619E+02  0.00000000000E+00 0. -1.
         11    1    3    3    0    0  0.31873703630E+02  0.42259700317E+02 -0.12773964170E+02  0.54451716360E+02  0.00000000000E+00 0.  1.
</event>
<event>
 7    1  0.6610867E-006  0.3567085E+03  0.7561462E-02  0.1059895E+00
          2   -1    0    0  501    0  0.00000000000E+00  0.00000000000E+00  0.18302899040E+04  0.18302899040E+04  0.00000000000E+00 0. -1.
         -2   -1    0    0    0  501 -0.00000000000E+00 -0.00000000000E+00 -0.75045380227E+02  0.75045380227E+02  0.00000000000E+00 0.  1.
         23    2    1    2    0    0 -0.23325276092E+03 -0.26642888871E+03  0.87471439262E+03  0.94806172585E+03  0.91129381418E+02 0.  0.
          5    1    1    2  502    0  0.60760521132E+02  0.53579041725E+02  0.36007244465E+03  0.36909645411E+03  0.41800000000E+01 0.  1.
         -5    1    1    2    0  502  0.17249223978E+03  0.21284984698E+03  0.52045768654E+03  0.58817710430E+03  0.41800000000E+01 0.  1.
        -11    1    3    3    0    0 -0.21585951619E+03 -0.21777031667E+03  0.80395021977E+03  0.86043895624E+03  0.00000000000E+00 0. -1.
         11    1    3    3    0    0 -0.17393244722E+02 -0.48658572040E+02  0.70764172852E+02  0.87622769611E+02  0.00000000000E+00 0.  1.
</event>
<event>
 7    1  0.6610867E-006  0.1044227E+03  0.7561462E-02  0.1271261E+00
         -2   -1    0    0    0  501 -0.00000000000E+00  0.00000000000E+00  0.18956160096E+03  0.18956160096E+03  0.00000000000E+00 0.  1.
          2   -1    0    0  501    0  0.00000000000E+00 -0.00000000000E+00 -0.72378431487E+02  0.72378431487E+02  0.00000000000E+00 0. -1.
         23    2    1    2    0    0 -0.15602375719E+02 -0.33196746710E+02  0.82155502725E+02  0.12695841395E+03  0.89573735685E+02 0.  0.
          5    1    1    2  502    0  0.43193731515E+02 -0.27512375594E+02  0.43896699669E+02  0.67579744708E+02  0.41800000000E+01 0.  1.
         -5    1    1    2    0  502 -0.27591355796E+02  0.60709122305E+02 -0.88690329191E+01  0.67401873791E+02  0.41800000000E+01 0.  1.
        -11    1    3    3    0    0  0.25231269296E+02 -0.41887323680E+02  0.66117568443E+02  0.82235623012E+02  0.00000000000E+00 0.  1.
         11    1    3    3    0    0 -0.40833645015E+02  0.86905769701E+01  0.16037934283E+02  0.44722790939E+02  0.00000000000E+00 0. -1.
</event>
<event>
 7    1  0.6610867E-006  0.6814680E+02  0.7561462E-02  0.1366511E+00
          2   -1    0    0  501    0  0.00000000000E+00  0.00000000000E+00  0.24699688026E+03  0.24699688026E+03  0.00000000000E+00 0. -1.
         -2   -1    0    0    0  501 -0.00000000000E+00 -0.00000000000E+00 -0.62890743802E+02  0.62890743802E+02  0.00000000000E+00 0.  1.
         23    2    1    2    0    0 -0.22935139123E+02  0.38704990643E+02  0.27656255923E+02  0.10458688483E+03  0.90274310187E+02 0.  0.
          5    1    1    2  502    0  0.12209777357E+02 -0.12365706108E+02  0.17179102126E+03  0.17271831616E+03  0.41800000000E+01 0. -1.
         -5    1    1    2    0  502  0.10725361766E+02 -0.26339284534E+02 -0.15341140723E+02  0.32582423076E+02  0.41800000000E+01 0. -1.
        -11    1    3    3    0    0 -0.51255355975E+02  0.32476909493E+02  0.40416510312E+02  0.72906484432E+02  0.00000000000E+00 0. -1.
         11    1    3    3    0    0  0.28320216853E+02  0.62280811500E+01 -0.12760254389E+02  0.31680400399E+02  0.00000000000E+00 0.  1.
</event>
<event>
 7    1  0.6610867E-006  0.1393185E+03  0.7561462E-02  0.1214249E+00
         -1   -1    0    0    0  501 -0.00000000000E+00  0.00000000000E+00  0.69848062650E+02  0.69848062650E+02  0.00000000000E+00 0.  1.
          1   -1    0    0  501    0  0.00000000000E+00 -0.00000000000E+00 -0.36347616094E+03  0.36347616094E+03  0.00000000000E+00 0. -1.
         23    2    1    2    0    0 -0.43913773614E+02 -0.92187226761E+02 -0.61336440845E+02  0.15040660846E+03  0.91831827830E+02 0.  0.
          5    1    1    2  502    0 -0.39181977532E+02  0.45653809166E+02 -0.54996355229E+02  0.81618436295E+02  0.41800000000E+01 0. -1.
         -5    1    1    2    0  502  0.83095751146E+02  0.46533417595E+02 -0.17729530222E+03  0.20129917884E+03  0.41800000000E+01 0. -1.
        -11    1    3    3    0    0 -0.29038270723E+02  0.58362311264E+00 -0.47161512330E+02  0.55387453704E+02  0.00000000000E+00 0. -1.
         11    1    3    3    0    0 -0.14875502891E+02 -0.92770849874E+02 -0.14174928515E+02  0.95019154758E+02  0.00000000000E+00 0.  1.
</event>
<event>
 7    1  0.6610867E-006  0.1731617E+03  0.7561462E-02  0.1174590E+00
          2   -1    0    0  501    0  0.00000000000E+00  0.00000000000E+00  0.21815290905E+03  0.21815290905E+03  0.00000000000E+00 0. -1.
         -2   -1    0    0    0  501 -0.00000000000E+00 -0.00000000000E+00 -0.21718083132E+03  0.21718083132E+03  0.00000000000E+00 0.  1.
         23    2    1    2    0    0  0.14694153806E+03 -0.34304453556E+02 -0.11835301380E+03  0.20587103653E+03  0.74878813203E+02 0.  0.
          5    1    1    2  502    0 -0.15228079717E+03 -0.72019262549E+01  0.81604456603E+02  0.17296840367E+03  0.41800000000E+01 0.  1.
         -5    1    1    2    0  502  0.53392591167E+01  0.41506379811E+02  0.37720634924E+02  0.56494300173E+02  0.41800000000E+01 0.  1.
        -11    1    3    3    0    0  0.13780020395E+02 -0.82842625827E+01 -0.52783364108E+02  0.55177907673E+02  0.00000000000E+00 0.  1.
         11    1    3    3    0    0  0.13316151766E+03 -0.26020190974E+02 -0.65569649690E+02  0.15069312886E+03  0.00000000000E+00 0. -1.
</event>
<event>
 7    1  0.6610867E-006  0.1140355E+03  0.7561462E-02  0.1253274E+00
          1   -1    0    0  501    0  0.00000000000E+00  0.00000000000E+00  0.83555623847E+02  0.83555623847E+02  0.00000000000E+00 0. -1.
         -1   -1    0    0    0  501 -0.00000000000E+00 -0.00000000000E+00 -0.24637987422E+03  0.24637987422E+03  0.00000000000E+00 0.  1.
         23    2    1    2    0    0  0.27242595602E+00  0.87313889630E+02 -0.98106900367E+02  0.16422691250E+03  0.98598810096E+02 0.  0.
          5    1    1    2  502    0 -0.64407547884E+01  0.24078614143E+02 -0.46032913159E+02  0.52514421593E+02  0.41800000000E+01 0.  1.
         -5    1    1    2    0  502  0.61683288324E+01 -0.11139250377E+03 -0.18684436849E+02  0.11319416397E+03  0.41800000000E+01 0.  1.
        -11    1    3    3    0    0  0.12563516016E+02  0.29735164958E+02 -0.10024289644E+03  0.10531220374E+03  0.00000000000E+00 0.  1.
         11    1    3    3    0    0 -0.12291090060E+02  0.57578724672E+02  0.21359960709E+01  0.58914708765E+02  0.00000000000E+00 0. -1.
</event>
<event>
 7    1  0.6610867E-006  0.9003840E+02  0.7561462E-02  0.1302759E+00
         -2   -1    0    0    0  501 -0.00000000000E+00  0.00000000000E+00  0.45266117118E+02  0.45266117118E+02  0.00000000000E+00 0.  1.
          2   -1    0    0  501    0  0.00000000000E+00 -0.00000000000E+00 -0.26092287857E+03  0.26092287857E+03  0.00000000000E+00 0. -1.
         23    2    1    2    0    0  0.11642764061E+01 -0.87078595036E+00 -0.54071514144E+02  0.10551339490E+03  0.90593785954E+02 0.  0.
          5    1    1    2  502    0  0.30471244396E+02  0.49753906189E+02 -0.99769353690E+02  0.11565182338E+03  0.41800000000E+01 0. -1.
         -5    1    1    2    0  502 -0.31635520802E+02 -0.48883120238E+02 -0.61815893614E+02  0.85023777403E+02  0.41800000000E+01 0.  1.
        -11    1    3    3    0    0 -0.31018240854E+02 -0.54544449419E+00 -0.64589991059E+02  0.71654000030E+02  0.00000000000E+00 0. -1.
         11    1    3    3    0    0  0.32182517260E+02 -0.32534145618E+00  0.10518476915E+02  0.33859394868E+02  0.00000000000E+00 0.  1.
</event>
<event>
 7    1  0.6610867E-006  0.1268822E+03  0.7561462E-02  0.1232157E+00
          3   -1    0    0  501    0  0.00000000000E+00  0.00000000000E+00  0.57389562364E+02  0.57389562364E+02  0.00000000000E+00 0. -1.
         -3   -1    0    0    0  501 -0.00000000000E+00 -0.00000000000E+00 -0.41494497471E+03  0.41494497471E+03  0.00000000000E+00 0.  1.
         23    2    1    2    0    0 -0.96580086043E+02 -0.23979934594E+02 -0.23502843757E+03  0.27128090069E+03  0.91935903365E+02 0.  0.
          5    1    1    2  502    0  0.18768198366E+02 -0.39113721630E+02 -0.11225541156E+01  0.43598864864E+02  0.41800000000E+01 0. -1.
         -5    1    1    2    0  502  0.77811887677E+02  0.63093656224E+02 -0.12140442065E+03  0.15745477152E+03  0.41800000000E+01 0.  1.
        -11    1    3    3    0    0 -0.63995305382E+02 -0.38017081772E+02 -0.68978006246E+02  0.10148232833E+03  0.00000000000E+00 0.  1.
         11    1    3    3    0    0 -0.32584780661E+02  0.14037147178E+02 -0.16605043133E+03  0.16979857236E+03  0.00000000000E+00 0. -1.
</event>
<event>
 7    1  0.6610867E-006  0.9690034E+02  0.7561462E-02  0.1286953E+00
          1   -1    0    0  501    0  0.00000000000E+00  0.00000000000E+00  0.66355260620E+03  0.66355260620E+03  0.00000000000E+00 0. -1.
         -1   -1    0    0    0  501 -0.00000000000E+00 -0.00000000000E+00 -0.19824152436E+02  0.19824152436E+02  0.00000000000E+00 0.  1.
         23    2    1    2    0    0  0.20449238378E+02  0.43089913293E+01  0.19413743782E+03  0.21624033188E+03  0.92918230775E+02 0.  0.
          5    1    1    2  502    0  0.48408631343E+02 -0.17788833759E+02  0.13024883312E+03  0.14015016633E+03  0.41800000000E+01 0. -1.
         -5    1    1    2    0  502 -0.68857869721E+02  0.13479842430E+02  0.31934218282E+03  0.32698626042E+03  0.41800000000E+01 0. -1.
        -11    1    3    3    0    0  0.14222995364E+02 -0.31953255012E+02  0.24610202202E+02  0.42766413871E+02  0.00000000000E+00 0.  1.
         11    1    3    3    0    0  0.62262430141E+01  0.36262246341E+02  0.16952723562E+03  0.17347391801E+03  0.00000000000E+00 0. -1.
</event>
<event>
 7    1  0.6610867E-006  0.1154860E+03  0.7561462E-02  0.1250735E+00
          1   -1    0    0  501    0  0.00000000000E+00  0.00000000000E+00  0.18191367326E+03  0.18191367326E+03  0.00000000000E+00 0. -1.
         -1   -1    0    0    0  501 -0.00000000000E+00 -0.00000000000E+00 -0.15114564607E+03  0.15114564607E+03  0.00000000000E+00 0.  1.
         23    2    1    2    0    0  0.47530395874E+02 -0.71265953874E+02 -0.77183577302E+02  0.14694278108E+03  0.91087329488E+02 0.  0.
          5    1    1    2  502    0  0.12321265379E+02 -0.12501531772E+02 -0.16566410090E+02  0.24495310173E+02  0.41800000000E+01 0.  1.
         -5    1    1    2    0  502 -0.59851661253E+02  0.83767485646E+02  0.12451801458E+03  0.16162122807E+03  0.41800000000E+01 0.  1.
        -11    1    3    3    0    0  0.64063378769E+02 -0.43037585889E+02 -0.83414314800E+02  0.11364109385E+03  0.00000000000E+00 0.  1.
         11    1    3    3    0    0 -0.16532982894E+02 -0.28228367986E+02  0.62307374983E+01  0.33301687229E+02  0.00000000000E+00 0. -1.
</event>
<event>
 7    1  0.6610867E-006  0.1245565E+03  0.7561462E-02  0.1235764E+00
         -2   -1    0    0    0  501 -0.00000000000E+00  0.00000000000E+00  0.68555201106E+02  0.68555201106E+02  0.00000000000E+00 0. -1.
          2   -1    0    0  501    0  0.00000000000E+00 -0.00000000000E+00 -0.33157445473E+03  0.33157445473E+03  0.00000000000E+00 0.  1.
         23    2    1    2    0    0  0.15890434387E+02  0.98780899626E+02 -0.79451146482E+02  0.15649970741E+03  0.90385295858E+02 0.  0.
          5    1    1    2  502    0  0.19546345617E+02 -0.83800699719E+02 -0.18586684557E+03  0.20486232837E+03  0.41800000000E+01 0.  1.
         -5    1    1    2    0  502 -0.35436780004E+02 -0.14980199907E+02  0.22987384336E+01  0.38767620054E+02  0.41800000000E+01 0.  1.
        -11    1    3    3    0    0  0.17182364538E+02 -0.69416092509E+01  0.71164275289E+01  0.19851023421E+02  0.00000000000E+00 0.  1.
         11    1    3    3    0    0 -0.12919301509E+01  0.10572250888E+03 -0.86567574011E+02  0.13664868399E+03  0.00000000000E+00 0. -1.
</event>
<event>
 7    1  0.6610867E-006  0.1271443E+03  0.7561462E-02  0.1231756E+00
         -1   -1    0    0    0  501 -0.00000000000E+00  0.00000000000E+00  0.19985668144E+02  0.19985668144E+02  0.00000000000E+00 0.  1.
          1   -1    0    0  501    0  0.00000000000E+00 -0.00000000000E+00 -0.97949712682E+03  0.97949712682E+03  0.00000000000E+00 0. -1.
         23    2    1    2    0    0  0.78043410675E+02 -0.10194595465E+02 -0.30101132393E+03  0.32452219196E+03  0.92261217259E+02 0.  0.
          5    1    1    2  502    0 -0.12906793470E+02  0.57245986445E+02 -0.39777900188E+03  0.40210607434E+03  0.41800000000E+01 0. -1.
         -5    1    1    2    0  502 -0.65136617205E+02 -0.47051390981E+02 -0.26072113286E+03  0.27285452867E+03  0.41800000000E+01 0.  1.
        -11    1    3    3    0    0 -0.19041627178E+01  0.26825065895E+02 -0.33991765747E+02  0.43343397819E+02  0.00000000000E+00 0.  1.
         11    1    3    3    0    0  0.79947573393E+02 -0.37019661360E+02 -0.26701955819E+03  0.28117879414E+03  0.00000000000E+00 0. -1.
</event>
<event>
 7    1  0.6610867E-006  0.1116556E+03  0.7561462E-02  0.1257534E+00
          2   -1    0    0  501    0  0.00000000000E+00  0.00000000000E+00  0.46559643565E+03  0.46559643565E+03  0.00000000000E+00 0. -1.
         -2   -1    0    0    0  501 -0.00000000000E+00 -0.00000000000E+00 -0.46947550747E+02  0.46947550747E+02  0.00000000000E+00 0.  1.
         23    2    1    2    0    0  0.87823962901E-01  0.22463312088E+02  0.31734282193E+02  0.97033861712E+02  0.88903866898E+02 0.  0.
          5    1    1    2  502    0 -0.72159205079E+02 -0.25215655260E+02  0.15996001046E+03  0.17733430997E+03  0.41800000000E+01 0. -1.
         -5    1    1    2    0  502  0.72071381117E+02  0.27523431719E+01  0.22695459226E+03  0.23817581472E+03  0.41800000000E+01 0.  1.
        -11    1    3    3    0    0  0.27675753146E+02 -0.12172012286E+02 -0.14050685091E+02  0.33339570286E+02  0.00000000000E+00 0. -1.
         11    1    3    3    0    0 -0.27587929183E+02  0.34635324374E+02  0.45784967284E+02  0.63694291427E+02  0.00000000000E+00 0.  1.
</event>
<event>
 7    1  0.6610867E-006  0.6393193E+02  0.7561462E-02  0.1382035E+00
          2   -1    0    0  501    0  0.00000000000E+00  0.00000000000E+00  0.28592840170E+02  0.28592840170E+02  0.00000000000E+00 0. -1.
         -2   -1    0    0    0  501 -0.00000000000E+00 -0.00000000000E+00 -0.48654366295E+03  0.48654366295E+03  0.00000000000E+00 0.  1.
         23    2    1    2    0    0 -0.42290698218E+02 -0.67802096317E+01 -0.24501602708E+03  0.26448915752E+03  0.89928785833E+02 0.  0.
          5    1    1    2  502    0  0.51016918917E+01  0.25966608532E+02  0.62119417323E+01  0.27501866098E+02  0.41800000000E+01 0. -1.
         -5    1    1    2    0  502  0.37189006326E+02 -0.19186398900E+02 -0.21914673744E+03  0.22314547951E+03  0.41800000000E+01 0. -1.
        -11    1    3    3    0    0 -0.37233663969E+02 -0.21816160767E+02 -0.24485088490E+03  0.24862471004E+03  0.00000000000E+00 0.  1.
         11    1    3    3    0    0 -0.50570342485E+01  0.15035951135E+02 -0.16514217364E+00  0.15864447480E+02  0.00000000000E+00 0. -1.
</event>
<event>
 7    1  0.6610867E-006  0.3566057E+03  0.7561462E-02  0.1059936E+00
         -2   -1    0    0    0  501 -0.00000000000E+00  0.00000000000E+00  0.57542816809E+03  0.57542816809E+03  0.00000000000E+00 0.  1.
          2   -1    0    0  501    0  0.00000000000E+00 -0.00000000000E+00 -0.33332374964E+03  0.33332374964E+03  0.00000000000E+00 0. -1.
         23    2    1    2    0    0 -0.32601236086E+03  0.12791954281E+03  0.22506933243E+03  0.42588585818E+03  0.89861509717E+02 0.  0.
          5    1    1    2  502    0  0.58521058745E+02 -0.41515091332E+02 -0.14251690176E+03  0.15961440039E+03  0.41800000000E+01 0. -1.
         -5    1    1    2    0  502  0.26749130212E+03 -0.86404451480E+02  0.15955198778E+03  0.32325165916E+03  0.41800000000E+01 0.  1.
        -11    1    3    3    0    0 -0.17197409203E+02  0.32868058878E+02  0.12604347977E+02  0.39178179713E+02  0.00000000000E+00 0.  1.
         11    1    3    3    0    0 -0.30881495166E+03  0.95051483933E+02  0.21246498445E+03  0.38670767847E+03  0.00000000000E+00 0. -1.
</event>
<event>
 7    1  0.6610867E-006  0.1088166E+03  0.7561462E-02  0.1262777E+00
         -2   -1    0    0    0  501 -0.00000000000E+00  0.00000000000E+00  0.39633288491E+02  0.39633288491E+02  0.00000000000E+00 0.  1.
          2   -1    0    0  501    0  0.00000000000E+00 -0.00000000000E+00 -0.52196330786E+03  0.52196330786E+03  0.00000000000E+00 0. -1.
         23    2    1    2    0    0  0.27073028295E+02 -0.91060116961E+02 -0.21343798942E+03  0.25018764391E+03  0.89516412324E+02 0.  0.
          5    1    1    2  502    0 -0.15214466538E+02  0.60653927845E+02 -0.27127391337E+03  0.27841944514E+03  0.41800000000E+01 0. -1.
         -5    1    1    2    0  502 -0.11858561757E+02  0.30406189116E+02  0.23818834211E+01  0.32989507303E+02  0.41800000000E+01 0. -1.
        -11    1    3    3    0    0 -0.25631572885E+02 -0.46253539481E+02 -0.50272879545E+02  0.72963894227E+02  0.00000000000E+00 0.  1.
         11    1    3    3    0    0  0.52704601180E+02 -0.44806577480E+02 -0.16316510987E+03  0.17722374968E+03  0.00000000000E+00 0. -1.
</event>
<event>
 7    1  0.6610867E-006  0.1122961E+03  0.7561462E-02  0.1256376E+00
         -1   -1    0    0    0  501 -0.00000000000E+00  0.00000000000E+00  0.19381655471E+03  0.19381655471E+03  0.00000000000E+00 0. -1.
          1   -1    0    0  501    0  0.00000000000E+00 -0.00000000000E+00 -0.10560057877E+03  0.10560057877E+03  0.00000000000E+00 0.  1.
         23    2    1    2    0    0 -0.68273777652E+02 -0.38215462528E+02  0.93561183650E+02  0.15177710953E+03  0.90337509367E+02 0.  0.
          5    1    1    2  502    0  0.95137508128E+02 -0.44566816035E+01  0.68986013564E+01  0.95582794290E+02  0.41800000000E+01 0. -1.
         -5    1    1    2    0  502 -0.26863730476E+02  0.42672144132E+02 -0.12243809064E+02  0.52057229664E+02  0.41800000000E+01 0. -1.
        -11    1    3    3    0    0 -0.25169346870E+02 -0.18643312875E+02 -0.13962743996E+02  0.34293255266E+02  0.00000000000E+00 0.  1.
         11    1    3    3    0    0 -0.43104430782E+02 -0.19572149654E+02  0.10752392765E+03  0.11748385426E+03  0.00000000000E+00 0. -1.
</event>
<event>
 7    1  0.6610867E-006  0.2352949E+03  0.7561462E-02  0.1122967E+00
         -1   -1    0    0    0  501 -0.00000000000E+00  0.00000000000E+00  0.87775169436E+02  0.87775169436E+02  0.00000000000E+00 0.  1.
          1   -1    0    0  501    0  0.00000000000E+00 -0.00000000000E+00 -0.66039988729E+03  0.66039988729E+03  0.00000000000E+00 0. -1.
         23    2    1    2    0    0 -0.21243770972E+03 -0.27572220501E+02 -0.28089640544E+03  0.36523496126E+03  0.92756554907E+02 0.  0.
          5    1    1    2  502    0  0.21106956209E+03 -0.89092857026E+01 -0.24662251427E+03  0.32476125439E+03  0.41800000000E+01 0. -1.
         -5    1    1    2    0  502  0.13681476390E+01  0.36481506203E+02 -0.45105798139E+02  0.58178841073E+02  0.41800000000E+01 0. -1.
        -11    1    3    3    0    0 -0.61555674232E+02 -0.36210126793E+02 -0.14654870578E+03  0.16302391689E+03  0.00000000000E+00 0. -1.
         11    1    3    3    0    0 -0.15088203549E+03  0.86379062921E+01 -0.13434769966E+03  0.20221104437E+03  0.00000000000E+00 0.  1.
</event>
<event>
 7    1  0.6610867E-006  0.1849339E+03  0.7561462E-02  0.1163112E+00
         -2   -1    0    0    0  501 -0.00000000000E+00  0.00000000000E+00  0.60032264506E+02  0.60032264506E+02  0.00000000000E+00 0.  1.
          2   -1    0    0  501    0  0.00000000000E+00 -0.00000000000E+00 -0.10772992656E+04  0.10772992656E+04  0.00000000000E+00 0. -1.
         23    2    1    2    0    0  0.10783177970E+03  0.11760871896E+03 -0.12421204921E+03  0.22155056456E+03  0.90534612176E+02 0.  0.
          5    1    1    2  502    0 -0.12962191361E+03 -0.69568777911E+02 -0.58588359229E+03  0.60408502006E+03  0.41800000000E+01 0. -1.
         -5    1    1    2    0  502  0.21790133915E+02 -0.48039941050E+02 -0.30717135960E+03  0.31169594548E+03  0.41800000000E+01 0. -1.
        -11    1    3    3    0    0  0.41539558846E+02  0.87728730477E+02 -0.11133016888E+03  0.14770332292E+03  0.00000000000E+00 0. -1.
         11    1    3    3    0    0  0.66292220852E+02  0.29879988484E+02 -0.12881880332E+02  0.73847241643E+02  0.00000000000E+00 0.  1.
</event>
<event>
 6    1  0.6610867E-006  0.4495635E+02  0.7561462E-02  0.1474614E+00
         -2   -1    0    0    0  501 -0.00000000000E+00  0.00000000000E+00  0.73938010702E+02  0.73938010702E+02  0.00000000000E+00 0.  1.
          2   -1    0    0  501    0  0.00000000000E+00 -0.00000000000E+00 -0.11086180122E+03  0.11086180122E+03  0.00000000000E+00 0. -1.
          5    1    1    2  502    0  0.10452548119E+02 -0.37665324585E+01 -0.87241543574E+02  0.88045453342E+02  0.41800000000E+01 0. -1.
         -5    1    1    2    0  502 -0.26115930515E+02  0.12074890110E+02  0.34681494436E+02  0.45256195754E+02  0.41800000000E+01 0.  1.
        -11    1    1    2    0    0 -0.12223619242E+02  0.98426913639E+01  0.34934397424E+01  0.16077921567E+02  0.00000000000E+00 0. -1.
         11    1    1    2    0    0  0.27887001638E+02 -0.18151049015E+02  0.12142818876E+02  0.35420241261E+02  0.00000000000E+00 0.  1.
</event>
<event>
 7    1  0.6610867E-006  0.1103026E+03  0.7561462E-02  0.1260011E+00
          2   -1    0    0  501    0  0.00000000000E+00  0.00000000000E+00  0.34730177959E+02  0.34730177959E+02  0.00000000000E+00 0. -1.
         -2   -1    0    0    0  501 -0.00000000000E+00 -0.00000000000E+00 -0.60393635510E+03  0.60393635510E+03  0.00000000000E+00 0.  1.
         23    2    1    2    0    0 -0.10664259775E+02 -0.21715198924E+02 -0.20568585677E+03  0.22642200743E+03  0.91514902994E+02 0.  0.
          5    1    1    2  502    0  0.19811716782E+02 -0.56366245114E+02 -0.25358989405E+02  0.65040052689E+02  0.41800000000E+01 0. -1.
         -5    1    1    2    0  502 -0.91474570065E+01  0.78081444038E+02 -0.33816133096E+03  0.34720447294E+03  0.41800000000E+01 0.  1.
        -11    1    3    3    0    0 -0.35464977212E+02 -0.38263283546E+02 -0.17886625858E+03  0.18631956938E+03  0.00000000000E+00 0. -1.
         11    1    3    3    0    0  0.24800717437E+02  0.16548084622E+02 -0.26819598199E+02  0.40102438051E+02  0.00000000000E+00 0.  1.
</event>
<event>
 7    1  0.6610867E-006  0.1500118E+03  0.7561462E-02  0.1200459E+00
          1   -1    0    0  501    0  0.00000000000E+00  0.00000000000E+00  0.98771109997E+02  0.98771109997E+02  0.00000000000E+00 0. -1.
         -1   -1    0    0    0  501 -0.00000000000E+00 -0.00000000000E+00 -0.27145678795E+03  0.27145678795E+03  0.00000000000E+00 0.  1.
         23    2    1    2    0    0 -0.82779530646E+02  0.71236622212E+02 -0.14380462840E+03  0.20168116695E+03  0.89824355913E+02 0.  0.
          5    1    1    2  502    0  0.10054878409E+02 -0.88995680706E+02 -0.26646493890E+02  0.93535232938E+02  0.41800000000E+01 0. -1.
         -5    1    1    2    0  502  0.72724652237E+02  0.17759058495E+02 -0.22345556625E+01  0.75011498056E+02  0.41800000000E+01 0. -1.
        -11    1    3    3    0    0 -0.65603442326E+02  0.37090409548E+01 -0.99067292043E+02  0.11887765552E+03  0.00000000000E+00 0.  1.
         11    1    3    3    0    0 -0.17176088321E+02  0.67527581257E+02 -0.44737336354E+02  0.82803511426E+02  0.00000000000E+00 0. -1.
</event>
<event>
 7    1  0.6610867E-006  0.1419809E+03  0.7561462E-02  0.1210688E+00
          1   -1    0    0  501    0  0.00000000000E+00  0.00000000000E+00  0.65701793324E+02  0.65701793324E+02  0.00000000000E+00 0. -1.
         -1   -1    0    0    0  501 -0.00000000000E+00 -0.00000000000E+00 -0.43309860297E+03  0.43309860297E+03  0.00000000000E+00 0.  1.
         23    2    1    2    0    0  0.14391887421E+02 -0.10832885412E+03 -0.27217653224E+03  0.30734043612E+03  0.91846676118E+02 0.  0.
          5    1    1    2  502    0  0.41995645174E+02  0.10720915814E+02  0.45733141024E+00  0.43545996389E+02  0.41800000000E+01 0.  1.
         -5    1    1    2    0  502 -0.56387532595E+02  0.97607938309E+02 -0.95677608816E+02  0.14791396378E+03  0.41800000000E+01 0.  1.
        -11    1    3    3    0    0  0.39787153307E+02 -0.81387803033E+02 -0.11791098047E+03  0.14869428828E+03  0.00000000000E+00 0. -1.
         11    1    3    3    0    0 -0.25395265886E+02 -0.26941051089E+02 -0.15426555176E+03  0.15864614784E+03  0.00000000000E+00 0.  1.
</event>
<event>
 7    1  0.6610867E-006  0.1091125E+03  0.7561462E-02  0.1262222E+00
         -2   -1    0    0    0  501 -0.00000000000E+00  0.00000000000E+00  0.44853903597E+02  0.44853903597E+02  0.00000000000E+00 0.  1.
          2   -1    0    0  501    0  0.00000000000E+00 -0.00000000000E+00 -0.27981975254E+03  0.27981975254E+03  0.00000000000E+00 0. -1.
         23    2    1    2    0    0 -0.21174232719E+02 -0.22502283404E+02 -0.92998491040E+02  0.13295446333E+03  0.89852485181E+02 0.  0.
          5    1    1    2  502    0 -0.42245858523E+02  0.40480563560E+02 -0.91096544761E+02  0.10834870306E+03  0.41800000000E+01 0. -1.
         -5    1    1    2    0  502  0.63420091242E+02 -0.17978280156E+02 -0.50870813140E+02  0.83370489744E+02  0.41800000000E+01 0. -1.
        -11    1    3    3    0    0  0.34062292051E+02 -0.52451531224E+00 -0.45620044234E+02  0.56935957812E+02  0.00000000000E+00 0. -1.
         11    1    3    3    0    0 -0.55236524770E+02 -0.21977768092E+02 -0.47378446806E+02  0.76018505515E+02  0.00000000000E+00 0.  1.
</event>
<event>
 7    1  0.6610867E-006  0.8343837E+02  0.7561462E-02  0.1319568E+00
         -2   -1    0    0    0  501 -0.00000000000E+00  0.00000000000E+00  0.94494947844E+01  0.94494947844E+01  0.00000000000E+00 0.  1.
          2   -1    0    0  501    0  0.00000000000E+00 -0.00000000000E+00 -0.14213114546E+04  0.14213114546E+04  0.00000000000E+00 0. -1.
         23    2    1    2    0    0 -0.16397039931E+02  0.37025137786E+02 -0.44353006187E+03  0.45354343622E+03  0.85691358976E+02 0.  0.
          5    1    1    2  502    0 -0.55763724226E+00 -0.50862039011E+02 -0.93898728566E+03  0.94037325196E+03  0.41800000000E+01 0. -1.
         -5    1    1    2    0  502  0.16954677173E+02  0.13836901226E+02 -0.29344612260E+02  0.36844261185E+02  0.41800000000E+01 0. -1.
        -11    1    3    3    0    0  0.27407354816E+02 -0.10110585903E+02 -0.10696755816E+03  0.11088483009E+03  0.00000000000E+00 0.  1.
         11    1    3    3    0    0 -0.43804394748E+02  0.47135723688E+02 -0.33656250372E+03  0.34265860613E+03  0.00000000000E+00 0. -1.
</event>
<event>
 7    1  0.6610867E-006  0.1059253E+03  0.7561462E-02  0.1268307E+00
         -2   -1    0    0    0  501 -0.00000000000E+00  0.00000000000E+00  0.21726754282E+02  0.21726754282E+02  0.00000000000E+00 0.  1.
          2   -1    0    0  501    0  0.00000000000E+00 -0.00000000000E+00 -0.74043269767E+03  0.74043269767E+03  0.00000000000E+00 0. -1.
         23    2    1    2    0    0  0.46504635289E+02 -0.31316246537E+02 -0.18111204431E+03  0.20736474900E+03  0.83995107797E+02 0.  0.
          5    1    1    2  502    0  0.38371313246E+02 -0.13627649490E+02 -0.15732960050E+03  0.16256735867E+03  0.41800000000E+01 0.  1.
         -5    1    1    2    0  502 -0.84875948535E+02  0.44943896026E+02 -0.38026429858E+03  0.39222734428E+03  0.41800000000E+01 0.  1.
        -11    1    3    3    0    0 -0.43859870926E+01 -0.22762028748E+02 -0.13854090751E+03  0.14046682843E+03  0.00000000000E+00 0. -1.
         11    1    3    3    0    0  0.50890622381E+02 -0.85542177890E+01 -0.42571136799E+02  0.66897920571E+02  0.00000000000E+00 0.  1.
</event>
<event>
 7    1  0.6610867E-006  0.1880997E+03  0.7561462E-02  0.1160187E+00
         -2   -1    0    0    0  501 -0.00000000000E+00  0.00000000000E+00  0.78722651385E+02  0.78722651385E+02  0.00000000000E+00 0.  1.
          2   -1    0    0  501    0  0.00000000000E+00 -0.00000000000E+00 -0.55789814483E+03  0.55789814483E+03  0.00000000000E+00 0. -1.
         23    2    1    2    0    0 -0.15986986590E+02 -0.16653798276E+03 -0.13318919456E+03  0.23246055472E+03  0.91148584807E+02 0.  0.
          5    1    1    2  502    0  0.13699008114E+02  0.18115031089E+03 -0.26243079656E+03  0.31920290309E+03  0.41800000000E+01 0. -1.
         -5    1    1    2    0  502  0.22879784755E+01 -0.14612328123E+02 -0.83555502326E+02  0.84957338398E+02  0.41800000000E+01 0. -1.
        -11    1    3    3    0    0  0.24574985007E+02 -0.76766716548E+02 -0.21270848342E+02  0.83363707012E+02  0.00000000000E+00 0.  1.
         11    1    3    3    0    0 -0.40561971597E+02 -0.89771266217E+02 -0.11191834622E+03  0.14909684771E+03  0.00000000000E+00 0. -1.
</event>
<event>
 7    1  0.6610867E-006  0.8108157E+02  0.7561462E-02  0.1326010E+00
         -2   -1    0    0    0  501 -0.00000000000E+00  0.00000000000E+00  0.36734473913E+02  0.36734473913E+02  0.00000000000E+00 0.  1.
          2   -1    0    0  501    0  0.00000000000E+00 -0.00000000000E+00 -0.41059974881E+03  0.41059974881E+03  0.00000000000E+00 0. -1.
         23    2    1    2    0    0 -0.16964851629E+02  0.37104641861E+02 -0.94323297890E+02  0.13837402015E+03  0.92660262726E+02 0.  0.
          5    1    1    2  502    0  0.62042214212E+02 -0.32454416163E+02 -0.23513931968E+03  0.24537827437E+03  0.41800000000E+01 0. -1.
         -5    1    1    2    0  502 -0.45077362584E+02 -0.46502256980E+01 -0.44402657322E+02  0.63581928201E+02  0.41800000000E+01 0. -1.
        -11    1    3    3    0    0  0.38069803219E+01  0.17636087180E+02  0.16196946438E+02  0.24245942838E+02  0.00000000000E+00 0.  1.
         11    1    3    3    0    0 -0.20771831951E+02  0.19468554681E+02 -0.11052024433E+03  0.11412807731E+03  0.00000000000E+00 0. -1.
</event>
<event>
 7    1  0.6610867E-006  0.9259090E+02  0.7561462E-02  0.1296696E+00
          3   -1    0    0  501    0  0.00000000000E+00  0.00000000000E+00  0.81598265652E+02  0.81598265652E+02  0.00000000000E+00 0. -1.
         -3   -1    0    0    0  501 -0.00000000000E+00 -0.00000000000E+00 -0.16564147019E+03  0.16564147019E+03  0.00000000000E+00 0.  1.
         23    2    1    2    0    0  0.20754747664E+02 -0.43254884449E+02 -0.71986150566E+02  0.12464984018E+03  0.89743145720E+02 0.  0.
          5    1    1    2  502    0 -0.74771907746E+01 -0.18468228023E+02 -0.46347956729E+02  0.50622024072E+02  0.41800000000E+01 0. -1.
         -5    1    1    2    0  502 -0.13277556889E+02  0.61723112472E+02  0.34290902754E+02  0.71967871595E+02  0.41800000000E+01 0.  1.
        -11    1    3    3    0    0 -0.34812510158E+02 -0.25716302479E+02 -0.34680091323E+02  0.55461227996E+02  0.00000000000E+00 0. -1.
         11    1    3    3    0    0  0.55567257822E+02 -0.17538581970E+02 -0.37306059243E+02  0.69188612181E+02  0.00000000000E+00 0.  1.
</event>
<event>
 7    1  0.6610867E-006  0.9898896E+02  0.7561462E-02  0.1282436E+00
         -2   -1    0    0    0  501 -0.00000000000E+00  0.00000000000E+00  0.18669737641E+03  0.18669737641E+03  0.00000000000E+00 0.  1.
          2   -1    0    0  501    0  0.00000000000E+00 -0.00000000000E+00 -0.51840370226E+03  0.51840370226E+03  0.00000000000E+00 0. -1.
         23    2    1    2    0    0 -0.18429324032E+02  0.64901529917E+02  0.11464725079E+03  0.16117163689E+03  0.90997010133E+02 0.  0.
          5    1    1    2  502    0 -0.17418559047E+02 -0.36659299753E+02 -0.48332721342E+03  0.48504636695E+03  0.41800000000E+01 0. -1.
         -5    1    1    2    0  502  0.35847883080E+02 -0.28242230164E+02  0.36973636775E+02  0.58883074837E+02  0.41800000000E+01 0.  1.
        -11    1    3    3    0    0  0.31319448473E+02  0.23239711141E+01  0.19793060645E+02  0.37122418350E+02  0.00000000000E+00 0. -1.
         11    1    3    3    0    0 -0.49748772506E+02  0.62577558802E+02  0.94854190147E+02  0.12404921854E+03  0.00000000000E+00 0.  1.
</event>
<event>
 7    1  0.6610867E-006  0.1423759E+03  0.7561462E-02  0.1210167E+00
          3   -1    0    0  501    0  0.00000000000E+00  0.00000000000E+00  0.36008106201E+03  0.36008106201E+03  0.00000000000E+00 0. -1.
         -3   -1    0    0    0  501 -0.00000000000E+00 -0.00000000000E+00 -0.70940112220E+02  0.70940112220E+02  0.00000000000E+00 0.  1.
         23    2    1    2    0    0  0.10879616882E+03  0.36996476142E+02  0.66001573284E+02  0.15561665529E+03  0.81578122873E+02 0.  0.
          5    1    1    2  502    0  0.80939680891E+01 -0.24703426934E+02  0.10671734681E+03  0.10991740596E+03  0.41800000000E+01 0. -1.
         -5    1    1    2    0  502 -0.11689013691E+03 -0.12293049208E+02  0.11642202969E+03  0.16548711298E+03  0.41800000000E+01 0.  1.
        -11    1    3    3    0    0  0.12005826373E+03  0.43632937466E+02  0.61645972838E+02  0.14183809745E+03  0.00000000000E+00 0. -1.
         11    1    3    3    0    0 -0.11262094915E+02 -0.66364613244E+01  0.43556004455E+01  0.13778557835E+02  0.00000000000E+00 0.  1.
</event>
<event>
 7    1  0.6610867E-006  0.9928125E+02  0.7561462E-02  0.1281815E+00
         -3   -1    0    0    0  501 -0.00000000000E+00  0.00000000000E+00  0.25747832100E+03  0.25747832100E+03  0.00000000000E+00 0.  1.
          3   -1    0    0  501    0  0.00000000000E+00 -0.00000000000E+00 -0.55311939934E+02  0.55311939934E+02  0.00000000000E+00 0. -1.
         23    2    1    2    0    0 -0.28834097093E+02 -0.19361293761E+02  0.13840628874E+03  0.16814662504E+03  0.88942239105E+02 0.  0.
          5    1    1    2  502    0 -0.47045128404E+01 -0.37935566901E+02 -0.15241941898E+02  0.41364584731E+02  0.41800000000E+01 0.  1.
         -5    1    1    2    0  502  0.33538609934E+02  0.57296860662E+02  0.79002034221E+02  0.10327905116E+03  0.41800000000E+01 0.  1.
        -11    1    3    3    0    0 -0.20493425237E+02 -0.54104491662E+02  0.68699100660E+02  0.89815605144E+02  0.00000000000E+00 0.  1.
         11    1    3    3    0    0 -0.83406718558E+01  0.34743197900E+02  0.69707188082E+02  0.78331019894E+02  0.00000000000E+00 0. -1.
</event>
<event>
 7    1  0.6610867E-006  0.6108239E+02  0.7561462E-02  0.1393345E+00
          1   -1    0    0  501    0  0.00000000000E+00  0.00000000000E+00  0.38638156775E+03  0.38638156775E+03  0.00000000000E+00 0. -1.
         -1   -1    0    0    0  501 -0.00000000000E+00 -0.00000000000E+00 -0.58018801986E+02  0.58018801986E+02  0.00000000000E+00 0.  1.
         23    2    1    2    0    0 -0.50137305548E+02  0.12527105881E+02  0.16307814288E+02  0.10401517593E+03  0.88783637161E+02 0.  0.
          5    1    1    2  502    0  0.43509905424E+02 -0.27452839707E+02  0.31826267642E+03  0.32242111265E+03  0.41800000000E+01 0. -1.
         -5    1    1    2    0  502  0.66274001245E+01  0.14925733826E+02 -0.62077249501E+01  0.17964081154E+02  0.41800000000E+01 0.  1.
        -11    1    3    3    0    0 -0.39260896845E+02  0.15818098576E+02  0.51715314150E+02  0.66828915757E+02  0.00000000000E+00 0. -1.
         11    1    3    3    0    0 -0.10876408703E+02 -0.32909926957E+01 -0.35407499862E+02  0.37186260173E+02  0.00000000000E+00 0.  1.
</event>
<event>
 7    1  0.6610867E-006  0.1154780E+03  0.7561462E-02  0.1250749E+00
         -1   -1    0    0    0  501 -0.00000000000E+00  0.00000000000E+00  0.19740865794E+02  0.19740865794E+02  0.00000000000E+00 0.  1.
          1   -1    0    0  501    0  0.00000000000E+00 -0.00000000000E+00 -0.25577359867E+04  0.25577359867E+04  0.00000000000E+00 0. -1.
         23    2    1    2    0    0 -0.46045895617E+02 -0.48629437658E+02 -0.17942448462E+03  0.21464208030E+03  0.96917646704E+02 0.  0.
          5    1    1    2  502    0  0.22424408198E+02  0.90475095456E+02 -0.16315619580E+04  0.16342277969E+04  0.41800000000E+01 0. -1.
         -5    1    1    2    0  502  0.23621487419E+02 -0.41845657797E+02 -0.72700867825E+03  0.72860697526E+03  0.41800000000E+01 0. -1.
        -11    1    3    3    0    0  0.12544103543E+02 -0.21404708715E+02 -0.94312778972E+00  0.24827516567E+02  0.00000000000E+00 0.  1.
         11    1    3    3    0    0 -0.58589999160E+02 -0.27224728944E+02 -0.17848135683E+03  0.18981456373E+03  0.00000000000E+00 0. -1.
</event>
<event>
 7    1  0.6610867E-006  0.6195228E+02  0.7561462E-02  0.1389817E+00
         -2   -1    0    0    0  501 -0.00000000000E+00  0.00000000000E+00  0.53249110571E+02  0.53249110571E+02  0.00000000000E+00 0.  1.
          2   -1    0    0  501    0  0.00000000000E+00 -0.00000000000E+00 -0.24029989720E+03  0.24029989720E+03  0.00000000000E+00 0. -1.
         23    2    1    2    0    0  0.19463956121E+02  0.64221230571E+01 -0.61407437159E+02  0.11506931949E+03  0.95131412773E+02 0.  0.
          5    1    1    2  502    0  0.19111183249E+02  0.15256522157E+02  0.16337228480E+02  0.29704818260E+02  0.41800000000E+01 0. -1.
         -5    1    1    2    0  502 -0.38575139369E+02 -0.21678645214E+02 -0.14198057795E+03  0.14877487002E+03  0.41800000000E+01 0. -1.
        -11    1    3    3    0    0  0.36790100806E+02  0.62833931736E+01 -0.80836439003E+02  0.89036635256E+02  0.00000000000E+00 0. -1.
         11    1    3    3    0    0 -0.17326144685E+02  0.13872988350E+00  0.19429001843E+02  0.26032684231E+02  0.00000000000E+00 0.  1.
</event>
<event>
 7    1  0.6610867E-006  0.1016641E+03  0.7561462E-02  0.1276835E+00
         -3   -1    0    0    0  501 -0.00000000000E+00  0.00000000000E+00  0.66054044178E+02  0.66054044178E+02  0.00000000000E+00 0.  1.
          3   -1    0    0  501    0  0.00000000000E+00 -0.00000000000E+00 -0.19184281185E+03  0.19184281185E+03  0.00000000000E+00 0. -1.
         23    2    1    2    0    0  0.18133019921E+02 -0.50351758230E+01 -0.26574896412E+02  0.97141820041E+02  0.91521301753E+02 0.  0.
          5    1    1    2  502    0 -0.34829665612E+02  0.59627267617E+02 -0.56839319337E+02  0.89536011040E+02  0.41800000000E+01 0.  1.
         -5    1    1    2    0  502  0.16696645691E+02 -0.54592091794E+02 -0.42374551925E+02  0.71219024949E+02  0.41800000000E+01 0.  1.
        -11    1    3    3    0    0 -0.29304101715E+02 -0.18720741201E+01 -0.38216509865E+02  0.48194778401E+02  0.00000000000E+00 0. -1.
         11    1    3    3    0    0  0.47437121637E+02 -0.31631017028E+01  0.11641613453E+02  0.48947041640E+02  0.00000000000E+00 0.  1.
</event>
<event>
 7    1  0.6610867E-006  0.1944739E+03  0.7561462E-02  0.1154487E+00
          3   -1    0    0  501    0  0.00000000000E+00  0.00000000000E+00  0.19016737717E+03  0.19016737717E+03  0.00000000000E+00 0. -1.
         -3   -1    0    0    0  501 -0.00000000000E+00 -0.00000000000E+00 -0.27878926744E+03  0.27878926744E+03  0.00000000000E+00 0.  1.
         23    2    1    2    0    0  0.18235067162E+03  0.42037163985E+02 -0.12565962904E+03  0.24083777378E+03  0.84815094845E+02 0.  0.
          5    1    1    2  502    0 -0.15793763510E+03 -0.13738240232E+02 -0.19951820294E+02  0.15983924224E+03  0.41800000000E+01 0. -1.
         -5    1    1    2    0  502 -0.24413036518E+02 -0.28298923753E+02  0.56989559063E+02  0.68279628585E+02  0.41800000000E+01 0. -1.
        -11    1    3    3    0    0  0.82093571897E+02 -0.45069237731E+01 -0.95996883487E+02  0.12639251777E+03  0.00000000000E+00 0.  1.
         11    1    3    3    0    0  0.10025709972E+03  0.46544087758E+02 -0.29662745553E+02  0.11444525601E+03  0.00000000000E+00 0. -1.
</event>
<event>
 7    1  0.6610867E-006  0.1026753E+03  0.7561462E-02  0.1274769E+00
          1   -1    0    0  501    0  0.00000000000E+00  0.00000000000E+00  0.25786830805E+03  0.25786830805E+03  0.00000000000E+00 0. -1.
         -1   -1    0    0    0  501 -0.00000000000E+00 -0.00000000000E+00 -0.45345733223E+02  0.45345733223E+02  0.00000000000E+00 0.  1.
         23    2    1    2    0    0  0.17571516441E+02  0.15406690184E+02  0.87189822309E+02  0.12459727398E+03  0.85885337966E+02 0.  0.
          5    1    1    2  502    0  0.45735497771E+02 -0.31365102799E+02  0.30562626811E+02  0.63459057568E+02  0.41800000000E+01 0.  1.
         -5    1    1    2    0  502 -0.63307014212E+02  0.15958412614E+02  0.94770125702E+02  0.11515770972E+03  0.41800000000E+01 0.  1.
        -11    1    3    3    0    0  0.29838553712E+01 -0.33319038461E+02  0.55093711443E+02  0.64454470422E+02  0.00000000000E+00 0. -1.
         11    1    3    3    0    0  0.14587661070E+02  0.48725728646E+02  0.32096110866E+02  0.60142803562E+02  0.00000000000E+00 0.  1.
</event>
<event>
 7    1  0.6610867E-006  0.2035039E+03  0.7561462E-02  0.1146816E+00
          1   -1    0    0  501    0  0.00000000000E+00  0.00000000000E+00  0.47583392340E+03  0.47583392340E+03  0.00000000000E+00 0. -1.
         -1   -1    0    0    0  501 -0.00000000000E+00 -0.00000000000E+00 -0.95546066033E+02  0.95546066033E+02  0.00000000000E+00 0.  1.
         23    2    1    2    0    0 -0.10103888229E+03 -0.14480675862E+03  0.24771953231E+03  0.31760774668E+03  0.91279028194E+02 0.  0.
          5    1    1    2  502    0 -0.21883095001E+02  0.66922904370E+02  0.49385025628E+02  0.86103996031E+02  0.41800000000E+01 0. -1.
         -5    1    1    2    0  502  0.12292197729E+03  0.77883854248E+02  0.83183299433E+02  0.16766824672E+03  0.41800000000E+01 0. -1.
        -11    1    3    3    0    0 -0.10532716495E+03 -0.97920589413E+02  0.22041139670E+03  0.26317947736E+03  0.00000000000E+00 0. -1.
         11    1    3    3    0    0  0.42882826590E+01 -0.46886169206E+02  0.27308135609E+02  0.54428269322E+02  0.00000000000E+00 0.  1.
</event>
<event>
 7    1  0.6610867E-006  0.2973570E+03  0.7561462E-02  0.1086569E+00
          2   -1    0    0  501    0  0.00000000000E+00  0.00000000000E+00  0.12472851114E+04  0.12472851114E+04  0.00000000000E+00 0. -1.
         -2   -1    0    0    0  501 -0.00000000000E+00 -0.00000000000E+00 -0.10383757268E+03  0.10383757268E+03  0.00000000000E+00 0.  1.
         23    2    1    2    0    0 -0.20455089824E+03  0.57799096812E+02  0.23242259266E+03  0.32751061006E+03  0.89783810150E+02 0.  0.
          5    1    1    2  502    0  0.55059601978E+02  0.13038219264E+03  0.66404329153E+03  0.67897131114E+03  0.41800000000E+01 0. -1.
         -5    1    1    2    0  502  0.14949129626E+03 -0.18818128945E+03  0.24698165451E+03  0.34464076286E+03  0.41800000000E+01 0.  1.
        -11    1    3    3    0    0 -0.18121898637E+03  0.54150327961E+02  0.14890444567E+03  0.24071791163E+03  0.00000000000E+00 0.  1.
         11    1    3    3    0    0 -0.23331911869E+02  0.36487688515E+01  0.83518146985E+02  0.86792698433E+02  0.00000000000E+00 0. -1.
</event>
<event>
 7    1  0.6610867E-006  0.1423058E+03  0.7561462E-02  0.1210260E+00
         -1   -1    0    0    0  501 -0.00000000000E+00  0.00000000000E+00  0.88162338383E+02  0.88162338383E+02  0.00000000000E+00 0.  1.
          1   -1    0    0  501    0  0.00000000000E+00 -0.00000000000E+00 -0.28488549322E+03  0.28488549322E+03  0.00000000000E+00 0. -1.
         23    2    1    2    0    0 -0.99067208814E+02  0.55503971788E+02 -0.11198438578E+03  0.18404233079E+03  0.91848103500E+02 0.  0.
          5    1    1    2  502    0 -0.74882999723E+01 -0.60853578449E+02 -0.22665200687E+02  0.65501269977E+02  0.41800000000E+01 0. -1.
         -5    1    1    2    0  502  0.10655550879E+03  0.53496066602E+01 -0.62073568367E+02  0.12350423083E+03  0.41800000000E+01 0. -1.
        -11    1    3    3    0    0 -0.40699477493E+02  0.37400472608E+02 -0.10975864557E+03  0.12289102122E+03  0.00000000000E+00 0. -1.
         11    1    3    3    0    0 -0.58367731321E+02  0.18103499180E+02 -0.22257402102E+01  0.61151309566E+02  0.00000000000E+00 0.  1.
</event>
<event>
 7    1  0.6610867E-006  0.1058517E+03  0.7561462E-02  0.1268451E+00
          1   -1    0    0  501    0  0.00000000000E+00  0.00000000000E+00  0.14288078396E+04  0.14288078396E+04  0.00000000000E+00 0. -1.
         -1   -1    0    0    0  501 -0.00000000000E+00 -0.00000000000E+00 -0.14527865357E+02  0.14527865357E+02  0.00000000000E+00 0.  1.
         23    2    1    2    0    0 -0.25501542452E+02  0.32840090829E+02  0.20417736323E+03  0.22683787818E+03  0.89656160338E+02 0.  0.
          5    1    1    2  502    0  0.62327362054E+02 -0.48095080212E+02  0.95697659170E+03  0.96021846799E+03  0.41800000000E+01 0. -1.
         -5    1    1    2    0  502 -0.36825819602E+02  0.15254989383E+02  0.25312601928E+03  0.25627935877E+03  0.41800000000E+01 0.  1.
        -11    1    3    3    0    0 -0.53888693162E+02  0.68918730272E+01  0.15601764282E+03  0.16520591405E+03  0.00000000000E+00 0.  1.
         11    1    3    3    0    0  0.28387150710E+02  0.25948217802E+02  0.48159720409E+02  0.61631964129E+02  0.00000000000E+00 0. -1.
</event>
<event>
 7    1  0.6610867E-006  0.1154082E+03  0.7561462E-02  0.1250870E+00
         -2   -1    0    0    0  501 -0.00000000000E+00  0.00000000000E+00  0.25199960381E+02  0.25199960381E+02  0.00000000000E+00 0.  1.
          2   -1    0    0  501    0  0.00000000000E+00 -0.00000000000E+00 -0.11827939455E+04  0.11827939455E+04  0.00000000000E+00 0. -1.
         23    2    1    2    0    0  0.34614723141E+02 -0.97845317684E+02 -0.24384910081E+03  0.27990510714E+03  0.90069971622E+02 0.  0.
          5    1    1    2  502    0 -0.17556979930E+02 -0.71631744760E+01 -0.19466267650E+02  0.27494846591E+02  0.41800000000E+01 0. -1.
         -5    1    1    2    0  502 -0.17057743211E+02  0.10500849216E+03 -0.89427861669E+03  0.90059395218E+03  0.41800000000E+01 0. -1.
        -11    1    3    3    0    0  0.19323110615E+02 -0.32405208789E+02 -0.13690724038E+02  0.40136219119E+02  0.00000000000E+00 0.  1.
         11    1    3    3    0    0  0.15291612527E+02 -0.65440108894E+02 -0.23015837677E+03  0.23976888802E+03  0.00000000000E+00 0. -1.
</event>
<event>
 7    1  0.6610867E-006  0.1018559E+03  0.7561462E-02  0.1276441E+00
         -1   -1    0    0    0  501 -0.00000000000E+00  0.00000000000E+00  0.26247196417E+02  0.26247196417E+02  0.00000000000E+00 0.  1.
          1   -1    0    0  501    0  0.00000000000E+00 -0.00000000000E+00 -0.49733082282E+03  0.49733082282E+03  0.00000000000E+00 0. -1.
         23    2    1    2    0    0 -0.33040553393E+02  0.72796154621E+01 -0.21841100055E+03  0.23961318676E+03  0.92555081636E+02 0.  0.
          5    1    1    2  502    0  0.76711943126E+02 -0.91911547549E+01 -0.20516981240E+03  0.21927453993E+03  0.41800000000E+01 0.  1.
         -5    1    1    2    0  502 -0.43671389734E+02  0.19115392927E+01 -0.47502813459E+02  0.64690292550E+02  0.41800000000E+01 0.  1.
        -11    1    3    3    0    0 -0.49574393441E+02  0.27193234973E+02 -0.20002907236E+03  0.20786707844E+03  0.00000000000E+00 0. -1.
         11    1    3    3    0    0  0.16533840049E+02 -0.19913619511E+02 -0.18381928192E+02  0.31746108310E+02  0.00000000000E+00 0.  1.
</event>
<event>
 7    1  0.6610867E-006  0.2357305E+03  0.7561462E-02  0.1122670E+00
          3   -1    0    0  501    0  0.00000000000E+00  0.00000000000E+00  0.26626164854E+03  0.26626164854E+03  0.00000000000E+00 0. -1.
         -3   -1    0    0    0  501 -0.00000000000E+00 -0.00000000000E+00 -0.25465883835E+03  0.25465883835E+03  0.00000000000E+00 0.  1.
         23    2    1    2    0    0 -0.18179777352E+03 -0.13614097659E+03  0.71260850357E+02  0.25485168629E+03  0.91030089787E+02 0.  0.
          5    1    1    2  502    0  0.10810916344E+03  0.35848218935E+02  0.23446153336E+02  0.11636099229E+03  0.41800000000E+01 0.  1.
         -5    1    1    2    0  502  0.73688610078E+02  0.10029275766E+03 -0.83104193499E+02  0.14970780832E+03  0.41800000000E+01 0.  1.
        -11    1    3    3    0    0 -0.10559385411E+03 -0.46696647325E+02 -0.36213322759E+01  0.11551516327E+03  0.00000000000E+00 0.  1.
         11    1    3    3    0    0 -0.76203919402E+02 -0.89444329268E+02  0.74882182632E+02  0.13933652302E+03  0.00000000000E+00 0. -1.
</event>
<event>
 7    1  0.6610867E-006  0.2050374E+03  0.7561462E-02  0.1145557E+00
         -2   -1    0    0    0  501 -0.00000000000E+00  0.00000000000E+00  0.21927784165E+02  0.21927784165E+02  0.00000000000E+00 0.  1.
          2   -1    0    0  501    0  0.00000000000E+00 -0.00000000000E+00 -0.19528993361E+04  0.19528993361E+04  0.00000000000E+00 0. -1.
         23    2    1    2    0    0  0.11623308431E+03 -0.12855725302E+03 -0.79700414164E+03  0.82089120697E+03  0.92788332749E+02 0.  0.
          5    1    1    2  502    0  0.21201788252E+01 -0.21743879404E+02 -0.10557892284E+03  0.10789658381E+03  0.41800000000E+01 0. -1.
         -5    1    1    2    0  502 -0.11835326314E+03  0.15030113242E+03 -0.10283884874E+04  0.10460393295E+04  0.41800000000E+01 0. -1.
        -11    1    3    3    0    0  0.61897383121E+02 -0.57191372217E+01 -0.23966535637E+03  0.24759539094E+03  0.00000000000E+00 0.  1.
         11    1    3    3    0    0  0.54335701193E+02 -0.12283811580E+03 -0.55733878527E+03  0.57329581603E+03  0.00000000000E+00 0. -1.
</event>
<event>
 7    1  0.6610867E-006  0.1256639E+03  0.7561462E-02  0.1234035E+00
          1   -1    0    0  501    0  0.00000000000E+00  0.00000000000E+00  0.63158160504E+03  0.63158160504E+03  0.00000000000E+00 0. -1.
         -1   -1    0    0    0  501 -0.00000000000E+00 -0.00000000000E+00 -0.35238139790E+02  0.35238139790E+02  0.00000000000E+00 0.  1.
         23    2    1    2    0    0 -0.57171613896E+02  0.75624246843E+02  0.18992044201E+03  0.23114232118E+03  0.91484305775E+02 0.  0.
          5    1    1    2  502    0 -0.13335698526E+02  0.16666727161E+02  0.12758426164E+02  0.25216472545E+02  0.41800000000E+01 0. -1.
         -5    1    1    2    0  502  0.70507312421E+02 -0.92290974004E+02  0.39366459708E+03  0.41046095111E+03  0.41800000000E+01 0. -1.
        -11    1    3    3    0    0 -0.18140118184E+02  0.71898194872E+02  0.59851878626E+02  0.95292505942E+02  0.00000000000E+00 0.  1.
         11    1    3    3    0    0 -0.39031495712E+02  0.37260519715E+01  0.13006856338E+03  0.13584981524E+03  0.00000000000E+00 0. -1.
</event>
<event>
 7    1  0.6610867E-006  0.2304685E+03  0.7561462E-02  0.1126310E+00
         -2   -1    0    0    0  501 -0.00000000000E+00  0.00000000000E+00  0.63970755301E+02  0.63970755301E+02  0.00000000000E+00 0.  1.
          2   -1    0    0  501    0  0.00000000000E+00 -0.00000000000E+00 -0.10388889704E+04  0.10388889704E+04  0.00000000000E+00 0. -1.
         23    2    1    2    0    0  0.17493835580E+02 -0.54433527640E+02 -0.45857076001E+02  0.91694898750E+02  0.55100270624E+02 0.  0.
          5    1    1    2  502    0 -0.19461454151E+03 -0.70538507294E+01 -0.61773121009E+03  0.64771436367E+03  0.41800000000E+01 0. -1.
         -5    1    1    2    0  502  0.17712070593E+03  0.61487378369E+02 -0.31132992901E+03  0.36345046329E+03  0.41800000000E+01 0.  1.
        -11    1    3    3    0    0 -0.17583209484E+02 -0.33312679823E+02 -0.28442597427E+02  0.47200479247E+02  0.00000000000E+00 0.  1.
         11    1    3    3    0    0  0.35077045064E+02 -0.21120847817E+02 -0.17414478574E+02  0.44494419504E+02  0.00000000000E+00 0. -1.
</event>
<event>
 7    1  0.6610867E-006  0.9147397E+02  0.7561462E-02  0.1299321E+00
          1   -1    0    0  501    0  0.00000000000E+00  0.00000000000E+00  0.24187319928E+03  0.24187319928E+03  0.00000000000E+00 0. -1.
         -1   -1    0    0    0  501 -0.00000000000E+00 -0.00000000000E+00 -0.63587366661E+02  0.63587366661E+02  0.00000000000E+00 0.  1.
         23    2    1    2    0    0  0.19460489539E+01 -0.67181982065E+02  0.50902825351E+02  0.12393718921E+03  0.90841198910E+02 0.  0.
          5    1    1    2  502    0  0.14460959925E+02  0.46693853893E+02  0.14266476056E+03  0.15086464682E+03  0.41800000000E+01 0. -1.
         -5    1    1    2    0  502 -0.16407008879E+02  0.20488128172E+02 -0.15281753294E+02  0.30658729916E+02  0.41800000000E+01 0.  1.
        -11    1    3    3    0    0  0.20009569959E+02 -0.81712355411E+02  0.22132710035E+02  0.86989360098E+02  0.00000000000E+00 0.  1.
         11    1    3    3    0    0 -0.18063521005E+02  0.14530373346E+02  0.28770115316E+02  0.36947829110E+02  0.00000000000E+00 0. -1.
</event>
<event>
 7    1  0.6610867E-006  0.1056664E+03  0.7561462E-02  0.1268812E+00
          2   -1    0    0  501    0  0.00000000000E+00  0.00000000000E+00  0.25261731686E+02  0.25261731686E+02  0.00000000000E+00 0. -1.
         -2   -1    0    0    0  501 -0.00000000000E+00 -0.00000000000E+00 -0.51102290116E+03  0.51102290116E+03  0.00000000000E+00 0.  1.
         23    2    1    2    0    0 -0.55836922744E+01  0.35656619161E+02 -0.28529541456E+03  0.30257612479E+03  0.94107734100E+02 0.  0.
          5    1    1    2  502    0  0.39958290090E+01  0.41786760052E+02 -0.79685217266E+02  0.90162665310E+02  0.41800000000E+01 0. -1.
         -5    1    1    2    0  502  0.15878632654E+01 -0.77443379213E+02 -0.12078053766E+03  0.14354584275E+03  0.41800000000E+01 0.  1.
        -11    1    3    3    0    0 -0.41512628247E+02  0.80539999836E+00 -0.68701227809E+02  0.80273318579E+02  0.00000000000E+00 0.  1.
         11    1    3    3    0    0  0.35928935973E+02  0.34851219163E+02 -0.21659418675E+03  0.22230280621E+03  0.00000000000E+00 0. -1.
</event>
<event>
 7    1  0.6610867E-006  0.1066897E+03  0.7561462E-02  0.1266826E+00
          1   -1    0    0  501    0  0.00000000000E+00  0.00000000000E+00  0.52872553989E+03  0.52872553989E+03  0.00000000000E+00 0. -1.
         -1   -1    0    0    0  501 -0.00000000000E+00 -0.00000000000E+00 -0.41237287210E+02  0.41237287210E+02  0.00000000000E+00 0.  1.
         23    2    1    2    0    0  0.12229068021E+02 -0.20366902929E+02  0.34288555719E+02  0.98511479392E+02  0.89243743081E+02 0.  0.
          5    1    1    2  502    0  0.55225016581E+02  0.21432880156E+02  0.16291088494E+03  0.17339723078E+03  0.41800000000E+01 0. -1.
         -5    1    1    2    0  502 -0.67454084602E+02 -0.10659772271E+01  0.29028881201E+03  0.29805411693E+03  0.41800000000E+01 0.  1.
        -11    1    3    3    0    0  0.43830637441E+02  0.72588055071E+01  0.34957667996E+02  0.56531881161E+02  0.00000000000E+00 0. -1.
         11    1    3    3    0    0 -0.31601569419E+02 -0.27625708436E+02 -0.66911227719E+00  0.41979598231E+02  0.00000000000E+00 0.  1.
</event>
<event>
 7    1  0.6610867E-006  0.1144208E+03  0.7561462E-02  0.1252596E+00
          2   -1    0    0  501    0  0.00000000000E+00  0.00000000000E+00  0.53795196678E+03  0.53795196678E+03  0.00000000000E+00 0.  1.
         -2   -1    0    0    0  501 -0.00000000000E+00 -0.00000000000E+00 -0.46540392212E+02  0.46540392212E+02  0.00000000000E+00 0. -1.
         23    2    1    2    0    0 -0.50971569666E+02 -0.83190543126E+02  0.12131533415E+03  0.18182835541E+03  0.93943457202E+02 0.  0.
          5    1    1    2  502    0  0.15007778099E+02  0.76390209437E+02  0.35396296384E+03  0.36244716811E+03  0.41800000000E+01 0.  1.
         -5    1    1    2    0  502  0.35963791567E+02  0.68003336889E+01  0.16133276576E+02  0.40216835470E+02  0.41800000000E+01 0.  1.
        -11    1    3    3    0    0 -0.61016122157E+02 -0.48556950381E+02  0.12310372499E+03  0.14572327096E+03  0.00000000000E+00 0.  1.
         11    1    3    3    0    0  0.10044552491E+02 -0.34633592745E+02 -0.17883908395E+01  0.36105084448E+02  0.00000000000E+00 0. -1.
</event>
<event>
 7    1  0.6610867E-006  0.1645078E+03  0.7561462E-02  0.1183699E+00
          2   -1    0    0  501    0  0.00000000000E+00  0.00000000000E+00  0.17403135624E+03  0.17403135624E+03  0.00000000000E+00 0. -1.
         -2   -1    0    0    0  501 -0.00000000000E+00 -0.00000000000E+00 -0.18405081364E+03  0.18405081364E+03  0.00000000000E+00 0.  1.
         23    2    1    2    0    0  0.90372284701E+02  0.10751321613E+03 -0.23880684627E+02  0.16949095091E+03  0.91818592105E+02 0.  0.
          5    1    1    2  502    0 -0.66922513774E+02 -0.13550429298E+03  0.14031380877E+02  0.15183671596E+03  0.41800000000E+01 0. -1.
         -5    1    1    2    0  502 -0.23449770926E+02  0.27991076848E+02 -0.17015364577E+00  0.36754503015E+02  0.41800000000E+01 0. -1.
        -11    1    3    3    0    0  0.72596895554E+02  0.77490618402E+02 -0.57743868307E+02  0.12086959713E+03  0.00000000000E+00 0.  1.
         11    1    3    3    0    0  0.17775389147E+02  0.30022597728E+02  0.33863183680E+02  0.48621353772E+02  0.00000000000E+00 0. -1.
</event>
<event>
 7    1  0.6610867E-006  0.1879335E+03  0.7561462E-02  0.1160338E+00
         -2   -1    0    0    0  501 -0.00000000000E+00  0.00000000000E+00  0.31457657308E+02  0.31457657308E+02  0.00000000000E+00 0.  1.
          2   -1    0    0  501    0  0.00000000000E+00 -0.00000000000E+00 -0.15269527960E+04  0.15269527960E+04  0.00000000000E+00 0. -1.
         23    2    1    2    0    0  0.16592216524E+03  0.54770551813E+02 -0.45214528958E+03  0.49316162270E+03  0.90791216231E+02 0.  0.
          5    1    1    2  502    0 -0.13772425959E+03 -0.73475535676E+02 -0.58021484237E+03  0.60086051770E+03  0.41800000000E+01 0. -1.
         -5    1    1    2    0  502 -0.28197905642E+02  0.18704983862E+02 -0.46313500670E+03  0.46438831288E+03  0.41800000000E+01 0. -1.
        -11    1    3    3    0    0  0.15646787743E+03  0.30286685069E+02 -0.43079104948E+03  0.45932603700E+03  0.00000000000E+00 0. -1.
         11    1    3    3    0    0  0.94542878084E+01  0.24483866744E+02 -0.21354240110E+02  0.33835585696E+02  0.00000000000E+00 0.  1.
</event>
<event>
 7    1  0.6610867E-006  0.1499722E+03  0.7561462E-02  0.1200507E+00
         -4   -1    0    0    0  501 -0.00000000000E+00  0.00000000000E+00  0.12731271220E+03  0.12731271220E+03  0.00000000000E+00 0. -1.
          4   -1    0    0  501    0  0.00000000000E+00 -0.00000000000E+00 -0.20146978241E+03  0.20146978241E+03  0.00000000000E+00 0.  1.
         23    2    1    2    0    0 -0.11586280161E+03  0.30695964363E+01 -0.30831408631E+02  0.15282985613E+03  0.94724748337E+02 0.  0.
          5    1    1    2  502    0  0.94958976915E+02  0.42232396917E+02 -0.63624009362E+02  0.12192731283E+03  0.41800000000E+01 0. -1.
         -5    1    1    2    0  502  0.20903824696E+02 -0.45301993354E+02  0.20298347780E+02  0.54025325648E+02  0.41800000000E+01 0. -1.
        -11    1    3    3    0    0 -0.96199703047E+02  0.39876209827E+02 -0.60852871183E+01  0.10431455170E+03  0.00000000000E+00 0. -1.
         11    1    3    3    0    0 -0.19663098564E+02 -0.36806613391E+02 -0.24746121513E+02  0.48515304434E+02  0.00000000000E+00 0.  1.
</event>
<event>
 7    1  0.6610867E-006  0.8800437E+02  0.7561462E-02  0.1307758E+00
          4   -1    0    0  501    0  0.00000000000E+00  0.00000000000E+00  0.42407333509E+02  0.42407333509E+02  0.00000000000E+00 0. -1.
         -4   -1    0    0    0  501 -0.00000000000E+00 -0.00000000000E+00 -0.34669792751E+03  0.34669792751E+03  0.00000000000E+00 0.  1.
         23    2    1    2    0    0 -0.23099872570E+02  0.47744293855E+02 -0.14286331424E+03  0.17810853105E+03  0.92193278327E+02 0.  0.
          5    1    1    2  502    0  0.33381539602E+02 -0.48689648773E+02 -0.11046389122E+02  0.60203855329E+02  0.41800000000E+01 0. -1.
         -5    1    1    2    0  502 -0.10281667032E+02  0.94535491782E+00 -0.15038089064E+03  0.15079287464E+03  0.41800000000E+01 0. -1.
        -11    1    3    3    0    0  0.22662558547E+02 -0.15621611433E+02 -0.46437201674E+02  0.53981848829E+02  0.00000000000E+00 0.  1.
         11    1    3    3    0    0 -0.45762431117E+02  0.63365905288E+02 -0.96426112565E+02  0.12412668222E+03  0.00000000000E+00 0. -1.
</event>
<event>
 7    1  0.6610867E-006  0.1636102E+03  0.7561462E-02  0.1184680E+00
          2   -1    0    0  501    0  0.00000000000E+00  0.00000000000E+00  0.43089095673E+02  0.43089095673E+02  0.00000000000E+00 0. -1.
         -2   -1    0    0    0  501 -0.00000000000E+00 -0.00000000000E+00 -0.73865155268E+03  0.73865155268E+03  0.00000000000E+00 0.  1.
         23    2    1    2    0    0 -0.12256532590E+03  0.46392988078E+02 -0.44128237431E+03  0.46952186259E+03  0.92444995067E+02 0.  0.
          5    1    1    2  502    0  0.14946927496E+02  0.36157894744E+02 -0.27729407420E+02  0.48137266538E+02  0.41800000000E+01 0.  1.
         -5    1    1    2    0  502  0.10761839841E+03 -0.82550882822E+02 -0.22655067527E+03  0.26408151923E+03  0.41800000000E+01 0.  1.
        -11    1    3    3    0    0 -0.10892689365E+03  0.54980603175E+01 -0.37429773530E+03  0.38986419620E+03  0.00000000000E+00 0.  1.
         11    1    3    3    0    0 -0.13638432248E+02  0.40894927760E+02 -0.66984639016E+02  0.79657666391E+02  0.00000000000E+00 0. -1.
</event>
<event>
 7    1  0.6610867E-006  0.1196625E+03  0.7561462E-02  0.1243655E+00
         -1   -1    0    0    0  501 -0.00000000000E+00  0.00000000000E+00  0.32103560973E+02  0.32103560973E+02  0.00000000000E+00 0.  1.
          1   -1    0    0  501    0  0.00000000000E+00 -0.00000000000E+00 -0.56176099519E+03  0.56176099519E+03  0.00000000000E+00 0. -1.
         23    2    1    2    0    0  0.14772456001E+01  0.65172895015E+02 -0.14027773020E+03  0.17972189837E+03  0.91500987240E+02 0.  0.
          5    1    1    2  502    0 -0.52930310874E+02 -0.15010268884E+02 -0.84779956997E+02  0.10115354413E+03  0.41800000000E+01 0.  1.
         -5    1    1    2    0  502  0.51453065273E+02 -0.50162626131E+02 -0.30459974702E+03  0.31298911366E+03  0.41800000000E+01 0.  1.
        -11    1    3    3    0    0 -0.40734468403E+02  0.55531408522E+02 -0.91024368671E+02  0.11414232318E+03  0.00000000000E+00 0. -1.
         11    1    3    3    0    0  0.42211714004E+02  0.96414864925E+01 -0.49253361530E+02  0.65579575196E+02  0.00000000000E+00 0.  1.
</event>
<event>
 7    1  0.6610867E-006  0.1273681E+03  0.7561462E-02  0.1231414E+00
          4   -1    0    0  501    0  0.00000000000E+00  0.00000000000E+00  0.57660442440E+02  0.57660442440E+02  0.00000000000E+00 0. -1.
         -4   -1    0    0    0  501 -0.00000000000E+00 -0.00000000000E+00 -0.36105550950E+03  0.36105550950E+03  0.00000000000E+00 0.  1.
         23    2    1    2    0    0  0.23736214550E+02  0.61682706094E+02 -0.12071005145E+03  0.18765342630E+03  0.12757244127E+03 0.  0.
          5    1    1    2  502    0 -0.58776918632E+02 -0.76636716418E+02 -0.95798534394E+02  0.13609828823E+03  0.41800000000E+01 0. -1.
         -5    1    1    2    0  502  0.35040704082E+02  0.14954010323E+02 -0.86886481218E+02  0.94964237405E+02  0.41800000000E+01 0. -1.
        -11    1    3    3    0    0 -0.23692835567E+02  0.67888821039E+02 -0.11990629384E+03  0.13981331046E+03  0.00000000000E+00 0.  1.
         11    1    3    3    0    0  0.47429050117E+02 -0.62061149448E+01 -0.80375760622E+00  0.47840115844E+02  0.00000000000E+00 0. -1.
</event>
<event>
 7    1  0.6610867E-006  0.7382051E+02  0.7561462E-02  0.1347563E+00
         -2   -1    0    0    0  501 -0.00000000000E+00  0.00000000000E+00  0.47668540309E+02  0.47668540309E+02  0.00000000000E+00 0.  1.
          2   -1    0    0  501    0  0.00000000000E+00 -0.00000000000E+00 -0.35555364982E+03  0.35555364982E+03  0.00000000000E+00 0. -1.
         23    2    1    2    0    0  0.15101727371E+02 -0.96373088798E+00 -0.64145138721E+02  0.12881779517E+03  0.11068168134E+03 0.  0.
          5    1    1    2  502    0  0.16002261062E+02  0.76784422223E+01  0.85087648846E+01  0.20122184621E+02  0.41800000000E+01 0. -1.
         -5    1    1    2    0  502 -0.31103988433E+02 -0.67147113343E+01 -0.25224873568E+03  0.25428221034E+03  0.41800000000E+01 0. -1.
        -11    1    3    3    0    0  0.53236076546E+02  0.15980892706E+02 -0.41505986442E+01  0.55737745261E+02  0.00000000000E+00 0.  1.
         11    1    3    3    0    0 -0.38134349175E+02 -0.16944623594E+02 -0.59994540076E+02  0.73080049909E+02  0.00000000000E+00 0. -1.
</event>
<event>
 7    1  0.6610867E-006  0.2197405E+03  0.7561462E-02  0.1134077E+00
          3   -1    0    0  501    0  0.00000000000E+00  0.00000000000E+00  0.66706060228E+03  0.66706060228E+03  0.00000000000E+00 0. -1.
         -3   -1    0    0    0  501 -0.00000000000E+00 -0.00000000000E+00 -0.80153839666E+02  0.80153839666E+02  0.00000000000E+00 0.  1.
         23    2    1    2    0    0 -0.20035357727E+03  0.28953168366E+02  0.23101478053E+03  0.31909421381E+03  0.86449098192E+02 0.  0.
          5    1    1    2  502    0  0.14477253126E+03 -0.64104044585E+02  0.30904935900E+03  0.34727135361E+03  0.41800000000E+01 0.  1.
         -5    1    1    2    0  502  0.55581046016E+02  0.35150876219E+02  0.46842623087E+02  0.80848874531E+02  0.41800000000E+01 0.  1.
        -11    1    3    3    0    0 -0.12748745321E+03  0.53573335246E+02  0.11477406315E+03  0.17971154261E+03  0.00000000000E+00 0. -1.
         11    1    3    3    0    0 -0.72866124063E+02 -0.24620166881E+02  0.11624071738E+03  0.13938267120E+03  0.00000000000E+00 0.  1.
</event>
<event>
 7    1  0.6610867E-006  0.8006905E+02  0.7561462E-02  0.1328856E+00
         -1   -1    0    0    0  501 -0.00000000000E+00  0.00000000000E+00  0.62550253656E+02  0.62550253656E+02  0.00000000000E+00 0.  1.
          1   -1    0    0  501    0  0.00000000000E+00 -0.00000000000E+00 -0.29712812554E+03  0.29712812554E+03  0.00000000000E+00 0. -1.
         23    2    1    2    0    0 -0.60290851550E+02 -0.11031096997E+02 -0.33143638991E+02  0.11477080293E+03  0.91198489675E+02 0.  0.
          5    1    1    2  502    0  0.20027028935E+02  0.10163572251E+02 -0.20310302946E+03  0.20438369080E+03  0.41800000000E+01 0.  1.
         -5    1    1    2    0  502  0.40263822615E+02  0.86752474538E+00  0.16687965699E+01  0.40523885460E+02  0.41800000000E+01 0.  1.
        -11    1    3    3    0    0 -0.67792512759E+02  0.15239098962E+02  0.28981359697E+01  0.69544619601E+02  0.00000000000E+00 0.  1.
         11    1    3    3    0    0  0.75016612086E+01 -0.26270195959E+02 -0.36041774960E+02  0.45226183333E+02  0.00000000000E+00 0. -1.
</event>
<event>
 7    1  0.6610867E-006  0.9143980E+02  0.7561462E-02  0.1299402E+00
          2   -1    0    0  501    0  0.00000000000E+00  0.00000000000E+00  0.71893924013E+03  0.71893924013E+03  0.00000000000E+00 0.  1.
         -2   -1    0    0    0  501 -0.00000000000E+00 -0.00000000000E+00 -0.22256269062E+02  0.22256269062E+02  0.00000000000E+00 0. -1.
         23    2    1    2    0    0  0.24705226740E+02  0.37506890600E+02  0.17176767706E+03  0.19971517929E+03  0.91459843015E+02 0.  0.
          5    1    1    2  502    0  0.36607721667E+01 -0.58557163668E+02  0.48273042097E+03  0.48630080650E+03  0.41800000000E+01 0.  1.
         -5    1    1    2    0  502 -0.28365998907E+02  0.21050273068E+02  0.42184873032E+02  0.55179523403E+02  0.41800000000E+01 0.  1.
        -11    1    3    3    0    0 -0.22244599327E+02 -0.74771190825E+01  0.10066632587E+03  0.10336555845E+03  0.00000000000E+00 0.  1.
         11    1    3    3    0    0  0.46949826067E+02  0.44984009682E+02  0.71101351189E+02  0.96349620839E+02  0.00000000000E+00 0. -1.
</event>
<event>
 7    1  0.6610867E-006  0.1407627E+03  0.7561462E-02  0.1212306E+00
         -1   -1    0    0    0  501 -0.00000000000E+00  0.00000000000E+00  0.29673372564E+02  0.29673372564E+02  0.00000000000E+00 0.  1.
          1   -1    0    0  501    0  0.00000000000E+00 -0.00000000000E+00 -0.99289053768E+03  0.99289053768E+03  0.00000000000E+00 0. -1.
         23    2    1    2    0    0 -0.86779348934E+02 -0.89194351612E+02 -0.31980544942E+03  0.35539662196E+03  0.92438875274E+02 0.  0.
          5    1    1    2  502    0  0.53746165973E+02  0.69012433073E+02 -0.16175049755E+03  0.18393493995E+03  0.41800000000E+01 0.  1.
         -5    1    1    2    0  502  0.33033182961E+02  0.20181918539E+02 -0.48166121815E+03  0.48323234834E+03  0.41800000000E+01 0.  1.
        -11    1    3    3    0    0 -0.49605624831E+02 -0.10382653651E+03 -0.23821501888E+03  0.26455068119E+03  0.00000000000E+00 0.  1.
         11    1    3    3    0    0 -0.37173724103E+02  0.14632184900E+02 -0.81590430543E+02  0.90845940773E+02  0.00000000000E+00 0. -1.
</event>
<event>
 7    1  0.6610867E-006  0.1005934E+03  0.7561462E-02  0.1279053E+00
          1   -1    0    0  501    0  0.00000000000E+00  0.00000000000E+00  0.31589241974E+03  0.31589241974E+03  0.00000000000E+00 0. -1.
         -1   -1    0    0    0  501 -0.00000000000E+00 -0.00000000000E+00 -0.83459761520E+02  0.83459761520E+02  0.00000000000E+00 0.  1.
         23    2    1    2    0    0 -0.22457306454E+01 -0.90232610826E+01 -0.42557509282E+02  0.10084840827E+03  0.90954919099E+02 0.  0.
          5    1    1    2  502    0 -0.72034227994E+01  0.61365222660E+02  0.12965477563E+03  0.14368511786E+03  0.41800000000E+01 0. -1.
         -5    1    1    2    0  502  0.94491534448E+01 -0.52341961577E+02  0.14533539187E+03  0.15481865512E+03  0.41800000000E+01 0.  1.
        -11    1    3    3    0    0 -0.42570839033E+02 -0.15010618487E+02 -0.39473763643E+02  0.59964764816E+02  0.00000000000E+00 0.  1.
         11    1    3    3    0    0  0.40325108388E+02  0.59873574047E+01 -0.30837456397E+01  0.40883643457E+02  0.00000000000E+00 0. -1.
</event>
<event>
 7    1  0.6610867E-006  0.9735056E+02  0.7561462E-02  0.1285968E+00
         -2   -1    0    0    0  501 -0.00000000000E+00  0.00000000000E+00  0.84189259909E+02  0.84189259909E+02  0.00000000000E+00 0.  1.
          2   -1    0    0  501    0  0.00000000000E+00 -0.00000000000E+00 -0.21536965363E+03  0.21536965363E+03  0.00000000000E+00 0. -1.
         23    2    1    2    0    0 -0.65384278717E+02  0.40066937384E+02 -0.79024824684E+02  0.14384151436E+03  0.92547257998E+02 0.  0.
          5    1    1    2  502    0  0.15761529898E+02  0.15463498720E+02 -0.74530420935E+02  0.77844727902E+02  0.41800000000E+01 0.  1.
         -5    1    1    2    0  502  0.49622748820E+02 -0.55530436105E+02  0.22374851895E+02  0.77872671277E+02  0.41800000000E+01 0.  1.
        -11    1    3    3    0    0 -0.71469635591E+02  0.16567281015E+02 -0.14341718131E+02  0.74753384476E+02  0.00000000000E+00 0.  1.
         11    1    3    3    0    0  0.60853568737E+01  0.23499656370E+02 -0.64683106553E+02  0.69088129886E+02  0.00000000000E+00 0. -1.
</event>
<event>
 7    1  0.6610867E-006  0.7947351E+02  0.7561462E-02  0.1330552E+00
         -2   -1    0    0    0  501 -0.00000000000E+00  0.00000000000E+00  0.58162103445E+02  0.58162103445E+02  0.00000000000E+00 0. -1.
          2   -1    0    0  501    0  0.00000000000E+00 -0.00000000000E+00 -0.22353458599E+03  0.22353458599E+03  0.00000000000E+00 0.  1.
         23    2    1    2    0    0 -0.38032883466E+01 -0.28008312397E+02 -0.53453076160E+02  0.11148201553E+03  0.93659371499E+02 0.  0.
          5    1    1    2  502    0 -0.26260620688E+02  0.30945257880E+02  0.12055352212E+02  0.42544483792E+02  0.41800000000E+01 0. -1.
         -5    1    1    2    0  502  0.30063909035E+02 -0.29369454823E+01 -0.12397475860E+03  0.12767019012E+03  0.41800000000E+01 0. -1.
        -11    1    3    3    0    0 -0.28877600443E+02 -0.47705973101E+02 -0.85616229056E+01  0.56418765173E+02  0.00000000000E+00 0.  1.
         11    1    3    3    0    0  0.25074312097E+02  0.19697660704E+02 -0.44891453255E+02  0.55063250355E+02  0.00000000000E+00 0. -1.
</event>
<event>
 7    1  0.6610867E-006  0.1031916E+03  0.7561462E-02  0.1273724E+00
          2   -1    0    0  501    0  0.00000000000E+00  0.00000000000E+00  0.17090284363E+03  0.17090284363E+03  0.00000000000E+00 0. -1.
         -2   -1    0    0    0  501 -0.00000000000E+00 -0.00000000000E+00 -0.82118207194E+02  0.82118207194E+02  0.00000000000E+00 0.  1.
         23    2    1    2    0    0 -0.44979946425E+02 -0.43194402446E+01  0.21372344818E+02  0.10390992884E+03  0.91096888221E+02 0.  0.
          5    1    1    2  502    0  0.11328107041E+01  0.46106772992E+02  0.74773061305E+02  0.87952264739E+02  0.41800000000E+01 0.  1.
         -5    1    1    2    0  502  0.43847135721E+02 -0.41787332748E+02 -0.73607696894E+01  0.61158857245E+02  0.41800000000E+01 0.  1.
        -11    1    3    3    0    0 -0.55543839379E+02 -0.35848364311E+02  0.24522586900E+02  0.70509436142E+02  0.00000000000E+00 0. -1.
         11    1    3    3    0    0  0.10563892954E+02  0.31528924066E+02 -0.31502420828E+01  0.33400492695E+02  0.00000000000E+00 0.  1.
</event>
<event>
 7    1  0.6610867E-006  0.1324488E+03  0.7561462E-02  0.1223867E+00
         -3   -1    0    0    0  501 -0.00000000000E+00  0.00000000000E+00  0.37823016550E+02  0.37823016550E+02  0.00000000000E+00 0.  1.
          3   -1    0    0  501    0  0.00000000000E+00 -0.00000000000E+00 -0.71344433718E+03  0.71344433718E+03  0.00000000000E+00 0. -1.
         23    2    1    2    0    0  0.82381260769E+02 -0.27470748971E+02 -0.11495883308E+03  0.17029494005E+03  0.90793827592E+02 0.  0.
          5    1    1    2  502    0  0.25723331835E+02 -0.13855905338E+02 -0.57248600272E+02  0.64409242710E+02  0.41800000000E+01 0.  1.
         -5    1    1    2    0  502 -0.10810459260E+03  0.41326654309E+02 -0.50341388727E+03  0.51656317097E+03  0.41800000000E+01 0.  1.
        -11    1    3    3    0    0  0.56259470253E+02 -0.57040518893E+02 -0.50454320046E+02  0.94680447824E+02  0.00000000000E+00 0.  1.
         11    1    3    3    0    0  0.26121790515E+02  0.29569769922E+02 -0.64504513035E+02  0.75614492228E+02  0.00000000000E+00 0. -1.
</event>
<event>
 7    1  0.6610867E-006  0.1937948E+03  0.7561462E-02  0.1155083E+00
          2   -1    0    0  501    0  0.00000000000E+00  0.00000000000E+00  0.10801995095E+04  0.10801995095E+04  0.00000000000E+00 0. -1.
         -2   -1    0    0    0  501 -0.00000000000E+00 -0.00000000000E+00 -0.10647134859E+03  0.10647134859E+03  0.00000000000E+00 0.  1.
         23    2    1    2    0    0 -0.12050568632E+03 -0.47142563557E+02 -0.25902711370E+02  0.15975970297E+03  0.90045380232E+02 0.  0.
          5    1    1    2  502    0  0.16954839740E+03  0.66223591627E+02  0.75390050487E+03  0.77557441086E+03  0.41800000000E+01 0. -1.
         -5    1    1    2    0  502 -0.49042711077E+02 -0.19081028070E+02  0.24573036744E+03  0.25133674427E+03  0.41800000000E+01 0.  1.
        -11    1    3    3    0    0  0.91954238465E+01  0.76188060122E+01  0.87088131151E+01  0.14779900224E+02  0.00000000000E+00 0. -1.
         11    1    3    3    0    0 -0.12970111017E+03 -0.54761369570E+02 -0.34611524485E+02  0.14497980274E+03  0.00000000000E+00 0.  1.
</event>
<event>
 7    1  0.6610867E-006  0.1042421E+03  0.7561462E-02  0.1271620E+00
         -1   -1    0    0    0  501 -0.00000000000E+00  0.00000000000E+00  0.27544525752E+02  0.27544525752E+02  0.00000000000E+00 0.  1.
          1   -1    0    0  501    0  0.00000000000E+00 -0.00000000000E+00 -0.82850609009E+03  0.82850609009E+03  0.00000000000E+00 0. -1.
         23    2    1    2    0    0  0.68989407404E+02 -0.50011986795E+02 -0.19105290245E+03  0.22764150969E+03  0.89770308257E+02 0.  0.
          5    1    1    2  502    0 -0.30834573456E+02  0.54890913996E+02 -0.56752028754E+03  0.57101710353E+03  0.41800000000E+01 0.  1.
         -5    1    1    2    0  502 -0.38154833948E+02 -0.48789272008E+01 -0.42388374358E+02  0.57392002622E+02  0.41800000000E+01 0.  1.
        -11    1    3    3    0    0  0.81077453614E+02 -0.37608153253E+02 -0.96558945272E+02  0.13157338860E+03  0.00000000000E+00 0.  1.
         11    1    3    3    0    0 -0.12088046210E+02 -0.12403833543E+02 -0.94493957174E+02  0.96068121092E+02  0.00000000000E+00 0. -1.
</event>
<event>
 7    1  0.6610867E-006  0.9237454E+02  0.7561462E-02  0.1297201E+00
         -2   -1    0    0    0  501 -0.00000000000E+00  0.00000000000E+00  0.26865785955E+03  0.26865785955E+03  0.00000000000E+00 0. -1.
          2   -1    0    0  501    0  0.00000000000E+00 -0.00000000000E+00 -0.51257242889E+02  0.51257242889E+02  0.00000000000E+00 0.  1.
         23    2    1    2    0    0  0.26499340607E+02 -0.68608883500E+00  0.14445245779E+03  0.17270474746E+03  0.90872060952E+02 0.  0.
          5    1    1    2  502    0 -0.78479262605E+01  0.51235467337E+02  0.77112244783E+02  0.93007708043E+02  0.41800000000E+01 0. -1.
         -5    1    1    2    0  502 -0.18651414346E+02 -0.50549378502E+02 -0.41640859104E+01  0.54202646942E+02  0.41800000000E+01 0. -1.
        -11    1    3    3    0    0  0.25342456153E+02 -0.35640392601E+02  0.30012102065E+02  0.53039644974E+02  0.00000000000E+00 0.  1.
         11    1    3    3    0    0  0.11568844540E+01  0.34954303766E+02  0.11444035573E+03  0.11966510248E+03  0.00000000000E+00 0. -1.
</event>
<event>
 7    1  0.6610867E-006  0.7833960E+02  0.7561462E-02  0.1333831E+00
         -2   -1    0    0    0  501 -0.00000000000E+00  0.00000000000E+00  0.42993862443E+02  0.42993862443E+02  0.00000000000E+00 0.  1.
          2   -1    0    0  501    0  0.00000000000E+00 -0.00000000000E+00 -0.41013510604E+03  0.41013510604E+03  0.00000000000E+00 0. -1.
         23    2    1    2    0    0 -0.10168215490E+02 -0.31935161457E+01 -0.34882258815E+02  0.97942827861E+02  0.90897933958E+02 0.  0.
          5    1    1    2  502    0  0.48912211258E+02  0.14209770914E+02 -0.55364418087E+02  0.75345956691E+02  0.41800000000E+01 0. -1.
         -5    1    1    2    0  502 -0.38743995768E+02 -0.11016254768E+02 -0.27689456669E+03  0.27984018393E+03  0.41800000000E+01 0. -1.
        -11    1    3    3    0    0  0.17742616891E+02 -0.24297587764E+02  0.17606980603E+02  0.34859417540E+02  0.00000000000E+00 0.  1.
         11    1    3    3    0    0 -0.27910832381E+02  0.21104071618E+02 -0.52489239417E+02  0.63083410321E+02  0.00000000000E+00 0. -1.
</event>
<event>
 7    1  0.6610867E-006  0.1058670E+03  0.7561462E-02  0.1268421E+00
         -1   -1    0    0    0  501 -0.00000000000E+00  0.00000000000E+00  0.63828907798E+03  0.63828907798E+03  0.00000000000E+00 0.  1.
          1   -1    0    0  501    0  0.00000000000E+00 -0.00000000000E+00 -0.19623754833E+02  0.19623754833E+02  0.00000000000E+00 0. -1.
         23    2    1    2    0    0  0.19161108276E+02 -0.24508723369E+02  0.26983879819E+03  0.28603168969E+03  0.89628817402E+02 0.  0.
          5    1    1    2  502    0  0.28577280536E+02  0.54661562067E+02  0.25419927032E+03  0.26160903800E+03  0.41800000000E+01 0. -1.
         -5    1    1    2    0  502 -0.47738388812E+02 -0.30152838698E+02  0.94627254639E+02  0.11027210512E+03  0.41800000000E+01 0. -1.
        -11    1    3    3    0    0 -0.35417161047E+02 -0.86599267186E+01  0.13182480737E+03  0.13677408185E+03  0.00000000000E+00 0. -1.
         11    1    3    3    0    0  0.54578269323E+02 -0.15848796650E+02  0.13801399082E+03  0.14925760784E+03  0.00000000000E+00 0.  1.
</event>
<event>
 7    1  0.6610867E-006  0.7047981E+02  0.7561462E-02  0.1358469E+00
         -1   -1    0    0    0  501 -0.00000000000E+00  0.00000000000E+00  0.14216461427E+03  0.14216461427E+03  0.00000000000E+00 0.  1.
          1   -1    0    0  501    0  0.00000000000E+00 -0.00000000000E+00 -0.88054460770E+02  0.88054460770E+02  0.00000000000E+00 0. -1.
         23    2    1    2    0    0 -0.22229934943E+02 -0.68682456964E+01  0.37144401457E+02  0.10185557558E+03  0.91942965533E+02 0.  0.
          5    1    1    2  502    0 -0.44200887893E+02  0.67300310308E+01 -0.23278968870E+02  0.50580575322E+02  0.41800000000E+01 0.  1.
         -5    1    1    2    0  502  0.66430822836E+02  0.13821466560E+00  0.40244720918E+02  0.77782924140E+02  0.41800000000E+01 0.  1.
        -11    1    3    3    0    0 -0.11211017574E+02  0.58654162666E+01 -0.30038467546E+02  0.32594471242E+02  0.00000000000E+00 0. -1.
         11    1    3    3    0    0 -0.11018917369E+02 -0.12733661963E+02  0.67182869003E+02  0.69261104340E+02  0.00000000000E+00 0.  1.
</event>
<event>
 7    1  0.6610867E-006  0.1559518E+03  0.7561462E-02  0.1193344E+00
          2   -1    0    0  501    0  0.00000000000E+00  0.00000000000E+00  0.11179700543E+04  0.11179700543E+04  0.00000000000E+00 0. -1.
         -2   -1    0    0    0  501 -0.00000000000E+00 -0.00000000000E+00 -0.26324159572E+02  0.26324159572E+02  0.00000000000E+00 0.  1.
         23    2    1    2    0    0  0.10322161018E+03  0.68645876951E+02  0.33877969125E+03  0.37110502732E+03  0.87064946276E+02 0.  0.
          5    1    1    2  502    0  0.12890495340E+02 -0.43450573814E+02  0.10403206666E+03  0.11355289749E+03  0.41800000000E+01 0.  1.
         -5    1    1    2    0  502 -0.11611210551E+03 -0.25195303137E+02  0.64883413686E+03  0.65963628911E+03  0.41800000000E+01 0.  1.
        -11    1    3    3    0    0  0.36654253702E+02  0.72059703959E+02  0.14276126622E+03  0.16406375097E+03  0.00000000000E+00 0.  1.
         11    1    3    3    0    0  0.66567356473E+02 -0.34138270074E+01  0.19601842503E+03  0.20704127635E+03  0.00000000000E+00 0. -1.
</event>
<event>
 7    1  0.6610867E-006  0.2749239E+03  0.7561462E-02  0.1098494E+00
          1   -1    0    0  501    0  0.00000000000E+00  0.00000000000E+00  0.20293920236E+03  0.20293920236E+03  0.00000000000E+00 0. -1.
         -1   -1    0    0    0  501 -0.00000000000E+00 -0.00000000000E+00 -0.42794618859E+03  0.42794618859E+03  0.00000000000E+00 0.  1.
         23    2    1    2    0    0  0.13386762827E+03 -0.22630630359E+03 -0.19138375293E+03  0.33777708574E+03  0.91271758085E+02 0.  0.
          5    1    1    2  502    0 -0.85262080037E+02  0.51359724297E+02  0.24169428247E+02  0.10251379046E+03  0.41800000000E+01 0.  1.
         -5    1    1    2    0  502 -0.48605548235E+02  0.17494657929E+03 -0.57792661539E+02  0.19059451475E+03  0.41800000000E+01 0.  1.
        -11    1    3    3    0    0  0.20704153686E+02 -0.85433378750E+02 -0.23184102276E+02  0.90912192707E+02  0.00000000000E+00 0.  1.
         11    1    3    3    0    0  0.11316347459E+03 -0.14087292484E+03 -0.16819965065E+03  0.24686489303E+03  0.00000000000E+00 0. -1.
</event>
<event>
 7    1  0.6610867E-006  0.2168118E+03  0.7561462E-02  0.1136283E+00
         -1   -1    0    0    0  501 -0.00000000000E+00  0.00000000000E+00  0.86254567096E+02  0.86254567096E+02  0.00000000000E+00 0.  1.
          1   -1    0    0  501    0  0.00000000000E+00 -0.00000000000E+00 -0.82391900271E+03  0.82391900271E+03  0.00000000000E+00 0. -1.
         23    2    1    2    0    0 -0.13989195149E+03  0.12776813802E+03 -0.99205640303E+02  0.23255090665E+03  0.91343910203E+02 0.  0.
          5    1    1    2  502    0  0.24165865675E+02  0.23663959468E+02 -0.13629695826E+03  0.14049307909E+03  0.41800000000E+01 0. -1.
         -5    1    1    2    0  502  0.11572608582E+03 -0.15143209749E+03 -0.50216183705E+03  0.53712958406E+03  0.41800000000E+01 0. -1.
        -11    1    3    3    0    0 -0.40505069544E+01  0.54341965833E+02 -0.38065604813E+02  0.66471393298E+02  0.00000000000E+00 0. -1.
         11    1    3    3    0    0 -0.13584144454E+03  0.73426172185E+02 -0.61140035490E+02  0.16607951335E+03  0.00000000000E+00 0.  1.
</event>
<event>
 7    1  0.6610867E-006  0.1238475E+03  0.7561462E-02  0.1236882E+00
          2   -1    0    0  501    0  0.00000000000E+00  0.00000000000E+00  0.80713260633E+03  0.80713260633E+03  0.00000000000E+00 0. -1.
         -2   -1    0    0    0  501 -0.00000000000E+00 -0.00000000000E+00 -0.26954353658E+02  0.26954353658E+02  0.00000000000E+00 0.  1.
         23    2    1    2    0    0 -0.88956039189E+02  0.31147316706E+02  0.26151465081E+03  0.29228820639E+03  0.90328017578E+02 0.  0.
          5    1    1    2  502    0  0.11874795995E+03 -0.27252399998E+02  0.35501418383E+03  0.37536157824E+03  0.41800000000E+01 0. -1.
         -5    1    1    2    0  502 -0.29791920765E+02 -0.38949167076E+01  0.16364941803E+03  0.16643717536E+03  0.41800000000E+01 0. -1.
        -11    1    3    3    0    0 -0.27499812751E+02  0.17195633558E+02  0.11434966245E+02  0.34390230703E+02  0.00000000000E+00 0.  1.
         11    1    3    3    0    0 -0.61456226439E+02  0.13951683148E+02  0.25007968456E+03  0.25789797568E+03  0.00000000000E+00 0. -1.
</event>
<event>
 7    1  0.6610867E-006  0.7638031E+02  0.7561462E-02  0.1339649E+00
          1   -1    0    0  501    0  0.00000000000E+00  0.00000000000E+00  0.10037478771E+03  0.10037478771E+03  0.00000000000E+00 0. -1.
         -1   -1    0    0    0  501 -0.00000000000E+00 -0.00000000000E+00 -0.12366123007E+03  0.12366123007E+03  0.00000000000E+00 0.  1.
         23    2    1    2    0    0 -0.88065366035E+01  0.23189789612E+02 -0.22533954848E+02  0.96501118534E+02  0.90495112178E+02 0.  0.
          5    1    1    2  502    0  0.32307865414E+02  0.20545985055E+02 -0.46163169513E+02  0.60120265210E+02  0.41800000000E+01 0. -1.
         -5    1    1    2    0  502 -0.23501328811E+02 -0.43735774667E+02  0.45410682004E+02  0.67414634032E+02  0.41800000000E+01 0. -1.
        -11    1    3    3    0    0  0.36705760672E+01  0.41829138823E+02  0.21432722746E+02  0.47143521163E+02  0.00000000000E+00 0. -1.
         11    1    3    3    0    0 -0.12477112671E+02 -0.18639349211E+02 -0.43966677594E+02  0.49357597371E+02  0.00000000000E+00 0.  1.
</event>
<event>
 7    1  0.6610867E-006  0.9088193E+02  0.7561462E-02  0.1300730E+00
          2   -1    0    0  501    0  0.00000000000E+00  0.00000000000E+00  0.98506761089E+03  0.98506761089E+03  0.00000000000E+00 0. -1.
         -2   -1    0    0    0  501 -0.00000000000E+00 -0.00000000000E+00 -0.11778798320E+02  0.11778798320E+02  0.00000000000E+00 0.  1.
         23    2    1    2    0    0  0.28110623220E+01 -0.74816645878E+01  0.34115726468E+03  0.35240788513E+03  0.87972500720E+02 0.  0.
          5    1    1    2  502    0 -0.47061483168E+02  0.23619495976E+02  0.13350437668E+03  0.14357421350E+03  0.41800000000E+01 0. -1.
         -5    1    1    2    0  502  0.44250420846E+02 -0.16137831388E+02  0.49862717121E+03  0.50086431058E+03  0.41800000000E+01 0. -1.
        -11    1    3    3    0    0  0.38506011546E+02  0.12828965045E+02  0.10250618764E+03  0.11024887198E+03  0.00000000000E+00 0.  1.
         11    1    3    3    0    0 -0.35694949224E+02 -0.20310629633E+02  0.23865107704E+03  0.24215901315E+03  0.00000000000E+00 0. -1.
</event>
<event>
 7    1  0.6610867E-006  0.1098097E+03  0.7561462E-02  0.1260923E+00
         -2   -1    0    0    0  501 -0.00000000000E+00  0.00000000000E+00  0.15596463256E+02  0.15596463256E+02  0.00000000000E+00 0.  1.
          2   -1    0    0  501    0  0.00000000000E+00 -0.00000000000E+00 -0.12015528565E+04  0.12015528565E+04  0.00000000000E+00 0. -1.
         23    2    1    2    0    0 -0.23075705046E+02 -0.34478642116E+02 -0.21025277232E+03  0.23258541486E+03  0.90379654848E+02 0.  0.
          5    1    1    2  502    0 -0.46275835170E+02 -0.12140607702E+02 -0.33784183740E+03  0.34123807931E+03  0.41800000000E+01 0. -1.
         -5    1    1    2    0  502  0.69351540216E+02  0.46619249818E+02 -0.63786178354E+03  0.64332582560E+03  0.41800000000E+01 0. -1.
        -11    1    3    3    0    0  0.18223051440E+02 -0.42150530971E+02 -0.54496395263E+02  0.71264324606E+02  0.00000000000E+00 0.  1.
         11    1    3    3    0    0 -0.41298756486E+02  0.76718888548E+01 -0.15575637706E+03  0.16132109025E+03  0.00000000000E+00 0. -1.
</event>
<event>
 7    1  0.6610867E-006  0.1002989E+03  0.7561462E-02  0.1279669E+00
          1   -1    0    0  501    0  0.00000000000E+00  0.00000000000E+00  0.38218569008E+03  0.38218569008E+03  0.00000000000E+00 0. -1.
         -1   -1    0    0    0  501 -0.00000000000E+00 -0.00000000000E+00 -0.48626479748E+02  0.48626479748E+02  0.00000000000E+00 0.  1.
         23    2    1    2    0    0  0.38652073469E+02 -0.60318700822E+02  0.14267973838E+03  0.19161610590E+03  0.10595704716E+03 0.  0.
          5    1    1    2  502    0  0.89434790738E+00  0.38971878376E+01  0.16557606664E+03  0.16567707800E+03  0.41800000000E+01 0. -1.
         -5    1    1    2    0  502 -0.39546421376E+02  0.56421512985E+02  0.25303405310E+02  0.73518985925E+02  0.41800000000E+01 0. -1.
        -11    1    3    3    0    0  0.38873265680E+02  0.21192309572E+02  0.34306170715E+02  0.56010339392E+02  0.00000000000E+00 0.  1.
         11    1    3    3    0    0 -0.22119221127E+00 -0.81511010395E+02  0.10837356767E+03  0.13560576651E+03  0.00000000000E+00 0. -1.
</event>
<event>
 7    1  0.6610867E-006  0.1327261E+03  0.7561462E-02  0.1223466E+00
          2   -1    0    0  501    0  0.00000000000E+00  0.00000000000E+00  0.17323908523E+03  0.17323908523E+03  0.00000000000E+00 0. -1.
         -2   -1    0    0    0  501 -0.00000000000E+00 -0.00000000000E+00 -0.19954847606E+03  0.19954847606E+03  0.00000000000E+00 0.  1.
         23    2    1    2    0    0  0.47994869173E+02  0.68674621715E+01 -0.27379907225E+01  0.11158013932E+03  0.10045875469E+03 0.  0.
          5    1    1    2  502    0  0.77450814143E+01  0.66247005537E+02  0.91847545113E+02  0.11358739354E+03  0.41800000000E+01 0. -1.
         -5    1    1    2    0  502 -0.55739950588E+02 -0.73114467709E+02 -0.11541894521E+03  0.14762002843E+03  0.41800000000E+01 0.  1.
        -11    1    3    3    0    0  0.75838359727E+02  0.15565603501E+02 -0.16762889116E+02  0.79213251858E+02  0.00000000000E+00 0. -1.
         11    1    3    3    0    0 -0.27843490554E+02 -0.86981413293E+01  0.14024898393E+02  0.32366887458E+02  0.00000000000E+00 0.  1.
</event>
<event>
 7    1  0.6610867E-006  0.9654020E+02  0.7561462E-02  0.1287744E+00
         -1   -1    0    0    0  501 -0.00000000000E+00  0.00000000000E+00  0.18845321026E+03  0.18845321026E+03  0.00000000000E+00 0.  1.
          1   -1    0    0  501    0  0.00000000000E+00 -0.00000000000E+00 -0.83561450785E+02  0.83561450785E+02  0.00000000000E+00 0. -1.
         23    2    1    2    0    0 -0.28559463672E+02 -0.50371294923E+02  0.73519413251E+02  0.13064734942E+03  0.91163125599E+02 0.  0.
          5    1    1    2  502    0  0.40833380977E+02  0.77863159649E+01  0.70599183454E+02  0.82034802509E+02  0.41800000000E+01 0.  1.
         -5    1    1    2    0  502 -0.12273917305E+02  0.42584978958E+02 -0.39226837228E+02  0.59332509114E+02  0.41800000000E+01 0.  1.
        -11    1    3    3    0    0  0.46265290564E+01  0.24477357261E+02  0.25878340199E+02  0.35919831305E+02  0.00000000000E+00 0.  1.
         11    1    3    3    0    0 -0.33185992728E+02 -0.74848652184E+02  0.47641073052E+02  0.94727518117E+02  0.00000000000E+00 0. -1.
</event>
<event>
 7    1  0.6610867E-006  0.6633590E+02  0.7561462E-02  0.1373016E+00
         -1   -1    0    0    0  501 -0.00000000000E+00  0.00000000000E+00  0.39804517753E+02  0.39804517753E+02  0.00000000000E+00 0.  1.
          1   -1    0    0  501    0  0.00000000000E+00 -0.00000000000E+00 -0.39594201182E+03  0.39594201182E+03  0.00000000000E+00 0. -1.
         23    2    1    2    0    0  0.46623229983E+01  0.16868889085E+02 -0.50365503062E+02  0.10492812776E+03  0.90371076251E+02 0.  0.
          5    1    1    2  502    0 -0.94798202392E+01  0.16606826290E+02  0.33202915208E+01  0.19853221577E+02  0.41800000000E+01 0.  1.
         -5    1    1    2    0  502  0.48174972409E+01 -0.33475715375E+02 -0.30909228252E+03  0.31096518023E+03  0.41800000000E+01 0.  1.
        -11    1    3    3    0    0  0.40479503936E+02  0.14949152399E+02 -0.53717673295E+02  0.68903235197E+02  0.00000000000E+00 0. -1.
         11    1    3    3    0    0 -0.35817180938E+02  0.19197366866E+01  0.33521702325E+01  0.36024892568E+02  0.00000000000E+00 0.  1.
</event>
<event>
 7    1  0.6610867E-006  0.1484798E+03  0.7561462E-02  0.1202354E+00
          2   -1    0    0  501    0  0.00000000000E+00  0.00000000000E+00  0.12061671497E+04  0.12061671497E+04  0.00000000000E+00 0. -1.
         -2   -1    0    0    0  501 -0.00000000000E+00 -0.00000000000E+00 -0.26931826247E+02  0.26931826247E+02  0.00000000000E+00 0.  1.
         23    2    1    2    0    0 -0.10053029437E+03 -0.49027430211E+02  0.26510906834E+03  0.29902369316E+03  0.81377650219E+02 0.  0.
          5    1    1    2  502    0  0.43982142725E+02  0.90104863858E+02  0.73383904670E+03  0.74066897750E+03  0.41800000000E+01 0. -1.
         -5    1    1    2    0  502  0.56548151642E+02 -0.41077433647E+02  0.18028720845E+03  0.19340630532E+03  0.41800000000E+01 0.  1.
        -11    1    3    3    0    0 -0.42840594641E+02 -0.53717001186E+02  0.81978370431E+02  0.10696394712E+03  0.00000000000E+00 0. -1.
         11    1    3    3    0    0 -0.57689699726E+02  0.46895709750E+01  0.18313069791E+03  0.19205974603E+03  0.00000000000E+00 0.  1.
</event>
<event>
 7    1  0.6610867E-006  0.1077769E+03  0.7561462E-02  0.1264743E+00
          2   -1    0    0  501    0  0.00000000000E+00  0.00000000000E+00  0.96432560429E+02  0.96432560429E+02  0.00000000000E+00 0.  1.
         -2   -1    0    0    0  501 -0.00000000000E+00 -0.00000000000E+00 -0.14771437771E+03  0.14771437771E+03  0.00000000000E+00 0. -1.
         23    2    1    2    0    0 -0.31805220044E+01  0.44222437843E+02 -0.57810065850E+02  0.11126636845E+03  0.84097926882E+02 0.  0.
          5    1    1    2  502    0 -0.13779080679E+02  0.39736922495E+02 -0.14320626172E+02  0.44625539859E+02  0.41800000000E+01 0.  1.
         -5    1    1    2    0  502  0.16959602683E+02 -0.83959360338E+02  0.20848874744E+02  0.88255029826E+02  0.41800000000E+01 0.  1.
        -11    1    3    3    0    0  0.33199082992E+02  0.38277803491E+02 -0.11289469255E+02  0.51911669860E+02  0.00000000000E+00 0.  1.
         11    1    3    3    0    0 -0.36379604996E+02  0.59446343514E+01 -0.46520596595E+02  0.59354698591E+02  0.00000000000E+00 0. -1.
</event>
<event>
 7    1  0.6610867E-006  0.9879641E+02  0.7561462E-02  0.1282847E+00
          1   -1    0    0  501    0  0.00000000000E+00  0.00000000000E+00  0.25366131226E+03  0.25366131226E+03  0.00000000000E+00 0. -1.
         -1   -1    0    0    0  501 -0.00000000000E+00 -0.00000000000E+00 -0.51169808830E+02  0.51169808830E+02  0.00000000000E+00 0.  1.
         23    2    1    2    0    0 -0.97349976923E+01  0.26921827986E+02  0.60445068645E+02  0.11340061575E+03  0.91578045006E+02 0.  0.
          5    1    1    2  502    0  0.40177860734E+02 -0.57247228130E+02  0.12819168142E+03  0.14608930559E+03  0.41800000000E+01 0. -1.
         -5    1    1    2    0  502 -0.30442863042E+02  0.30325400143E+02  0.13854753366E+02  0.45341199751E+02  0.41800000000E+01 0. -1.
        -11    1    3    3    0    0  0.32445927526E+02  0.26944589926E+02  0.57237802152E+02  0.71097926372E+02  0.00000000000E+00 0. -1.
         11    1    3    3    0    0 -0.42180925218E+02 -0.22761939479E-01  0.32072664931E+01  0.42302689379E+02  0.00000000000E+00 0.  1.
</event>
<event>
 7    1  0.6610867E-006  0.9238913E+02  0.7561462E-02  0.1297167E+00
          2   -1    0    0  501    0  0.00000000000E+00  0.00000000000E+00  0.27088611979E+03  0.27088611979E+03  0.00000000000E+00 0. -1.
         -2   -1    0    0    0  501 -0.00000000000E+00 -0.00000000000E+00 -0.56749230616E+02  0.56749230616E+02  0.00000000000E+00 0.  1.
         23    2    1    2    0    0 -0.17960641106E+02  0.39336399800E+02  0.39567663654E+02  0.10855185128E+03  0.91367212017E+02 0.  0.
          5    1    1    2  502    0  0.43711973336E+01 -0.59252916858E+02  0.20359660977E+02  0.62944449457E+02  0.41800000000E+01 0. -1.
         -5    1    1    2    0  502  0.13589443772E+02  0.19916517058E+02  0.15420956454E+03  0.15613904967E+03  0.41800000000E+01 0. -1.
        -11    1    3    3    0    0 -0.49858588552E+02  0.46363322300E+02  0.30839792634E+02  0.74743088756E+02  0.00000000000E+00 0.  1.
         11    1    3    3    0    0  0.31897947446E+02 -0.70269224996E+01  0.87278710198E+01  0.33808762527E+02  0.00000000000E+00 0. -1.
</event>
<event>
 7    1  0.6610867E-006  0.1330135E+03  0.7561462E-02  0.1223052E+00
          2   -1    0    0  501    0  0.00000000000E+00  0.00000000000E+00  0.64854415465E+03  0.64854415465E+03  0.00000000000E+00 0. -1.
         -2   -1    0    0    0  501 -0.00000000000E+00 -0.00000000000E+00 -0.33816995599E+02  0.33816995599E+02  0.00000000000E+00 0.  1.
         23    2    1    2    0    0 -0.38716350072E+02  0.73093764633E+02  0.14747410703E+03  0.19163347328E+03  0.90183821426E+02 0.  0.
          5    1    1    2  502    0  0.22274761124E+02 -0.10670673497E+03  0.38700863325E+03  0.40208910316E+03  0.41800000000E+01 0.  1.
         -5    1    1    2    0  502  0.16441588948E+02  0.33612970339E+02  0.80244418769E+02  0.88638573802E+02  0.41800000000E+01 0.  1.
        -11    1    3    3    0    0  0.27586106924E+02  0.26492955073E+02  0.68623307690E+02  0.78562257618E+02  0.00000000000E+00 0.  1.
         11    1    3    3    0    0 -0.66302456996E+02  0.46600809560E+02  0.78850799342E+02  0.11307121567E+03  0.00000000000E+00 0. -1.
</event>
<event>
 7    1  0.6610867E-006  0.7404219E+02  0.7561462E-02  0.1346863E+00
          2   -1    0    0  501    0  0.00000000000E+00  0.00000000000E+00  0.25773004340E+03  0.25773004340E+03  0.00000000000E+00 0.  1.
         -2   -1    0    0    0  501 -0.00000000000E+00 -0.00000000000E+00 -0.58060571684E+02  0.58060571684E+02  0.00000000000E+00 0. -1.
         23    2    1    2    0    0 -0.27632831089E+02  0.44640656834E+02  0.24712295976E+02  0.94401506170E+02  0.74461971489E+02 0.  0.
          5    1    1    2  502    0  0.20613677804E+01 -0.23883845217E+02 -0.14977824159E+02  0.28574375164E+02  0.41800000000E+01 0.  1.
         -5    1    1    2    0  502  0.25571463309E+02 -0.20756811617E+02  0.18993499990E+03  0.19281473375E+03  0.41800000000E+01 0.  1.
        -11    1    3    3    0    0 -0.46078739303E+02  0.53058804982E+02  0.23460097831E+02  0.74086862479E+02  0.00000000000E+00 0.  1.
         11    1    3    3    0    0  0.18445908214E+02 -0.84181481473E+01  0.12521981453E+01  0.20314643690E+02  0.00000000000E+00 0. -1.
</event>
<event>
 7    1  0.6610867E-006  0.8265646E+02  0.7561462E-02  0.1321677E+00
         -3   -1    0    0    0  501 -0.00000000000E+00  0.00000000000E+00  0.63818065241E+02  0.63818065241E+02  0.00000000000E+00 0.  1.
          3   -1    0    0  501    0  0.00000000000E+00 -0.00000000000E+00 -0.25783950043E+03  0.25783950043E+03  0.00000000000E+00 0. -1.
         23    2    1    2    0    0 -0.45308626421E+02  0.32021269581E+02 -0.42603958875E+02  0.11756631982E+03  0.94490787435E+02 0.  0.
          5    1    1    2  502    0  0.61052581917E+02 -0.53959279499E+02 -0.15632008213E+03  0.17633054778E+03  0.41800000000E+01 0.  1.
         -5    1    1    2    0  502 -0.15743955496E+02  0.21938009918E+02  0.49026058153E+01  0.27760698074E+02  0.41800000000E+01 0.  1.
        -11    1    3    3    0    0 -0.33612443450E+02  0.28816308464E+02  0.23661673870E+02  0.50200107554E+02  0.00000000000E+00 0.  1.
         11    1    3    3    0    0 -0.11696182972E+02  0.32049611171E+01 -0.66265632744E+02  0.67366212265E+02  0.00000000000E+00 0. -1.
</event>
<event>
 7    1  0.6610867E-006  0.9099614E+02  0.7561462E-02  0.1300457E+00
          2   -1    0    0  501    0  0.00000000000E+00  0.00000000000E+00  0.77870644914E+02  0.77870644914E+02  0.00000000000E+00 0. -1.
         -2   -1    0    0    0  501 -0.00000000000E+00 -0.00000000000E+00 -0.30974742118E+03  0.30974742118E+03  0.00000000000E+00 0.  1.
         23    2    1    2    0    0 -0.38590353271E+02 -0.36186440035E+02 -0.22804882234E+03  0.25175033594E+03  0.92592075632E+02 0.  0.
          5    1    1    2  502    0  0.29367063990E+02 -0.18085456458E+02  0.48594174914E+02  0.59735872123E+02  0.41800000000E+01 0. -1.
         -5    1    1    2    0  502  0.92232892818E+01  0.54271896494E+02 -0.52422128841E+02  0.76131858026E+02  0.41800000000E+01 0. -1.
        -11    1    3    3    0    0  0.15711155703E+02 -0.34278064098E+02 -0.35888442397E+02  0.52055800729E+02  0.00000000000E+00 0. -1.
         11    1    3    3    0    0 -0.54301508974E+02 -0.19083759369E+01 -0.19216037994E+03  0.19969453521E+03  0.00000000000E+00 0.  1.
</event>
<event>
 7    1  0.6610867E-006  0.9563317E+02  0.7561462E-02  0.1289756E+00
         -4   -1    0    0    0  501 -0.00000000000E+00  0.00000000000E+00  0.11485625481E+03  0.11485625481E+03  0.00000000000E+00 0.  1.
          4   -1    0    0  501    0  0.00000000000E+00 -0.00000000000E+00 -0.11097994638E+03  0.11097994638E+03  0.00000000000E+00 0. -1.
         23    2    1    2    0    0  0.48096940124E+01 -0.26650587375E+02  0.12721562042E+02  0.97548860650E+02  0.92846944535E+02 0.  0.
          5    1    1    2  502    0 -0.76385528586E+01 -0.48967462561E+02  0.87145202139E+01  0.50493317795E+02  0.41800000000E+01 0.  1.
         -5    1    1    2    0  502  0.28288588461E+01  0.75618049936E+02 -0.17559773819E+02  0.77794022746E+02  0.41800000000E+01 0.  1.
        -11    1    3    3    0    0  0.13424467816E+02 -0.44200480501E+02  0.41940169238E+02  0.62392921139E+02  0.00000000000E+00 0.  1.
         11    1    3    3    0    0 -0.86147738032E+01  0.17549893126E+02 -0.29218607196E+02  0.35155939511E+02  0.00000000000E+00 0. -1.
</event>
<event>
 7    1  0.6610867E-006  0.1108262E+03  0.7561462E-02  0.1259047E+00
          3   -1    0    0  501    0  0.00000000000E+00  0.00000000000E+00  0.43260710732E+03  0.43260710732E+03  0.00000000000E+00 0. -1.
         -3   -1    0    0    0  501 -0.00000000000E+00 -0.00000000000E+00 -0.34140535125E+02  0.34140535125E+02  0.00000000000E+00 0.  1.
         23    2    1    2    0    0 -0.18624975795E+02  0.28540267600E+01  0.80897429348E+02  0.12490787982E+03  0.93287454533E+02 0.  0.
          5    1    1    2  502    0 -0.52256399359E+02  0.12373322059E+02  0.13187198344E+03  0.14244831620E+03  0.41800000000E+01 0.  1.
         -5    1    1    2    0  502  0.70881375154E+02 -0.15227348819E+02  0.18569715941E+03  0.19939144643E+03  0.41800000000E+01 0.  1.
        -11    1    3    3    0    0  0.18651445135E+01 -0.43995681693E+02  0.37068955095E+02  0.57560456943E+02  0.00000000000E+00 0. -1.
         11    1    3    3    0    0 -0.20490120308E+02  0.46849708453E+02  0.43828474254E+02  0.67347422874E+02  0.00000000000E+00 0.  1.
</event>
<event>
 7    1  0.6610867E-006  0.1005295E+03  0.7561462E-02  0.1279186E+00
         -2   -1    0    0    0  501 -0.00000000000E+00  0.00000000000E+00  0.62409025361E+02  0.62409025361E+02  0.00000000000E+00 0.  1.
          2   -1    0    0  501    0  0.00000000000E+00 -0.00000000000E+00 -0.22075948496E+03  0.22075948496E+03  0.00000000000E+00 0. -1.
         23    2    1    2    0    0 -0.15018524425E+02 -0.17377712285E+02 -0.23756660230E+02  0.97989728408E+02  0.92250024434E+02 0.  0.
          5    1    1    2  502    0 -0.24685073538E+02 -0.41751057094E+02 -0.25849467513E+02  0.55119606264E+02  0.41800000000E+01 0. -1.
         -5    1    1    2    0  502  0.39703597963E+02  0.59128769379E+02 -0.10874433185E+03  0.13005917564E+03  0.41800000000E+01 0. -1.
        -11    1    3    3    0    0 -0.41972799834E+02 -0.29676486652E+02  0.10742252196E+02  0.52514814749E+02  0.00000000000E+00 0.  1.
         11    1    3    3    0    0  0.26954275408E+02  0.12298774367E+02 -0.34498912426E+02  0.45474913659E+02  0.00000000000E+00 0. -1.
</event>
<event>
 7    1  0.6610867E-006  0.1196973E+03  0.7561462E-02  0.1243597E+00
          1   -1    0    0  501    0  0.00000000000E+00  0.00000000000E+00  0.75996938897E+02  0.75996938897E+02  0.00000000000E+00 0. -1.
         -1   -1    0    0    0  501 -0.00000000000E+00 -0.00000000000E+00 -0.23933280469E+03  0.23933280469E+03  0.00000000000E+00 0.  1.
         23    2    1    2    0    0  0.76354653886E+02 -0.12198106910E+02 -0.99938051377E+02  0.15518800697E+03  0.90093709061E+02 0.  0.
          5    1    1    2  502    0 -0.86140407780E+02 -0.33358481044E+02 -0.65491878815E+02  0.11331203246E+03  0.41800000000E+01 0.  1.
         -5    1    1    2    0  502  0.97857538943E+01  0.45556587954E+02  0.20940644007E+01  0.46829704152E+02  0.41800000000E+01 0.  1.
        -11    1    3    3    0    0  0.19638179821E+02  0.25392610891E+02  0.25144492274E+01  0.32198839256E+02  0.00000000000E+00 0. -1.
         11    1    3    3    0    0  0.56716474066E+02 -0.37590717801E+02 -0.10245250060E+03  0.12298916771E+03  0.00000000000E+00 0.  1.
</event>
<event>
 7    1  0.6610867E-006  0.2293417E+03  0.7561462E-02  0.1127104E+00
         -1   -1    0    0    0  501 -0.00000000000E+00  0.00000000000E+00  0.78098430570E+02  0.78098430570E+02  0.00000000000E+00 0.  1.
          1   -1    0    0  501    0  0.00000000000E+00 -0.00000000000E+00 -0.19755019113E+04  0.19755019113E+04  0.00000000000E+00 0. -1.
         23    2    1    2    0    0  0.17851244263E+02  0.20773428142E+03 -0.11689525155E+03  0.25656710071E+03  0.93220055431E+02 0.  0.
          5    1    1    2  502    0 -0.18179973931E+02  0.11106499080E+02 -0.25189088111E+03  0.25282474990E+03  0.41800000000E+01 0.  1.
         -5    1    1    2    0  502  0.32872966789E+00 -0.21884078050E+03 -0.15286173480E+04  0.15442084912E+04  0.41800000000E+01 0.  1.
        -11    1    3    3    0    0 -0.16505624846E+02  0.15002240848E+03 -0.43483786000E+02  0.15706685947E+03  0.00000000000E+00 0.  1.
         11    1    3    3    0    0  0.34356869109E+02  0.57711872932E+02 -0.73411465554E+02  0.99500241242E+02  0.00000000000E+00 0. -1.
</event>
<event>
 7    1  0.6610867E-006  0.1054442E+03  0.7561462E-02  0.1269247E+00
         -1   -1    0    0    0  501 -0.00000000000E+00  0.00000000000E+00  0.17781277410E+03  0.17781277410E+03  0.00000000000E+00 0.  1.
          1   -1    0    0  501    0  0.00000000000E+00 -0.00000000000E+00 -0.10646324903E+03  0.10646324903E+03  0.00000000000E+00 0. -1.
         23    2    1    2    0    0  0.12343966294E+02  0.36026653377E+02  0.11042640042E+03  0.14780380165E+03  0.90563130547E+02 0.  0.
          5    1    1    2  502    0 -0.57781779177E+02 -0.41396711116E+02  0.68217875844E+01  0.71529230961E+02  0.41800000000E+01 0.  1.
         -5    1    1    2    0  502  0.45437812882E+02  0.53700577387E+01 -0.45898662925E+02  0.64942990522E+02  0.41800000000E+01 0.  1.
        -11    1    3    3    0    0  0.73397782922E+01  0.64456854946E+02  0.95101161323E+02  0.11512075999E+03  0.00000000000E+00 0.  1.
         11    1    3    3    0    0  0.50041880020E+01 -0.28430201569E+02  0.15325239095E+02  0.32683041660E+02  0.00000000000E+00 0. -1.
</event>
<event>
 7    1  0.6610867E-006  0.6484917E+02  0.7561462E-02  0.1378540E+00
         -2   -1    0    0    0  501 -0.00000000000E+00  0.00000000000E+00  0.23858331433E+03  0.23858331433E+03  0.00000000000E+00 0.  1.
          2   -1    0    0  501    0  0.00000000000E+00 -0.00000000000E+00 -0.82311646875E+02  0.82311646875E+02  0.00000000000E+00 0. -1.
         23    2    1    2    0    0  0.96108597452E+01 -0.49971119351E+00  0.75875759943E+02  0.11994066372E+03  0.92390548917E+02 0.  0.
          5    1    1    2  502    0 -0.18829048677E+02 -0.12077899289E+02 -0.57644016242E+02  0.61973492187E+02  0.41800000000E+01 0. -1.
         -5    1    1    2    0  502  0.92181889318E+01  0.12577610483E+02  0.13803992376E+03  0.13898080530E+03  0.41800000000E+01 0.  1.
        -11    1    3    3    0    0 -0.22827775447E+02  0.35583336981E+02  0.48076804446E+02  0.64020780441E+02  0.00000000000E+00 0. -1.
         11    1    3    3    0    0  0.32438635192E+02 -0.36083048175E+02  0.27798955497E+02  0.55919883275E+02  0.00000000000E+00 0.  1.
</event>
<event>
 7    1  0.6610867E-006  0.8687696E+02  0.7561462E-02  0.1310596E+00
          1   -1    0    0  501    0  0.00000000000E+00  0.00000000000E+00  0.43181435325E+03  0.43181435325E+03  0.00000000000E+00 0. -1.
         -1   -1    0    0    0  501 -0.00000000000E+00 -0.00000000000E+00 -0.40028735067E+02  0.40028735067E+02  0.00000000000E+00 0.  1.
         23    2    1    2    0    0  0.19155230591E+02  0.71960603739E+02  0.18255040854E+03  0.21694697862E+03  0.90532251293E+02 0.  0.
          5    1    1    2  502    0 -0.12030082151E+02 -0.81347690892E+02  0.52476042478E+02  0.97639014355E+02  0.41800000000E+01 0. -1.
         -5    1    1    2    0  502 -0.71251484393E+01  0.93870871530E+01  0.15675916716E+03  0.15725709534E+03  0.41800000000E+01 0. -1.
        -11    1    3    3    0    0  0.25634454739E+02  0.61177243793E+02  0.19073435811E+03  0.20193903979E+03  0.00000000000E+00 0. -1.
         11    1    3    3    0    0 -0.64792241488E+01  0.10783359946E+02 -0.81839495703E+01  0.15007938828E+02  0.00000000000E+00 0.  1.
</event>
<event>
 7    1  0.6610867E-006  0.1102229E+03  0.7561462E-02  0.1260158E+00
         -1   -1    0    0    0  501 -0.00000000000E+00  0.00000000000E+00  0.89775526287E+02  0.89775526287E+02  0.00000000000E+00 0.  1.
          1   -1    0    0  501    0  0.00000000000E+00 -0.00000000000E+00 -0.14685924515E+03  0.14685924515E+03  0.00000000000E+00 0. -1.
         23    2    1    2    0    0  0.43715075259E+02 -0.85016858399E+01 -0.28344486271E+02  0.10077878952E+03  0.85846770754E+02 0.  0.
          5    1    1    2  502    0 -0.35856914135E+02 -0.51602048171E+02 -0.39233378900E+02  0.74197170342E+02  0.41800000000E+01 0. -1.
         -5    1    1    2    0  502 -0.78581611231E+01  0.60103734011E+02  0.10494146303E+02  0.61658811576E+02  0.41800000000E+01 0. -1.
        -11    1    3    3    0    0  0.60722655262E+01  0.37091950740E+02 -0.10993582816E+02  0.39160491333E+02  0.00000000000E+00 0. -1.
         11    1    3    3    0    0  0.37642809732E+02 -0.45593636580E+02 -0.17350903456E+02  0.61618298190E+02  0.00000000000E+00 0.  1.
</event>
<event>
 7    1  0.6610867E-006  0.7945343E+02  0.7561462E-02  0.1330610E+00
          1   -1    0    0  501    0  0.00000000000E+00  0.00000000000E+00  0.20043554410E+03  0.20043554410E+03  0.00000000000E+00 0. -1.
         -1   -1    0    0    0  501 -0.00000000000E+00 -0.00000000000E+00 -0.71517907366E+02  0.71517907366E+02  0.00000000000E+00 0.  1.
         23    2    1    2    0    0 -0.88903660841E+01  0.27065918062E+02  0.96665745282E+01  0.96797436728E+02  0.92003796467E+02 0.  0.
          5    1    1    2  502    0 -0.22603012432E+02  0.18666258359E+02 -0.12484513016E+02  0.32135040647E+02  0.41800000000E+01 0.  1.
         -5    1    1    2    0  502  0.31493378516E+02 -0.45732176421E+02  0.13173557522E+03  0.14302097409E+03  0.41800000000E+01 0.  1.
        -11    1    3    3    0    0  0.21483298340E+02  0.36025011758E+02 -0.25805171954E+02  0.49246730646E+02  0.00000000000E+00 0.  1.
         11    1    3    3    0    0 -0.30373664424E+02 -0.89590936962E+01  0.35471746482E+02  0.47550706082E+02  0.00000000000E+00 0. -1.
</event>
<event>
 7    1  0.6610867E-006  0.7759781E+02  0.7561462E-02  0.1336010E+00
         -3   -1    0    0    0  501 -0.00000000000E+00  0.00000000000E+00  0.44440706326E+03  0.44440706326E+03  0.00000000000E+00 0.  1.
          3   -1    0    0  501    0  0.00000000000E+00 -0.00000000000E+00 -0.24638840077E+02  0.24638840077E+02  0.00000000000E+00 0. -1.
         23    2    1    2    0    0 -0.10762878850E+02 -0.28171977995E+01  0.15851705609E+03  0.18244946516E+03  0.89645825910E+02 0.  0.
          5    1    1    2  502    0 -0.21182086299E+01 -0.39370869049E+02  0.26474245903E+02  0.47675048333E+02  0.41800000000E+01 0. -1.
         -5    1    1    2    0  502  0.12881087480E+02  0.42188066848E+02  0.23477692120E+03  0.23892138984E+03  0.41800000000E+01 0.  1.
        -11    1    3    3    0    0 -0.65848045515E+01 -0.36605423797E+02  0.25377620316E+02  0.45025995994E+02  0.00000000000E+00 0. -1.
         11    1    3    3    0    0 -0.41780742986E+01  0.33788225998E+02  0.13313943577E+03  0.13742346917E+03  0.00000000000E+00 0.  1.
</event>
<event>
 7    1  0.6610867E-006  0.1187913E+03  0.7561462E-02  0.1245104E+00
         -4   -1    0    0    0  501 -0.00000000000E+00  0.00000000000E+00  0.31970458519E+02  0.31970458519E+02  0.00000000000E+00 0.  1.
          4   -1    0    0  501    0  0.00000000000E+00 -0.00000000000E+00 -0.59288221934E+03  0.59288221934E+03  0.00000000000E+00 0. -1.
         23    2    1    2    0    0 -0.18203021173E+02  0.81967934942E+02 -0.25673043023E+03  0.28540728867E+03  0.92177623550E+02 0.  0.
          5    1    1    2  502    0 -0.33693915180E+02 -0.11649450056E+02 -0.17936788032E+02  0.40127177469E+02  0.41800000000E+01 0. -1.
         -5    1    1    2    0  502  0.51896936353E+02 -0.70318484885E+02 -0.28624454256E+03  0.29931821172E+03  0.41800000000E+01 0. -1.
        -11    1    3    3    0    0 -0.47585069859E+02  0.36136479672E+02 -0.76119048945E+02  0.96769280502E+02  0.00000000000E+00 0.  1.
         11    1    3    3    0    0  0.29382048687E+02  0.45831455269E+02 -0.18061138128E+03  0.18863800817E+03  0.00000000000E+00 0. -1.
</event>
<event>
 6    1  0.6610867E-006  0.7561385E+02  0.7561462E-02  0.1341981E+00
          2   -1    0    0  501    0  0.00000000000E+00  0.00000000000E+00  0.73923839414E+03  0.73923839414E+03  0.00000000000E+00 0. -1.
         -2   -1    0    0    0  501 -0.00000000000E+00 -0.00000000000E+00 -0.30659704434E+02  0.30659704434E+02  0.00000000000E+00 0.  1.
          5    1    1    2  502    0  0.39424547768E+02  0.37366313752E+02  0.65281866490E+03  0.65508794678E+03  0.41800000000E+01 0. -1.
         -5    1    1    2    0  502  0.16368582776E+02 -0.56787697372E+00  0.66844728697E+01  0.18177116490E+02  0.41800000000E+01 0.  1.
        -11    1    1    2    0    0 -0.70558670456E+01 -0.29780449519E+02  0.32587789141E+02  0.44705977613E+02  0.00000000000E+00 0. -1.
         11    1    1    2    0    0 -0.48737263498E+02 -0.70179872596E+01  0.16487762792E+02  0.51927057690E+02  0.00000000000E+00 0.  1.
</event>
<event>
 7    1  0.6610867E-006  0.1243862E+03  0.7561462E-02  0.1236032E+00
         -2   -1    0    0    0  501 -0.00000000000E+00  0.00000000000E+00  0.92236551530E+02  0.92236551530E+02  0.00000000000E+00 0.  1.
          2   -1    0    0  501    0  0.00000000000E+00 -0.00000000000E+00 -0.26700067204E+03  0.26700067204E+03  0.00000000000E+00 0. -1.
         23    2    1    2    0    0 -0.91136156773E+02 -0.14990365058E+02 -0.64682744302E+01  0.13010390101E+03  0.91403918781E+02 0.  0.
          5    1    1    2  502    0  0.14623201447E+02  0.57758785488E+02 -0.34054659662E+02  0.68753964004E+02  0.41800000000E+01 0.  1.
         -5    1    1    2    0  502  0.76512955326E+02 -0.42768420430E+02 -0.13424118641E+03  0.16037935855E+03  0.41800000000E+01 0.  1.
        -11    1    3    3    0    0 -0.29370512103E+02 -0.25183816437E+02  0.37282758016E+02  0.53729467118E+02  0.00000000000E+00 0.  1.
         11    1    3    3    0    0 -0.61765644670E+02  0.10193451379E+02 -0.43751032446E+02  0.76374433894E+02  0.00000000000E+00 0. -1.
</event>
<event>
 7    1  0.6610867E-006  0.2217236E+03  0.7561462E-02  0.1132605E+00
          2   -1    0    0  501    0  0.00000000000E+00  0.00000000000E+00  0.15892220055E+04  0.15892220055E+04  0.00000000000E+00 0. -1.
         -2   -1    0    0    0  501 -0.00000000000E+00 -0.00000000000E+00 -0.67793135439E+02  0.67793135439E+02  0.00000000000E+00 0.  1.
         23    2    1    2    0    0  0.16496921155E+03 -0.73147025360E+02  0.12391492483E+03  0.23147664338E+03  0.75240944686E+02 0.  0.
          5    1    1    2  502    0 -0.10222709877E+03  0.13094108700E+03  0.11835549198E+04  0.11951634485E+04  0.41800000000E+01 0. -1.
         -5    1    1    2    0  502 -0.62742112778E+02 -0.57794061637E+02  0.21395902544E+03  0.23037504909E+03  0.41800000000E+01 0.  1.
        -11    1    3    3    0    0  0.13879007413E+03 -0.85404028660E+02  0.11984450178E+03  0.20228503997E+03  0.00000000000E+00 0.  1.
         11    1    3    3    0    0  0.26179137421E+02  0.12257003300E+02  0.40704230480E+01  0.29191603413E+02  0.00000000000E+00 0. -1.
</event>
<event>
 7    1  0.6610867E-006  0.1154284E+03  0.7561462E-02  0.1250835E+00
         -1   -1    0    0    0  501 -0.00000000000E+00  0.00000000000E+00  0.28410916296E+02  0.28410916296E+02  0.00000000000E+00 0.  1.
          1   -1    0    0  501    0  0.00000000000E+00 -0.00000000000E+00 -0.71696000659E+03  0.71696000659E+03  0.00000000000E+00 0. -1.
         23    2    1    2    0    0  0.70532268448E+02 -0.33334783179E+02 -0.19589229396E+03  0.23112969025E+03  0.94663267528E+02 0.  0.
          5    1    1    2  502    0 -0.99514744178E+02  0.41408095883E+02 -0.29176516409E+03  0.31106622782E+03  0.41800000000E+01 0.  1.
         -5    1    1    2    0  502  0.28982475730E+02 -0.80733127044E+01 -0.20089163224E+03  0.20317500481E+03  0.41800000000E+01 0.  1.
        -11    1    3    3    0    0  0.33039392396E+02 -0.42680991082E+02 -0.18237332036E+03  0.19019278753E+03  0.00000000000E+00 0. -1.
         11    1    3    3    0    0  0.37492876053E+02  0.93462079033E+01 -0.13518973601E+02  0.40936902718E+02  0.00000000000E+00 0.  1.
</event>
<event>
 7    1  0.6610867E-006  0.9761816E+02  0.7561462E-02  0.1285386E+00
         -1   -1    0    0    0  501 -0.00000000000E+00  0.00000000000E+00  0.30567746284E+02  0.30567746284E+02  0.00000000000E+00 0.  1.
          1   -1    0    0  501    0  0.00000000000E+00 -0.00000000000E+00 -0.50531932234E+03  0.50531932234E+03  0.00000000000E+00 0. -1.
         23    2    1    2    0    0 -0.54501969017E+02 -0.15697391820E+02 -0.22731633895E+03  0.25288821818E+03  0.95199055696E+02 0.  0.
          5    1    1    2  502    0  0.25934573021E+02  0.39262941006E+02 -0.17995143650E+02  0.50551737944E+02  0.41800000000E+01 0. -1.
         -5    1    1    2    0  502  0.28567395996E+02 -0.23565549185E+02 -0.22944009345E+03  0.23244711249E+03  0.41800000000E+01 0. -1.
        -11    1    3    3    0    0 -0.81935244361E+02 -0.14927038225E+02 -0.16658439732E+03  0.18624328758E+03  0.00000000000E+00 0. -1.
         11    1    3    3    0    0  0.27433275344E+02 -0.77035359559E+00 -0.60731941633E+02  0.66644930604E+02  0.00000000000E+00 0.  1.
</event>
<event>
 7    1  0.6610867E-006  0.1822782E+03  0.7561462E-02  0.1165616E+00
          2   -1    0    0  501    0  0.00000000000E+00  0.00000000000E+00  0.43381818035E+03  0.43381818035E+03  0.00000000000E+00 0. -1.
         -2   -1    0    0    0  501 -0.00000000000E+00 -0.00000000000E+00 -0.98111757764E+02  0.98111757764E+02  0.00000000000E+00 0.  1.
         23    2    1    2    0    0 -0.11977525477E+03 -0.10969303906E+03  0.75947761923E+02  0.20102002796E+03  0.90897275132E+02 0.  0.
          5    1    1    2  502    0  0.61822023726E+02  0.12660120831E+03  0.20811633625E+03  0.25135574466E+03  0.41800000000E+01 0.  1.
         -5    1    1    2    0  502  0.57953231043E+02 -0.16908169244E+02  0.51642324420E+02  0.79554165491E+02  0.41800000000E+01 0.  1.
        -11    1    3    3    0    0 -0.84527547191E+02 -0.67923202488E+02  0.12262007310E+01  0.10844340108E+03  0.00000000000E+00 0.  1.
         11    1    3    3    0    0 -0.35247707579E+02 -0.41769836576E+02  0.74721561192E+02  0.92576626878E+02  0.00000000000E+00 0. -1.
</event>
<event>
 7    1  0.6610867E-006  0.2214378E+03  0.7561462E-02  0.1132816E+00
         -1   -1    0    0    0  501 -0.00000000000E+00  0.00000000000E+00  0.91049346132E+02  0.91049346132E+02  0.00000000000E+00 0.  1.
          1   -1    0    0  501    0  0.00000000000E+00 -0.00000000000E+00 -0.11526097552E+04  0.11526097552E+04  0.00000000000E+00 0. -1.
         23    2    1    2    0    0  0.16766398378E+02 -0.84235350906E+02  0.74967265032E+01  0.12585108694E+03  0.91681997794E+02 0.  0.
          5    1    1    2  502    0 -0.13388527738E+03 -0.52232724493E+02 -0.40260711288E+03  0.42750846161E+03  0.41800000000E+01 0. -1.
         -5    1    1    2    0  502  0.11711887900E+03  0.13646807540E+03 -0.66645002265E+03  0.69029955274E+03  0.41800000000E+01 0.  1.
        -11    1    3    3    0    0  0.10045554056E+02 -0.10082240053E+03 -0.87248805659E+01  0.10169657392E+03  0.00000000000E+00 0.  1.
         11    1    3    3    0    0  0.67208443221E+01  0.16587049625E+02  0.16221607069E+02  0.24154513027E+02  0.00000000000E+00 0. -1.
</event>
<event>
 7    1  0.6610867E-006  0.1235620E+03  0.7561462E-02  0.1237334E+00
          2   -1    0    0  501    0  0.00000000000E+00  0.00000000000E+00  0.57851976361E+02  0.57851976361E+02  0.00000000000E+00 0. -1.
         -2   -1    0    0    0  501 -0.00000000000E+00 -0.00000000000E+00 -0.40010208967E+03  0.40010208967E+03  0.00000000000E+00 0.  1.
         23    2    1    2    0    0 -0.10278232691E+03  0.12081092470E+02 -0.20429382815E+03  0.24490608146E+03  0.86792056066E+02 0.  0.
          5    1    1    2  502    0  0.60697838463E+02 -0.51635500774E+02 -0.13277550613E+03  0.15491049017E+03  0.41800000000E+01 0.  1.
         -5    1    1    2    0  502  0.42084488451E+02  0.39554408305E+02 -0.51807790292E+01  0.58137494406E+02  0.41800000000E+01 0.  1.
        -11    1    3    3    0    0 -0.51291221366E+02 -0.11843155668E+02 -0.27853972679E+02  0.59555801727E+02  0.00000000000E+00 0. -1.
         11    1    3    3    0    0 -0.51491105548E+02  0.23924248138E+02 -0.17643985547E+03  0.18535027973E+03  0.00000000000E+00 0.  1.
</event>
<event>
 7    1  0.6610867E-006  0.1022140E+03  0.7561462E-02  0.1275708E+00
         -1   -1    0    0    0  501 -0.00000000000E+00  0.00000000000E+00  0.17555025463E+03  0.17555025463E+03  0.00000000000E+00 0.  1.
          1   -1    0    0  501    0  0.00000000000E+00 -0.00000000000E+00 -0.84002448799E+02  0.84002448799E+02  0.00000000000E+00 0. -1.
         23    2    1    2    0    0  0.45067839601E+02 -0.89515225594E+01  0.72883766069E+02  0.12499206179E+03  0.90552372863E+02 0.  0.
          5    1    1    2  502    0  0.35227030671E+02  0.33583348139E+02  0.23856380900E+01  0.48907551883E+02  0.41800000000E+01 0. -1.
         -5    1    1    2    0  502 -0.80294870272E+02 -0.24631825580E+02  0.16278401668E+02  0.85653089753E+02  0.41800000000E+01 0. -1.
        -11    1    3    3    0    0  0.56544069338E+02  0.61294809972E+00  0.87441524452E+02  0.10413274068E+03  0.00000000000E+00 0.  1.
         11    1    3    3    0    0 -0.11476229737E+02 -0.95644706591E+01 -0.14557758384E+02  0.20859321109E+02  0.00000000000E+00 0. -1.
</event>
<event>
 7    1  0.6610867E-006  0.1540524E+03  0.7561462E-02  0.1195580E+00
         -2   -1    0    0    0  501 -0.00000000000E+00  0.00000000000E+00  0.16386715179E+03  0.16386715179E+03  0.00000000000E+00 0.  1.
          2   -1    0    0  501    0  0.00000000000E+00 -0.00000000000E+00 -0.19711731063E+03  0.19711731063E+03  0.00000000000E+00 0. -1.
         23    2    1    2    0    0  0.13193817646E+03 -0.16334598504E+02  0.34455322656E+02  0.16629113603E+03  0.93760712173E+02 0.  0.
          5    1    1    2  502    0 -0.14868776608E+03  0.22254580184E+02 -0.30802060326E+02  0.15352380090E+03  0.41800000000E+01 0.  1.
         -5    1    1    2    0  502  0.16749589628E+02 -0.59199816802E+01 -0.36903421167E+02  0.41169525497E+02  0.41800000000E+01 0.  1.
        -11    1    3    3    0    0  0.63163034182E+02  0.13326982810E+02 -0.26442442658E+02  0.69759444749E+02  0.00000000000E+00 0. -1.
         11    1    3    3    0    0  0.68775142274E+02 -0.29661581314E+02  0.60897765315E+02  0.96531691279E+02  0.00000000000E+00 0.  1.
</event>
<event>
 6    1  0.6610867E-006  0.4426109E+03  0.7561462E-02  0.1029949E+00
         -1   -1    0    0    0  501 -0.00000000000E+00  0.00000000000E+00  0.84525887811E+02  0.84525887811E+02  0.00000000000E+00 0.  1.
          1   -1    0    0  501    0  0.00000000000E+00 -0.00000000000E+00 -0.28904878324E+04  0.28904878324E+04  0.00000000000E+00 0. -1.
          5    1    1    2  502    0 -0.22122495774E+03 -0.64636556859E+02 -0.81197650377E+03  0.84406260520E+03  0.41800000000E+01 0.  1.
         -5    1    1    2    0  502 -0.21410530543E+03  0.30389692965E+02 -0.11082620798E+04  0.11291709016E+04  0.41800000000E+01 0.  1.
        -11    1    1    2    0    0  0.60082897314E+02 -0.87443622480E+01 -0.29091970699E+03  0.29718797812E+03  0.00000000000E+00 0.  1.
         11    1    1    2    0    0  0.37524736586E+03  0.42991226142E+02 -0.59480365405E+03  0.70459223525E+03  0.00000000000E+00 0. -1.
</event>
<event>
 7    1  0.6610867E-006  0.9024302E+02  0.7561462E-02  0.1302264E+00
         -2   -1    0    0    0  501 -0.00000000000E+00  0.00000000000E+00  0.49517728464E+02  0.49517728464E+02  0.00000000000E+00 0.  1.
          2   -1    0    0  501    0  0.00000000000E+00 -0.00000000000E+00 -0.38468611069E+03  0.38468611069E+03  0.00000000000E+00 0. -1.
         23    2    1    2    0    0 -0.57320440006E+02 -0.51091161725E+02 -0.82495875044E+02  0.14482947762E+03  0.90961907076E+02 0.  0.
          5    1    1    2  502    0 -0.85715256324E+01 -0.51875248687E+01  0.87431066112E+01  0.13939002086E+02  0.41800000000E+01 0. -1.
         -5    1    1    2    0  502  0.65891965639E+02  0.56278686594E+02 -0.26141561380E+03  0.27543535945E+03  0.41800000000E+01 0.  1.
        -11    1    3    3    0    0 -0.19138839078E+02 -0.37935613288E+02  0.10218515025E+02  0.43701532766E+02  0.00000000000E+00 0.  1.
         11    1    3    3    0    0 -0.38181600928E+02 -0.13155548438E+02 -0.92714390069E+02  0.10112794485E+03  0.00000000000E+00 0. -1.
</event>
<event>
 6    1  0.2416673E-005  0.3238291E+02  0.7561462E-02  0.1573150E+00
         -2   -1    0    0    0  501 -0.00000000000E+00  0.00000000000E+00  0.58462214476E+02  0.58462214476E+02  0.00000000000E+00 0.  1.
          2   -1    0    0  501    0  0.00000000000E+00 -0.00000000000E+00 -0.29623264505E+03  0.29623264505E+03  0.00000000000E+00 0. -1.
          5    1    1    2  502    0 -0.21629782540E+01 -0.21693268263E+02 -0.28413082623E+03  0.28499662310E+03  0.41800000000E+01 0. -1.
         -5    1    1    2    0  502 -0.10556345796E+01  0.18659385832E+02  0.33043503242E+01  0.19433943888E+02  0.41800000000E+01 0.  1.
        -11    1    1    2    0    0  0.13216809098E+02  0.19562607617E+01  0.13288193028E+02  0.18843754213E+02  0.00000000000E+00 0.  1.
         11    1    1    2    0    0 -0.99981962644E+01  0.10776216698E+01  0.29767852312E+02  0.31420538319E+02  0.00000000000E+00 0. -1.
</event>
<event>
 7    1  0.6610867E-006  0.1644018E+03  0.7561462E-02  0.1183815E+00
         -2   -1    0    0    0  501 -0.00000000000E+00  0.00000000000E+00  0.10861052461E+03  0.10861052461E+03  0.00000000000E+00 0.  1.
          2   -1    0    0  501    0  0.00000000000E+00 -0.00000000000E+00 -0.31967694757E+03  0.31967694757E+03  0.00000000000E+00 0. -1.
         23    2    1    2    0    0  0.30015157106E+02  0.14670564874E+03 -0.75053590376E+02  0.19044014003E+03  0.90614284069E+02 0.  0.
          5    1    1    2  502    0  0.26176467223E+02 -0.36812450379E+02 -0.99040020038E+02  0.10893466807E+03  0.41800000000E+01 0.  1.
         -5    1    1    2    0  502 -0.56191624329E+02 -0.10989319836E+03 -0.36972812546E+02  0.12891266407E+03  0.41800000000E+01 0.  1.
        -11    1    3    3    0    0  0.29488033016E+02  0.26228313633E+02  0.12624739524E+02  0.41434919757E+02  0.00000000000E+00 0.  1.
         11    1    3    3    0    0  0.52712408999E+00  0.12047733511E+03 -0.87678329900E+02  0.14900522027E+03  0.00000000000E+00 0. -1.
</event>
<event>
 7    1  0.6610867E-006  0.7876394E+02  0.7561462E-02  0.1332596E+00
          1   -1    0    0  501    0  0.00000000000E+00  0.00000000000E+00  0.10305127789E+04  0.10305127789E+04  0.00000000000E+00 0. -1.
         -1   -1    0    0    0  501 -0.00000000000E+00 -0.00000000000E+00 -0.13501415420E+02  0.13501415420E+02  0.00000000000E+00 0.  1.
         23    2    1    2    0    0 -0.16543381495E+02 -0.51001382214E+01  0.24930825398E+03  0.26599393234E+03  0.91095947541E+02 0.  0.
          5    1    1    2  502    0 -0.99055641085E+01  0.30422613371E+02  0.70156818023E+03  0.70230978886E+03  0.41800000000E+01 0. -1.
         -5    1    1    2    0  502  0.26448945603E+02 -0.25322475150E+02  0.66134929244E+02  0.75710473102E+02  0.41800000000E+01 0. -1.
        -11    1    3    3    0    0 -0.17650389172E+02  0.39776464381E+02  0.16300792947E+03  0.16871659203E+03  0.00000000000E+00 0. -1.
         11    1    3    3    0    0  0.11070076768E+01 -0.44876602602E+02  0.86300324510E+02  0.97277340309E+02  0.00000000000E+00 0.  1.
</event>
<event>
 7    1  0.6610867E-006  0.1402040E+03  0.7561462E-02  0.1213055E+00
          1   -1    0    0  501    0  0.00000000000E+00  0.00000000000E+00  0.38733324793E+03  0.38733324793E+03  0.00000000000E+00 0. -1.
         -1   -1    0    0    0  501 -0.00000000000E+00 -0.00000000000E+00 -0.59757465999E+02  0.59757465999E+02  0.00000000000E+00 0.  1.
         23    2    1    2    0    0 -0.93027220693E+02 -0.75878162123E+01  0.70836490089E+02  0.14663496808E+03  0.88161027622E+02 0.  0.
          5    1    1    2  502    0 -0.21039802307E+02 -0.25480163600E+02  0.31777402854E+02  0.46034636420E+02  0.41800000000E+01 0. -1.
         -5    1    1    2    0  502  0.11406702300E+03  0.33067979813E+02  0.22496188899E+03  0.25442110943E+03  0.41800000000E+01 0. -1.
        -11    1    3    3    0    0 -0.70454669864E+02 -0.45692993454E+02  0.49449589247E+02  0.97452409067E+02  0.00000000000E+00 0.  1.
         11    1    3    3    0    0 -0.22572550830E+02  0.38105177241E+02  0.21386900842E+02  0.49182559014E+02  0.00000000000E+00 0. -1.
</event>
<event>
 7    1  0.6610867E-006  0.1147722E+03  0.7561462E-02  0.1251979E+00
          2   -1    0    0  501    0  0.00000000000E+00  0.00000000000E+00  0.24493762243E+02  0.24493762243E+02  0.00000000000E+00 0. -1.
         -2   -1    0    0    0  501 -0.00000000000E+00 -0.00000000000E+00 -0.55802880929E+03  0.55802880929E+03  0.00000000000E+00 0.  1.
         23    2    1    2    0    0  0.41885744806E+02 -0.66440685760E+01 -0.26361353993E+03  0.28201620787E+03  0.90788125886E+02 0.  0.
          5    1    1    2  502    0  0.36750238487E+02 -0.24931006922E+02 -0.66207501323E+02  0.79831326974E+02  0.41800000000E+01 0.  1.
         -5    1    1    2    0  502 -0.78635983293E+02  0.31575075498E+02 -0.20371400579E+03  0.22067503669E+03  0.41800000000E+01 0.  1.
        -11    1    3    3    0    0  0.41016460131E+02 -0.45484969318E+02 -0.16758721687E+03  0.17842843858E+03  0.00000000000E+00 0.  1.
         11    1    3    3    0    0  0.86928467519E+00  0.38840900742E+02 -0.96026323059E+02  0.10358776929E+03  0.00000000000E+00 0. -1.
</event>
<event>
 7    1  0.6610867E-006  0.1249537E+03  0.7561462E-02  0.1235142E+00
          4   -1    0    0  501    0  0.00000000000E+00  0.00000000000E+00  0.23401944150E+03  0.23401944150E+03  0.00000000000E+00 0. -1.
         -4   -1    0    0    0  501 -0.00000000000E+00 -0.00000000000E+00 -0.12643318430E+03  0.12643318430E+03  0.00000000000E+00 0.  1.
         23    2    1    2    0    0 -0.11863463396E+02 -0.81065505627E+02 -0.53373912012E+02  0.14075301253E+03  0.10124365702E+03 0.  0.
          5    1    1    2  502    0  0.39584265055E+02  0.10474888614E+03  0.11117466807E+03  0.15784968295E+03  0.41800000000E+01 0. -1.
         -5    1    1    2    0  502 -0.27720801659E+02 -0.23683380509E+02  0.49785501138E+02  0.61849930319E+02  0.41800000000E+01 0. -1.
        -11    1    3    3    0    0  0.21548284490E+02 -0.54041476441E+02 -0.73135966054E+02  0.93454155986E+02  0.00000000000E+00 0.  1.
         11    1    3    3    0    0 -0.33411747887E+02 -0.27024029186E+02  0.19762054042E+02  0.47298856543E+02  0.00000000000E+00 0. -1.
</event>
<event>
 7    1  0.6610867E-006  0.7686819E+02  0.7561462E-02  0.1338182E+00
          2   -1    0    0  501    0  0.00000000000E+00  0.00000000000E+00  0.51387216790E+03  0.51387216790E+03  0.00000000000E+00 0. -1.
         -2   -1    0    0    0  501 -0.00000000000E+00 -0.00000000000E+00 -0.30069993791E+02  0.30069993791E+02  0.00000000000E+00 0.  1.
         23    2    1    2    0    0  0.21817709413E+02 -0.53097758331E+02  0.15588753876E+03  0.18831422074E+03  0.88690115615E+02 0.  0.
          5    1    1    2  502    0 -0.99541466407E+01  0.25482066557E+02  0.14041642362E+01  0.27710374024E+02  0.41800000000E+01 0.  1.
         -5    1    1    2    0  502 -0.11863562772E+02  0.27615691774E+02  0.32651047111E+03  0.32791756693E+03  0.41800000000E+01 0.  1.
        -11    1    3    3    0    0 -0.28909880296E+02 -0.19454729170E+02  0.21922280464E+02  0.41168605108E+02  0.00000000000E+00 0.  1.
         11    1    3    3    0    0  0.50727589709E+02 -0.33643029161E+02  0.13396525829E+03  0.14714561563E+03  0.00000000000E+00 0. -1.
</event>
<event>
 7    1  0.6610867E-006  0.1016273E+03  0.7561462E-02  0.1276911E+00
         -1   -1    0    0    0  501 -0.00000000000E+00  0.00000000000E+00  0.38786476064E+02  0.38786476064E+02  0.00000000000E+00 0.  1.
          1   -1    0    0  501    0  0.00000000000E+00 -0.00000000000E+00 -0.35043851632E+03  0.35043851632E+03  0.00000000000E+00 0. -1.
         23    2    1    2    0    0 -0.45093248737E+02 -0.24070391385E+01 -0.10334876672E+03  0.14208870855E+03  0.86423599764E+02 0.  0.
          5    1    1    2  502    0  0.64740264966E+02  0.45712303301E+02 -0.16314523674E+03  0.18142424660E+03  0.41800000000E+01 0. -1.
         -5    1    1    2    0  502 -0.19647016229E+02 -0.43305264162E+02 -0.45158036793E+02  0.65712037237E+02  0.41800000000E+01 0. -1.
        -11    1    3    3    0    0  0.82509131868E+00  0.23445039167E+02  0.27542487175E+01  0.23620679991E+02  0.00000000000E+00 0.  1.
         11    1    3    3    0    0 -0.45918340056E+02 -0.25852078306E+02 -0.10610301544E+03  0.11846802856E+03  0.00000000000E+00 0. -1.
</event>
<event>
 7    1  0.6610867E-006  0.9278671E+02  0.7561462E-02  0.1296240E+00
          1   -1    0    0  501    0  0.00000000000E+00  0.00000000000E+00  0.26431417167E+03  0.26431417167E+03  0.00000000000E+00 0. -1.
         -1   -1    0    0    0  501 -0.00000000000E+00 -0.00000000000E+00 -0.48950899300E+02  0.48950899300E+02  0.00000000000E+00 0.  1.
         23    2    1    2    0    0  0.14358250680E+01 -0.35029890107E+02  0.91370021829E+02  0.13375406878E+03  0.91172996174E+02 0.  0.
          5    1    1    2  502    0  0.28782360859E+02  0.47278228517E+02  0.46264238416E+01  0.55700371506E+02  0.41800000000E+01 0.  1.
         -5    1    1    2    0  502 -0.30218185927E+02 -0.12248338411E+02  0.11936682670E+03  0.12381063069E+03  0.41800000000E+01 0.  1.
        -11    1    3    3    0    0  0.35441816144E+02  0.13507028311E+02  0.29234764664E+02  0.47887718784E+02  0.00000000000E+00 0.  1.
         11    1    3    3    0    0 -0.34005991076E+02 -0.48536918417E+02  0.62135257166E+02  0.85866349996E+02  0.00000000000E+00 0. -1.
</event>
<event>
 7    1  0.6610867E-006  0.1420533E+03  0.7561462E-02  0.1210593E+00
          3   -1    0    0  501    0  0.00000000000E+00  0.00000000000E+00  0.17765212620E+03  0.17765212620E+03  0.00000000000E+00 0. -1.
         -3   -1    0    0    0  501 -0.00000000000E+00 -0.00000000000E+00 -0.15632120498E+03  0.15632120498E+03  0.00000000000E+00 0.  1.
         23    2    1    2    0    0 -0.12577455288E+03 -0.16491796723E+02  0.17322865025E+02  0.15577128221E+03  0.88732142974E+02 0.  0.
          5    1    1    2  502    0  0.37399399887E+02  0.17417928505E+02 -0.57174829319E+02  0.70629546600E+02  0.41800000000E+01 0. -1.
         -5    1    1    2    0  502  0.88375152992E+02 -0.92613178242E+00  0.61182885513E+02  0.10757250237E+03  0.41800000000E+01 0. -1.
        -11    1    3    3    0    0 -0.23517987546E+01  0.24114611462E+02  0.79613558928E+01  0.25503502328E+02  0.00000000000E+00 0.  1.
         11    1    3    3    0    0 -0.12342275412E+03 -0.40606408185E+02  0.93615091327E+01  0.13026777988E+03  0.00000000000E+00 0. -1.
</event>
<event>
 7    1  0.6610867E-006  0.1222094E+03  0.7561462E-02  0.1239496E+00
          1   -1    0    0  501    0  0.00000000000E+00  0.00000000000E+00  0.20131134849E+03  0.20131134849E+03  0.00000000000E+00 0. -1.
         -1   -1    0    0    0  501 -0.00000000000E+00 -0.00000000000E+00 -0.95356516151E+02  0.95356516151E+02  0.00000000000E+00 0.  1.
         23    2    1    2    0    0 -0.46274062394E+02 -0.42288874410E+02 -0.16804752177E+02  0.11053083905E+03  0.89470827293E+02 0.  0.
          5    1    1    2  502    0  0.20902504798E+02  0.86033440228E+02  0.70067644375E+02  0.11298501995E+03  0.41800000000E+01 0.  1.
         -5    1    1    2    0  502  0.25371557596E+02 -0.43744565819E+02  0.52691940138E+02  0.73152005639E+02  0.41800000000E+01 0.  1.
        -11    1    3    3    0    0  0.18263885263E+02 -0.35785568325E+02  0.82148246447E+01  0.41008044933E+02  0.00000000000E+00 0.  1.
         11    1    3    3    0    0 -0.64537947657E+02 -0.65033060848E+01 -0.25019576822E+02  0.69522794119E+02  0.00000000000E+00 0. -1.
</event>
<event>
 7    1  0.6610867E-006  0.9969573E+02  0.7561462E-02  0.1280937E+00
         -2   -1    0    0    0  501 -0.00000000000E+00  0.00000000000E+00  0.34101615804E+03  0.34101615804E+03  0.00000000000E+00 0.  1.
          2   -1    0    0  501    0  0.00000000000E+00 -0.00000000000E+00 -0.44504179967E+02  0.44504179967E+02  0.00000000000E+00 0. -1.
         23    2    1    2    0    0  0.15177868514E+02  0.34134783591E+02  0.19962262952E+03  0.22294583730E+03  0.91978807385E+02 0.  0.
          5    1    1    2  502    0 -0.20961154485E+02 -0.68683103954E+02  0.15097646577E+02  0.73499320393E+02  0.41800000000E+01 0. -1.
         -5    1    1    2    0  502  0.57832859712E+01  0.34548320364E+02  0.81791701979E+02  0.89075180321E+02  0.41800000000E+01 0. -1.
        -11    1    3    3    0    0  0.49857781688E+02  0.12835120487E+02  0.68743603996E+02  0.85884933505E+02  0.00000000000E+00 0.  1.
         11    1    3    3    0    0 -0.34679913174E+02  0.21299663104E+02  0.13087902552E+03  0.13706090379E+03  0.00000000000E+00 0. -1.
</event>
<event>
 7    1  0.6610867E-006  0.1043273E+03  0.7561462E-02  0.1271451E+00
         -1   -1    0    0    0  501 -0.00000000000E+00  0.00000000000E+00  0.83201246505E+02  0.83201246505E+02  0.00000000000E+00 0.  1.
          1   -1    0    0  501    0  0.00000000000E+00 -0.00000000000E+00 -0.19252040722E+03  0.19252040722E+03  0.00000000000E+00 0. -1.
         23    2    1    2    0    0 -0.57468967804E+02  0.64433143719E+01 -0.16980490108E+02  0.10983662240E+03  0.91823461140E+02 0.  0.
          5    1    1    2  502    0  0.10464143211E+02  0.48922642865E+02 -0.24731602082E+01  0.50264422801E+02  0.41800000000E+01 0. -1.
         -5    1    1    2    0  502  0.47004824593E+02 -0.55365957237E+02 -0.89865510394E+02  0.11562060852E+03  0.41800000000E+01 0. -1.
        -11    1    3    3    0    0 -0.66419891426E+02  0.20081740719E+02  0.17612840689E+02  0.71589737005E+02  0.00000000000E+00 0.  1.
         11    1    3    3    0    0  0.89509236217E+01 -0.13638426347E+02 -0.34593330797E+02  0.38246885396E+02  0.00000000000E+00 0. -1.
</event>
<event>
 7    1  0.6610867E-006  0.1040711E+03  0.7561462E-02  0.1271961E+00
         -2   -1    0    0    0  501 -0.00000000000E+00  0.00000000000E+00  0.36453174786E+02  0.36453174786E+02  0.00000000000E+00 0. -1.
          2   -1    0    0  501    0  0.00000000000E+00 -0.00000000000E+00 -0.47664821880E+03  0.47664821880E+03  0.00000000000E+00 0.  1.
         23    2    1    2    0    0  0.64518156334E+02 -0.17348280690E+02 -0.12170639971E+03  0.16446494254E+03  0.88162998224E+02 0.  0.
          5    1    1    2  502    0 -0.29653096165E+02  0.68553974510E+02 -0.12770011634E+03  0.14799914069E+03  0.41800000000E+01 0. -1.
         -5    1    1    2    0  502 -0.34865060169E+02 -0.51205693820E+02 -0.19078852797E+03  0.20063731035E+03  0.41800000000E+01 0. -1.
        -11    1    3    3    0    0  0.33568757611E+02 -0.21726469284E+02 -0.12358404436E+01  0.40005352851E+02  0.00000000000E+00 0. -1.
         11    1    3    3    0    0  0.30949398723E+02  0.43781885941E+01 -0.12047055927E+03  0.12445958969E+03  0.00000000000E+00 0.  1.
</event>
<event>
 7    1  0.6610867E-006  0.1622708E+03  0.7561462E-02  0.1186157E+00
          2   -1    0    0  501    0  0.00000000000E+00  0.00000000000E+00  0.89490613781E+03  0.89490613781E+03  0.00000000000E+00 0. -1.
         -2   -1    0    0    0  501 -0.00000000000E+00 -0.00000000000E+00 -0.36756193933E+02  0.36756193933E+02  0.00000000000E+00 0.  1.
         23    2    1    2    0    0  0.92742894116E+02  0.91867917083E+02  0.31632840097E+03  0.36255442673E+03  0.11975431716E+03 0.  0.
          5    1    1    2  502    0 -0.11933463147E+03 -0.84113036172E+02  0.45874058986E+03  0.48143136407E+03  0.41800000000E+01 0. -1.
         -5    1    1    2    0  502  0.26591737359E+02 -0.77548809119E+01  0.83080953043E+02  0.87676540946E+02  0.41800000000E+01 0.  1.
        -11    1    3    3    0    0  0.92436106656E+02  0.43603420911E+02  0.10794049688E+03  0.14865006894E+03  0.00000000000E+00 0.  1.
         11    1    3    3    0    0  0.30678746033E+00  0.48264496173E+02  0.20838790409E+03  0.21390435779E+03  0.00000000000E+00 0. -1.
</event>
<event>
 7    1  0.6610867E-006  0.1361402E+03  0.7561462E-02  0.1218619E+00
         -1   -1    0    0    0  501 -0.00000000000E+00  0.00000000000E+00  0.17882254181E+02  0.17882254181E+02  0.00000000000E+00 0.  1.
          1   -1    0    0  501    0  0.00000000000E+00 -0.00000000000E+00 -0.16458898861E+04  0.16458898861E+04  0.00000000000E+00 0. -1.
         23    2    1    2    0    0 -0.57112040670E+02 -0.84212061432E+02 -0.35087754623E+03  0.37650255306E+03  0.91025620203E+02 0.  0.
          5    1    1    2  502    0  0.46106331073E+02 -0.74909104824E+01 -0.79329859600E+03  0.79468361146E+03  0.41800000000E+01 0. -1.
         -5    1    1    2    0  502  0.11005709596E+02  0.91702971914E+02 -0.48383148969E+03  0.49258597576E+03  0.41800000000E+01 0. -1.
        -11    1    3    3    0    0 -0.91764391758E+01  0.17904644448E+02 -0.27947620295E+02  0.34436213626E+02  0.00000000000E+00 0.  1.
         11    1    3    3    0    0 -0.47935601494E+02 -0.10211670588E+03 -0.32292992594E+03  0.34206633944E+03  0.00000000000E+00 0. -1.
</event>
<event>
 7    1  0.6610867E-006  0.9432149E+02  0.7561462E-02  0.1292712E+00
          1   -1    0    0  501    0  0.00000000000E+00  0.00000000000E+00  0.42576301743E+04  0.42576301743E+04  0.00000000000E+00 0. -1.
         -1   -1    0    0    0  501 -0.00000000000E+00 -0.00000000000E+00 -0.79590564652E+02  0.79590564652E+02  0.00000000000E+00 0.  1.
         23    2    1    2    0    0  0.23356299913E+01  0.41032001115E+02 -0.47483335481E+02  0.11002471077E+03  0.90342069647E+02 0.  0.
          5    1    1    2  502    0 -0.52415611799E+02 -0.37179584897E+01  0.24579561458E+04  0.24585213253E+04  0.41800000000E+01 0. -1.
         -5    1    1    2    0  502  0.50079981808E+02 -0.37314042625E+02  0.17675667993E+04  0.17686747029E+04  0.41800000000E+01 0.  1.
        -11    1    3    3    0    0  0.29496827736E+02  0.79808069344E+01 -0.58366959826E+02  0.65882153313E+02  0.00000000000E+00 0.  1.
         11    1    3    3    0    0 -0.27161197745E+02  0.33051194181E+02  0.10883624345E+02  0.44142557454E+02  0.00000000000E+00 0. -1.
</event>
<event>
 7    1  0.6610867E-006  0.2613296E+03  0.7561462E-02  0.1106347E+00
         -2   -1    0    0    0  501 -0.00000000000E+00  0.00000000000E+00  0.51617527030E+03  0.51617527030E+03  0.00000000000E+00 0. -1.
          2   -1    0    0  501    0  0.00000000000E+00 -0.00000000000E+00 -0.22285072820E+03  0.22285072820E+03  0.00000000000E+00 0.  1.
         23    2    1    2    0    0  0.13004195115E+03 -0.21440575325E+03  0.36239324986E+03  0.45041053563E+03  0.93059373392E+02 0.  0.
          5    1    1    2  502    0 -0.26263495736E+02  0.86211554175E+02 -0.83586705279E+02  0.12298948321E+03  0.41800000000E+01 0.  1.
         -5    1    1    2    0  502 -0.10377845542E+03  0.12819419907E+03  0.14517997515E+02  0.16562597965E+03  0.41800000000E+01 0.  1.
        -11    1    3    3    0    0  0.72671554642E+02 -0.19298039388E+03  0.28173828899E+03  0.34914044561E+03  0.00000000000E+00 0. -1.
         11    1    3    3    0    0  0.57370396510E+02 -0.21425359365E+02  0.80654960879E+02  0.10127009003E+03  0.00000000000E+00 0.  1.
</event>
<event>
 7    1  0.6610867E-006  0.1035543E+03  0.7561462E-02  0.1272994E+00
          1   -1    0    0  501    0  0.00000000000E+00  0.00000000000E+00  0.12613133278E+03  0.12613133278E+03  0.00000000000E+00 0. -1.
         -1   -1    0    0    0  501 -0.00000000000E+00 -0.00000000000E+00 -0.13282592990E+03  0.13282592990E+03  0.00000000000E+00 0.  1.
         23    2    1    2    0    0 -0.37667562424E+01 -0.10516552210E+02 -0.74628578797E+02  0.11617325667E+03  0.88329012615E+02 0.  0.
          5    1    1    2  502    0 -0.40368691788E+02 -0.38035115907E+02  0.13031270660E+02  0.57127819263E+02  0.41800000000E+01 0. -1.
         -5    1    1    2    0  502  0.44135448031E+02  0.48551668117E+02  0.54902711023E+02  0.85656186744E+02  0.41800000000E+01 0. -1.
        -11    1    3    3    0    0  0.38497594348E+02  0.84512360914E+01 -0.50128719523E+02  0.63768147872E+02  0.00000000000E+00 0.  1.
         11    1    3    3    0    0 -0.42264350590E+02 -0.18967788301E+02 -0.24499859274E+02  0.52405108800E+02  0.00000000000E+00 0. -1.
</event>
<event>
 7    1  0.6610867E-006  0.7616350E+02  0.7561462E-02  0.1340305E+00
         -1   -1    0    0    0  501 -0.00000000000E+00  0.00000000000E+00  0.14702171530E+03  0.14702171530E+03  0.00000000000E+00 0.  1.
          1   -1    0    0  501    0  0.00000000000E+00 -0.00000000000E+00 -0.86594622002E+02  0.86594622002E+02  0.00000000000E+00 0. -1.
         23    2    1    2    0    0 -0.19448838372E+02  0.10282247907E+02  0.44259454701E+02  0.10557996655E+03  0.93296559799E+02 0.  0.
          5    1    1    2  502    0  0.35835136385E+02 -0.16619910335E+02 -0.47463459941E+02  0.61892090358E+02  0.41800000000E+01 0. -1.
         -5    1    1    2    0  502 -0.16386298013E+02  0.63376624276E+01  0.63631098539E+02  0.66144280394E+02  0.41800000000E+01 0. -1.
        -11    1    3    3    0    0 -0.20099543689E+02  0.50484071165E+02  0.33950303071E+02  0.64072273071E+02  0.00000000000E+00 0.  1.
         11    1    3    3    0    0  0.65070531697E+00 -0.40201823258E+02  0.10309151630E+02  0.41507693480E+02  0.00000000000E+00 0. -1.
</event>
<event>
 7    1  0.6610867E-006  0.1582771E+03  0.7561462E-02  0.1190656E+00
         -2   -1    0    0    0  501 -0.00000000000E+00  0.00000000000E+00  0.34512488578E+02  0.34512488578E+02  0.00000000000E+00 0.  1.
          2   -1    0    0  501    0  0.00000000000E+00 -0.00000000000E+00 -0.10328394895E+04  0.10328394895E+04  0.00000000000E+00 0. -1.
         23    2    1    2    0    0  0.77299962052E+01 -0.14909748795E+03 -0.35912764772E+03  0.39913565606E+03  0.89703906410E+02 0.  0.
          5    1    1    2  502    0  0.19957918064E+02  0.11174087633E+03 -0.58823285396E+03  0.59909907762E+03  0.41800000000E+01 0. -1.
         -5    1    1    2    0  502 -0.27687914269E+02  0.37356611617E+02 -0.50966499261E+02  0.69117244411E+02  0.41800000000E+01 0. -1.
        -11    1    3    3    0    0 -0.18948390690E+02 -0.45143396488E+02 -0.42564059884E+02  0.64874239495E+02  0.00000000000E+00 0.  1.
         11    1    3    3    0    0  0.26678386895E+02 -0.10395409146E+03 -0.31656358783E+03  0.33426141656E+03  0.00000000000E+00 0. -1.
</event>
<event>
 7    1  0.6610867E-006  0.1117914E+03  0.7561462E-02  0.1257288E+00
          1   -1    0    0  501    0  0.00000000000E+00  0.00000000000E+00  0.10544577086E+04  0.10544577086E+04  0.00000000000E+00 0. -1.
         -1   -1    0    0    0  501 -0.00000000000E+00 -0.00000000000E+00 -0.14123335799E+02  0.14123335799E+02  0.00000000000E+00 0.  1.
         23    2    1    2    0    0  0.31002689562E+02  0.21320152593E+02  0.28303787310E+03  0.30010154583E+03  0.92383897586E+02 0.  0.
          5    1    1    2  502    0 -0.17019151739E+02 -0.71706872715E+02  0.34150069880E+03  0.34938764546E+03  0.41800000000E+01 0. -1.
         -5    1    1    2    0  502 -0.13983537823E+02  0.50386720123E+02  0.41579580094E+03  0.41909185314E+03  0.41800000000E+01 0. -1.
        -11    1    3    3    0    0  0.13272969352E+02  0.56432750427E+02  0.19974659765E+03  0.20798925527E+03  0.00000000000E+00 0. -1.
         11    1    3    3    0    0  0.17729720211E+02 -0.35112597834E+02  0.83291275452E+02  0.92112290558E+02  0.00000000000E+00 0.  1.
</event>
<event>
 7    1  0.6610867E-006  0.5735630E+02  0.7561462E-02  0.1409273E+00
         -2   -1    0    0    0  501 -0.00000000000E+00  0.00000000000E+00  0.14391901058E+03  0.14391901058E+03  0.00000000000E+00 0.  1.
          2   -1    0    0  501    0  0.00000000000E+00 -0.00000000000E+00 -0.13393628498E+03  0.13393628498E+03  0.00000000000E+00 0. -1.
         23    2    1    2    0    0 -0.91403526815E+01  0.48421151674E+01  0.89100448103E+02  0.12946994246E+03  0.93362647889E+02 0.  0.
          5    1    1    2  502    0 -0.22148177950E+02 -0.13093626401E+02  0.26901859200E+02  0.37458874346E+02  0.41800000000E+01 0. -1.
         -5    1    1    2    0  502  0.31288530632E+02  0.82515112334E+01 -0.10601958170E+03  0.11092647877E+03  0.41800000000E+01 0. -1.
        -11    1    3    3    0    0 -0.29629840285E+02 -0.93779686635E+01  0.98138786959E+02  0.10294219367E+03  0.00000000000E+00 0.  1.
         11    1    3    3    0    0  0.20489487603E+02  0.14220083831E+02 -0.90383388561E+01  0.26527748787E+02  0.00000000000E+00 0. -1.
</event>
<event>
 7    1  0.6610867E-006  0.2039141E+03  0.7561462E-02  0.1146478E+00
          2   -1    0    0  501    0  0.00000000000E+00  0.00000000000E+00  0.22771920677E+03  0.22771920677E+03  0.00000000000E+00 0. -1.
         -2   -1    0    0    0  501 -0.00000000000E+00 -0.00000000000E+00 -0.24843301056E+03  0.24843301056E+03  0.00000000000E+00 0.  1.
         23    2    1    2    0    0  0.13966862426E+03  0.12423853674E+03 -0.10842210746E+03  0.23473377177E+03  0.91662705662E+02 0.  0.
          5    1    1    2  502    0 -0.70974717917E+02 -0.13366196353E+03  0.80814520122E+02  0.17161407326E+03  0.41800000000E+01 0.  1.
         -5    1    1    2    0  502 -0.68693906348E+02  0.94234267891E+01  0.68937835432E+01  0.69804372309E+02  0.41800000000E+01 0.  1.
        -11    1    3    3    0    0  0.50471621824E+02  0.42395267334E+02  0.84664011535E+01  0.66456175412E+02  0.00000000000E+00 0. -1.
         11    1    3    3    0    0  0.89197002441E+02  0.81843269403E+02 -0.11688850861E+03  0.16827759636E+03  0.00000000000E+00 0.  1.
</event>
<event>
 7    1  0.6610867E-006  0.2318466E+03  0.7561462E-02  0.1125347E+00
          1   -1    0    0  501    0  0.00000000000E+00  0.00000000000E+00  0.13660622927E+04  0.13660622927E+04  0.00000000000E+00 0. -1.
         -1   -1    0    0    0  501 -0.00000000000E+00 -0.00000000000E+00 -0.51252789170E+02  0.51252789170E+02  0.00000000000E+00 0.  1.
         23    2    1    2    0    0 -0.10205309043E+03 -0.18684696827E+03  0.33666012964E+03  0.40847866917E+03  0.90488438286E+02 0.  0.
          5    1    1    2  502    0 -0.10395163838E+02  0.68610626007E+02  0.15823391892E+03  0.17283206568E+03  0.41800000000E+01 0.  1.
         -5    1    1    2    0  502  0.11244825426E+03  0.11823634227E+03  0.81991545502E+03  0.83600434706E+03  0.41800000000E+01 0.  1.
        -11    1    3    3    0    0 -0.37054880811E+02 -0.15347612264E+03  0.21902775312E+03  0.27000211305E+03  0.00000000000E+00 0.  1.
         11    1    3    3    0    0 -0.64998209616E+02 -0.33370845631E+02  0.11763237651E+03  0.13847655612E+03  0.00000000000E+00 0. -1.
</event>
<event>
 7    1  0.6610867E-006  0.2285360E+03  0.7561462E-02  0.1127674E+00
          1   -1    0    0  501    0  0.00000000000E+00  0.00000000000E+00  0.70285630453E+03  0.70285630453E+03  0.00000000000E+00 0. -1.
         -1   -1    0    0    0  501 -0.00000000000E+00 -0.00000000000E+00 -0.18784244951E+03  0.18784244951E+03  0.00000000000E+00 0.  1.
         23    2    1    2    0    0  0.14635941565E+03  0.13979697518E+03 -0.80719003410E+02  0.23609467749E+03  0.90889308556E+02 0.  0.
          5    1    1    2  502    0 -0.68729226271E+02 -0.15648209334E+03  0.50897985304E+03  0.53692486930E+03  0.41800000000E+01 0. -1.
         -5    1    1    2    0  502 -0.77630189380E+02  0.16685118167E+02  0.86753005403E+02  0.11767920724E+03  0.41800000000E+01 0.  1.
        -11    1    3    3    0    0  0.12801148288E+03  0.13789066414E+03 -0.41383085507E+02  0.19264821508E+03  0.00000000000E+00 0.  1.
         11    1    3    3    0    0  0.18347932770E+02  0.19063110317E+01 -0.39335917903E+02  0.43446462411E+02  0.00000000000E+00 0. -1.
</event>
<event>
 7    1  0.6610867E-006  0.8631886E+02  0.7561462E-02  0.1312019E+00
          2   -1    0    0  501    0  0.00000000000E+00  0.00000000000E+00  0.23028278718E+03  0.23028278718E+03  0.00000000000E+00 0. -1.
         -2   -1    0    0    0  501 -0.00000000000E+00 -0.00000000000E+00 -0.54880079313E+02  0.54880079313E+02  0.00000000000E+00 0.  1.
         23    2    1    2    0    0  0.28804365158E+02  0.39516754693E+02  0.67042397872E+02  0.11259032149E+03  0.76096202455E+02 0.  0.
          5    1    1    2  502    0  0.34467227422E+02 -0.48124626775E+02  0.86603662636E+02  0.10498398092E+03  0.41800000000E+01 0. -1.
         -5    1    1    2    0  502 -0.63271592580E+02  0.86078720825E+01  0.21756647357E+02  0.67588564074E+02  0.41800000000E+01 0. -1.
        -11    1    3    3    0    0  0.64064491909E+01  0.13716254968E+02  0.75818379445E+02  0.77314972051E+02  0.00000000000E+00 0. -1.
         11    1    3    3    0    0  0.22397915967E+02  0.25800499725E+02 -0.87759815735E+01  0.35275349442E+02  0.00000000000E+00 0.  1.
</event>
<event>
 7    1  0.6610867E-006  0.1657538E+03  0.7561462E-02  0.1182350E+00
         -1   -1    0    0    0  501 -0.00000000000E+00  0.00000000000E+00  0.14879233460E+03  0.14879233460E+03  0.00000000000E+00 0.  1.
          1   -1    0    0  501    0  0.00000000000E+00 -0.00000000000E+00 -0.23071401570E+03  0.23071401570E+03  0.00000000000E+00 0. -1.
         23    2    1    2    0    0 -0.14320675878E+03 -0.15792571213E+02  0.37718920817E+01  0.17033898596E+03  0.90794063153E+02 0.  0.
          5    1    1    2  502    0 -0.12609255540E+01 -0.26825276429E+02  0.11871628541E+02  0.29657939121E+02  0.41800000000E+01 0.  1.
         -5    1    1    2    0  502  0.14446768433E+03  0.42617847642E+02 -0.97565201728E+02  0.17950942522E+03  0.41800000000E+01 0.  1.
        -11    1    3    3    0    0 -0.10645638733E+03 -0.35153343699E+02 -0.30835152662E+02  0.11627349920E+03  0.00000000000E+00 0.  1.
         11    1    3    3    0    0 -0.36750371443E+02  0.19360772486E+02  0.34607044744E+02  0.54065486758E+02  0.00000000000E+00 0. -1.
</event>
<event>
 7    1  0.6610867E-006  0.9740521E+02  0.7561462E-02  0.1285849E+00
         -4   -1    0    0    0  501 -0.00000000000E+00  0.00000000000E+00  0.45465085328E+03  0.45465085328E+03  0.00000000000E+00 0.  1.
          4   -1    0    0  501    0  0.00000000000E+00 -0.00000000000E+00 -0.35746885563E+02  0.35746885563E+02  0.00000000000E+00 0. -1.
         23    2    1    2    0    0  0.52000382854E+02 -0.11543274959E+02  0.25961470749E+03  0.28097592664E+03  0.93329459394E+02 0.  0.
          5    1    1    2  502    0 -0.10024207281E+02 -0.28777923197E+02  0.14648404382E+03  0.14967865943E+03  0.41800000000E+01 0.  1.
         -5    1    1    2    0  502 -0.41976175573E+02  0.40321198156E+02  0.12805216409E+02  0.59743152777E+02  0.41800000000E+01 0.  1.
        -11    1    3    3    0    0 -0.10527613223E+02  0.29217401891E+02  0.10119262676E+03  0.10585100342E+03  0.00000000000E+00 0.  1.
         11    1    3    3    0    0  0.62527996077E+02 -0.40760676850E+02  0.15842208073E+03  0.17512492322E+03  0.00000000000E+00 0. -1.
</event>
<event>
 7    1  0.6610867E-006  0.9764142E+02  0.7561462E-02  0.1285335E+00
          3   -1    0    0  501    0  0.00000000000E+00  0.00000000000E+00  0.12543890438E+03  0.12543890438E+03  0.00000000000E+00 0. -1.
         -3   -1    0    0    0  501 -0.00000000000E+00 -0.00000000000E+00 -0.18190849201E+03  0.18190849201E+03  0.00000000000E+00 0.  1.
         23    2    1    2    0    0 -0.38072713379E+00 -0.69393262809E+01 -0.13391189238E+03  0.16006076604E+03  0.87399969690E+02 0.  0.
          5    1    1    2  502    0  0.61514815839E+02 -0.75432196358E+01  0.42643992223E+02  0.75345571887E+02  0.41800000000E+01 0.  1.
         -5    1    1    2    0  502 -0.61134088705E+02  0.14482545917E+02  0.34798312533E+02  0.71941058466E+02  0.41800000000E+01 0.  1.
        -11    1    3    3    0    0  0.58310724888E+01  0.31108295797E+02 -0.14940592242E+02  0.34999268140E+02  0.00000000000E+00 0. -1.
         11    1    3    3    0    0 -0.62117996226E+01 -0.38047622078E+02 -0.11897130014E+03  0.12506149790E+03  0.00000000000E+00 0.  1.
</event>
<event>
 7    1  0.6610867E-006  0.9732191E+02  0.7561462E-02  0.1286031E+00
          3   -1    0    0  501    0  0.00000000000E+00  0.00000000000E+00  0.18782480330E+02  0.18782480330E+02  0.00000000000E+00 0. -1.
         -3   -1    0    0    0  501 -0.00000000000E+00 -0.00000000000E+00 -0.63962459583E+03  0.63962459583E+03  0.00000000000E+00 0.  1.
         23    2    1    2    0    0 -0.10026649325E+02 -0.11655881858E+02 -0.30916397136E+03  0.32221441894E+03  0.89461596821E+02 0.  0.
          5    1    1    2  502    0 -0.35126585860E+02 -0.33127726973E+02 -0.21502024465E+03  0.22041438550E+03  0.41800000000E+01 0. -1.
         -5    1    1    2    0  502  0.45153235185E+02  0.44783608832E+02 -0.96657899491E+02  0.11577827172E+03  0.41800000000E+01 0. -1.
        -11    1    3    3    0    0 -0.23169761343E+02 -0.42785486337E+02 -0.11108158852E+03  0.12127058584E+03  0.00000000000E+00 0.  1.
         11    1    3    3    0    0  0.13143112018E+02  0.31129604479E+02 -0.19808238285E+03  0.20094383310E+03  0.00000000000E+00 0. -1.
</event>
<event>
 7    1  0.6610867E-006  0.9066739E+02  0.7561462E-02  0.1301244E+00
         -2   -1    0    0    0  501 -0.00000000000E+00  0.00000000000E+00  0.18715360231E+02  0.18715360231E+02  0.00000000000E+00 0.  1.
          2   -1    0    0  501    0  0.00000000000E+00 -0.00000000000E+00 -0.65869565859E+03  0.65869565859E+03  0.00000000000E+00 0. -1.
         23    2    1    2    0    0 -0.10514520132E+01 -0.27583819868E+02 -0.29121247698E+03  0.30586495689E+03  0.89368296615E+02 0.  0.
          5    1    1    2  502    0  0.36184388198E+01 -0.39524180602E+02 -0.24253436885E+03  0.24579594469E+03  0.41800000000E+01 0.  1.
         -5    1    1    2    0  502 -0.25669868066E+01  0.67108000470E+02 -0.10623345254E+03  0.12575011724E+03  0.41800000000E+01 0.  1.
        -11    1    3    3    0    0  0.20774778112E+02  0.15447530013E+02 -0.27475919730E+02  0.37751076199E+02  0.00000000000E+00 0.  1.
         11    1    3    3    0    0 -0.21826230126E+02 -0.43031349881E+02 -0.26373655725E+03  0.26811388070E+03  0.00000000000E+00 0. -1.
</event>
<event>
 7    1  0.6610867E-006  0.1205057E+03  0.7561462E-02  0.1242265E+00
          1   -1    0    0  501    0  0.00000000000E+00  0.00000000000E+00  0.13793916621E+03  0.13793916621E+03  0.00000000000E+00 0. -1.
         -1   -1    0    0    0  501 -0.00000000000E+00 -0.00000000000E+00 -0.17907850036E+03  0.17907850036E+03  0.00000000000E+00 0.  1.
         23    2    1    2    0    0 -0.25984180050E+02  0.86187363612E+02 -0.88121944042E+02  0.15589342814E+03  0.91835966021E+02 0.  0.
          5    1    1    2  502    0  0.24858209982E+02 -0.11699915073E+03  0.50319016926E+02  0.12983145898E+03  0.41800000000E+01 0.  1.
         -5    1    1    2    0  502  0.11259700673E+01  0.30811787122E+02 -0.33364070284E+01  0.31292779456E+02  0.41800000000E+01 0.  1.
        -11    1    3    3    0    0 -0.10122022801E+02  0.43818110533E+02 -0.99545145267E+02  0.10923240409E+03  0.00000000000E+00 0.  1.
         11    1    3    3    0    0 -0.15862157249E+02  0.42369253079E+02  0.11423201226E+02  0.46661024049E+02  0.00000000000E+00 0. -1.
</event>
<event>
 7    1  0.6610867E-006  0.3949937E+02  0.7561462E-02  0.1511928E+00
         -3   -1    0    0    0  501 -0.00000000000E+00  0.00000000000E+00  0.10860100072E+03  0.10860100072E+03  0.00000000000E+00 0.  1.
          3   -1    0    0  501    0  0.00000000000E+00 -0.00000000000E+00 -0.11903677641E+03  0.11903677641E+03  0.00000000000E+00 0. -1.
         23    2    1    2    0    0  0.32132024090E+02 -0.39388873447E+01  0.16622804389E+02  0.95596377743E+02  0.88398914056E+02 0.  0.
          5    1    1    2  502    0 -0.64712103157E+01  0.12532180439E+02  0.49022815597E+02  0.51182428220E+02  0.41800000000E+01 0. -1.
         -5    1    1    2    0  502 -0.25660813774E+02 -0.85932930944E+01 -0.76081395674E+02  0.80858971163E+02  0.41800000000E+01 0. -1.
        -11    1    3    3    0    0  0.23435916050E+02  0.54988470076E+01  0.52357979080E+02  0.57626707808E+02  0.00000000000E+00 0.  1.
         11    1    3    3    0    0  0.86961080405E+01 -0.94377343523E+01 -0.35735174691E+02  0.37969669935E+02  0.00000000000E+00 0. -1.
</event>
<event>
 7    1  0.6610867E-006  0.1037133E+03  0.7561462E-02  0.1272676E+00
         -2   -1    0    0    0  501 -0.00000000000E+00  0.00000000000E+00  0.26387780346E+02  0.26387780346E+02  0.00000000000E+00 0.  1.
          2   -1    0    0  501    0  0.00000000000E+00 -0.00000000000E+00 -0.46878062331E+03  0.46878062331E+03  0.00000000000E+00 0. -1.
         23    2    1    2    0    0 -0.39208689685E+01  0.29874336022E+01 -0.12644548118E+03  0.15532385591E+03  0.90070764029E+02 0.  0.
          5    1    1    2  502    0 -0.51271246378E+02 -0.26988469699E+02 -0.10020708163E+03  0.11582767291E+03  0.41800000000E+01 0. -1.
         -5    1    1    2    0  502  0.55192115346E+02  0.24001036097E+02 -0.21574028015E+03  0.22401687484E+03  0.41800000000E+01 0. -1.
        -11    1    3    3    0    0  0.42391088776E+02 -0.19176335605E+01 -0.72974915081E+02  0.84415756569E+02  0.00000000000E+00 0. -1.
         11    1    3    3    0    0 -0.46311957744E+02  0.49050671628E+01 -0.53470566097E+02  0.70908099345E+02  0.00000000000E+00 0.  1.
</event>
<event>
 7    1  0.6610867E-006  0.1083831E+03  0.7561462E-02  0.1263594E+00
          2   -1    0    0  501    0  0.00000000000E+00  0.00000000000E+00  0.81791187634E+02  0.81791187634E+02  0.00000000000E+00 0. -1.
         -2   -1    0    0    0  501 -0.00000000000E+00 -0.00000000000E+00 -0.25052385917E+03  0.25052385917E+03  0.00000000000E+00 0.  1.
         23    2    1    2    0    0  0.86162279224E+00  0.73343886532E+02 -0.13612144885E+03  0.18368401360E+03  0.99149886180E+02 0.  0.
          5    1    1    2  502    0 -0.31078681395E+02  0.24671282586E+02  0.29108955648E+01  0.40006278691E+02  0.41800000000E+01 0. -1.
         -5    1    1    2    0  502  0.30217058603E+02 -0.98015169118E+02 -0.35522118249E+02  0.10862475451E+03  0.41800000000E+01 0. -1.
        -11    1    3    3    0    0  0.60387734640E+01  0.34244785516E+02  0.67901869779E+01  0.35429913338E+02  0.00000000000E+00 0. -1.
         11    1    3    3    0    0 -0.51771506717E+01  0.39099101016E+02 -0.14291163583E+03  0.14825410026E+03  0.00000000000E+00 0.  1.
</event>
<event>
 7    1  0.6610867E-006  0.8468417E+02  0.7561462E-02  0.1316261E+00
         -2   -1    0    0    0  501 -0.00000000000E+00  0.00000000000E+00  0.15683229013E+02  0.15683229013E+02  0.00000000000E+00 0.  1.
          2   -1    0    0  501    0  0.00000000000E+00 -0.00000000000E+00 -0.82511675710E+03  0.82511675710E+03  0.00000000000E+00 0. -1.
         23    2    1    2    0    0  0.21704331778E+02  0.86132040240E+01 -0.23663043064E+03  0.25403250840E+03  0.89405197363E+02 0.  0.
          5    1    1    2  502    0  0.34055182511E+01  0.31029737812E+02 -0.35718866791E+02  0.47620920067E+02  0.41800000000E+01 0.  1.
         -5    1    1    2    0  502 -0.25109850029E+02 -0.39642941836E+02 -0.53708423066E+03  0.53914655765E+03  0.41800000000E+01 0.  1.
        -11    1    3    3    0    0 -0.29123794242E+02 -0.17128020983E+02 -0.11223336136E+03  0.11720875350E+03  0.00000000000E+00 0. -1.
         11    1    3    3    0    0  0.50828126020E+02  0.25741225007E+02 -0.12439706928E+03  0.13682375490E+03  0.00000000000E+00 0.  1.
</event>
<event>
 7    1  0.6610867E-006  0.1156743E+03  0.7561462E-02  0.1250409E+00
         -1   -1    0    0    0  501 -0.00000000000E+00  0.00000000000E+00  0.13345494036E+02  0.13345494036E+02  0.00000000000E+00 0.  1.
          1   -1    0    0  501    0  0.00000000000E+00 -0.00000000000E+00 -0.10343934011E+04  0.10343934011E+04  0.00000000000E+00 0. -1.
         23    2    1    2    0    0 -0.45059265798E+02 -0.32695567617E+01 -0.38656145465E+03  0.39946294793E+03  0.89999228402E+02 0.  0.
          5    1    1    2  502    0  0.40626380510E+02  0.60860584354E+02 -0.40611839491E+03  0.41267921756E+03  0.41800000000E+01 0.  1.
         -5    1    1    2    0  502  0.44328852878E+01 -0.57591027592E+02 -0.22836805746E+03  0.23559672960E+03  0.41800000000E+01 0.  1.
        -11    1    3    3    0    0 -0.62047532211E+02  0.25216018232E+02 -0.23800446812E+03  0.24724860096E+03  0.00000000000E+00 0.  1.
         11    1    3    3    0    0  0.16988266414E+02 -0.28485574994E+02 -0.14855698653E+03  0.15221434698E+03  0.00000000000E+00 0. -1.
</event>
<event>
 7    1  0.6610867E-006  0.1251578E+03  0.7561462E-02  0.1234823E+00
         -2   -1    0    0    0  501 -0.00000000000E+00  0.00000000000E+00  0.74743970659E+02  0.74743970659E+02  0.00000000000E+00 0. -1.
          2   -1    0    0  501    0  0.00000000000E+00 -0.00000000000E+00 -0.38270405743E+03  0.38270405743E+03  0.00000000000E+00 0.  1.
         23    2    1    2    0    0  0.96158946830E+02 -0.58461865887E+02 -0.61512974380E+02  0.15903914697E+03  0.94049303198E+02 0.  0.
          5    1    1    2  502    0 -0.35161647673E+02  0.36506908855E+02 -0.22396331878E+03  0.22966527038E+03  0.41800000000E+01 0. -1.
         -5    1    1    2    0  502 -0.60997299158E+02  0.21954957033E+02 -0.22483793616E+02  0.68743610745E+02  0.41800000000E+01 0. -1.
        -11    1    3    3    0    0  0.99866800495E+02 -0.70274103083E+02 -0.72899416264E+02  0.14221867774E+03  0.00000000000E+00 0.  1.
         11    1    3    3    0    0 -0.37078536645E+01  0.11812237196E+02  0.11386441884E+02  0.16820469231E+02  0.00000000000E+00 0. -1.
</event>
<event>
 7    1  0.6610867E-006  0.1083377E+03  0.7561462E-02  0.1263679E+00
          1   -1    0    0  501    0  0.00000000000E+00  0.00000000000E+00  0.14973045857E+04  0.14973045857E+04  0.00000000000E+00 0. -1.
         -1   -1    0    0    0  501 -0.00000000000E+00 -0.00000000000E+00 -0.15697093468E+02  0.15697093468E+02  0.00000000000E+00 0.  1.
         23    2    1    2    0    0  0.18724451880E+02  0.60626355139E+02  0.25283306841E+03  0.27624783406E+03  0.91444766410E+02 0.  0.
          5    1    1    2  502    0 -0.31838371290E+00 -0.80247791735E+02  0.11600950491E+04  0.11628748019E+04  0.41800000000E+01 0. -1.
         -5    1    1    2    0  502 -0.18406068167E+02  0.19621436596E+02  0.68679374656E+02  0.73879043189E+02  0.41800000000E+01 0. -1.
        -11    1    3    3    0    0  0.47573205237E+02  0.64326755488E+02  0.20746098768E+03  0.22235377833E+03  0.00000000000E+00 0. -1.
         11    1    3    3    0    0 -0.28848753357E+02 -0.37004003483E+01  0.45372080731E+02  0.53894055728E+02  0.00000000000E+00 0.  1.
</event>
<event>
 7    1  0.6610867E-006  0.3898708E+03  0.7561462E-02  0.1047345E+00
          1   -1    0    0  501    0  0.00000000000E+00  0.00000000000E+00  0.18895096467E+04  0.18895096467E+04  0.00000000000E+00 0. -1.
         -1   -1    0    0    0  501 -0.00000000000E+00 -0.00000000000E+00 -0.89498299087E+02  0.89498299087E+02  0.00000000000E+00 0.  1.
         23    2    1    2    0    0  0.37813723834E+03  0.66903160486E+02  0.65218244845E+03  0.76219981099E+03  0.90237475020E+02 0.  0.
          5    1    1    2  502    0 -0.17405480615E+03 -0.13801303660E+02  0.70504277171E+03  0.72635276131E+03  0.41800000000E+01 0. -1.
         -5    1    1    2    0  502 -0.20408243219E+03 -0.53101856826E+02  0.44278612750E+03  0.49045537353E+03  0.41800000000E+01 0. -1.
        -11    1    3    3    0    0  0.32963362161E+03  0.88152403721E+02  0.55408165853E+03  0.65071933665E+03  0.00000000000E+00 0.  1.
         11    1    3    3    0    0  0.48503616725E+02 -0.21249243235E+02  0.98100789924E+02  0.11148047433E+03  0.00000000000E+00 0. -1.
</event>
<event>
 7    1  0.6610867E-006  0.7749911E+02  0.7561462E-02  0.1336302E+00
          2   -1    0    0  501    0  0.00000000000E+00  0.00000000000E+00  0.14712597818E+03  0.14712597818E+03  0.00000000000E+00 0. -1.
         -2   -1    0    0    0  501 -0.00000000000E+00 -0.00000000000E+00 -0.82034786239E+02  0.82034786239E+02  0.00000000000E+00 0.  1.
         23    2    1    2    0    0 -0.15648185433E+02 -0.16451032289E+02  0.23772592237E+02  0.95486131761E+02  0.89649110684E+02 0.  0.
          5    1    1    2  502    0 -0.19741032222E+01 -0.33501115802E+02  0.66704529252E+02  0.74787622414E+02  0.41800000000E+01 0. -1.
         -5    1    1    2    0  502  0.17622288655E+02  0.49952148092E+02 -0.25385929548E+02  0.58887010243E+02  0.41800000000E+01 0. -1.
        -11    1    3    3    0    0  0.13247416299E+02  0.18463738777E+02 -0.21602709953E+02  0.31354118797E+02  0.00000000000E+00 0.  1.
         11    1    3    3    0    0 -0.28895601732E+02 -0.34914771067E+02  0.45375302189E+02  0.64132012965E+02  0.00000000000E+00 0. -1.
</event>
<event>
 7    1  0.6610867E-006  0.1045904E+03  0.7561462E-02  0.1270929E+00
          3   -1    0    0  501    0  0.00000000000E+00  0.00000000000E+00  0.11108133914E+03  0.11108133914E+03  0.00000000000E+00 0. -1.
         -3   -1    0    0    0  501 -0.00000000000E+00 -0.00000000000E+00 -0.19033330553E+03  0.19033330553E+03  0.00000000000E+00 0.  1.
         23    2    1    2    0    0  0.53163937850E+02 -0.19522290488E+02 -0.11779495405E+03  0.15879253017E+03  0.90177005523E+02 0.  0.
          5    1    1    2  502    0  0.28836872441E+02  0.44033501681E+01  0.50313862911E+02  0.58308763543E+02  0.41800000000E+01 0. -1.
         -5    1    1    2    0  502 -0.82000810291E+02  0.15118940320E+02 -0.11770875253E+02  0.84313350954E+02  0.41800000000E+01 0. -1.
        -11    1    3    3    0    0  0.44356471879E+02  0.24947307527E+02 -0.95635900946E+02  0.10833323728E+03  0.00000000000E+00 0.  1.
         11    1    3    3    0    0  0.88074659707E+01 -0.44469598015E+02 -0.22159053105E+02  0.50459292890E+02  0.00000000000E+00 0. -1.
</event>
<event>
 7    1  0.6610867E-006  0.1081076E+03  0.7561462E-02  0.1264115E+00
          1   -1    0    0  501    0  0.00000000000E+00  0.00000000000E+00  0.10013653121E+03  0.10013653121E+03  0.00000000000E+00 0. -1.
         -1   -1    0    0    0  501 -0.00000000000E+00 -0.00000000000E+00 -0.22075393151E+03  0.22075393151E+03  0.00000000000E+00 0.  1.
         23    2    1    2    0    0 -0.43151163215E+02  0.15919494464E+02 -0.15375549005E+03  0.18355473895E+03  0.89085005903E+02 0.  0.
          5    1    1    2  502    0  0.49151940000E+02 -0.58800180669E+02 -0.83733338888E+01  0.77207250779E+02  0.41800000000E+01 0. -1.
         -5    1    1    2    0  502 -0.60007767849E+01  0.42880686206E+02  0.41511423641E+02  0.60128472991E+02  0.41800000000E+01 0. -1.
        -11    1    3    3    0    0 -0.34107595908E+02  0.50099381288E+02 -0.12112662233E+03  0.13544347434E+03  0.00000000000E+00 0. -1.
         11    1    3    3    0    0 -0.90435673062E+01 -0.34179886825E+02 -0.32628867721E+02  0.48111264603E+02  0.00000000000E+00 0.  1.
</event>
<event>
 7    1  0.6610867E-006  0.1148054E+03  0.7561462E-02  0.1251921E+00
         -4   -1    0    0    0  501 -0.00000000000E+00  0.00000000000E+00  0.13772479217E+03  0.13772479217E+03  0.00000000000E+00 0.  1.
          4   -1    0    0  501    0  0.00000000000E+00 -0.00000000000E+00 -0.13273258657E+03  0.13273258657E+03  0.00000000000E+00 0. -1.
         23    2    1    2    0    0  0.57521294249E+02  0.45355533705E+02  0.35231142868E+02  0.12236981391E+03  0.91473024431E+02 0.  0.
          5    1    1    2  502    0 -0.78517441785E+02  0.14315373497E+02 -0.57524729334E+01  0.80127909792E+02  0.41800000000E+01 0. -1.
         -5    1    1    2    0  502  0.20996147536E+02 -0.59670907201E+02 -0.24486464337E+02  0.67959655041E+02  0.41800000000E+01 0. -1.
        -11    1    3    3    0    0  0.16270429080E+02  0.41842450597E+02  0.59380023003E+02  0.74441283346E+02  0.00000000000E+00 0.  1.
         11    1    3    3    0    0  0.41250865169E+02  0.35130831077E+01 -0.24148880135E+02  0.47928530563E+02  0.00000000000E+00 0. -1.
</event>
<event>
 7    1  0.6610867E-006  0.1521041E+03  0.7561462E-02  0.1197911E+00
          1   -1    0    0  501    0  0.00000000000E+00  0.00000000000E+00  0.42430976455E+03  0.42430976455E+03  0.00000000000E+00 0. -1.
         -1   -1    0    0    0  501 -0.00000000000E+00 -0.00000000000E+00 -0.60564334822E+02  0.60564334822E+02  0.00000000000E+00 0.  1.
         23    2    1    2    0    0 -0.86321312585E+02 -0.77847705618E+02  0.13935346145E+03  0.20289817987E+03  0.90755990988E+02 0.  0.
          5    1    1    2  502    0 -0.97417004831E+00  0.71670059330E+02  0.52175518043E+02  0.88754174520E+02  0.41800000000E+01 0. -1.
         -5    1    1    2    0  502  0.87295482633E+02  0.61776462876E+01  0.17221645024E+03  0.19322174499E+03  0.41800000000E+01 0. -1.
        -11    1    3    3    0    0 -0.48578595537E+02  0.96297829811E+01  0.66746189165E+02  0.83112372320E+02  0.00000000000E+00 0. -1.
         11    1    3    3    0    0 -0.37742717047E+02 -0.87477488599E+02  0.72607272282E+02  0.11978580755E+03  0.00000000000E+00 0.  1.
</event>
<event>
 7    1  0.6610867E-006  0.3062889E+03  0.7561462E-02  0.1082138E+00
         -3   -1    0    0    0  501 -0.00000000000E+00  0.00000000000E+00  0.10045409655E+03  0.10045409655E+03  0.00000000000E+00 0.  1.
          3   -1    0    0  501    0  0.00000000000E+00 -0.00000000000E+00 -0.99039948277E+03  0.99039948277E+03  0.00000000000E+00 0. -1.
         23    2    1    2    0    0 -0.10155811577E+03 -0.27699576444E+03 -0.40132760085E+03  0.50652884699E+03  0.92015896653E+02 0.  0.
          5    1    1    2  502    0  0.10043332187E+03  0.28224487621E+03 -0.42301848436E+03  0.51837354562E+03  0.41800000000E+01 0.  1.
         -5    1    1    2    0  502  0.11247939020E+01 -0.52491117789E+01 -0.65599301001E+02  0.65951186704E+02  0.41800000000E+01 0.  1.
        -11    1    3    3    0    0 -0.10762668512E+03 -0.18546140396E+03 -0.31124514880E+03  0.37795896386E+03  0.00000000000E+00 0.  1.
         11    1    3    3    0    0  0.60685693530E+01 -0.91534360476E+02 -0.90082452053E+02  0.12856988314E+03  0.00000000000E+00 0. -1.
</event>
<event>
 7    1  0.6610867E-006  0.9291491E+02  0.7561462E-02  0.1295942E+00
          1   -1    0    0  501    0  0.00000000000E+00  0.00000000000E+00  0.18258918601E+03  0.18258918601E+03  0.00000000000E+00 0. -1.
         -1   -1    0    0    0  501 -0.00000000000E+00 -0.00000000000E+00 -0.86443448293E+02  0.86443448293E+02  0.00000000000E+00 0.  1.
         23    2    1    2    0    0  0.86260299725E+01 -0.19137315612E+02 -0.21143405183E+02  0.96277180636E+02  0.91551115157E+02 0.  0.
          5    1    1    2  502    0 -0.45687923681E+02  0.54723508994E+02  0.46617382556E+02  0.85280135807E+02  0.41800000000E+01 0. -1.
         -5    1    1    2    0  502  0.37061893708E+02 -0.35586193382E+02  0.70671760341E+02  0.87475317858E+02  0.41800000000E+01 0. -1.
        -11    1    3    3    0    0  0.34254135488E+02 -0.10643690302E+02 -0.46845173416E+02  0.59000883160E+02  0.00000000000E+00 0.  1.
         11    1    3    3    0    0 -0.25628105515E+02 -0.84936253100E+01  0.25701768233E+02  0.37276297476E+02  0.00000000000E+00 0. -1.
</event>
<event>
 7    1  0.6610867E-006  0.1338144E+03  0.7561462E-02  0.1221903E+00
          1   -1    0    0  501    0  0.00000000000E+00  0.00000000000E+00  0.78478552397E+03  0.78478552397E+03  0.00000000000E+00 0. -1.
         -1   -1    0    0    0  501 -0.00000000000E+00 -0.00000000000E+00 -0.98724940600E+02  0.98724940600E+02  0.00000000000E+00 0.  1.
         23    2    1    2    0    0  0.87687576574E+02 -0.65972932468E+02 -0.36789044758E+02  0.14175507653E+03  0.81850650607E+02 0.  0.
          5    1    1    2  502    0 -0.14077271398E+02  0.80425506538E+02  0.25147444801E+03  0.26443014592E+03  0.41800000000E+01 0.  1.
         -5    1    1    2    0  502 -0.73610305176E+02 -0.14452574070E+02  0.47137518012E+03  0.47732524211E+03  0.41800000000E+01 0.  1.
        -11    1    3    3    0    0  0.29254665494E+02 -0.13553107040E+02 -0.52584383822E+02  0.61681760558E+02  0.00000000000E+00 0.  1.
         11    1    3    3    0    0  0.58432911080E+02 -0.52419825428E+02  0.15795339063E+02  0.80073315975E+02  0.00000000000E+00 0. -1.
</event>
<event>
 7    1  0.6610867E-006  0.1403386E+03  0.7561462E-02  0.1212874E+00
         -1   -1    0    0    0  501 -0.00000000000E+00  0.00000000000E+00  0.12162298622E+03  0.12162298622E+03  0.00000000000E+00 0.  1.
          1   -1    0    0  501    0  0.00000000000E+00 -0.00000000000E+00 -0.26570551728E+03  0.26570551728E+03  0.00000000000E+00 0. -1.
         23    2    1    2    0    0  0.20825542149E+02 -0.97383421736E+02  0.43993030805E+02  0.14047209994E+03  0.88768181609E+02 0.  0.
          5    1    1    2  502    0  0.45970815402E+02  0.75483186148E+02 -0.90934270495E+02  0.12687608605E+03  0.41800000000E+01 0.  1.
         -5    1    1    2    0  502 -0.66796357551E+02  0.21900235588E+02 -0.97141291378E+02  0.11998031752E+03  0.41800000000E+01 0.  1.
        -11    1    3    3    0    0  0.45964222350E+02 -0.75795293754E+02  0.56427823779E+02  0.10507966306E+03  0.00000000000E+00 0.  1.
         11    1    3    3    0    0 -0.25138680202E+02 -0.21588127982E+02 -0.12434792973E+02  0.35392436880E+02  0.00000000000E+00 0. -1.
</event>
<event>
 7    1  0.6610867E-006  0.3017071E+03  0.7561462E-02  0.1084390E+00
         -2   -1    0    0    0  501 -0.00000000000E+00  0.00000000000E+00  0.13722650508E+03  0.13722650508E+03  0.00000000000E+00 0.  1.
          2   -1    0    0  501    0  0.00000000000E+00 -0.00000000000E+00 -0.11149996353E+04  0.11149996353E+04  0.00000000000E+00 0. -1.
         23    2    1    2    0    0  0.28924072500E+03 -0.70880186933E+02 -0.11878246530E+03  0.33451353781E+03  0.95424499032E+02 0.  0.
          5    1    1    2  502    0 -0.15275859929E+03  0.72264550173E+02 -0.61822336292E+03  0.64091727526E+03  0.41800000000E+01 0.  1.
         -5    1    1    2    0  502 -0.13648212571E+03 -0.13843632402E+01 -0.24076730197E+03  0.27679532727E+03  0.41800000000E+01 0.  1.
        -11    1    3    3    0    0  0.46402118303E+02 -0.12716681804E+02 -0.61917911116E+02  0.78413635906E+02  0.00000000000E+00 0. -1.
         11    1    3    3    0    0  0.24283860670E+03 -0.58163505129E+02 -0.56864554189E+02  0.25609990191E+03  0.00000000000E+00 0.  1.
</event>
<event>
 7    1  0.6610867E-006  0.1124464E+03  0.7561462E-02  0.1256106E+00
          2   -1    0    0  501    0  0.00000000000E+00  0.00000000000E+00  0.46048261841E+03  0.46048261841E+03  0.00000000000E+00 0. -1.
         -2   -1    0    0    0  501 -0.00000000000E+00 -0.00000000000E+00 -0.47740903117E+02  0.47740903117E+02  0.00000000000E+00 0.  1.
         23    2    1    2    0    0 -0.40117591036E+02 -0.72690331566E+01  0.31904347630E+02  0.10530135857E+03  0.91696394503E+02 0.  0.
          5    1    1    2  502    0  0.83589001720E+02  0.19917795862E+02  0.25519927400E+03  0.26931019596E+03  0.41800000000E+01 0. -1.
         -5    1    1    2    0  502 -0.43471410684E+02 -0.12648762705E+02  0.12563809366E+03  0.13361196699E+03  0.41800000000E+01 0. -1.
        -11    1    3    3    0    0 -0.47964837654E+01  0.36690891087E+02 -0.58152575732E+01  0.37457241836E+02  0.00000000000E+00 0.  1.
         11    1    3    3    0    0 -0.35321107271E+02 -0.43959924244E+02  0.37719605203E+02  0.67844116731E+02  0.00000000000E+00 0. -1.
</event>
<event>
 7    1  0.6610867E-006  0.1283648E+03  0.7561462E-02  0.1229902E+00
         -1   -1    0    0    0  501 -0.00000000000E+00  0.00000000000E+00  0.45278108796E+02  0.45278108796E+02  0.00000000000E+00 0.  1.
          1   -1    0    0  501    0  0.00000000000E+00 -0.00000000000E+00 -0.60198870382E+03  0.60198870382E+03  0.00000000000E+00 0. -1.
         23    2    1    2    0    0 -0.28736513422E+01  0.12995590899E+02 -0.72123161548E+02  0.12520062300E+03  0.10147069682E+03 0.  0.
          5    1    1    2  502    0 -0.78202699694E+02  0.16568435259E+02 -0.10103000961E+03  0.12889806255E+03  0.41800000000E+01 0. -1.
         -5    1    1    2    0  502  0.81076351037E+02 -0.29564026158E+02 -0.38355742387E+03  0.39316812707E+03  0.41800000000E+01 0.  1.
        -11    1    3    3    0    0  0.34454906119E+02  0.33190750427E+02 -0.83021504369E+01  0.48556072446E+02  0.00000000000E+00 0.  1.
         11    1    3    3    0    0 -0.37328557461E+02 -0.20195159527E+02 -0.63821011111E+02  0.76644550555E+02  0.00000000000E+00 0. -1.
</event>
<event>
 6    1  0.6610867E-006  0.1034763E+03  0.7561462E-02  0.1273151E+00
          1   -1    0    0  501    0  0.00000000000E+00  0.00000000000E+00  0.20485399785E+03  0.20485399785E+03  0.00000000000E+00 0. -1.
         -1   -1    0    0    0  501 -0.00000000000E+00 -0.00000000000E+00 -0.93013115302E+02  0.93013115302E+02  0.00000000000E+00 0.  1.
          5    1    1    2  502    0 -0.37121551949E+02 -0.16901234478E+02  0.12314147031E+03  0.12978811755E+03  0.41800000000E+01 0. -1.
         -5    1    1    2    0  502  0.24299654739E+02  0.21310481822E+02 -0.98674792453E+01  0.34050688724E+02  0.41800000000E+01 0.  1.
        -11    1    1    2    0    0 -0.54214130456E+02  0.25552629932E+02 -0.72500963220E+01  0.60371125004E+02  0.00000000000E+00 0. -1.
         11    1    1    2    0    0  0.67036027667E+02 -0.29961877276E+02  0.58169878066E+01  0.73657181879E+02  0.00000000000E+00 0.  1.
</event>
<event>
 7    1  0.6610867E-006  0.1115695E+03  0.7561462E-02  0.1257691E+00
          2   -1    0    0  501    0  0.00000000000E+00  0.00000000000E+00  0.83168391211E+03  0.83168391211E+03  0.00000000000E+00 0. -1.
         -2   -1    0    0    0  501 -0.00000000000E+00 -0.00000000000E+00 -0.19255281482E+02  0.19255281482E+02  0.00000000000E+00 0.  1.
         23    2    1    2    0    0  0.57609071837E+01  0.14867509863E+02  0.28145360117E+03  0.30519572041E+03  0.11693616738E+03 0.  0.
          5    1    1    2  502    0 -0.56609854230E+02 -0.15729150428E+02  0.41336606467E+03  0.41754168366E+03  0.41800000000E+01 0. -1.
         -5    1    1    2    0  502  0.50848947046E+02  0.86164056516E+00  0.11760896479E+03  0.12820178953E+03  0.41800000000E+01 0. -1.
        -11    1    3    3    0    0  0.58980028231E+02  0.90941669888E+01  0.10469442115E+03  0.12050837906E+03  0.00000000000E+00 0.  1.
         11    1    3    3    0    0 -0.53219121048E+02  0.57733428744E+01  0.17675918002E+03  0.18468734135E+03  0.00000000000E+00 0. -1.
</event>
<event>
 7    1  0.6610867E-006  0.1086809E+03  0.7561462E-02  0.1263032E+00
         -3   -1    0    0    0  501 -0.00000000000E+00  0.00000000000E+00  0.84928811041E+02  0.84928811041E+02  0.00000000000E+00 0.  1.
          3   -1    0    0  501    0  0.00000000000E+00 -0.00000000000E+00 -0.15032305297E+03  0.15032305297E+03  0.00000000000E+00 0. -1.
         23    2    1    2    0    0  0.19634356173E+02 -0.11943222056E+00  0.32952455883E+01  0.91184698638E+02  0.88984652698E+02 0.  0.
          5    1    1    2  502    0  0.15486851377E+02 -0.56951077813E+02 -0.37365326451E+02  0.69977909732E+02  0.41800000000E+01 0. -1.
         -5    1    1    2    0  502 -0.35121207550E+02  0.57070510033E+02 -0.31324161068E+02  0.74089255644E+02  0.41800000000E+01 0. -1.
        -11    1    3    3    0    0  0.19929861366E+02  0.43282285911E+02 -0.86529129472E-01  0.47650426388E+02  0.00000000000E+00 0.  1.
         11    1    3    3    0    0 -0.29550519330E+00 -0.43401718131E+02  0.33817747178E+01  0.43534272250E+02  0.00000000000E+00 0. -1.
</event>
<event>
 7    1  0.6610867E-006  0.2974433E+03  0.7561462E-02  0.1086526E+00
         -1   -1    0    0    0  501 -0.00000000000E+00  0.00000000000E+00  0.10075146075E+03  0.10075146075E+03  0.00000000000E+00 0.  1.
          1   -1    0    0  501    0  0.00000000000E+00 -0.00000000000E+00 -0.89990182450E+03  0.89990182450E+03  0.00000000000E+00 0. -1.
         23    2    1    2    0    0  0.19276002996E+03  0.20351729294E+03 -0.41512769041E+03  0.50902968233E+03  0.90578697677E+02 0.  0.
          5    1    1    2  502    0  0.12022547992E+02  0.31958066627E+01 -0.33920465694E+02  0.36370664461E+02  0.41800000000E+01 0.  1.
         -5    1    1    2    0  502 -0.20478257795E+03 -0.20671309960E+03 -0.35010220765E+03  0.45525293846E+03  0.41800000000E+01 0.  1.
        -11    1    3    3    0    0  0.83130127186E+02  0.14333185237E+03 -0.19532209484E+03  0.25613543035E+03  0.00000000000E+00 0.  1.
         11    1    3    3    0    0  0.10962990277E+03  0.60185440569E+02 -0.21980559558E+03  0.25289425198E+03  0.00000000000E+00 0. -1.
</event>
<event>
 7    1  0.6610867E-006  0.1166718E+03  0.7561462E-02  0.1248691E+00
         -4   -1    0    0    0  501 -0.00000000000E+00  0.00000000000E+00  0.73150769502E+02  0.73150769502E+02  0.00000000000E+00 0.  1.
          4   -1    0    0  501    0  0.00000000000E+00 -0.00000000000E+00 -0.32272544798E+03  0.32272544798E+03  0.00000000000E+00 0. -1.
         23    2    1    2    0    0 -0.36985548887E+02 -0.73108290333E+02 -0.24483225637E+02  0.12564006118E+03  0.92050223757E+02 0.  0.
          5    1    1    2  502    0  0.79995376253E+02  0.54080615698E+02 -0.11355881360E+03  0.14912092329E+03  0.41800000000E+01 0. -1.
         -5    1    1    2    0  502 -0.43009827366E+02  0.19027674635E+02 -0.11153263925E+03  0.12111523302E+03  0.41800000000E+01 0. -1.
        -11    1    3    3    0    0 -0.32644957706E+02 -0.24860131340E+02  0.31410244666E+02  0.51675166800E+02  0.00000000000E+00 0.  1.
         11    1    3    3    0    0 -0.43405911816E+01 -0.48248158993E+02 -0.55893470303E+02  0.73964894379E+02  0.00000000000E+00 0. -1.
</event>
<event>
 7    1  0.6610867E-006  0.8953158E+02  0.7561462E-02  0.1303990E+00
          2   -1    0    0  501    0  0.00000000000E+00  0.00000000000E+00  0.22957441322E+03  0.22957441322E+03  0.00000000000E+00 0. -1.
         -2   -1    0    0    0  501 -0.00000000000E+00 -0.00000000000E+00 -0.82124797857E+02  0.82124797857E+02  0.00000000000E+00 0.  1.
         23    2    1    2    0    0  0.62879664889E+02 -0.42921824660E+00  0.27873323172E+01  0.11038339589E+03  0.90679040474E+02 0.  0.
          5    1    1    2  502    0 -0.17522658338E+02 -0.32336547435E+02 -0.86888738070E+01  0.38021898733E+02  0.41800000000E+01 0.  1.
         -5    1    1    2    0  502 -0.45357006550E+02  0.32765765681E+02  0.15335115685E+03  0.16329391645E+03  0.41800000000E+01 0.  1.
        -11    1    3    3    0    0  0.11228267108E+02  0.25705326772E+02 -0.32231572036E+02  0.42728351742E+02  0.00000000000E+00 0.  1.
         11    1    3    3    0    0  0.51651397781E+02 -0.26134545019E+02  0.35018904353E+02  0.67655044144E+02  0.00000000000E+00 0. -1.
</event>
<event>
 7    1  0.6610867E-006  0.4731658E+02  0.7561462E-02  0.1460377E+00
         -1   -1    0    0    0  501 -0.00000000000E+00  0.00000000000E+00  0.80487055964E+02  0.80487055964E+02  0.00000000000E+00 0.  1.
          1   -1    0    0  501    0  0.00000000000E+00 -0.00000000000E+00 -0.18144137841E+03  0.18144137841E+03  0.00000000000E+00 0. -1.
         23    2    1    2    0    0 -0.16270898247E+01 -0.24028367920E+02  0.60924776657E+01  0.95517468449E+02  0.92230464645E+02 0.  0.
          5    1    1    2  502    0  0.26581289453E+02  0.11375965594E+02 -0.12794631950E+03  0.13123913523E+03  0.41800000000E+01 0.  1.
         -5    1    1    2    0  502 -0.24954199628E+02  0.12652402326E+02  0.20899519389E+02  0.35171830694E+02  0.41800000000E+01 0.  1.
        -11    1    3    3    0    0  0.11029379950E+02 -0.21585729225E+02  0.46861224958E+02  0.52759504668E+02  0.00000000000E+00 0.  1.
         11    1    3    3    0    0 -0.12656469775E+02 -0.24426386947E+01 -0.40768747292E+02  0.42757963781E+02  0.00000000000E+00 0. -1.
</event>
<event>
 7    1  0.6610867E-006  0.1304418E+03  0.7561462E-02  0.1226802E+00
          2   -1    0    0  501    0  0.00000000000E+00  0.00000000000E+00  0.15637364182E+03  0.15637364182E+03  0.00000000000E+00 0. -1.
         -2   -1    0    0    0  501 -0.00000000000E+00 -0.00000000000E+00 -0.13202128449E+03  0.13202128449E+03  0.00000000000E+00 0.  1.
         23    2    1    2    0    0 -0.18203653342E+02  0.88701685821E+02 -0.13360932911E+02  0.12943590643E+03  0.91519272732E+02 0.  0.
          5    1    1    2  502    0  0.61374317575E+02 -0.70124248767E+01  0.16246175026E+02  0.64010870666E+02  0.41800000000E+01 0.  1.
         -5    1    1    2    0  502 -0.43170664232E+02 -0.81689260944E+02  0.21467115223E+02  0.94948149218E+02  0.41800000000E+01 0.  1.
        -11    1    3    3    0    0 -0.17459929991E+02 -0.31163572376E+00  0.26633241630E+02  0.31847697434E+02  0.00000000000E+00 0. -1.
         11    1    3    3    0    0 -0.74372335104E+00  0.89013321544E+02 -0.39994174542E+02  0.97588208991E+02  0.00000000000E+00 0.  1.
</event>
<event>
 7    1  0.6610867E-006  0.1191199E+03  0.7561462E-02  0.1244556E+00
          1   -1    0    0  501    0  0.00000000000E+00  0.00000000000E+00  0.22779390121E+03  0.22779390121E+03  0.00000000000E+00 0. -1.
         -1   -1    0    0    0  501 -0.00000000000E+00 -0.00000000000E+00 -0.65047828750E+02  0.65047828750E+02  0.00000000000E+00 0.  1.
         23    2    1    2    0    0 -0.41159021075E+02  0.31535547985E+02  0.53546394841E+02  0.11888621544E+03  0.92618356815E+02 0.  0.
          5    1    1    2  502    0 -0.44717274231E+02 -0.95462973578E+01  0.46094528221E+02  0.65061081606E+02  0.41800000000E+01 0.  1.
         -5    1    1    2    0  502  0.85876295306E+02 -0.21989250627E+02  0.63105149401E+02  0.10889443291E+03  0.41800000000E+01 0.  1.
        -11    1    3    3    0    0 -0.62354222218E+02  0.46371815876E+02  0.28195096247E+02  0.82664126369E+02  0.00000000000E+00 0.  1.
         11    1    3    3    0    0  0.21195201142E+02 -0.14836267891E+02  0.25351298594E+02  0.36222089073E+02  0.00000000000E+00 0. -1.
</event>
<event>
 7    1  0.6610867E-006  0.7543355E+02  0.7561462E-02  0.1342534E+00
          1   -1    0    0  501    0  0.00000000000E+00  0.00000000000E+00  0.18590219280E+03  0.18590219280E+03  0.00000000000E+00 0. -1.
         -1   -1    0    0    0  501 -0.00000000000E+00 -0.00000000000E+00 -0.67158686290E+02  0.67158686290E+02  0.00000000000E+00 0.  1.
         23    2    1    2    0    0  0.15163342755E+02 -0.11134319499E+02  0.25250521614E+02  0.95763043264E+02  0.90438219682E+02 0.  0.
          5    1    1    2  502    0 -0.22411958506E+02 -0.39372933648E+02  0.95795075782E+02  0.10605042542E+03  0.41800000000E+01 0.  1.
         -5    1    1    2    0  502  0.72486157516E+01  0.50507253147E+02 -0.23020908845E+01  0.51247410405E+02  0.41800000000E+01 0.  1.
        -11    1    3    3    0    0 -0.12256871939E+02 -0.21591309853E+02 -0.26473309948E+02  0.36293962452E+02  0.00000000000E+00 0.  1.
         11    1    3    3    0    0  0.27420214694E+02  0.10456990354E+02  0.51723831561E+02  0.59469080811E+02  0.00000000000E+00 0. -1.
</event>
<event>
 7    1  0.6610867E-006  0.1132436E+03  0.7561462E-02  0.1254679E+00
          1   -1    0    0  501    0  0.00000000000E+00  0.00000000000E+00  0.21231776132E+03  0.21231776132E+03  0.00000000000E+00 0. -1.
         -1   -1    0    0    0  501 -0.00000000000E+00 -0.00000000000E+00 -0.76399209673E+02  0.76399209673E+02  0.00000000000E+00 0.  1.
         23    2    1    2    0    0  0.26134722245E+01  0.53317336604E+02  0.17104531441E+02  0.10811987069E+03  0.92454166069E+02 0.  0.
          5    1    1    2  502    0  0.23802339717E+02  0.34978396300E+02  0.26567750269E+02  0.50133395437E+02  0.41800000000E+01 0. -1.
         -5    1    1    2    0  502 -0.26415811941E+02 -0.88295732904E+02  0.92246269941E+02  0.13046370487E+03  0.41800000000E+01 0. -1.
        -11    1    3    3    0    0  0.30622821273E+02 -0.95879313662E+00 -0.20063265483E+02  0.36622548913E+02  0.00000000000E+00 0.  1.
         11    1    3    3    0    0 -0.28009349049E+02  0.54276129741E+02  0.37167796924E+02  0.71497321782E+02  0.00000000000E+00 0. -1.
</event>
<event>
 7    1  0.6610867E-006  0.8036817E+02  0.7561462E-02  0.1328010E+00
          1   -1    0    0  501    0  0.00000000000E+00  0.00000000000E+00  0.32303633429E+03  0.32303633429E+03  0.00000000000E+00 0. -1.
         -1   -1    0    0    0  501 -0.00000000000E+00 -0.00000000000E+00 -0.42855018411E+02  0.42855018411E+02  0.00000000000E+00 0.  1.
         23    2    1    2    0    0 -0.43096274620E+02 -0.13097756487E+02  0.13110735956E+03  0.16614122498E+03  0.91569245902E+02 0.  0.
          5    1    1    2  502    0 -0.86565362917E+01  0.44932686739E+01  0.14668304759E+03  0.14706635895E+03  0.41800000000E+01 0. -1.
         -5    1    1    2    0  502  0.51752810912E+02  0.86044878132E+01  0.23909087271E+01  0.52683768775E+02  0.41800000000E+01 0. -1.
        -11    1    3    3    0    0 -0.45218012143E+02  0.30052125488E+02  0.96749846517E+02  0.11094292077E+03  0.00000000000E+00 0. -1.
         11    1    3    3    0    0  0.21217375229E+01 -0.43149881976E+02  0.34357513046E+02  0.55198304207E+02  0.00000000000E+00 0.  1.
</event>
<event>
 7    1  0.6610867E-006  0.9723357E+02  0.7561462E-02  0.1286223E+00
         -2   -1    0    0    0  501 -0.00000000000E+00  0.00000000000E+00  0.66096538932E+02  0.66096538932E+02  0.00000000000E+00 0.  1.
          2   -1    0    0  501    0  0.00000000000E+00 -0.00000000000E+00 -0.38123099977E+03  0.38123099977E+03  0.00000000000E+00 0. -1.
         23    2    1    2    0    0 -0.43736564983E+02 -0.54991876496E+02 -0.16668596716E+02  0.11616831359E+03  0.90995831605E+02 0.  0.
          5    1    1    2  502    0  0.52630532317E+02  0.22995204021E+02 -0.39015937687E+02  0.69559098136E+02  0.41800000000E+01 0.  1.
         -5    1    1    2    0  502 -0.88939673333E+01  0.31996672475E+02 -0.25944992644E+03  0.26160012698E+03  0.41800000000E+01 0.  1.
        -11    1    3    3    0    0 -0.22480887115E+02 -0.72478149105E+02 -0.34514620899E+02  0.83365049265E+02  0.00000000000E+00 0. -1.
         11    1    3    3    0    0 -0.21255677869E+02  0.17486272609E+02  0.17846024184E+02  0.32803264328E+02  0.00000000000E+00 0.  1.
</event>
<event>
 7    1  0.6610867E-006  0.1053411E+03  0.7561462E-02  0.1269449E+00
         -1   -1    0    0    0  501 -0.00000000000E+00  0.00000000000E+00  0.18469940739E+03  0.18469940739E+03  0.00000000000E+00 0.  1.
          1   -1    0    0  501    0  0.00000000000E+00 -0.00000000000E+00 -0.88036756405E+02  0.88036756405E+02  0.00000000000E+00 0. -1.
         23    2    1    2    0    0 -0.21737053944E+02  0.63138464909E+02  0.50288435357E+02  0.12354891747E+03  0.90974958167E+02 0.  0.
          5    1    1    2  502    0  0.53258679851E+02 -0.83947722520E+02  0.16531601514E+02  0.10086859444E+03  0.41800000000E+01 0. -1.
         -5    1    1    2    0  502 -0.31521625908E+02  0.20809257612E+02  0.29842614115E+02  0.48318651879E+02  0.41800000000E+01 0. -1.
        -11    1    3    3    0    0 -0.63094536694E+01  0.55686798040E+02 -0.13377822819E+02  0.57617660703E+02  0.00000000000E+00 0. -1.
         11    1    3    3    0    0 -0.15427600274E+02  0.74516668688E+01  0.63666258176E+02  0.65931256772E+02  0.00000000000E+00 0.  1.
</event>
<event>
 7    1  0.6610867E-006  0.9795120E+02  0.7561462E-02  0.1284664E+00
         -1   -1    0    0    0  501 -0.00000000000E+00  0.00000000000E+00  0.38529887200E+03  0.38529887200E+03  0.00000000000E+00 0.  1.
          1   -1    0    0  501    0  0.00000000000E+00 -0.00000000000E+00 -0.49792968550E+02  0.49792968550E+02  0.00000000000E+00 0. -1.
         23    2    1    2    0    0  0.92286221130E+01  0.12814715248E+02  0.28418562535E+03  0.29896317881E+03  0.91477473916E+02 0.  0.
          5    1    1    2  502    0  0.29531422463E+00  0.51802687831E+02 -0.15465624076E+01  0.51994902945E+02  0.41800000000E+01 0. -1.
         -5    1    1    2    0  502 -0.95239363377E+01 -0.64617403078E+02  0.52866840502E+02  0.84133758793E+02  0.41800000000E+01 0. -1.
        -11    1    3    3    0    0  0.97797291481E+01  0.45121869094E+02  0.23896796771E+03  0.24338717255E+03  0.00000000000E+00 0.  1.
         11    1    3    3    0    0 -0.55110703509E+00 -0.32307153847E+02  0.45217657647E+02  0.55576006259E+02  0.00000000000E+00 0. -1.
</event>
<event>
 7    1  0.6610867E-006  0.1041121E+03  0.7561462E-02  0.1271879E+00
         -1   -1    0    0    0  501 -0.00000000000E+00  0.00000000000E+00  0.55250643262E+03  0.55250643262E+03  0.00000000000E+00 0.  1.
          1   -1    0    0  501    0  0.00000000000E+00 -0.00000000000E+00 -0.25280064323E+02  0.25280064323E+02  0.00000000000E+00 0. -1.
         23    2    1    2    0    0  0.12921422902E+02  0.43288203891E+02  0.21156177793E+03  0.23524796302E+03  0.92425031548E+02 0.  0.
          5    1    1    2  502    0 -0.64608338634E+02 -0.20952777434E+02  0.23068053183E+03  0.24050828774E+03  0.41800000000E+01 0.  1.
         -5    1    1    2    0  502  0.51686915731E+02 -0.22335426457E+02  0.84984058538E+02  0.10203024619E+03  0.41800000000E+01 0.  1.
        -11    1    3    3    0    0  0.32753764259E+02 -0.34563605450E+01  0.15818228790E+03  0.16157472483E+03  0.00000000000E+00 0.  1.
         11    1    3    3    0    0 -0.19832341356E+02  0.46744564436E+02  0.53379490035E+02  0.73673238183E+02  0.00000000000E+00 0. -1.
</event>
<event>
 7    1  0.6610867E-006  0.1125099E+03  0.7561462E-02  0.1255991E+00
         -2   -1    0    0    0  501 -0.00000000000E+00  0.00000000000E+00  0.10894993245E+02  0.10894993245E+02  0.00000000000E+00 0.  1.
          2   -1    0    0  501    0  0.00000000000E+00 -0.00000000000E+00 -0.33495582286E+04  0.33495582286E+04  0.00000000000E+00 0. -1.
         23    2    1    2    0    0  0.25880589108E+02  0.16499495179E+02 -0.30752109933E+03  0.32382000691E+03  0.96685738888E+02 0.  0.
          5    1    1    2  502    0  0.18214762221E+02 -0.59222288512E+02 -0.26356812303E+04  0.26364127290E+04  0.41800000000E+01 0. -1.
         -5    1    1    2    0  502 -0.44095351328E+02  0.42722793334E+02 -0.39546090563E+03  0.40022048594E+03  0.41800000000E+01 0.  1.
        -11    1    3    3    0    0 -0.21638550032E+02  0.42149586725E+02 -0.13812733562E+03  0.14602731030E+03  0.00000000000E+00 0. -1.
         11    1    3    3    0    0  0.47519139140E+02 -0.25650091547E+02 -0.16939376371E+03  0.17779269661E+03  0.00000000000E+00 0.  1.
</event>
<event>
 7    1  0.6610867E-006  0.1131407E+03  0.7561462E-02  0.1254862E+00
         -1   -1    0    0    0  501 -0.00000000000E+00  0.00000000000E+00  0.46731417150E+02  0.46731417150E+02  0.00000000000E+00 0.  1.
          1   -1    0    0  501    0  0.00000000000E+00 -0.00000000000E+00 -0.28083664567E+03  0.28083664567E+03  0.00000000000E+00 0. -1.
         23    2    1    2    0    0  0.24439679074E+02 -0.47716397934E+02 -0.10102152770E+03  0.14608055726E+03  0.90884694019E+02 0.  0.
          5    1    1    2  502    0 -0.10535702395E+02  0.83535848733E+02 -0.83924768729E+02  0.11895410146E+03  0.41800000000E+01 0. -1.
         -5    1    1    2    0  502 -0.13903976679E+02 -0.35819450799E+02 -0.49158932101E+02  0.62533404100E+02  0.41800000000E+01 0.  1.
        -11    1    3    3    0    0  0.37578029434E+02 -0.68854597476E+02 -0.62862895598E+02  0.10052267173E+03  0.00000000000E+00 0.  1.
         11    1    3    3    0    0 -0.13138350360E+02  0.21138199542E+02 -0.38158632098E+02  0.45557885527E+02  0.00000000000E+00 0. -1.
</event>
<event>
 7    1  0.6610867E-006  0.1066952E+03  0.7561462E-02  0.1266815E+00
         -2   -1    0    0    0  501 -0.00000000000E+00  0.00000000000E+00  0.51854704852E+02  0.51854704852E+02  0.00000000000E+00 0.  1.
          2   -1    0    0  501    0  0.00000000000E+00 -0.00000000000E+00 -0.30151352035E+03  0.30151352035E+03  0.00000000000E+00 0. -1.
         23    2    1    2    0    0 -0.33309159781E+02 -0.15593112231E+02 -0.43479423339E+02  0.10937815016E+03  0.93383479295E+02 0.  0.
          5    1    1    2  502    0 -0.35730206824E+02 -0.30653669649E+02 -0.74778280594E+02  0.88462188483E+02  0.41800000000E+01 0.  1.
         -5    1    1    2    0  502  0.69039366605E+02  0.46246781880E+02 -0.13140111157E+03  0.15552788655E+03  0.41800000000E+01 0.  1.
        -11    1    3    3    0    0 -0.41521222276E+02 -0.39706880306E+02  0.17395497777E+01  0.57477598039E+02  0.00000000000E+00 0.  1.
         11    1    3    3    0    0  0.82120624947E+01  0.24113768075E+02 -0.45218973117E+02  0.51900552125E+02  0.00000000000E+00 0. -1.
</event>
<event>
 7    1  0.6610867E-006  0.1883296E+03  0.7561462E-02  0.1159977E+00
          1   -1    0    0  501    0  0.00000000000E+00  0.00000000000E+00  0.10337467110E+03  0.10337467110E+03  0.00000000000E+00 0. -1.
         -1   -1    0    0    0  501 -0.00000000000E+00 -0.00000000000E+00 -0.50513046734E+03  0.50513046734E+03  0.00000000000E+00 0.  1.
         23    2    1    2    0    0 -0.13436246048E+03  0.77892144674E+02 -0.36308684934E+03  0.40535704093E+03  0.91442952056E+02 0.  0.
          5    1    1    2  502    0  0.33666238788E+02  0.34216192847E+02 -0.32466366260E+01  0.48292613685E+02  0.41800000000E+01 0.  1.
         -5    1    1    2    0  502  0.10069622169E+03 -0.11210833752E+03 -0.35422310274E+02  0.15485548382E+03  0.41800000000E+01 0.  1.
        -11    1    3    3    0    0 -0.23533320357E+02  0.61299693035E+02 -0.16797308543E+03  0.18035084409E+03  0.00000000000E+00 0.  1.
         11    1    3    3    0    0 -0.11082914013E+03  0.16592451639E+02 -0.19511376390E+03  0.22500619684E+03  0.00000000000E+00 0. -1.
</event>
<event>
 6    1  0.6610867E-006  0.8457229E+02  0.7561462E-02  0.1316555E+00
         -1   -1    0    0    0  501 -0.00000000000E+00  0.00000000000E+00  0.10149025431E+02  0.10149025431E+02  0.00000000000E+00 0.  1.
          1   -1    0    0  501    0  0.00000000000E+00 -0.00000000000E+00 -0.15801342575E+04  0.15801342575E+04  0.00000000000E+00 0. -1.
          5    1    1    2  502    0 -0.41503307208E+02 -0.40672205225E+02 -0.12225401101E+04  0.12239275084E+04  0.41800000000E+01 0.  1.
         -5    1    1    2    0  502  0.13049509314E+02 -0.26586208980E+02 -0.62904271992E+02  0.69652968609E+02  0.41800000000E+01 0.  1.
        -11    1    1    2    0    0  0.15398028619E+01  0.47651476586E+02 -0.12636001042E+03  0.13505512374E+03  0.00000000000E+00 0.  1.
         11    1    1    2    0    0  0.26913995032E+02  0.19606937618E+02 -0.15818083962E+03  0.16164768218E+03  0.00000000000E+00 0. -1.
</event>
<event>
 7    1  0.6610867E-006  0.1139924E+03  0.7561462E-02  0.1253350E+00
          2   -1    0    0  501    0  0.00000000000E+00  0.00000000000E+00  0.22347930610E+03  0.22347930610E+03  0.00000000000E+00 0. -1.
         -2   -1    0    0    0  501 -0.00000000000E+00 -0.00000000000E+00 -0.10007289832E+03  0.10007289832E+03  0.00000000000E+00 0.  1.
         23    2    1    2    0    0  0.83539367227E+02  0.23388260099E+02  0.13331597507E+02  0.13569608591E+03  0.10348845178E+03 0.  0.
          5    1    1    2  502    0 -0.38117240960E+02  0.89303637923E+01 -0.21527212016E+02  0.44872805942E+02  0.41800000000E+01 0.  1.
         -5    1    1    2    0  502 -0.45422126267E+02 -0.32318623891E+02  0.13160202229E+03  0.14298331258E+03  0.41800000000E+01 0.  1.
        -11    1    3    3    0    0  0.10450388223E+03  0.33078710086E+02  0.12281818897E+01  0.10962103308E+03  0.00000000000E+00 0.  1.
         11    1    3    3    0    0 -0.20964515005E+02 -0.96904499868E+01  0.12103415617E+02  0.26075052827E+02  0.00000000000E+00 0. -1.
</event>
<event>
 7    1  0.6610867E-006  0.8703677E+02  0.7561462E-02  0.1310190E+00
         -3   -1    0    0    0  501 -0.00000000000E+00  0.00000000000E+00  0.20983857668E+02  0.20983857668E+02  0.00000000000E+00 0.  1.
          3   -1    0    0  501    0  0.00000000000E+00 -0.00000000000E+00 -0.78112400045E+03  0.78112400045E+03  0.00000000000E+00 0. -1.
         23    2    1    2    0    0  0.64886218244E+02  0.13502210955E+02 -0.33659249634E+03  0.35550598417E+03  0.93260201449E+02 0.  0.
          5    1    1    2  502    0 -0.76171577835E+02  0.14389970352E+01 -0.11842267926E+03  0.14087435305E+03  0.41800000000E+01 0. -1.
         -5    1    1    2    0  502  0.11285359591E+02 -0.14941207991E+02 -0.30512496718E+03  0.30572752090E+03  0.41800000000E+01 0. -1.
        -11    1    3    3    0    0 -0.57705589386E+00  0.13111466313E+02 -0.53869987986E+00  0.13135209931E+02  0.00000000000E+00 0.  1.
         11    1    3    3    0    0  0.65463274138E+02  0.39074464250E+00 -0.33605379646E+03  0.34237077424E+03  0.00000000000E+00 0. -1.
</event>
<event>
 7    1  0.6610867E-006  0.1476976E+03  0.7561462E-02  0.1203331E+00
         -2   -1    0    0    0  501 -0.00000000000E+00  0.00000000000E+00  0.83502216049E+02  0.83502216049E+02  0.00000000000E+00 0.  1.
          2   -1    0    0  501    0  0.00000000000E+00 -0.00000000000E+00 -0.85441071671E+03  0.85441071671E+03  0.00000000000E+00 0. -1.
         23    2    1    2    0    0  0.81493104286E+02  0.10643357193E+03 -0.15671878281E+02  0.16073909159E+03  0.87305306351E+02 0.  0.
          5    1    1    2  502    0 -0.79786709593E+02 -0.90537764133E+02 -0.32640560971E+03  0.34802456840E+03  0.41800000000E+01 0.  1.
         -5    1    1    2    0  502 -0.17063946930E+01 -0.15895807794E+02 -0.42883101267E+03  0.42914927276E+03  0.41800000000E+01 0.  1.
        -11    1    3    3    0    0 -0.28363471098E+01  0.63368208459E+02  0.56369987495E+01  0.63681633640E+02  0.00000000000E+00 0.  1.
         11    1    3    3    0    0  0.84329451396E+02  0.43065363468E+02 -0.21308877031E+02  0.97057457950E+02  0.00000000000E+00 0. -1.
</event>
<event>
 7    1  0.6610867E-006  0.7933575E+02  0.7561462E-02  0.1330947E+00
         -2   -1    0    0    0  501 -0.00000000000E+00  0.00000000000E+00  0.34218136429E+02  0.34218136429E+02  0.00000000000E+00 0.  1.
          2   -1    0    0  501    0  0.00000000000E+00 -0.00000000000E+00 -0.55000328654E+03  0.55000328654E+03  0.00000000000E+00 0. -1.
         23    2    1    2    0    0  0.20560358383E+02  0.31581510234E+01 -0.60607429182E+02  0.11171036780E+03  0.91505429057E+02 0.  0.
          5    1    1    2  502    0 -0.40351517522E+02  0.94927822898E+01 -0.44437051153E+03  0.44631937197E+03  0.41800000000E+01 0. -1.
         -5    1    1    2    0  502  0.19791159139E+02 -0.12650933313E+02 -0.10807209403E+02  0.26191683200E+02  0.41800000000E+01 0. -1.
        -11    1    3    3    0    0  0.34707547392E+02  0.40429720953E+02 -0.27913854624E+02  0.60152800951E+02  0.00000000000E+00 0.  1.
         11    1    3    3    0    0 -0.14147189010E+02 -0.37271569929E+02 -0.32693574558E+02  0.51557566848E+02  0.00000000000E+00 0. -1.
</event>
<event>
 7    1  0.6610867E-006  0.9470328E+02  0.7561462E-02  0.1291846E+00
          2   -1    0    0  501    0  0.00000000000E+00  0.00000000000E+00  0.35722543960E+03  0.35722543960E+03  0.00000000000E+00 0. -1.
         -2   -1    0    0    0  501 -0.00000000000E+00 -0.00000000000E+00 -0.50152759700E+02  0.50152759700E+02  0.00000000000E+00 0.  1.
         23    2    1    2    0    0 -0.60229100371E+02 -0.28787732415E+02  0.76098064292E+02  0.13635214854E+03  0.91349411351E+02 0.  0.
          5    1    1    2  502    0  0.73262612476E+02  0.13793514154E+02  0.23808200741E+03  0.24951590345E+03  0.41800000000E+01 0. -1.
         -5    1    1    2    0  502 -0.13033512105E+02  0.14994218261E+02 -0.71073918043E+01  0.21510147310E+02  0.41800000000E+01 0. -1.
        -11    1    3    3    0    0 -0.72582088555E+02 -0.11957327585E+02  0.19609802677E+02  0.76129374245E+02  0.00000000000E+00 0.  1.
         11    1    3    3    0    0  0.12352988184E+02 -0.16830404830E+02  0.56488261615E+02  0.60222774297E+02  0.00000000000E+00 0. -1.
</event>
<event>
 7    1  0.6610867E-006  0.1167701E+03  0.7561462E-02  0.1248522E+00
         -2   -1    0    0    0  501 -0.00000000000E+00  0.00000000000E+00  0.11052011714E+03  0.11052011714E+03  0.00000000000E+00 0.  1.
          2   -1    0    0  501    0  0.00000000000E+00 -0.00000000000E+00 -0.13648468353E+03  0.13648468353E+03  0.00000000000E+00 0. -1.
         23    2    1    2    0    0  0.11749710049E+02 -0.56554499757E+02 -0.52643703739E+00  0.10689664148E+03  0.89945248319E+02 0.  0.
          5    1    1    2  502    0  0.30929829638E+02  0.81751918717E+02 -0.22116759471E+02  0.90258816882E+02  0.41800000000E+01 0.  1.
         -5    1    1    2    0  502 -0.42679539688E+02 -0.25197418960E+02 -0.33213698869E+01  0.49849342304E+02  0.41800000000E+01 0.  1.
        -11    1    3    3    0    0  0.44799649229E+02 -0.34792676929E+02  0.22603849772E+02  0.61061223075E+02  0.00000000000E+00 0.  1.
         11    1    3    3    0    0 -0.33049939180E+02 -0.21761822828E+02 -0.23130286810E+02  0.45835418407E+02  0.00000000000E+00 0. -1.
</event>
<event>
 7    1  0.6610867E-006  0.6773970E+02  0.7561462E-02  0.1367952E+00
          4   -1    0    0  501    0  0.00000000000E+00  0.00000000000E+00  0.28228136255E+03  0.28228136255E+03  0.00000000000E+00 0. -1.
         -4   -1    0    0    0  501 -0.00000000000E+00 -0.00000000000E+00 -0.52634983377E+02  0.52634983377E+02  0.00000000000E+00 0.  1.
         23    2    1    2    0    0 -0.88310625810E+01 -0.13029697840E+02  0.28598430356E+02  0.97611120560E+02  0.91990760113E+02 0.  0.
          5    1    1    2  502    0  0.21588145818E+02 -0.23719415931E+02  0.19506233009E+03  0.19772567803E+03  0.41800000000E+01 0.  1.
         -5    1    1    2    0  502 -0.12757083237E+02  0.36749113771E+02  0.59856187232E+01  0.39579547334E+02  0.41800000000E+01 0.  1.
        -11    1    3    3    0    0  0.19063604698E+02  0.15157219268E+02  0.47727411873E+02  0.53582349371E+02  0.00000000000E+00 0. -1.
         11    1    3    3    0    0 -0.27894667279E+02 -0.28186917108E+02 -0.19128981516E+02  0.44028771190E+02  0.00000000000E+00 0.  1.
</event>
<event>
 7    1  0.6610867E-006  0.1127247E+03  0.7561462E-02  0.1255606E+00
         -2   -1    0    0    0  501 -0.00000000000E+00  0.00000000000E+00  0.44811121351E+02  0.44811121351E+02  0.00000000000E+00 0.  1.
          2   -1    0    0  501    0  0.00000000000E+00 -0.00000000000E+00 -0.33755833501E+03  0.33755833501E+03  0.00000000000E+00 0. -1.
         23    2    1    2    0    0  0.23199805862E+02  0.52030421905E+02 -0.11034684394E+03  0.15398251873E+03  0.91042815817E+02 0.  0.
          5    1    1    2  502    0  0.37105192471E+02  0.20097710344E+02 -0.69402749590E+02  0.81332203462E+02  0.41800000000E+01 0.  1.
         -5    1    1    2    0  502 -0.60304998332E+02 -0.72128132249E+02 -0.11299762012E+03  0.14705473416E+03  0.41800000000E+01 0.  1.
        -11    1    3    3    0    0  0.18012355507E+02  0.68936433465E+02 -0.40552735136E+02  0.81982931985E+02  0.00000000000E+00 0.  1.
         11    1    3    3    0    0  0.51874503549E+01 -0.16906011560E+02 -0.69794108805E+02  0.71999586748E+02  0.00000000000E+00 0. -1.
</event>
<event>
 7    1  0.6610867E-006  0.1170371E+03  0.7561462E-02  0.1248066E+00
         -2   -1    0    0    0  501 -0.00000000000E+00  0.00000000000E+00  0.24954399574E+02  0.24954399574E+02  0.00000000000E+00 0.  1.
          2   -1    0    0  501    0  0.00000000000E+00 -0.00000000000E+00 -0.13950817831E+04  0.13950817831E+04  0.00000000000E+00 0. -1.
         23    2    1    2    0    0  0.48823660644E+02 -0.46455888374E+02 -0.13228720849E+03  0.17406848600E+03  0.90873719444E+02 0.  0.
          5    1    1    2  502    0 -0.27550864170E+02  0.86847217214E+02 -0.96526329450E+03  0.96956288572E+03  0.41800000000E+01 0. -1.
         -5    1    1    2    0  502 -0.21272796474E+02 -0.40391328840E+02 -0.27257688053E+03  0.27640481095E+03  0.41800000000E+01 0. -1.
        -11    1    3    3    0    0  0.12509845742E+02 -0.57675495801E+02 -0.12066410024E+03  0.13432343110E+03  0.00000000000E+00 0. -1.
         11    1    3    3    0    0  0.36313814902E+02  0.11219607427E+02 -0.11623108250E+02  0.39745054899E+02  0.00000000000E+00 0.  1.
</event>
<event>
 6    1  0.6610867E-006  0.7318200E+02  0.7561462E-02  0.1349595E+00
         -2   -1    0    0    0  501 -0.00000000000E+00  0.00000000000E+00  0.46149246838E+02  0.46149246838E+02  0.00000000000E+00 0.  1.
          2   -1    0    0  501    0  0.00000000000E+00 -0.00000000000E+00 -0.31200842232E+03  0.31200842232E+03  0.00000000000E+00 0. -1.
          5    1    1    2  502    0  0.21195378980E+02  0.39563835260E+02 -0.24219678165E+03  0.24635603218E+03  0.41800000000E+01 0. -1.
         -5    1    1    2    0  502 -0.38725709728E+02  0.15917481337E+02 -0.13510275706E+02  0.44193288582E+02  0.41800000000E+01 0. -1.
        -11    1    1    2    0    0  0.14553752117E+02 -0.27906051704E+02  0.10335219048E+02  0.33126668640E+02  0.00000000000E+00 0.  1.
         11    1    1    2    0    0  0.29765786314E+01 -0.27575264893E+02 -0.20487337175E+02  0.34481679756E+02  0.00000000000E+00 0. -1.
</event>
<event>
 7    1  0.6610867E-006  0.8790632E+02  0.7561462E-02  0.1308003E+00
          2   -1    0    0  501    0  0.00000000000E+00  0.00000000000E+00  0.35462491561E+03  0.35462491561E+03  0.00000000000E+00 0. -1.
         -2   -1    0    0    0  501 -0.00000000000E+00 -0.00000000000E+00 -0.37664527025E+02  0.37664527025E+02  0.00000000000E+00 0.  1.
         23    2    1    2    0    0 -0.55025245548E+01 -0.13087170109E+02  0.73246514902E+02  0.11798041284E+03  0.91393512190E+02 0.  0.
          5    1    1    2  502    0 -0.49124832548E+02  0.45124519335E+01  0.41413350570E+02  0.64545715588E+02  0.41800000000E+01 0. -1.
         -5    1    1    2    0  502  0.54627357103E+02  0.85747181756E+01  0.20230052311E+03  0.20976331421E+03  0.41800000000E+01 0. -1.
        -11    1    3    3    0    0 -0.33754192383E+01  0.28755794383E+02  0.70242758529E+02  0.75975879668E+02  0.00000000000E+00 0. -1.
         11    1    3    3    0    0 -0.21271053165E+01 -0.41842964492E+02  0.30037563731E+01  0.42004533170E+02  0.00000000000E+00 0.  1.
</event>
<event>
 7    1  0.6610867E-006  0.1069065E+03  0.7561462E-02  0.1266408E+00
          2   -1    0    0  501    0  0.00000000000E+00  0.00000000000E+00  0.49978660278E+03  0.49978660278E+03  0.00000000000E+00 0.  1.
         -2   -1    0    0    0  501 -0.00000000000E+00 -0.00000000000E+00 -0.25025802238E+02  0.25025802238E+02  0.00000000000E+00 0. -1.
         23    2    1    2    0    0 -0.19631488137E+02 -0.71546948160E+01  0.19350533339E+03  0.21628564555E+03  0.94332292652E+02 0.  0.
          5    1    1    2  502    0  0.49140329316E+01  0.64733065076E+02  0.11805889212E+03  0.13479574119E+03  0.41800000000E+01 0. -1.
         -5    1    1    2    0  502  0.14717455205E+02 -0.57578370260E+02  0.16319657503E+03  0.17373101828E+03  0.41800000000E+01 0. -1.
        -11    1    3    3    0    0 -0.24026990022E+02  0.37377726709E+02  0.13806441173E+03  0.14503852071E+03  0.00000000000E+00 0. -1.
         11    1    3    3    0    0  0.43955018847E+01 -0.44532421525E+02  0.55440921660E+02  0.71247124842E+02  0.00000000000E+00 0.  1.
</event>
<event>
 7    1  0.6610867E-006  0.1286671E+03  0.7561462E-02  0.1229447E+00
         -2   -1    0    0    0  501 -0.00000000000E+00  0.00000000000E+00  0.22853072419E+02  0.22853072419E+02  0.00000000000E+00 0.  1.
          2   -1    0    0  501    0  0.00000000000E+00 -0.00000000000E+00 -0.78614011595E+03  0.78614011595E+03  0.00000000000E+00 0. -1.
         23    2    1    2    0    0 -0.27100116954E+02 -0.78250408258E+02 -0.36692519239E+03  0.38609672791E+03  0.87057703617E+02 0.  0.
          5    1    1    2  502    0 -0.39320206767E+02  0.55381934071E+02 -0.26806494959E+03  0.27656740025E+03  0.41800000000E+01 0. -1.
         -5    1    1    2    0  502  0.66420323721E+02  0.22868474187E+02 -0.12829690155E+03  0.14632906021E+03  0.41800000000E+01 0.  1.
        -11    1    3    3    0    0  0.30302287747E+02 -0.38940076068E+02 -0.18014206337E+03  0.18677719658E+03  0.00000000000E+00 0.  1.
         11    1    3    3    0    0 -0.57402404701E+02 -0.39310332190E+02 -0.18678312902E+03  0.19931953133E+03  0.00000000000E+00 0. -1.
</event>
<event>
 7    1  0.6610867E-006  0.1088521E+03  0.7561462E-02  0.1262711E+00
          1   -1    0    0  501    0  0.00000000000E+00  0.00000000000E+00  0.13717610729E+04  0.13717610729E+04  0.00000000000E+00 0. -1.
         -1   -1    0    0    0  501 -0.00000000000E+00 -0.00000000000E+00 -0.22290307194E+02  0.22290307194E+02  0.00000000000E+00 0.  1.
         23    2    1    2    0    0  0.16068314600E+02 -0.46492234189E+02  0.12311920333E+03  0.16035567363E+03  0.90199142241E+02 0.  0.
          5    1    1    2  502    0  0.41175084758E+02  0.40320837520E+02  0.92884127748E+03  0.93063674368E+03  0.41800000000E+01 0.  1.
         -5    1    1    2    0  502 -0.57243399358E+02  0.61713966693E+01  0.29751028491E+03  0.30305896280E+03  0.41800000000E+01 0.  1.
        -11    1    3    3    0    0  0.50995264729E+02 -0.43700317294E+02  0.72877571633E+02  0.99102851642E+02  0.00000000000E+00 0.  1.
         11    1    3    3    0    0 -0.34926950129E+02 -0.27919168950E+01  0.50241631701E+02  0.61252821986E+02  0.00000000000E+00 0. -1.
</event>
<event>
 7    1  0.6610867E-006  0.7671513E+02  0.7561462E-02  0.1338641E+00
          2   -1    0    0  501    0  0.00000000000E+00  0.00000000000E+00  0.13503594476E+03  0.13503594476E+03  0.00000000000E+00 0. -1.
         -2   -1    0    0    0  501 -0.00000000000E+00 -0.00000000000E+00 -0.10255905050E+03  0.10255905050E+03  0.00000000000E+00 0.  1.
         23    2    1    2    0    0 -0.60550458168E+02 -0.14092755523E+02 -0.25417560956E+01  0.93592193079E+02  0.69914764812E+02 0.  0.
          5    1    1    2  502    0 -0.12840852076E+02 -0.45165169765E+01 -0.36863374885E+02  0.39517935365E+02  0.41800000000E+01 0.  1.
         -5    1    1    2    0  502  0.73391310244E+02  0.18609272499E+02  0.71882025237E+02  0.10448486682E+03  0.41800000000E+01 0.  1.
        -11    1    3    3    0    0 -0.41597588874E+02 -0.37392612546E+01  0.32164457899E+02  0.52715214376E+02  0.00000000000E+00 0. -1.
         11    1    3    3    0    0 -0.18952869295E+02 -0.10353494268E+02 -0.34706213994E+02  0.40876978703E+02  0.00000000000E+00 0.  1.
</event>
<event>
 7    1  0.6610867E-006  0.1717191E+03  0.7561462E-02  0.1176067E+00
         -2   -1    0    0    0  501 -0.00000000000E+00  0.00000000000E+00  0.18693792042E+02  0.18693792042E+02  0.00000000000E+00 0.  1.
          2   -1    0    0  501    0  0.00000000000E+00 -0.00000000000E+00 -0.19333522772E+04  0.19333522772E+04  0.00000000000E+00 0. -1.
         23    2    1    2    0    0  0.14508803505E+03  0.53837681646E+02 -0.79060748951E+03  0.81051773240E+03  0.89049189703E+02 0.  0.
          5    1    1    2  502    0 -0.98774928147E+02  0.19287145495E+02 -0.40787402755E+03  0.42012757010E+03  0.41800000000E+01 0.  1.
         -5    1    1    2    0  502 -0.46313106905E+02 -0.73124827142E+02 -0.71617696815E+03  0.72140076679E+03  0.41800000000E+01 0.  1.
        -11    1    3    3    0    0  0.24602409920E+02  0.17553125524E+02 -0.43992147700E+02  0.53373212839E+02  0.00000000000E+00 0.  1.
         11    1    3    3    0    0  0.12048562513E+03  0.36284556123E+02 -0.74661534181E+03  0.75714451956E+03  0.00000000000E+00 0. -1.
</event>
<event>
 7    1  0.6610867E-006  0.9959183E+02  0.7561462E-02  0.1281157E+00
         -1   -1    0    0    0  501 -0.00000000000E+00  0.00000000000E+00  0.24189704726E+03  0.24189704726E+03  0.00000000000E+00 0.  1.
          1   -1    0    0  501    0  0.00000000000E+00 -0.00000000000E+00 -0.91283635467E+02  0.91283635467E+02  0.00000000000E+00 0. -1.
         23    2    1    2    0    0  0.18287289226E+02  0.40671468750E+02  0.17364198489E+03  0.19839739872E+03  0.84978794926E+02 0.  0.
          5    1    1    2  502    0 -0.20907352451E+02 -0.77317036359E+02  0.15164133974E+02  0.81623923313E+02  0.41800000000E+01 0.  1.
         -5    1    1    2    0  502  0.26200632247E+01  0.36645567609E+02 -0.38192707063E+02  0.53159360695E+02  0.41800000000E+01 0.  1.
        -11    1    3    3    0    0 -0.25327391248E+02  0.53623103008E+01  0.11236159080E+03  0.11530549946E+03  0.00000000000E+00 0.  1.
         11    1    3    3    0    0  0.43614680474E+02  0.35309158449E+02  0.61280394086E+02  0.83091899260E+02  0.00000000000E+00 0. -1.
</event>
<event>
 7    1  0.6610867E-006  0.6633615E+02  0.7561462E-02  0.1373015E+00
         -2   -1    0    0    0  501 -0.00000000000E+00  0.00000000000E+00  0.34061900417E+02  0.34061900417E+02  0.00000000000E+00 0.  1.
          2   -1    0    0  501    0  0.00000000000E+00 -0.00000000000E+00 -0.44193927393E+03  0.44193927393E+03  0.00000000000E+00 0. -1.
         23    2    1    2    0    0 -0.12608783416E+02 -0.27906723347E+01 -0.72295380101E+02  0.12073440343E+03  0.95830083569E+02 0.  0.
          5    1    1    2  502    0  0.99350858438E+01  0.21579464215E+02 -0.33495632049E+03  0.33582374580E+03  0.41800000000E+01 0. -1.
         -5    1    1    2    0  502  0.26736975723E+01 -0.18788791880E+02 -0.62567292137E+00  0.19443025115E+02  0.41800000000E+01 0.  1.
        -11    1    3    3    0    0  0.30933151635E+02  0.22967440056E+02 -0.55236034197E+02  0.67345249621E+02  0.00000000000E+00 0. -1.
         11    1    3    3    0    0 -0.43541935051E+02 -0.25758112391E+02 -0.17059345904E+02  0.53389153811E+02  0.00000000000E+00 0.  1.
</event>
<event>
 7    1  0.6610867E-006  0.1773496E+03  0.7561462E-02  0.1170393E+00
         -1   -1    0    0    0  501 -0.00000000000E+00  0.00000000000E+00  0.27276454673E+03  0.27276454673E+03  0.00000000000E+00 0.  1.
          1   -1    0    0  501    0  0.00000000000E+00 -0.00000000000E+00 -0.18081769284E+03  0.18081769284E+03  0.00000000000E+00 0. -1.
         23    2    1    2    0    0 -0.14286927226E+03  0.45192053975E+02  0.16936388993E+03  0.24359425371E+03  0.90554307067E+02 0.  0.
          5    1    1    2  502    0  0.15018015042E+03 -0.88863354941E+01 -0.83673428471E+02  0.17219686283E+03  0.41800000000E+01 0. -1.
         -5    1    1    2    0  502 -0.73108781574E+01 -0.36305718481E+02  0.62563924245E+01  0.37791123032E+02  0.41800000000E+01 0. -1.
        -11    1    3    3    0    0 -0.95979013054E+02 -0.76480548858E+01  0.60163387145E+02  0.11353456233E+03  0.00000000000E+00 0. -1.
         11    1    3    3    0    0 -0.46890259205E+02  0.52840108861E+02  0.10920050279E+03  0.13005969138E+03  0.00000000000E+00 0.  1.
</event>
<event>
 7    1  0.6610867E-006  0.1544444E+03  0.7561462E-02  0.1195116E+00
         -3   -1    0    0    0  501 -0.00000000000E+00  0.00000000000E+00  0.55529974823E+02  0.55529974823E+02  0.00000000000E+00 0.  1.
          3   -1    0    0  501    0  0.00000000000E+00 -0.00000000000E+00 -0.51649562908E+03  0.51649562908E+03  0.00000000000E+00 0. -1.
         23    2    1    2    0    0  0.10940705783E+03  0.30659193198E+02 -0.10702815533E+03  0.17981520952E+03  0.89266976586E+02 0.  0.
          5    1    1    2  502    0 -0.12921206373E+03 -0.49043257584E+02 -0.32023401122E+03  0.34880982336E+03  0.41800000000E+01 0. -1.
         -5    1    1    2    0  502  0.19805005900E+02  0.18384064387E+02 -0.33703487700E+02  0.43400571024E+02  0.41800000000E+01 0. -1.
        -11    1    3    3    0    0  0.89557175125E+02 -0.17441665260E+02 -0.56696964534E+02  0.10742087828E+03  0.00000000000E+00 0.  1.
         11    1    3    3    0    0  0.19849882709E+02  0.48100858458E+02 -0.50331190801E+02  0.72394331238E+02  0.00000000000E+00 0. -1.
</event>
<event>
 7    1  0.6610867E-006  0.7867438E+02  0.7561462E-02  0.1332856E+00
         -2   -1    0    0    0  501 -0.00000000000E+00  0.00000000000E+00  0.41405204175E+02  0.41405204175E+02  0.00000000000E+00 0.  1.
          2   -1    0    0  501    0  0.00000000000E+00 -0.00000000000E+00 -0.48199165870E+03  0.48199165870E+03  0.00000000000E+00 0. -1.
         23    2    1    2    0    0  0.61543045821E+01 -0.13979085762E+01 -0.30690696152E+02  0.92661134717E+02  0.87202852267E+02 0.  0.
          5    1    1    2  502    0  0.10302968804E+02  0.41031827337E+02 -0.36856318072E+03  0.37100680937E+03  0.41800000000E+01 0. -1.
         -5    1    1    2    0  502 -0.16457273386E+02 -0.39633918761E+02 -0.41332577658E+02  0.59728918787E+02  0.41800000000E+01 0.  1.
        -11    1    3    3    0    0  0.23238004772E+02 -0.30276194346E+02 -0.42470904515E+02  0.57100179861E+02  0.00000000000E+00 0.  1.
         11    1    3    3    0    0 -0.17083700189E+02  0.28878285770E+02  0.11780208363E+02  0.35560954856E+02  0.00000000000E+00 0. -1.
</event>
<event>
 7    1  0.6610867E-006  0.1206938E+03  0.7561462E-02  0.1241957E+00
          1   -1    0    0  501    0  0.00000000000E+00  0.00000000000E+00  0.10208199805E+04  0.10208199805E+04  0.00000000000E+00 0. -1.
         -1   -1    0    0    0  501 -0.00000000000E+00 -0.00000000000E+00 -0.26831386601E+02  0.26831386601E+02  0.00000000000E+00 0.  1.
         23    2    1    2    0    0  0.10434164359E+03  0.15785120737E+02  0.25213581582E+03  0.28796125703E+03  0.90624871367E+02 0.  0.
          5    1    1    2  502    0 -0.27819942292E+02  0.36104736181E+01  0.23035199487E+02  0.36538712680E+02  0.41800000000E+01 0. -1.
         -5    1    1    2    0  502 -0.76521701298E+02 -0.19395594355E+02  0.71881757864E+03  0.72315139743E+03  0.41800000000E+01 0. -1.
        -11    1    3    3    0    0  0.33796485429E+02  0.46123665512E+02  0.14729879146E+03  0.15800800268E+03  0.00000000000E+00 0. -1.
         11    1    3    3    0    0  0.70545158161E+02 -0.30338544775E+02  0.10483702436E+03  0.12995325435E+03  0.00000000000E+00 0.  1.
</event>
<event>
 7    1  0.6610867E-006  0.1034219E+03  0.7561462E-02  0.1273260E+00
          2   -1    0    0  501    0  0.00000000000E+00  0.00000000000E+00  0.34169982827E+03  0.34169982827E+03  0.00000000000E+00 0. -1.
         -2   -1    0    0    0  501 -0.00000000000E+00 -0.00000000000E+00 -0.59069085801E+02  0.59069085801E+02  0.00000000000E+00 0.  1.
         23    2    1    2    0    0  0.26778568077E+02  0.13067842108E+01  0.58864675267E+01  0.95885482505E+02  0.91872606701E+02 0.  0.
          5    1    1    2  502    0  0.19828448869E+02 -0.45550485127E+02  0.56184838086E+02  0.75114728986E+02  0.41800000000E+01 0.  1.
         -5    1    1    2    0  502 -0.46607016946E+02  0.44243700916E+02  0.22055943685E+03  0.22976870258E+03  0.41800000000E+01 0.  1.
        -11    1    3    3    0    0  0.45604996520E+02  0.32608352323E+02  0.15399438898E+02  0.58140029818E+02  0.00000000000E+00 0.  1.
         11    1    3    3    0    0 -0.18826428443E+02 -0.31301568113E+02 -0.95129713712E+01  0.37745452687E+02  0.00000000000E+00 0. -1.
</event>
<event>
 7    1  0.6610867E-006  0.1721388E+03  0.7561462E-02  0.1175636E+00
         -1   -1    0    0    0  501 -0.00000000000E+00  0.00000000000E+00  0.66729861685E+03  0.66729861685E+03  0.00000000000E+00 0.  1.
          1   -1    0    0  501    0  0.00000000000E+00 -0.00000000000E+00 -0.48545312026E+02  0.48545312026E+02  0.00000000000E+00 0. -1.
         23    2    1    2    0    0  0.10403520808E+03  0.85917454293E+02  0.38719962254E+03  0.42009121375E+03  0.91367098555E+02 0.  0.
          5    1    1    2  502    0 -0.10433000818E+03 -0.11374955113E+03  0.18117891726E+03  0.23804827966E+03  0.41800000000E+01 0.  1.
         -5    1    1    2    0  502  0.29480010791E+00  0.27832096839E+02  0.50374765021E+02  0.57704435466E+02  0.41800000000E+01 0.  1.
        -11    1    3    3    0    0 -0.14174447425E+02  0.25010343376E+02  0.90458401129E+02  0.94916566365E+02  0.00000000000E+00 0.  1.
         11    1    3    3    0    0  0.11820965550E+03  0.60907110916E+02  0.29674122141E+03  0.32517464738E+03  0.00000000000E+00 0. -1.
</event>
<event>
 7    1  0.6610867E-006  0.1300944E+03  0.7561462E-02  0.1227316E+00
          1   -1    0    0  501    0  0.00000000000E+00  0.00000000000E+00  0.12133694522E+04  0.12133694522E+04  0.00000000000E+00 0. -1.
         -1   -1    0    0    0  501 -0.00000000000E+00 -0.00000000000E+00 -0.15933855585E+02  0.15933855585E+02  0.00000000000E+00 0.  1.
         23    2    1    2    0    0 -0.78140245752E+02  0.17636968363E+02  0.39777368175E+03  0.41596156766E+03  0.91559615656E+02 0.  0.
          5    1    1    2  502    0  0.68029758898E+02  0.46462266045E+02  0.39901114925E+03  0.40744835241E+03  0.41800000000E+01 0.  1.
         -5    1    1    2    0  502  0.10110486854E+02 -0.64099234408E+02  0.40065076565E+03  0.40589338774E+03  0.41800000000E+01 0.  1.
        -11    1    3    3    0    0 -0.35505913372E+01  0.35742941425E+02  0.63176580090E+02  0.72673549744E+02  0.00000000000E+00 0.  1.
         11    1    3    3    0    0 -0.74589654415E+02 -0.18105973062E+02  0.33459710166E+03  0.34328801792E+03  0.00000000000E+00 0. -1.
</event>
<event>
 7    1  0.6610867E-006  0.2141668E+03  0.7561462E-02  0.1138308E+00
          1   -1    0    0  501    0  0.00000000000E+00  0.00000000000E+00  0.18557920092E+03  0.18557920092E+03  0.00000000000E+00 0. -1.
         -1   -1    0    0    0  501 -0.00000000000E+00 -0.00000000000E+00 -0.29137991148E+03  0.29137991148E+03  0.00000000000E+00 0.  1.
         23    2    1    2    0    0  0.19363247741E+03 -0.51817677576E+02 -0.89061298763E+02  0.24009115992E+03  0.97638322996E+02 0.  0.
          5    1    1    2  502    0 -0.13971831421E+03  0.70968616116E+01 -0.62302175792E+02  0.15320119543E+03  0.41800000000E+01 0. -1.
         -5    1    1    2    0  502 -0.53914163194E+02  0.44720815965E+02  0.45562763989E+02  0.83666757053E+02  0.41800000000E+01 0. -1.
        -11    1    3    3    0    0  0.87126447230E+02  0.20445756294E+02 -0.12574966457E+02  0.90372432405E+02  0.00000000000E+00 0.  1.
         11    1    3    3    0    0  0.10650603018E+03 -0.72263433870E+02 -0.76486332306E+02  0.14971872752E+03  0.00000000000E+00 0. -1.
</event>
<event>
 7    1  0.6610867E-006  0.1370657E+03  0.7561462E-02  0.1217333E+00
          1   -1    0    0  501    0  0.00000000000E+00  0.00000000000E+00  0.20944540064E+03  0.20944540064E+03  0.00000000000E+00 0.  1.
         -1   -1    0    0    0  501 -0.00000000000E+00 -0.00000000000E+00 -0.10523861891E+03  0.10523861891E+03  0.00000000000E+00 0. -1.
         23    2    1    2    0    0 -0.62566406785E+02 -0.76263886619E+02  0.23418018744E+02  0.13606575566E+03  0.90745526625E+02 0.  0.
          5    1    1    2  502    0 -0.22421143152E+02  0.46364118896E+02  0.71123638991E+02  0.87911225703E+02  0.41800000000E+01 0.  1.
         -5    1    1    2    0  502  0.84987549937E+02  0.29899767723E+02  0.96651239959E+01  0.90707038184E+02  0.41800000000E+01 0.  1.
        -11    1    3    3    0    0 -0.43989729092E+02 -0.95735821338E+02  0.27394078865E+02  0.10886174401E+03  0.00000000000E+00 0.  1.
         11    1    3    3    0    0 -0.18576677693E+02  0.19471934719E+02 -0.39760601214E+01  0.27204011651E+02  0.00000000000E+00 0. -1.
</event>
<event>
 7    1  0.6610867E-006  0.2010925E+03  0.7561462E-02  0.1148821E+00
         -2   -1    0    0    0  501 -0.00000000000E+00  0.00000000000E+00  0.61972371877E+02  0.61972371877E+02  0.00000000000E+00 0.  1.
          2   -1    0    0  501    0  0.00000000000E+00 -0.00000000000E+00 -0.83223045591E+03  0.83223045591E+03  0.00000000000E+00 0. -1.
         23    2    1    2    0    0  0.13793802911E+03  0.10718009274E+03 -0.18281973652E+03  0.26870635566E+03  0.90915220683E+02 0.  0.
          5    1    1    2  502    0  0.76873043931E+01  0.19766680731E+02 -0.59882222894E+02  0.63664506082E+02  0.41800000000E+01 0.  1.
         -5    1    1    2    0  502 -0.14562533350E+03 -0.12694677347E+03 -0.52755612461E+03  0.56183196605E+03  0.41800000000E+01 0.  1.
        -11    1    3    3    0    0  0.55276847950E+02  0.44207790607E+01 -0.19486380761E+02  0.58777480739E+02  0.00000000000E+00 0.  1.
         11    1    3    3    0    0  0.82661181162E+02  0.10275931368E+03 -0.16333335576E+03  0.20992887492E+03  0.00000000000E+00 0. -1.
</event>
<event>
 7    1  0.6610867E-006  0.9729693E+02  0.7561462E-02  0.1286085E+00
         -2   -1    0    0    0  501 -0.00000000000E+00  0.00000000000E+00  0.47536209471E+02  0.47536209471E+02  0.00000000000E+00 0.  1.
          2   -1    0    0  501    0  0.00000000000E+00 -0.00000000000E+00 -0.47557222258E+03  0.47557222258E+03  0.00000000000E+00 0. -1.
         23    2    1    2    0    0 -0.50012849700E+02  0.27048431342E+02 -0.41990918509E+02  0.11333900098E+03  0.88597907043E+02 0.  0.
          5    1    1    2  502    0  0.11135866183E+01  0.26244504942E+02 -0.12727382955E+02  0.29486824036E+02  0.41800000000E+01 0. -1.
         -5    1    1    2    0  502  0.48899263082E+02 -0.53292936284E+02 -0.37331771164E+03  0.38028260703E+03  0.41800000000E+01 0. -1.
        -11    1    3    3    0    0 -0.70806984690E+02  0.19759162532E+02 -0.95608922826E+01  0.74131398517E+02  0.00000000000E+00 0.  1.
         11    1    3    3    0    0  0.20794134990E+02  0.72892688098E+01 -0.32430026226E+02  0.39207602462E+02  0.00000000000E+00 0. -1.
</event>
<event>
 7    1  0.6610867E-006  0.2082346E+03  0.7561462E-02  0.1142972E+00
          2   -1    0    0  501    0  0.00000000000E+00  0.00000000000E+00  0.13252794303E+04  0.13252794303E+04  0.00000000000E+00 0. -1.
         -2   -1    0    0    0  501 -0.00000000000E+00 -0.00000000000E+00 -0.39539882674E+02  0.39539882674E+02  0.00000000000E+00 0.  1.
         23    2    1    2    0    0 -0.33963261388E+02  0.18642621784E+03  0.82109082127E+03  0.84765812075E+03  0.91792783374E+02 0.  0.
          5    1    1    2  502    0  0.57126758112E+02 -0.19358348945E+03  0.42479375424E+03  0.47032461122E+03  0.41800000000E+01 0.  1.
         -5    1    1    2    0  502 -0.23163496723E+02  0.71572716091E+01  0.39854972117E+02  0.46836581000E+02  0.41800000000E+01 0.  1.
        -11    1    3    3    0    0 -0.29168339275E+01  0.49492588850E+02  0.85911316619E+02  0.99190617472E+02  0.00000000000E+00 0.  1.
         11    1    3    3    0    0 -0.31046427461E+02  0.13693362899E+03  0.73517950465E+03  0.74846750328E+03  0.00000000000E+00 0. -1.
</event>
<event>
 7    1  0.6610867E-006  0.1029064E+03  0.7561462E-02  0.1274300E+00
          1   -1    0    0  501    0  0.00000000000E+00  0.00000000000E+00  0.18920254336E+03  0.18920254336E+03  0.00000000000E+00 0. -1.
         -1   -1    0    0    0  501 -0.00000000000E+00 -0.00000000000E+00 -0.65183621552E+02  0.65183621552E+02  0.00000000000E+00 0.  1.
         23    2    1    2    0    0 -0.15502472633E+02  0.19492707176E+02  0.44375097804E+02  0.10401344178E+03  0.90715789561E+02 0.  0.
          5    1    1    2  502    0  0.57041522898E+02 -0.47772711752E+02  0.32352962397E+02  0.81241331221E+02  0.41800000000E+01 0. -1.
         -5    1    1    2    0  502 -0.41539050265E+02  0.28280004576E+02  0.47290861611E+02  0.69131391912E+02  0.41800000000E+01 0. -1.
        -11    1    3    3    0    0 -0.36849084163E+02 -0.15419305579E+02 -0.45814235264E+01  0.40206957479E+02  0.00000000000E+00 0.  1.
         11    1    3    3    0    0  0.21346611530E+02  0.34912012756E+02  0.48956521331E+02  0.63806484305E+02  0.00000000000E+00 0. -1.
</event>
<event>
 7    1  0.6610867E-006  0.1132269E+03  0.7561462E-02  0.1254708E+00
         -1   -1    0    0    0  501 -0.00000000000E+00  0.00000000000E+00  0.17975823360E+02  0.17975823360E+02  0.00000000000E+00 0.  1.
          1   -1    0    0  501    0  0.00000000000E+00 -0.00000000000E+00 -0.78644741096E+03  0.78644741096E+03  0.00000000000E+00 0. -1.
         23    2    1    2    0    0 -0.27630318286E+02 -0.28021898723E+02 -0.23964307040E+03  0.25957844247E+03  0.91670634925E+02 0.  0.
          5    1    1    2  502    0 -0.15915363781E+02  0.66459882798E+02 -0.35437687376E+03  0.36093026457E+03  0.41800000000E+01 0.  1.
         -5    1    1    2    0  502  0.43545682067E+02 -0.38437984076E+02 -0.17445164345E+03  0.18391452729E+03  0.41800000000E+01 0.  1.
        -11    1    3    3    0    0  0.12407087228E+02 -0.51747531053E+02 -0.12628238467E+03  0.13703643114E+03  0.00000000000E+00 0.  1.
         11    1    3    3    0    0 -0.40037405514E+02  0.23725632330E+02 -0.11336068573E+03  0.12254201132E+03  0.00000000000E+00 0. -1.
</event>
<event>
 7    1  0.6610867E-006  0.5514046E+02  0.7561462E-02  0.1419436E+00
         -2   -1    0    0    0  501 -0.00000000000E+00  0.00000000000E+00  0.23148422070E+02  0.23148422070E+02  0.00000000000E+00 0.  1.
          2   -1    0    0  501    0  0.00000000000E+00 -0.00000000000E+00 -0.46633167419E+03  0.46633167419E+03  0.00000000000E+00 0. -1.
         23    2    1    2    0    0 -0.45479038956E+01 -0.99075620543E+01 -0.14368954299E+03  0.16472931473E+03  0.79813652669E+02 0.  0.
          5    1    1    2  502    0 -0.26168622861E+02  0.12882883438E+02 -0.29097697857E+03  0.29246510897E+03  0.41800000000E+01 0.  1.
         -5    1    1    2    0  502  0.30716526757E+02 -0.29753213840E+01 -0.85167305719E+01  0.32285672565E+02  0.41800000000E+01 0.  1.
        -11    1    3    3    0    0  0.14843454893E+02  0.12949710671E+02 -0.18815128533E+01  0.19787957202E+02  0.00000000000E+00 0.  1.
         11    1    3    3    0    0 -0.19391358788E+02 -0.22857272726E+02 -0.14180803013E+03  0.14494135753E+03  0.00000000000E+00 0. -1.
</event>
<event>
 7    1  0.6610867E-006  0.1321314E+03  0.7561462E-02  0.1224327E+00
         -2   -1    0    0    0  501 -0.00000000000E+00  0.00000000000E+00  0.26842407285E+02  0.26842407285E+02  0.00000000000E+00 0.  1.
          2   -1    0    0  501    0  0.00000000000E+00 -0.00000000000E+00 -0.14852882924E+04  0.14852882924E+04  0.00000000000E+00 0. -1.
         23    2    1    2    0    0 -0.12549190721E+03  0.26727949473E+02 -0.27122090337E+03  0.31145622911E+03  0.83555982250E+02 0.  0.
          5    1    1    2  502    0  0.21442641230E+02 -0.15473723080E+02 -0.77129312224E+03  0.77175758875E+03  0.41800000000E+01 0. -1.
         -5    1    1    2    0  502  0.10404926598E+03 -0.11254226393E+02 -0.41593185946E+03  0.42891688178E+03  0.41800000000E+01 0. -1.
        -11    1    3    3    0    0 -0.69470637175E+02 -0.25980238627E+01 -0.62904909143E+02  0.93754715891E+02  0.00000000000E+00 0.  1.
         11    1    3    3    0    0 -0.56021270038E+02  0.29325973336E+02 -0.20831599422E+03  0.21770151322E+03  0.00000000000E+00 0. -1.
</event>
<event>
 7    1  0.6610867E-006  0.8923010E+02  0.7561462E-02  0.1304727E+00
         -2   -1    0    0    0  501 -0.00000000000E+00  0.00000000000E+00  0.28235473103E+02  0.28235473103E+02  0.00000000000E+00 0.  1.
          2   -1    0    0  501    0  0.00000000000E+00 -0.00000000000E+00 -0.67204952171E+03  0.67204952171E+03  0.00000000000E+00 0. -1.
         23    2    1    2    0    0  0.42328444718E+02  0.85669600980E+01 -0.15076110234E+03  0.19319919938E+03  0.11283585700E+03 0.  0.
          5    1    1    2  502    0 -0.69096999622E+02 -0.11150062538E+02 -0.18513729375E+03  0.19796971786E+03  0.41800000000E+01 0. -1.
         -5    1    1    2    0  502  0.26768554904E+02  0.25831024400E+01 -0.30791565252E+03  0.30911607757E+03  0.41800000000E+01 0.  1.
        -11    1    3    3    0    0  0.98418933498E+01  0.36796937379E+02 -0.17864409192E+01  0.38132254540E+02  0.00000000000E+00 0.  1.
         11    1    3    3    0    0  0.32486551368E+02 -0.28229977281E+02 -0.14897466142E+03  0.15506694484E+03  0.00000000000E+00 0. -1.
</event>
<event>
 7    1  0.6610867E-006  0.1083967E+03  0.7561462E-02  0.1263568E+00
          1   -1    0    0  501    0  0.00000000000E+00  0.00000000000E+00  0.12833765192E+03  0.12833765192E+03  0.00000000000E+00 0. -1.
         -1   -1    0    0    0  501 -0.00000000000E+00 -0.00000000000E+00 -0.11350398285E+03  0.11350398285E+03  0.00000000000E+00 0.  1.
         23    2    1    2    0    0  0.11893842562E+02  0.42540772926E+02 -0.24658498075E+02  0.10342351201E+03  0.90206432466E+02 0.  0.
          5    1    1    2  502    0 -0.32208944076E+01  0.39944453659E+02  0.37963088882E+02  0.55358848040E+02  0.41800000000E+01 0.  1.
         -5    1    1    2    0  502 -0.86729481544E+01 -0.82485226585E+02  0.15290782619E+01  0.83059274706E+02  0.41800000000E+01 0.  1.
        -11    1    3    3    0    0 -0.27621897147E+02 -0.85064314076E+01  0.94552945320E+01  0.30409392825E+02  0.00000000000E+00 0. -1.
         11    1    3    3    0    0  0.39515739709E+02  0.51047204333E+02 -0.34113792607E+02  0.73014119190E+02  0.00000000000E+00 0.  1.
</event>
<event>
 7    1  0.6610867E-006  0.1176049E+03  0.7561462E-02  0.1247101E+00
          1   -1    0    0  501    0  0.00000000000E+00  0.00000000000E+00  0.10224064532E+04  0.10224064532E+04  0.00000000000E+00 0. -1.
         -1   -1    0    0    0  501 -0.00000000000E+00 -0.00000000000E+00 -0.27829178046E+02  0.27829178046E+02  0.00000000000E+00 0.  1.
         23    2    1    2    0    0  0.34803901581E+02 -0.84051023476E+02  0.18689913400E+03  0.22788076962E+03  0.93394179486E+02 0.  0.
          5    1    1    2  502    0 -0.74418000669E+02  0.63379679515E+02  0.38250097423E+03  0.39481576753E+03  0.41800000000E+01 0.  1.
         -5    1    1    2    0  502  0.39614099087E+02  0.20671343961E+02  0.42517716693E+03  0.42753909411E+03  0.41800000000E+01 0.  1.
        -11    1    3    3    0    0  0.47080499803E+01 -0.32182116903E+02  0.99064130817E+00  0.32539756502E+02  0.00000000000E+00 0.  1.
         11    1    3    3    0    0  0.30095851601E+02 -0.51868906572E+02  0.18590849269E+03  0.19534101312E+03  0.00000000000E+00 0. -1.
</event>
<event>
 7    1  0.6610867E-006  0.1113198E+03  0.7561462E-02  0.1258145E+00
         -2   -1    0    0    0  501 -0.00000000000E+00  0.00000000000E+00  0.23866089666E+02  0.23866089666E+02  0.00000000000E+00 0.  1.
          2   -1    0    0  501    0  0.00000000000E+00 -0.00000000000E+00 -0.69882671392E+03  0.69882671392E+03  0.00000000000E+00 0. -1.
         23    2    1    2    0    0 -0.23803595328E+02 -0.66282243397E+02 -0.28421981106E+03  0.30641314340E+03  0.90267195077E+02 0.  0.
          5    1    1    2  502    0  0.35097120998E+02  0.81779728773E+02 -0.14799531470E+03  0.17274205485E+03  0.41800000000E+01 0. -1.
         -5    1    1    2    0  502 -0.11293525670E+02 -0.15497485376E+02 -0.24274549849E+03  0.24353760534E+03  0.41800000000E+01 0. -1.
        -11    1    3    3    0    0 -0.51153271193E+02 -0.69595878274E+02 -0.22784048236E+03  0.24366273583E+03  0.00000000000E+00 0.  1.
         11    1    3    3    0    0  0.27349675866E+02  0.33136348769E+01 -0.56379328695E+02  0.62750407570E+02  0.00000000000E+00 0. -1.
</event>
<event>
 7    1  0.6610867E-006  0.1206405E+03  0.7561462E-02  0.1242044E+00
         -2   -1    0    0    0  501 -0.00000000000E+00  0.00000000000E+00  0.15409174902E+02  0.15409174902E+02  0.00000000000E+00 0.  1.
          2   -1    0    0  501    0  0.00000000000E+00 -0.00000000000E+00 -0.12409259808E+04  0.12409259808E+04  0.00000000000E+00 0. -1.
         23    2    1    2    0    0  0.49383641206E+02  0.68218899381E+02 -0.47533989388E+03  0.49115269483E+03  0.90500788224E+02 0.  0.
          5    1    1    2  502    0 -0.69292394301E+02 -0.26059089659E+02 -0.20496655011E+03  0.21796621556E+03  0.41800000000E+01 0.  1.
         -5    1    1    2    0  502  0.19908753095E+02 -0.42159809722E+02 -0.54521036195E+03  0.54721624536E+03  0.41800000000E+01 0.  1.
        -11    1    3    3    0    0 -0.22406597252E+02  0.34181479426E+02 -0.11191115138E+03  0.11914081979E+03  0.00000000000E+00 0.  1.
         11    1    3    3    0    0  0.71790238459E+02  0.34037419955E+02 -0.36342874250E+03  0.37201187504E+03  0.00000000000E+00 0. -1.
</event>
<event>
 7    1  0.6610867E-006  0.2733704E+03  0.7561462E-02  0.1099366E+00
         -1   -1    0    0    0  501 -0.00000000000E+00  0.00000000000E+00  0.30618153276E+03  0.30618153276E+03  0.00000000000E+00 0.  1.
          1   -1    0    0  501    0  0.00000000000E+00 -0.00000000000E+00 -0.30109393976E+03  0.30109393976E+03  0.00000000000E+00 0. -1.
         23    2    1    2    0    0  0.23197044599E+03 -0.11940067327E+03  0.48351169526E+01  0.27639958941E+03  0.91140254975E+02 0.  0.
          5    1    1    2  502    0 -0.18511087726E+03  0.14229274584E+03  0.69909745859E+02  0.24375829702E+03  0.41800000000E+01 0. -1.
         -5    1    1    2    0  502 -0.46859568734E+02 -0.22892072576E+02 -0.69657269820E+02  0.87117586098E+02  0.41800000000E+01 0.  1.
        -11    1    3    3    0    0  0.12599728086E+03 -0.63798991537E+02  0.48024141677E+02  0.14917085603E+03  0.00000000000E+00 0.  1.
         11    1    3    3    0    0  0.10597316513E+03 -0.55601681732E+02 -0.43189024724E+02  0.12722873338E+03  0.00000000000E+00 0. -1.
</event>
<event>
 7    1  0.6610867E-006  0.1008087E+03  0.7561462E-02  0.1278604E+00
          2   -1    0    0  501    0  0.00000000000E+00  0.00000000000E+00  0.68587350777E+02  0.68587350777E+02  0.00000000000E+00 0.  1.
         -2   -1    0    0    0  501 -0.00000000000E+00 -0.00000000000E+00 -0.24231787668E+03  0.24231787668E+03  0.00000000000E+00 0. -1.
         23    2    1    2    0    0 -0.49282409322E+02 -0.22560065024E+02 -0.13012047166E+03  0.16777442732E+03  0.90990158350E+02 0.  0.
          5    1    1    2  502    0  0.56326002483E+02  0.51375005022E+02 -0.69718892236E+02  0.10339345256E+03  0.41800000000E+01 0. -1.
         -5    1    1    2    0  502 -0.70435931614E+01 -0.28814939998E+02  0.26108837989E+02  0.39737347582E+02  0.41800000000E+01 0. -1.
        -11    1    3    3    0    0 -0.55291164274E+02 -0.45494143888E+02 -0.12416290092E+03  0.14332918733E+03  0.00000000000E+00 0. -1.
         11    1    3    3    0    0  0.60087549527E+01  0.22934078864E+02 -0.59575707392E+01  0.24445239997E+02  0.00000000000E+00 0.  1.
</event>
<event>
 7    1  0.6610867E-006  0.1530077E+03  0.7561462E-02  0.1196825E+00
         -2   -1    0    0    0  501 -0.00000000000E+00  0.00000000000E+00  0.89908837001E+02  0.89908837001E+02  0.00000000000E+00 0. -1.
          2   -1    0    0  501    0  0.00000000000E+00 -0.00000000000E+00 -0.35978912572E+03  0.35978912572E+03  0.00000000000E+00 0.  1.
         23    2    1    2    0    0 -0.23102246310E+02  0.12531875899E+03 -0.46447275682E+02  0.16367609153E+03  0.91618821114E+02 0.  0.
          5    1    1    2  502    0 -0.28339945733E+02 -0.25326769670E+02 -0.27864093041E+01  0.38338417584E+02  0.41800000000E+01 0. -1.
         -5    1    1    2    0  502  0.51442192043E+02 -0.99991989319E+02 -0.22064660373E+03  0.24768345360E+03  0.41800000000E+01 0. -1.
        -11    1    3    3    0    0  0.33854593939E+02  0.57103483658E+02 -0.80602806591E+01  0.66872337338E+02  0.00000000000E+00 0.  1.
         11    1    3    3    0    0 -0.56956840249E+02  0.68215275330E+02 -0.38386995023E+02  0.96803754196E+02  0.00000000000E+00 0. -1.
</event>
<event>
 7    1  0.6610867E-006  0.2403418E+03  0.7561462E-02  0.1119565E+00
         -1   -1    0    0    0  501 -0.00000000000E+00  0.00000000000E+00  0.61718263790E+03  0.61718263790E+03  0.00000000000E+00 0.  1.
          1   -1    0    0  501    0  0.00000000000E+00 -0.00000000000E+00 -0.11190587322E+03  0.11190587322E+03  0.00000000000E+00 0. -1.
         23    2    1    2    0    0  0.19743557304E+03 -0.10342175107E+03  0.36606136779E+03  0.43804675937E+03  0.90593456223E+02 0.  0.
          5    1    1    2  502    0 -0.10471429243E+02 -0.23021995202E+02  0.32360893057E+02  0.41283930202E+02  0.41800000000E+01 0.  1.
         -5    1    1    2    0  502 -0.18696414380E+03  0.12644374627E+03  0.10685450383E+03  0.24975782155E+03  0.41800000000E+01 0.  1.
        -11    1    3    3    0    0  0.26889842846E+02  0.48053369393E+01  0.10789392764E+02  0.29369472375E+02  0.00000000000E+00 0.  1.
         11    1    3    3    0    0  0.17054573019E+03 -0.10822708801E+03  0.35527197503E+03  0.40867728699E+03  0.00000000000E+00 0. -1.
</event>
<event>
 7    1  0.6610867E-006  0.1019669E+03  0.7561462E-02  0.1276213E+00
         -1   -1    0    0    0  501 -0.00000000000E+00  0.00000000000E+00  0.88538172298E+02  0.88538172298E+02  0.00000000000E+00 0.  1.
          1   -1    0    0  501    0  0.00000000000E+00 -0.00000000000E+00 -0.15402498057E+03  0.15402498057E+03  0.00000000000E+00 0. -1.
         23    2    1    2    0    0  0.43469497385E+02  0.26651197176E+00 -0.39014409103E+02  0.10751418537E+03  0.90263545839E+02 0.  0.
          5    1    1    2  502    0  0.38164744781E+02 -0.21177733911E+02 -0.25392477481E+02  0.50668476101E+02  0.41800000000E+01 0.  1.
         -5    1    1    2    0  502 -0.81634242166E+02  0.20911221939E+02 -0.10799216877E+01  0.84380491393E+02  0.41800000000E+01 0.  1.
        -11    1    3    3    0    0  0.82141311482E+00  0.25927689677E+02 -0.50194103634E+02  0.56501042921E+02  0.00000000000E+00 0. -1.
         11    1    3    3    0    0  0.42648084270E+02 -0.25661177706E+02  0.11179694531E+02  0.51013142453E+02  0.00000000000E+00 0.  1.
</event>
<event>
 7    1  0.6610867E-006  0.8202989E+02  0.7561462E-02  0.1323388E+00
          1   -1    0    0  501    0  0.00000000000E+00  0.00000000000E+00  0.19014418858E+03  0.19014418858E+03  0.00000000000E+00 0. -1.
         -1   -1    0    0    0  501 -0.00000000000E+00 -0.00000000000E+00 -0.71263539436E+02  0.71263539436E+02  0.00000000000E+00 0.  1.
         23    2    1    2    0    0  0.93702373241E+00 -0.99192120462E+01  0.88096814195E+01  0.94489242491E+02  0.93548584589E+02 0.  0.
          5    1    1    2  502    0  0.27927437984E+02 -0.46440426803E+02  0.22624854314E+02  0.58872841504E+02  0.41800000000E+01 0. -1.
         -5    1    1    2    0  502 -0.28864461717E+02  0.56359638849E+02  0.87446113407E+02  0.10804564402E+03  0.41800000000E+01 0. -1.
        -11    1    3    3    0    0 -0.16899603050E+02  0.98995926702E+01 -0.36782987216E+02  0.41672372944E+02  0.00000000000E+00 0.  1.
         11    1    3    3    0    0  0.17836626783E+02 -0.19818804716E+02  0.45592668635E+02  0.52816869546E+02  0.00000000000E+00 0. -1.
</event>
<event>
 7    1  0.6610867E-006  0.1947316E+03  0.7561462E-02  0.1154262E+00
          1   -1    0    0  501    0  0.00000000000E+00  0.00000000000E+00  0.10801633494E+03  0.10801633494E+03  0.00000000000E+00 0. -1.
         -1   -1    0    0    0  501 -0.00000000000E+00 -0.00000000000E+00 -0.38520731066E+03  0.38520731066E+03  0.00000000000E+00 0.  1.
         23    2    1    2    0    0  0.12269449406E+03  0.10637638217E+03 -0.20185671038E+03  0.27482021709E+03  0.91706851663E+02 0.  0.
          5    1    1    2  502    0 -0.81181266156E+02 -0.13273233464E+03 -0.56695371272E+02  0.16565056039E+03  0.41800000000E+01 0. -1.
         -5    1    1    2    0  502 -0.41513227907E+02  0.26355952473E+02 -0.18638894075E+02  0.52752868115E+02  0.41800000000E+01 0. -1.
        -11    1    3    3    0    0  0.32097604957E+01 -0.14293651541E+02 -0.29075295185E+02  0.32557392816E+02  0.00000000000E+00 0.  1.
         11    1    3    3    0    0  0.11948473357E+03  0.12067003371E+03 -0.17278141519E+03  0.24226282428E+03  0.00000000000E+00 0. -1.
</event>
<event>
 7    1  0.6610867E-006  0.7680644E+02  0.7561462E-02  0.1338367E+00
          1   -1    0    0  501    0  0.00000000000E+00  0.00000000000E+00  0.33319152892E+02  0.33319152892E+02  0.00000000000E+00 0. -1.
         -1   -1    0    0    0  501 -0.00000000000E+00 -0.00000000000E+00 -0.51826610749E+03  0.51826610749E+03  0.00000000000E+00 0.  1.
         23    2    1    2    0    0  0.18382484588E+02 -0.65817599860E+01 -0.30678433447E+03  0.33301958083E+03  0.12807879621E+03 0.  0.
          5    1    1    2  502    0 -0.11690979065E+01 -0.15803246725E+02 -0.18774162659E+03  0.18845556546E+03  0.41800000000E+01 0. -1.
         -5    1    1    2    0  502 -0.17213386681E+02  0.22385006711E+02  0.95790064548E+01  0.30110114101E+02  0.41800000000E+01 0. -1.
        -11    1    3    3    0    0 -0.34388022722E+02 -0.34726424125E+02 -0.23285349370E+03  0.23792690089E+03  0.00000000000E+00 0.  1.
         11    1    3    3    0    0  0.52770507310E+02  0.28144664139E+02 -0.73930840763E+02  0.95092679935E+02  0.00000000000E+00 0. -1.
</event>
<event>
 7    1  0.6610867E-006  0.1195590E+03  0.7561462E-02  0.1243826E+00
         -1   -1    0    0    0  501 -0.00000000000E+00  0.00000000000E+00  0.12661619893E+03  0.12661619893E+03  0.00000000000E+00 0.  1.
          1   -1    0    0  501    0  0.00000000000E+00 -0.00000000000E+00 -0.18698230543E+03  0.18698230543E+03  0.00000000000E+00 0. -1.
         23    2    1    2    0    0 -0.67231517288E+01 -0.26589839344E+02  0.34434647120E+02  0.10214328685E+03  0.92169874695E+02 0.  0.
          5    1    1    2  502    0 -0.89663548189E+02  0.44589841659E+01 -0.40787961474E+02  0.98694298796E+02  0.41800000000E+01 0. -1.
         -5    1    1    2    0  502  0.96386699918E+02  0.22130855178E+02 -0.54012792149E+02  0.11276091871E+03  0.41800000000E+01 0.  1.
        -11    1    3    3    0    0 -0.41992425836E+01 -0.38175580635E+02  0.61549598172E+02  0.72549029147E+02  0.00000000000E+00 0.  1.
         11    1    3    3    0    0 -0.25239091452E+01  0.11585741291E+02 -0.27114951052E+02  0.29594257706E+02  0.00000000000E+00 0. -1.
</event>
<event>
 7    1  0.6610867E-006  0.2163427E+03  0.7561462E-02  0.1136639E+00
          2   -1    0    0  501    0  0.00000000000E+00  0.00000000000E+00  0.54881159632E+03  0.54881159632E+03  0.00000000000E+00 0. -1.
         -2   -1    0    0    0  501 -0.00000000000E+00 -0.00000000000E+00 -0.11082542820E+03  0.11082542820E+03  0.00000000000E+00 0.  1.
         23    2    1    2    0    0  0.19386918323E+03  0.63407568174E+02  0.10378452942E+03  0.24860772745E+03  0.97101975733E+02 0.  0.
          5    1    1    2  502    0 -0.48208107024E+02 -0.49786008371E+02  0.20274785074E+03  0.21430546328E+03  0.41800000000E+01 0. -1.
         -5    1    1    2    0  502 -0.14566107621E+03 -0.13621559803E+02  0.13145378796E+03  0.19672383380E+03  0.41800000000E+01 0. -1.
        -11    1    3    3    0    0  0.12389458764E+03  0.76645580823E+02  0.35509973449E+02  0.14995123248E+03  0.00000000000E+00 0.  1.
         11    1    3    3    0    0  0.69974595587E+02 -0.13238012649E+02  0.68274555976E+02  0.98656494972E+02  0.00000000000E+00 0. -1.
</event>
<event>
 7    1  0.6610867E-006  0.1117348E+03  0.7561462E-02  0.1257391E+00
          2   -1    0    0  501    0  0.00000000000E+00  0.00000000000E+00  0.88372633298E+03  0.88372633298E+03  0.00000000000E+00 0. -1.
         -2   -1    0    0    0  501 -0.00000000000E+00 -0.00000000000E+00 -0.19659263050E+02  0.19659263050E+02  0.00000000000E+00 0.  1.
         23    2    1    2    0    0  0.28173029693E+02 -0.16421848192E+02  0.16374782325E+03  0.19123478510E+03  0.93241603986E+02 0.  0.
          5    1    1    2  502    0 -0.54209246838E+02  0.55529009770E+02  0.51951295278E+03  0.52529353116E+03  0.41800000000E+01 0. -1.
         -5    1    1    2    0  502  0.26036217145E+02 -0.39107161578E+02  0.18080629390E+03  0.18685727977E+03  0.41800000000E+01 0. -1.
        -11    1    3    3    0    0 -0.17958656990E+02 -0.42114779442E+02  0.70128728877E+02  0.83750860427E+02  0.00000000000E+00 0.  1.
         11    1    3    3    0    0  0.46131686683E+02  0.25692931250E+02  0.93619094372E+02  0.10748392467E+03  0.00000000000E+00 0. -1.
</event>
<event>
 7    1  0.6610867E-006  0.1027527E+03  0.7561462E-02  0.1274612E+00
         -1   -1    0    0    0  501 -0.00000000000E+00  0.00000000000E+00  0.23903678751E+02  0.23903678751E+02  0.00000000000E+00 0.  1.
          1   -1    0    0  501    0  0.00000000000E+00 -0.00000000000E+00 -0.58613167825E+03  0.58613167825E+03  0.00000000000E+00 0. -1.
         23    2    1    2    0    0  0.43567138056E+02  0.15505153129E+02 -0.17457490936E+03  0.20202883869E+03  0.90557978087E+02 0.  0.
          5    1    1    2  502    0  0.13809675412E+02  0.40950286927E+02 -0.94907809996E+02  0.10436760959E+03  0.41800000000E+01 0. -1.
         -5    1    1    2    0  502 -0.57376813468E+02 -0.56455440057E+02 -0.29274528015E+03  0.30363890872E+03  0.41800000000E+01 0.  1.
        -11    1    3    3    0    0 -0.38304234540E+00  0.33855481102E+02 -0.13768230880E+03  0.14178419686E+03  0.00000000000E+00 0.  1.
         11    1    3    3    0    0  0.43950180402E+02 -0.18350327973E+02 -0.36892600555E+02  0.60244641834E+02  0.00000000000E+00 0. -1.
</event>
<event>
 7    1  0.6610867E-006  0.1186778E+03  0.7561462E-02  0.1245294E+00
         -1   -1    0    0    0  501 -0.00000000000E+00  0.00000000000E+00  0.22046145116E+02  0.22046145116E+02  0.00000000000E+00 0.  1.
          1   -1    0    0  501    0  0.00000000000E+00 -0.00000000000E+00 -0.69344732057E+03  0.69344732057E+03  0.00000000000E+00 0. -1.
         23    2    1    2    0    0 -0.11451549797E+02  0.58668118905E+02 -0.30180955712E+03  0.32074939336E+03  0.90653617715E+02 0.  0.
          5    1    1    2  502    0  0.86448412336E+01 -0.93386561286E+02 -0.19202171405E+03  0.21374188680E+03  0.41800000000E+01 0.  1.
         -5    1    1    2    0  502  0.28067085637E+01  0.34718442382E+02 -0.17756990429E+03  0.18100218552E+03  0.41800000000E+01 0.  1.
        -11    1    3    3    0    0  0.39844939669E+02  0.26173190733E+02 -0.12333632586E+03  0.13222898475E+03  0.00000000000E+00 0. -1.
         11    1    3    3    0    0 -0.51296489466E+02  0.32494928172E+02 -0.17847323126E+03  0.18852040862E+03  0.00000000000E+00 0.  1.
</event>
<event>
 7    1  0.6610867E-006  0.2281293E+03  0.7561462E-02  0.1127963E+00
          1   -1    0    0  501    0  0.00000000000E+00  0.00000000000E+00  0.86034425290E+02  0.86034425290E+02  0.00000000000E+00 0. -1.
         -1   -1    0    0    0  501 -0.00000000000E+00 -0.00000000000E+00 -0.87190551171E+03  0.87190551171E+03  0.00000000000E+00 0.  1.
         23    2    1    2    0    0 -0.11484405977E+03 -0.19501480785E+03 -0.57426944487E+03  0.62381000810E+03  0.90186459916E+02 0.  0.
          5    1    1    2  502    0  0.12471875015E+02  0.32224540808E+02 -0.11248187985E+03  0.11774385076E+03  0.41800000000E+01 0.  1.
         -5    1    1    2    0  502  0.10237218475E+03  0.16279026704E+03 -0.99119761698E+02  0.21638607814E+03  0.41800000000E+01 0.  1.
        -11    1    3    3    0    0 -0.65035506665E+02 -0.14296036539E+03 -0.28194846921E+03  0.32274172722E+03  0.00000000000E+00 0. -1.
         11    1    3    3    0    0 -0.49808553103E+02 -0.52054442459E+02 -0.29232097566E+03  0.30106828088E+03  0.00000000000E+00 0.  1.
</event>
<event>
 7    1  0.6610867E-006  0.8111850E+02  0.7561462E-02  0.1325907E+00
         -1   -1    0    0    0  501 -0.00000000000E+00  0.00000000000E+00  0.41569467660E+02  0.41569467660E+02  0.00000000000E+00 0.  1.
          1   -1    0    0  501    0  0.00000000000E+00 -0.00000000000E+00 -0.32175909849E+03  0.32175909849E+03  0.00000000000E+00 0. -1.
         23    2    1    2    0    0  0.18307504245E+02  0.10049009137E+02 -0.72018499442E+02  0.11955118970E+03  0.93111091722E+02 0.  0.
          5    1    1    2  502    0 -0.17922376353E+02 -0.37440359500E+02 -0.89883160256E+01  0.42676156324E+02  0.41800000000E+01 0. -1.
         -5    1    1    2    0  502 -0.38512789137E+00  0.27391350364E+02 -0.19918281537E+03  0.20110122012E+03  0.41800000000E+01 0. -1.
        -11    1    3    3    0    0  0.14721918295E+02  0.50293073762E+02 -0.54207271458E+02  0.75395997411E+02  0.00000000000E+00 0.  1.
         11    1    3    3    0    0  0.35855859503E+01 -0.40244064625E+02 -0.17811227984E+02  0.44155192293E+02  0.00000000000E+00 0. -1.
</event>
<event>
 7    1  0.6610867E-006  0.2204534E+03  0.7561462E-02  0.1133545E+00
         -1   -1    0    0    0  501 -0.00000000000E+00  0.00000000000E+00  0.69157184535E+02  0.69157184535E+02  0.00000000000E+00 0. -1.
          1   -1    0    0  501    0  0.00000000000E+00 -0.00000000000E+00 -0.78202264192E+03  0.78202264192E+03  0.00000000000E+00 0.  1.
         23    2    1    2    0    0 -0.98390197774E+02  0.17270580979E+03 -0.25045883630E+03  0.33255088812E+03  0.91392213881E+02 0.  0.
          5    1    1    2  502    0  0.22605017644E+02 -0.15370585880E+03 -0.33147153408E+03  0.36609742987E+03  0.41800000000E+01 0.  1.
         -5    1    1    2    0  502  0.75785180129E+02 -0.18999950982E+02 -0.13093508700E+03  0.15253150846E+03  0.41800000000E+01 0.  1.
        -11    1    3    3    0    0 -0.69931993448E+02  0.63717341415E+02 -0.16851572159E+03  0.19325612986E+03  0.00000000000E+00 0.  1.
         11    1    3    3    0    0 -0.28458204326E+02  0.10898846837E+03 -0.81943114707E+02  0.13929475826E+03  0.00000000000E+00 0. -1.
</event>
<event>
 7    1  0.6610867E-006  0.6826958E+02  0.7561462E-02  0.1366078E+00
         -2   -1    0    0    0  501 -0.00000000000E+00  0.00000000000E+00  0.14736755889E+03  0.14736755889E+03  0.00000000000E+00 0.  1.
          2   -1    0    0  501    0  0.00000000000E+00 -0.00000000000E+00 -0.88130250546E+02  0.88130250546E+02  0.00000000000E+00 0. -1.
         23    2    1    2    0    0  0.16976834257E+02 -0.12400925510E+01  0.42398547051E+01  0.97794349279E+02  0.96208147535E+02 0.  0.
          5    1    1    2  502    0  0.60540252572E+01 -0.45669291444E+02 -0.16440964854E+02  0.49092903033E+02  0.41800000000E+01 0.  1.
         -5    1    1    2    0  502 -0.23030859514E+02  0.46909383995E+02  0.71438418489E+02  0.88610557119E+02  0.41800000000E+01 0.  1.
        -11    1    3    3    0    0 -0.38577047407E+01  0.12378327205E+02  0.46760227384E+02  0.48524465327E+02  0.00000000000E+00 0.  1.
         11    1    3    3    0    0  0.20834538997E+02 -0.13618419756E+02 -0.42520372679E+02  0.49269883952E+02  0.00000000000E+00 0. -1.
</event>
<event>
 7    1  0.6610867E-006  0.2471485E+03  0.7561462E-02  0.1115120E+00
         -2   -1    0    0    0  501 -0.00000000000E+00  0.00000000000E+00  0.48041181562E+03  0.48041181562E+03  0.00000000000E+00 0.  1.
          2   -1    0    0  501    0  0.00000000000E+00 -0.00000000000E+00 -0.15657563065E+03  0.15657563065E+03  0.00000000000E+00 0. -1.
         23    2    1    2    0    0 -0.54775355016E+02  0.23169307995E+03  0.25145130953E+03  0.35847683322E+03  0.92713839729E+02 0.  0.
          5    1    1    2  502    0  0.96864752064E+01 -0.23046743527E+02  0.59435759745E+02  0.64614720657E+02  0.41800000000E+01 0.  1.
         -5    1    1    2    0  502  0.45088879809E+02 -0.20864633643E+03  0.12949115694E+02  0.21389589239E+03  0.41800000000E+01 0.  1.
        -11    1    3    3    0    0  0.21024578952E+02  0.11064142181E+03  0.11433399554E+03  0.16048619778E+03  0.00000000000E+00 0.  1.
         11    1    3    3    0    0 -0.75799933968E+02  0.12105165814E+03  0.13711731399E+03  0.19799063545E+03  0.00000000000E+00 0. -1.
</event>
<event>
 7    1  0.6610867E-006  0.8051982E+02  0.7561462E-02  0.1327583E+00
          2   -1    0    0  501    0  0.00000000000E+00  0.00000000000E+00  0.47220856472E+03  0.47220856472E+03  0.00000000000E+00 0. -1.
         -2   -1    0    0    0  501 -0.00000000000E+00 -0.00000000000E+00 -0.49168653535E+02  0.49168653535E+02  0.00000000000E+00 0.  1.
         23    2    1    2    0    0  0.18207728739E+02  0.22088965581E+02  0.18523491623E+02  0.96994617115E+02  0.90804142092E+02 0.  0.
          5    1    1    2  502    0 -0.48042635956E+02 -0.42386013031E+02  0.10795156304E+03  0.12560127918E+03  0.41800000000E+01 0. -1.
         -5    1    1    2    0  502  0.29834907217E+02  0.20297047449E+02  0.29656485653E+03  0.29878132196E+03  0.41800000000E+01 0. -1.
        -11    1    3    3    0    0  0.36948631753E+02  0.10254670080E+02 -0.26636217109E+02  0.46688839231E+02  0.00000000000E+00 0.  1.
         11    1    3    3    0    0 -0.18740903014E+02  0.11834295501E+02  0.45159708732E+02  0.50305777884E+02  0.00000000000E+00 0. -1.
</event>
<event>
 7    1  0.6610867E-006  0.1292008E+03  0.7561462E-02  0.1228646E+00
          1   -1    0    0  501    0  0.00000000000E+00  0.00000000000E+00  0.39205170755E+03  0.39205170755E+03  0.00000000000E+00 0. -1.
         -1   -1    0    0    0  501 -0.00000000000E+00 -0.00000000000E+00 -0.53845976764E+02  0.53845976764E+02  0.00000000000E+00 0.  1.
         23    2    1    2    0    0 -0.47350194066E+02 -0.61620077012E+02  0.61681590271E+02  0.13260430681E+03  0.87978456668E+02 0.  0.
          5    1    1    2  502    0  0.20697129556E+02 -0.38106654218E+02  0.71925193548E+02  0.84090392641E+02  0.41800000000E+01 0.  1.
         -5    1    1    2    0  502  0.26653064509E+02  0.99726731229E+02  0.20459894696E+03  0.22920298486E+03  0.41800000000E+01 0.  1.
        -11    1    3    3    0    0  0.14995649187E+02 -0.44371015778E+02  0.46832360201E+02  0.66233877266E+02  0.00000000000E+00 0. -1.
         11    1    3    3    0    0 -0.62345843253E+02 -0.17249061233E+02  0.14849230070E+02  0.66370429545E+02  0.00000000000E+00 0.  1.
</event>
<event>
 7    1  0.6610867E-006  0.2385042E+03  0.7561462E-02  0.1120793E+00
          2   -1    0    0  501    0  0.00000000000E+00  0.00000000000E+00  0.10329946811E+04  0.10329946811E+04  0.00000000000E+00 0.  1.
         -2   -1    0    0    0  501 -0.00000000000E+00 -0.00000000000E+00 -0.61348159307E+02  0.61348159307E+02  0.00000000000E+00 0. -1.
         23    2    1    2    0    0  0.20604718705E+03  0.94383519959E+02  0.46757083179E+03  0.52768241194E+03  0.91992135532E+02 0.  0.
          5    1    1    2  502    0 -0.69416146610E+02  0.48095724502E+01  0.26453762550E+03  0.27356783638E+03  0.41800000000E+01 0.  1.
         -5    1    1    2    0  502 -0.13663104044E+03 -0.99193092409E+02  0.23953806454E+03  0.29309259212E+03  0.41800000000E+01 0.  1.
        -11    1    3    3    0    0  0.57540344208E+02 -0.79069645873E+01  0.68825016679E+02  0.90057171960E+02  0.00000000000E+00 0. -1.
         11    1    3    3    0    0  0.14850684284E+03  0.10229048455E+03  0.39874581511E+03  0.43762523998E+03  0.00000000000E+00 0.  1.
</event>
<event>
 7    1  0.6610867E-006  0.1145871E+03  0.7561462E-02  0.1252303E+00
          2   -1    0    0  501    0  0.00000000000E+00  0.00000000000E+00  0.17047090957E+04  0.17047090957E+04  0.00000000000E+00 0. -1.
         -2   -1    0    0    0  501 -0.00000000000E+00 -0.00000000000E+00 -0.14467738927E+02  0.14467738927E+02  0.00000000000E+00 0.  1.
         23    2    1    2    0    0 -0.38290348371E+02  0.40364265467E+01  0.27329679120E+03  0.29064099111E+03  0.91096685525E+02 0.  0.
          5    1    1    2  502    0  0.93514679574E+02 -0.31452566686E+01  0.12299320908E+04  0.12334931326E+04  0.41800000000E+01 0. -1.
         -5    1    1    2    0  502 -0.55224331203E+02 -0.89116987819E+00  0.18701247481E+03  0.19504271090E+03  0.41800000000E+01 0.  1.
        -11    1    3    3    0    0 -0.13063942562E+02 -0.32897857514E+02  0.41395494708E+02  0.54465792993E+02  0.00000000000E+00 0.  1.
         11    1    3    3    0    0 -0.25226405809E+02  0.36934284061E+02  0.23190129649E+03  0.23617519811E+03  0.00000000000E+00 0. -1.
</event>
<event>
 7    1  0.6610867E-006  0.1521940E+03  0.7561462E-02  0.1197803E+00
          2   -1    0    0  501    0  0.00000000000E+00  0.00000000000E+00  0.30762852309E+03  0.30762852309E+03  0.00000000000E+00 0. -1.
         -2   -1    0    0    0  501 -0.00000000000E+00 -0.00000000000E+00 -0.88333084074E+02  0.88333084074E+02  0.00000000000E+00 0.  1.
         23    2    1    2    0    0 -0.93377986093E+02 -0.81848463166E+02  0.11222844337E+03  0.18973425448E+03  0.89360195909E+02 0.  0.
          5    1    1    2  502    0  0.91801956034E+01 -0.31641450012E+02  0.32179974287E+02  0.46243707630E+02  0.41800000000E+01 0. -1.
         -5    1    1    2    0  502  0.84197790489E+02  0.11348991318E+03  0.74887021354E+02  0.15998364505E+03  0.41800000000E+01 0. -1.
        -11    1    3    3    0    0 -0.30957171378E+02 -0.52222834475E+02  0.33737608213E+01  0.60802575294E+02  0.00000000000E+00 0.  1.
         11    1    3    3    0    0 -0.62420814715E+02 -0.29625628691E+02  0.10885468255E+03  0.12893167919E+03  0.00000000000E+00 0. -1.
</event>
<event>
 7    1  0.6610867E-006  0.1704170E+03  0.7561462E-02  0.1177414E+00
          2   -1    0    0  501    0  0.00000000000E+00  0.00000000000E+00  0.11413044823E+03  0.11413044823E+03  0.00000000000E+00 0. -1.
         -2   -1    0    0    0  501 -0.00000000000E+00 -0.00000000000E+00 -0.31009220938E+03  0.31009220938E+03  0.00000000000E+00 0.  1.
         23    2    1    2    0    0  0.78180443205E+02  0.13078531871E+03 -0.11130677154E+03  0.20967406454E+03  0.91416818242E+02 0.  0.
          5    1    1    2  502    0  0.21492917292E+02 -0.42620132699E+02  0.12752227175E+02  0.49583393419E+02  0.41800000000E+01 0.  1.
         -5    1    1    2    0  502 -0.99673360496E+02 -0.88165186016E+02 -0.97407216778E+02  0.16496519966E+03  0.41800000000E+01 0.  1.
        -11    1    3    3    0    0  0.33099346066E+02  0.99625470201E+02 -0.11378597185E+03  0.15481617620E+03  0.00000000000E+00 0.  1.
         11    1    3    3    0    0  0.45081097139E+02  0.31159848514E+02  0.24792003111E+01  0.54857888337E+02  0.00000000000E+00 0. -1.
</event>
<event>
 7    1  0.6610867E-006  0.8895992E+02  0.7561462E-02  0.1305390E+00
         -2   -1    0    0    0  501 -0.00000000000E+00  0.00000000000E+00  0.32806480015E+02  0.32806480015E+02  0.00000000000E+00 0.  1.
          2   -1    0    0  501    0  0.00000000000E+00 -0.00000000000E+00 -0.36579053677E+03  0.36579053677E+03  0.00000000000E+00 0. -1.
         23    2    1    2    0    0 -0.77680585861E+01 -0.85899832530E+01 -0.11707485821E+03  0.14880053632E+03  0.91109530994E+02 0.  0.
          5    1    1    2  502    0  0.62059314167E+01 -0.52749558634E+02 -0.50840493708E+02  0.73642771005E+02  0.41800000000E+01 0. -1.
         -5    1    1    2    0  502  0.15621271694E+01  0.61339541887E+02 -0.16506870484E+03  0.17615370946E+03  0.41800000000E+01 0. -1.
        -11    1    3    3    0    0 -0.29675259017E+02 -0.22455821190E+02 -0.11710304690E+03  0.12287395369E+03  0.00000000000E+00 0. -1.
         11    1    3    3    0    0  0.21907200431E+02  0.13865837937E+02  0.28188684273E-01  0.25926582632E+02  0.00000000000E+00 0.  1.
</event>
<event>
 7    1  0.6610867E-006  0.1012402E+03  0.7561462E-02  0.1277709E+00
          1   -1    0    0  501    0  0.00000000000E+00  0.00000000000E+00  0.13474605846E+03  0.13474605846E+03  0.00000000000E+00 0. -1.
         -1   -1    0    0    0  501 -0.00000000000E+00 -0.00000000000E+00 -0.93978141181E+02  0.93978141181E+02  0.00000000000E+00 0.  1.
         23    2    1    2    0    0  0.21899981735E+02  0.16636520156E+02  0.23479717417E+01  0.95009118121E+02  0.90911146467E+02 0.  0.
          5    1    1    2  502    0  0.30336054179E+02  0.40165085012E+02  0.19581114679E+02  0.54170127278E+02  0.41800000000E+01 0. -1.
         -5    1    1    2    0  502 -0.52236035914E+02 -0.56801605168E+02  0.18838830862E+02  0.79544954245E+02  0.41800000000E+01 0. -1.
        -11    1    3    3    0    0 -0.90124988776E+01  0.36731752861E+02 -0.28160376297E+02  0.47153510977E+02  0.00000000000E+00 0.  1.
         11    1    3    3    0    0  0.30912480612E+02 -0.20095232705E+02  0.30508348039E+02  0.47855607144E+02  0.00000000000E+00 0. -1.
</event>
<event>
 7    1  0.6610867E-006  0.1170010E+03  0.7561462E-02  0.1248128E+00
         -1   -1    0    0    0  501 -0.00000000000E+00  0.00000000000E+00  0.73527219486E+02  0.73527219486E+02  0.00000000000E+00 0.  1.
          1   -1    0    0  501    0  0.00000000000E+00 -0.00000000000E+00 -0.32668569029E+03  0.32668569029E+03  0.00000000000E+00 0. -1.
         23    2    1    2    0    0  0.72219153991E+02  0.71916012504E+02 -0.69578285465E+02  0.15580235923E+03  0.95108981051E+02 0.  0.
          5    1    1    2  502    0 -0.38067532694E+02 -0.49138515372E+02 -0.19238339524E+03  0.20221912348E+03  0.41800000000E+01 0.  1.
         -5    1    1    2    0  502 -0.34151621297E+02 -0.22777497132E+02  0.88032099008E+01  0.42191427060E+02  0.41800000000E+01 0.  1.
        -11    1    3    3    0    0  0.77050230274E+02  0.21776811618E+02 -0.14871938013E+02  0.81437964425E+02  0.00000000000E+00 0. -1.
         11    1    3    3    0    0 -0.48310762825E+01  0.50139200886E+02 -0.54706347452E+02  0.74364394807E+02  0.00000000000E+00 0.  1.
</event>
<event>
 7    1  0.6610867E-006  0.1480798E+03  0.7561462E-02  0.1202853E+00
          2   -1    0    0  501    0  0.00000000000E+00  0.00000000000E+00  0.10539834981E+03  0.10539834981E+03  0.00000000000E+00 0. -1.
         -2   -1    0    0    0  501 -0.00000000000E+00 -0.00000000000E+00 -0.29908461241E+03  0.29908461241E+03  0.00000000000E+00 0.  1.
         23    2    1    2    0    0 -0.26757350610E+02  0.13618688615E+03 -0.69118804773E+02  0.17992298953E+03  0.91280059245E+02 0.  0.
          5    1    1    2  502    0 -0.33245994189E+01 -0.14948405477E+02  0.25019735810E+02  0.29630514130E+02  0.41800000000E+01 0. -1.
         -5    1    1    2    0  502  0.30081950029E+02 -0.12123848067E+03 -0.14958719364E+03  0.19492945856E+03  0.41800000000E+01 0. -1.
        -11    1    3    3    0    0 -0.43780794130E+02  0.13002298086E+03 -0.79983379352E+02  0.15880829468E+03  0.00000000000E+00 0.  1.
         11    1    3    3    0    0  0.17023443520E+02  0.61639052919E+01  0.10864574580E+02  0.21114694848E+02  0.00000000000E+00 0. -1.
</event>
<event>
 7    1  0.6610867E-006  0.1502723E+03  0.7561462E-02  0.1200139E+00
         -2   -1    0    0    0  501 -0.00000000000E+00  0.00000000000E+00  0.78166934231E+02  0.78166934231E+02  0.00000000000E+00 0.  1.
          2   -1    0    0  501    0  0.00000000000E+00 -0.00000000000E+00 -0.31658997542E+03  0.31658997542E+03  0.00000000000E+00 0. -1.
         23    2    1    2    0    0  0.75704947151E+02  0.77686241431E+02 -0.69846479933E+02  0.15846835010E+03  0.92017911815E+02 0.  0.
          5    1    1    2  502    0 -0.23923962595E+02  0.33474720279E+02 -0.29369611453E+02  0.50724346826E+02  0.41800000000E+01 0.  1.
         -5    1    1    2    0  502 -0.51780984555E+02 -0.11116096171E+03 -0.13920694981E+03  0.18556421272E+03  0.41800000000E+01 0.  1.
        -11    1    3    3    0    0  0.77356530567E+02  0.93066477575E+02 -0.74748147049E+02  0.14224165198E+03  0.00000000000E+00 0. -1.
         11    1    3    3    0    0 -0.16515834159E+01 -0.15380236144E+02  0.49016671164E+01  0.16226698128E+02  0.00000000000E+00 0.  1.
</event>
<event>
 7    1  0.6610867E-006  0.2271072E+03  0.7561462E-02  0.1128693E+00
         -1   -1    0    0    0  501 -0.00000000000E+00  0.00000000000E+00  0.20299582942E+03  0.20299582942E+03  0.00000000000E+00 0.  1.
          1   -1    0    0  501    0  0.00000000000E+00 -0.00000000000E+00 -0.27402965857E+03  0.27402965857E+03  0.00000000000E+00 0. -1.
         23    2    1    2    0    0 -0.20334072842E+03 -0.48255758227E+02 -0.31225524099E+02  0.23023044448E+03  0.91405438418E+02 0.  0.
          5    1    1    2  502    0 -0.24426920396E+01  0.34020414234E+02 -0.19423797566E+02  0.39472922883E+02  0.41800000000E+01 0.  1.
         -5    1    1    2    0  502  0.20578342046E+03  0.14235343993E+02 -0.20384507479E+02  0.20732212063E+03  0.41800000000E+01 0.  1.
        -11    1    3    3    0    0 -0.49913975350E+02 -0.31901654940E+02 -0.46320667551E+02  0.75197903997E+02  0.00000000000E+00 0. -1.
         11    1    3    3    0    0 -0.15342675307E+03 -0.16354103288E+02  0.15095143452E+02  0.15503254048E+03  0.00000000000E+00 0.  1.
</event>
<event>
 7    1  0.6610867E-006  0.1234328E+03  0.7561462E-02  0.1237539E+00
          4   -1    0    0  501    0  0.00000000000E+00  0.00000000000E+00  0.11170053079E+03  0.11170053079E+03  0.00000000000E+00 0. -1.
         -4   -1    0    0    0  501 -0.00000000000E+00 -0.00000000000E+00 -0.16609157939E+03  0.16609157939E+03  0.00000000000E+00 0.  1.
         23    2    1    2    0    0 -0.30369744118E+02  0.53823846992E+02 -0.78530120274E+02  0.13619311149E+03  0.92532458971E+02 0.  0.
          5    1    1    2  502    0 -0.45904750440E+02 -0.82200262599E+01 -0.69968502583E+01  0.47341770754E+02  0.41800000000E+01 0. -1.
         -5    1    1    2    0  502  0.76274494557E+02 -0.45603820732E+02  0.31135921934E+02  0.94257227945E+02  0.41800000000E+01 0. -1.
        -11    1    3    3    0    0  0.16628781095E+02 -0.18467996607E+02 -0.14283647659E+02  0.28663667766E+02  0.00000000000E+00 0. -1.
         11    1    3    3    0    0 -0.46998525213E+02  0.72291843599E+02 -0.64246472615E+02  0.10752944372E+03  0.00000000000E+00 0.  1.
</event>
<event>
 7    1  0.6610867E-006  0.2057755E+03  0.7561462E-02  0.1144956E+00
          2   -1    0    0  501    0  0.00000000000E+00  0.00000000000E+00  0.70351113988E+03  0.70351113988E+03  0.00000000000E+00 0. -1.
         -2   -1    0    0    0  501 -0.00000000000E+00 -0.00000000000E+00 -0.68362381613E+02  0.68362381613E+02  0.00000000000E+00 0.  1.
         23    2    1    2    0    0  0.12012153884E+03 -0.14581587776E+03  0.26405453050E+03  0.33707444695E+03  0.90570046969E+02 0.  0.
          5    1    1    2  502    0 -0.13738823173E+03  0.11487818155E+03  0.24339706208E+03  0.30221205311E+03  0.41800000000E+01 0. -1.
         -5    1    1    2    0  502  0.17266692894E+02  0.30937696202E+02  0.12769716568E+03  0.13258702143E+03  0.41800000000E+01 0. -1.
        -11    1    3    3    0    0  0.11443739533E+03 -0.10430453634E+03  0.15005736363E+03  0.21562134897E+03  0.00000000000E+00 0.  1.
         11    1    3    3    0    0  0.56841435048E+01 -0.41511341412E+02  0.11399716687E+03  0.12145309798E+03  0.00000000000E+00 0. -1.
</event>
<event>
 7    1  0.6610867E-006  0.8120666E+02  0.7561462E-02  0.1325662E+00
         -2   -1    0    0    0  501 -0.00000000000E+00  0.00000000000E+00  0.12031134682E+03  0.12031134682E+03  0.00000000000E+00 0.  1.
          2   -1    0    0  501    0  0.00000000000E+00 -0.00000000000E+00 -0.10224157449E+03  0.10224157449E+03  0.00000000000E+00 0. -1.
         23    2    1    2    0    0 -0.11808727274E+02  0.10267110650E+02  0.25172578102E+02  0.96288791000E+02  0.91613388667E+02 0.  0.
          5    1    1    2  502    0  0.37017081621E+02 -0.40141482274E+02  0.37831640826E+02  0.66560561735E+02  0.41800000000E+01 0.  1.
         -5    1    1    2    0  502 -0.25208354347E+02  0.29874371625E+02 -0.44934446606E+02  0.59703568576E+02  0.41800000000E+01 0.  1.
        -11    1    3    3    0    0 -0.36649113241E+02  0.19890088294E+02  0.46284727641E+02  0.62298066796E+02  0.00000000000E+00 0.  1.
         11    1    3    3    0    0  0.24840385968E+02 -0.96229776440E+01 -0.21112149539E+02  0.33990724204E+02  0.00000000000E+00 0. -1.
</event>
<event>
 7    1  0.6610867E-006  0.1067734E+03  0.7561462E-02  0.1266664E+00
          2   -1    0    0  501    0  0.00000000000E+00  0.00000000000E+00  0.21865076043E+03  0.21865076043E+03  0.00000000000E+00 0. -1.
         -2   -1    0    0    0  501 -0.00000000000E+00 -0.00000000000E+00 -0.55371355233E+02  0.55371355233E+02  0.00000000000E+00 0.  1.
         23    2    1    2    0    0 -0.60220284327E+01  0.13621025528E+02  0.71664074281E+02  0.11825499831E+03  0.92880072787E+02 0.  0.
          5    1    1    2  502    0  0.38277282243E+02  0.44656837872E+02  0.48089869333E+02  0.76088707684E+02  0.41800000000E+01 0.  1.
         -5    1    1    2    0  502 -0.32255253810E+02 -0.58277863399E+02  0.43525461585E+02  0.79678409666E+02  0.41800000000E+01 0.  1.
        -11    1    3    3    0    0 -0.35764425965E+02 -0.21570422445E+02  0.55427014388E+02  0.69401233512E+02  0.00000000000E+00 0. -1.
         11    1    3    3    0    0  0.29742397532E+02  0.35191447973E+02  0.16237059893E+02  0.48853764802E+02  0.00000000000E+00 0.  1.
</event>
<event>
 7    1  0.6610867E-006  0.7501435E+02  0.7561462E-02  0.1343827E+00
         -4   -1    0    0    0  501 -0.00000000000E+00  0.00000000000E+00  0.23548196565E+03  0.23548196565E+03  0.00000000000E+00 0.  1.
          4   -1    0    0  501    0  0.00000000000E+00 -0.00000000000E+00 -0.49609660741E+02  0.49609660741E+02  0.00000000000E+00 0. -1.
         23    2    1    2    0    0 -0.11245359226E+02 -0.13445319814E+01  0.74504156753E+02  0.11722169842E+03  0.89787478725E+02 0.  0.
          5    1    1    2  502    0  0.46559400501E+02 -0.23106557808E+02  0.41711882082E+01  0.52312159196E+02  0.41800000000E+01 0.  1.
         -5    1    1    2    0  502 -0.35314041275E+02  0.24451089790E+02  0.10719695995E+03  0.11555776878E+03  0.41800000000E+01 0.  1.
        -11    1    3    3    0    0  0.76125290923E+01 -0.24041894616E+02  0.82810930149E+02  0.86565659751E+02  0.00000000000E+00 0.  1.
         11    1    3    3    0    0 -0.18857888318E+02  0.22697362634E+02 -0.83067733967E+01  0.30656038665E+02  0.00000000000E+00 0. -1.
</event>
<event>
 7    1  0.6610867E-006  0.1301632E+03  0.7561462E-02  0.1227214E+00
         -2   -1    0    0    0  501 -0.00000000000E+00  0.00000000000E+00  0.60323394640E+02  0.60323394640E+02  0.00000000000E+00 0.  1.
          2   -1    0    0  501    0  0.00000000000E+00 -0.00000000000E+00 -0.35095048896E+03  0.35095048896E+03  0.00000000000E+00 0. -1.
         23    2    1    2    0    0  0.34849417092E+02  0.90558412243E+02 -0.10075958402E+03  0.16406541471E+03  0.85730150082E+02 0.  0.
          5    1    1    2  502    0 -0.51099214264E+02 -0.10698514798E+03 -0.18968169521E+03  0.22372655069E+03  0.41800000000E+01 0.  1.
         -5    1    1    2    0  502  0.16249797172E+02  0.16426735735E+02 -0.18581509349E+00  0.23481918199E+02  0.41800000000E+01 0.  1.
        -11    1    3    3    0    0  0.98226620088E+01  0.92581483414E+02 -0.46045685013E+02  0.10386539784E+03  0.00000000000E+00 0.  1.
         11    1    3    3    0    0  0.25026755083E+02 -0.20230711712E+01 -0.54713899003E+02  0.60200016870E+02  0.00000000000E+00 0. -1.
</event>
<event>
 7    1  0.6610867E-006  0.1476152E+03  0.7561462E-02  0.1203434E+00
          1   -1    0    0  501    0  0.00000000000E+00  0.00000000000E+00  0.34481932062E+03  0.34481932062E+03  0.00000000000E+00 0. -1.
         -1   -1    0    0    0  501 -0.00000000000E+00 -0.00000000000E+00 -0.98700087323E+02  0.98700087323E+02  0.00000000000E+00 0.  1.
         23    2    1    2    0    0 -0.59330264349E+02 -0.68205332299E+02 -0.88740048680E+01  0.14957170996E+03  0.11883139667E+03 0.  0.
          5    1    1    2  502    0  0.60540152285E+02 -0.15123433927E+02  0.11778813511E+03  0.13336170914E+03  0.41800000000E+01 0.  1.
         -5    1    1    2    0  502 -0.12098879356E+01  0.83328766226E+02  0.13720510306E+03  0.16058598885E+03  0.41800000000E+01 0. -1.
        -11    1    3    3    0    0 -0.23414256710E+02 -0.99126827989E+02 -0.40705396249E+01  0.10193588542E+03  0.00000000000E+00 0.  1.
         11    1    3    3    0    0 -0.35916007639E+02  0.30921495690E+02 -0.48034652431E+01  0.47635824532E+02  0.00000000000E+00 0. -1.
</event>
<event>
 7    1  0.6610867E-006  0.1037576E+03  0.7561462E-02  0.1272587E+00
         -2   -1    0    0    0  501 -0.00000000000E+00  0.00000000000E+00  0.40659308274E+02  0.40659308274E+02  0.00000000000E+00 0.  1.
          2   -1    0    0  501    0  0.00000000000E+00 -0.00000000000E+00 -0.78533185917E+03  0.78533185917E+03  0.00000000000E+00 0. -1.
         23    2    1    2    0    0  0.42569528860E+02 -0.17251112005E+02 -0.59743301252E+02  0.12821942160E+03  0.10373616717E+03 0.  0.
          5    1    1    2  502    0  0.40926349944E+02  0.20063324629E+02 -0.16822516465E+03  0.17434070534E+03  0.41800000000E+01 0. -1.
         -5    1    1    2    0  502 -0.83495878804E+02 -0.28122126241E+01 -0.51670408499E+03  0.52343104050E+03  0.41800000000E+01 0. -1.
        -11    1    3    3    0    0  0.17781458009E+00 -0.32906063265E+02 -0.73874076994E+02  0.80871625861E+02  0.00000000000E+00 0. -1.
         11    1    3    3    0    0  0.42391714280E+02  0.15654951261E+02  0.14130775742E+02  0.47347795742E+02  0.00000000000E+00 0.  1.
</event>
<event>
 7    1  0.6610867E-006  0.1163892E+03  0.7561462E-02  0.1249175E+00
         -1   -1    0    0    0  501 -0.00000000000E+00  0.00000000000E+00  0.86106333820E+02  0.86106333820E+02  0.00000000000E+00 0.  1.
          1   -1    0    0  501    0  0.00000000000E+00 -0.00000000000E+00 -0.26698782340E+03  0.26698782340E+03  0.00000000000E+00 0. -1.
         23    2    1    2    0    0  0.41574768408E+01 -0.10013339773E+03 -0.84855373464E+02  0.16624673167E+03  0.10194880790E+03 0.  0.
          5    1    1    2  502    0 -0.20034924297E+02  0.10736150333E+02  0.25937534235E+02  0.34740339632E+02  0.41800000000E+01 0. -1.
         -5    1    1    2    0  502  0.15877447456E+02  0.89397247395E+02 -0.12196365035E+03  0.15210708592E+03  0.41800000000E+01 0. -1.
        -11    1    3    3    0    0  0.30475285099E+02 -0.25833507432E+02  0.11675101257E+02  0.41622362949E+02  0.00000000000E+00 0.  1.
         11    1    3    3    0    0 -0.26317808259E+02 -0.74299890297E+02 -0.96530474721E+02  0.12462436872E+03  0.00000000000E+00 0. -1.
</event>
<event>
 7    1  0.6610867E-006  0.1349364E+03  0.7561462E-02  0.1220310E+00
         -1   -1    0    0    0  501 -0.00000000000E+00  0.00000000000E+00  0.94969714887E+02  0.94969714887E+02  0.00000000000E+00 0.  1.
          1   -1    0    0  501    0  0.00000000000E+00 -0.00000000000E+00 -0.22097624398E+03  0.22097624398E+03  0.00000000000E+00 0. -1.
         23    2    1    2    0    0 -0.51476380028E+02 -0.78760416129E+02 -0.62846227333E+02  0.14715695821E+03  0.94087731460E+02 0.  0.
          5    1    1    2  502    0 -0.22550440421E+01  0.82784590353E+02 -0.76830348340E+02  0.11304312650E+03  0.41800000000E+01 0. -1.
         -5    1    1    2    0  502  0.53731424070E+02 -0.40241742237E+01  0.13670046583E+02  0.55745874147E+02  0.41800000000E+01 0. -1.
        -11    1    3    3    0    0 -0.63459407995E+02 -0.11381383517E+02 -0.34023642913E+02  0.72898838338E+02  0.00000000000E+00 0.  1.
         11    1    3    3    0    0  0.11983027967E+02 -0.67379032612E+02 -0.28822584420E+02  0.74258119877E+02  0.00000000000E+00 0. -1.
</event>
<event>
 7    1  0.6610867E-006  0.1406681E+03  0.7561462E-02  0.1212433E+00
          1   -1    0    0  501    0  0.00000000000E+00  0.00000000000E+00  0.38231532931E+03  0.38231532931E+03  0.00000000000E+00 0. -1.
         -1   -1    0    0    0  501 -0.00000000000E+00 -0.00000000000E+00 -0.99605057512E+02  0.99605057512E+02  0.00000000000E+00 0.  1.
         23    2    1    2    0    0 -0.78717952081E+02 -0.10242760550E+03  0.14898731038E+02  0.15933961383E+03  0.92082625932E+02 0.  0.
          5    1    1    2  502    0  0.78118539669E+02  0.89709014832E+02  0.28013565869E+03  0.30437423224E+03  0.41800000000E+01 0. -1.
         -5    1    1    2    0  502  0.59941241221E+00  0.12718590672E+02 -0.12324117924E+02  0.18206540763E+02  0.41800000000E+01 0. -1.
        -11    1    3    3    0    0 -0.56272965409E+02 -0.14432321525E+02  0.32895020722E+02  0.66760923667E+02  0.00000000000E+00 0. -1.
         11    1    3    3    0    0 -0.22444986672E+02 -0.87995283979E+02 -0.17996289683E+02  0.92578690159E+02  0.00000000000E+00 0.  1.
</event>
<event>
 7    1  0.6610867E-006  0.1283757E+03  0.7561462E-02  0.1229886E+00
         -1   -1    0    0    0  501 -0.00000000000E+00  0.00000000000E+00  0.70030636700E+02  0.70030636700E+02  0.00000000000E+00 0.  1.
          1   -1    0    0  501    0  0.00000000000E+00 -0.00000000000E+00 -0.29043564209E+03  0.29043564209E+03  0.00000000000E+00 0. -1.
         23    2    1    2    0    0 -0.89280074786E+02  0.20025373302E+02 -0.10693383244E+03  0.16838576363E+03  0.92449843379E+02 0.  0.
          5    1    1    2  502    0  0.10287112376E+03  0.11761429774E+02 -0.40560143110E+02  0.11128071236E+03  0.41800000000E+01 0.  1.
         -5    1    1    2    0  502 -0.13591048972E+02 -0.31786803077E+02 -0.72911029841E+02  0.80799802812E+02  0.41800000000E+01 0.  1.
        -11    1    3    3    0    0  0.48047981090E+01 -0.16645172754E+02 -0.48990455667E+02  0.51963570002E+02  0.00000000000E+00 0. -1.
         11    1    3    3    0    0 -0.94084872895E+02  0.36670546056E+02 -0.57943376777E+02  0.11642219362E+03  0.00000000000E+00 0.  1.
</event>
<event>
 7    1  0.6610867E-006  0.1322084E+03  0.7561462E-02  0.1224215E+00
          4   -1    0    0  501    0  0.00000000000E+00  0.00000000000E+00  0.90842602035E+03  0.90842602035E+03  0.00000000000E+00 0. -1.
         -4   -1    0    0    0  501 -0.00000000000E+00 -0.00000000000E+00 -0.38883113638E+02  0.38883113638E+02  0.00000000000E+00 0.  1.
         23    2    1    2    0    0 -0.66718400644E+02  0.71185358606E+02  0.11291409413E+03  0.17422882435E+03  0.89929918913E+02 0.  0.
          5    1    1    2  502    0  0.28436938413E+02  0.27434453794E+02  0.37300850868E+03  0.37511881940E+03  0.41800000000E+01 0. -1.
         -5    1    1    2    0  502  0.38281462231E+02 -0.98619812400E+02  0.38362030390E+03  0.39796149024E+03  0.41800000000E+01 0. -1.
        -11    1    3    3    0    0 -0.48942290197E+02  0.37651674370E+01  0.10280781272E+02  0.50151956284E+02  0.00000000000E+00 0.  1.
         11    1    3    3    0    0 -0.17776110447E+02  0.67420191169E+02  0.10263331286E+03  0.12407686806E+03  0.00000000000E+00 0. -1.
</event>
<event>
 7    1  0.6610867E-006  0.8810934E+02  0.7561462E-02  0.1307496E+00
         -2   -1    0    0    0  501 -0.00000000000E+00  0.00000000000E+00  0.16450786428E+03  0.16450786428E+03  0.00000000000E+00 0.  1.
          2   -1    0    0  501    0  0.00000000000E+00 -0.00000000000E+00 -0.80621351152E+02  0.80621351152E+02  0.00000000000E+00 0. -1.
         23    2    1    2    0    0 -0.17388466331E+01 -0.12269604189E+02  0.73390883989E+02  0.11899185376E+03  0.92840037883E+02 0.  0.
          5    1    1    2  502    0  0.27178503119E+02  0.48530559696E+02  0.43503696161E+02  0.70738463624E+02  0.41800000000E+01 0. -1.
         -5    1    1    2    0  502 -0.25439656486E+02 -0.36260955507E+02 -0.33008067023E+02  0.55398898048E+02  0.41800000000E+01 0. -1.
        -11    1    3    3    0    0  0.19255523421E+02  0.25966391887E+02  0.67673461236E+02  0.74998173614E+02  0.00000000000E+00 0.  1.
         11    1    3    3    0    0 -0.20994370054E+02 -0.38235996076E+02  0.57174227534E+01  0.43993680147E+02  0.00000000000E+00 0. -1.
</event>
<event>
 7    1  0.6610867E-006  0.7718971E+02  0.7561462E-02  0.1337221E+00
         -1   -1    0    0    0  501 -0.00000000000E+00  0.00000000000E+00  0.55578875162E+02  0.55578875162E+02  0.00000000000E+00 0.  1.
          1   -1    0    0  501    0  0.00000000000E+00 -0.00000000000E+00 -0.26562466339E+03  0.26562466339E+03  0.00000000000E+00 0. -1.
         23    2    1    2    0    0  0.12014873878E+02 -0.11395286574E+02 -0.26961465579E+02  0.98848632644E+02  0.93647860622E+02 0.  0.
          5    1    1    2  502    0 -0.34751593106E+02 -0.10873090285E+02 -0.18650718342E+03  0.19007445694E+03  0.41800000000E+01 0.  1.
         -5    1    1    2    0  502  0.22736719228E+02  0.22268376858E+02  0.34228607736E+01  0.32280448960E+02  0.41800000000E+01 0.  1.
        -11    1    3    3    0    0  0.17002946729E+02 -0.46842283321E+02  0.59945621356E+01  0.50191976245E+02  0.00000000000E+00 0.  1.
         11    1    3    3    0    0 -0.49880728510E+01  0.35446996748E+02 -0.32956027715E+02  0.48656656399E+02  0.00000000000E+00 0. -1.
</event>
<event>
 7    1  0.6610867E-006  0.2226066E+03  0.7561462E-02  0.1131954E+00
         -2   -1    0    0    0  501 -0.00000000000E+00  0.00000000000E+00  0.11386871956E+03  0.11386871956E+03  0.00000000000E+00 0. -1.
          2   -1    0    0  501    0  0.00000000000E+00 -0.00000000000E+00 -0.57805440976E+03  0.57805440976E+03  0.00000000000E+00 0.  1.
         23    2    1    2    0    0 -0.12484289553E+03 -0.15310320600E+03 -0.60144107994E+02  0.22510008094E+03  0.89590135953E+02 0.  0.
          5    1    1    2  502    0  0.84572285902E+02  0.10190796527E+02 -0.14825727205E+03  0.17103805130E+03  0.41800000000E+01 0.  1.
         -5    1    1    2    0  502  0.40270609626E+02  0.14291240947E+03 -0.25578431015E+03  0.29578499709E+03  0.41800000000E+01 0.  1.
        -11    1    3    3    0    0 -0.97650722904E+02 -0.60491904827E+02 -0.57704117155E+02  0.12854843200E+03  0.00000000000E+00 0. -1.
         11    1    3    3    0    0 -0.27192172624E+02 -0.92611301172E+02 -0.24399908382E+01  0.96551648935E+02  0.00000000000E+00 0.  1.
</event>
<event>
 7    1  0.6610867E-006  0.1102323E+03  0.7561462E-02  0.1260140E+00
          2   -1    0    0  501    0  0.00000000000E+00  0.00000000000E+00  0.77396625163E+02  0.77396625163E+02  0.00000000000E+00 0. -1.
         -2   -1    0    0    0  501 -0.00000000000E+00 -0.00000000000E+00 -0.22890638050E+03  0.22890638050E+03  0.00000000000E+00 0.  1.
         23    2    1    2    0    0 -0.73356104642E+02 -0.16143554966E+02 -0.84944670923E+02  0.14592023366E+03  0.91844352129E+02 0.  0.
          5    1    1    2  502    0  0.68969559869E+02 -0.45925012431E+02 -0.30848663571E+02  0.88515644941E+02  0.41800000000E+01 0.  1.
         -5    1    1    2    0  502  0.43865447737E+01  0.62068567397E+02 -0.35716420840E+02  0.71867127057E+02  0.41800000000E+01 0.  1.
        -11    1    3    3    0    0 -0.23639563889E+02 -0.43078818696E+01 -0.91310591211E+02  0.94419335384E+02  0.00000000000E+00 0.  1.
         11    1    3    3    0    0 -0.49716540753E+02 -0.11835673097E+02  0.63659202887E+01  0.51500898276E+02  0.00000000000E+00 0. -1.
</event>
<event>
 7    1  0.6610867E-006  0.9360941E+02  0.7561462E-02  0.1294339E+00
         -1   -1    0    0    0  501 -0.00000000000E+00  0.00000000000E+00  0.62909416397E+02  0.62909416397E+02  0.00000000000E+00 0.  1.
          1   -1    0    0  501    0  0.00000000000E+00 -0.00000000000E+00 -0.21795991580E+03  0.21795991580E+03  0.00000000000E+00 0. -1.
         23    2    1    2    0    0  0.27359941126E+02  0.30726819171E+02 -0.79524811942E+02  0.12898128860E+03  0.92840041464E+02 0.  0.
          5    1    1    2  502    0 -0.12069825872E+02  0.35597064349E+02  0.13135723758E+02  0.40035625704E+02  0.41800000000E+01 0. -1.
         -5    1    1    2    0  502 -0.15290115254E+02 -0.66323883520E+02 -0.88661411217E+02  0.11185241789E+03  0.41800000000E+01 0. -1.
        -11    1    3    3    0    0 -0.21706557537E+02  0.22843553915E+02 -0.72162947932E+02  0.78743213357E+02  0.00000000000E+00 0. -1.
         11    1    3    3    0    0  0.49066498663E+02  0.78832652567E+01 -0.73618640101E+01  0.50238075241E+02  0.00000000000E+00 0.  1.
</event>
<event>
 7    1  0.6610867E-006  0.2329342E+03  0.7561462E-02  0.1124591E+00
          2   -1    0    0  501    0  0.00000000000E+00  0.00000000000E+00  0.52461904386E+02  0.52461904386E+02  0.00000000000E+00 0. -1.
         -2   -1    0    0    0  501 -0.00000000000E+00 -0.00000000000E+00 -0.11322708760E+04  0.11322708760E+04  0.00000000000E+00 0.  1.
         23    2    1    2    0    0 -0.19973535917E+03 -0.68084917751E+02 -0.65178312754E+03  0.69139463202E+03  0.93142482819E+02 0.  0.
          5    1    1    2  502    0  0.21227794111E+03  0.78070574280E+02 -0.37671248454E+03  0.43941632566E+03  0.41800000000E+01 0. -1.
         -5    1    1    2    0  502 -0.12542581931E+02 -0.99856565293E+01 -0.51313359571E+02  0.53921822746E+02  0.41800000000E+01 0. -1.
        -11    1    3    3    0    0 -0.13665852871E+03 -0.94872514009E+01 -0.30970305431E+03  0.33864663480E+03  0.00000000000E+00 0. -1.
         11    1    3    3    0    0 -0.63076830461E+02 -0.58597666350E+02 -0.34208007323E+03  0.35274799722E+03  0.00000000000E+00 0.  1.
</event>
<event>
 7    1  0.6610867E-006  0.1249656E+03  0.7561462E-02  0.1235123E+00
         -2   -1    0    0    0  501 -0.00000000000E+00  0.00000000000E+00  0.37044419547E+02  0.37044419547E+02  0.00000000000E+00 0.  1.
          2   -1    0    0  501    0  0.00000000000E+00 -0.00000000000E+00 -0.60513462001E+03  0.60513462001E+03  0.00000000000E+00 0. -1.
         23    2    1    2    0    0  0.19868108808E+01 -0.97661724483E+02 -0.28832174148E+03  0.32052596275E+03  0.10032799381E+03 0.  0.
          5    1    1    2  502    0 -0.21980843960E+02 -0.50845772454E+01 -0.32265914334E-01  0.22945236282E+02  0.41800000000E+01 0. -1.
         -5    1    1    2    0  502  0.19994033079E+02  0.10274630173E+03 -0.27973619307E+03  0.29870784052E+03  0.41800000000E+01 0. -1.
        -11    1    3    3    0    0  0.37740393728E+02 -0.49437524687E+02 -0.67922147328E+02  0.92096820051E+02  0.00000000000E+00 0. -1.
         11    1    3    3    0    0 -0.35753582847E+02 -0.48224199796E+02 -0.22039959415E+03  0.22842914270E+03  0.00000000000E+00 0.  1.
</event>
<event>
 7    1  0.6610867E-006  0.1255278E+03  0.7561462E-02  0.1234247E+00
          1   -1    0    0  501    0  0.00000000000E+00  0.00000000000E+00  0.41713175313E+03  0.41713175313E+03  0.00000000000E+00 0. -1.
         -1   -1    0    0    0  501 -0.00000000000E+00 -0.00000000000E+00 -0.94965684240E+02  0.94965684240E+02  0.00000000000E+00 0.  1.
         23    2    1    2    0    0  0.24776441315E+02  0.44858763623E+02 -0.42637319817E+02  0.11214069270E+03  0.90174348903E+02 0.  0.
          5    1    1    2  502    0 -0.89748732245E+02 -0.27560464924E+02  0.17640271547E+03  0.19987447208E+03  0.41800000000E+01 0. -1.
         -5    1    1    2    0  502  0.64972290929E+02 -0.17298298699E+02  0.18840067324E+03  0.20008227259E+03  0.41800000000E+01 0.  1.
        -11    1    3    3    0    0  0.31325461662E+02 -0.11203455557E+02  0.10228976535E+02  0.34805659392E+02  0.00000000000E+00 0. -1.
         11    1    3    3    0    0 -0.65490203468E+01  0.56062219180E+02 -0.52866296352E+02  0.77335033309E+02  0.00000000000E+00 0.  1.
</event>
<event>
 7    1  0.6610867E-006  0.1042109E+03  0.7561462E-02  0.1271682E+00
         -1   -1    0    0    0  501 -0.00000000000E+00  0.00000000000E+00  0.11068655915E+02  0.11068655915E+02  0.00000000000E+00 0.  1.
          1   -1    0    0  501    0  0.00000000000E+00 -0.00000000000E+00 -0.24225531450E+04  0.24225531450E+04  0.00000000000E+00 0. -1.
         23    2    1    2    0    0  0.39887226803E+02 -0.59022575590E+02 -0.23395804633E+03  0.25134200981E+03  0.57980886181E+02 0.  0.
          5    1    1    2  502    0  0.54485549798E+01 -0.22352732803E+02 -0.12199491825E+04  0.12201732711E+04  0.41800000000E+01 0.  1.
         -5    1    1    2    0  502 -0.45335781783E+02  0.81375308393E+02 -0.95757726030E+03  0.96210651997E+03  0.41800000000E+01 0.  1.
        -11    1    3    3    0    0  0.41170333640E+02 -0.94987599931E+01 -0.10326041669E+03  0.11157032073E+03  0.00000000000E+00 0. -1.
         11    1    3    3    0    0 -0.12831068372E+01 -0.49523815597E+02 -0.13069762964E+03  0.13977168908E+03  0.00000000000E+00 0.  1.
</event>
<event>
 7    1  0.6610867E-006  0.2074180E+03  0.7561462E-02  0.1143627E+00
         -1   -1    0    0    0  501 -0.00000000000E+00  0.00000000000E+00  0.39870994172E+02  0.39870994172E+02  0.00000000000E+00 0.  1.
          1   -1    0    0  501    0  0.00000000000E+00 -0.00000000000E+00 -0.13056558144E+04  0.13056558144E+04  0.00000000000E+00 0. -1.
         23    2    1    2    0    0 -0.12704179835E+03 -0.14473718980E+03 -0.44290574989E+03  0.49120465952E+03  0.89599339321E+02 0.  0.
          5    1    1    2  502    0  0.11915409530E+03  0.58775065160E+02 -0.36719334790E+03  0.39051329536E+03  0.41800000000E+01 0. -1.
         -5    1    1    2    0  502  0.78877030558E+01  0.85962124637E+02 -0.45568572245E+03  0.46380885371E+03  0.41800000000E+01 0. -1.
        -11    1    3    3    0    0 -0.55581954756E+02 -0.39139044855E+02 -0.25655208141E+03  0.26540570642E+03  0.00000000000E+00 0. -1.
         11    1    3    3    0    0 -0.71459843599E+02 -0.10559814494E+03 -0.18635366848E+03  0.22579895309E+03  0.00000000000E+00 0.  1.
</event>
<event>
 7    1  0.6610867E-006  0.1420829E+03  0.7561462E-02  0.1210553E+00
         -3   -1    0    0    0  501 -0.00000000000E+00  0.00000000000E+00  0.45561450223E+02  0.45561450223E+02  0.00000000000E+00 0.  1.
          3   -1    0    0  501    0  0.00000000000E+00 -0.00000000000E+00 -0.50766128897E+03  0.50766128897E+03  0.00000000000E+00 0. -1.
         23    2    1    2    0    0  0.51509736404E+02  0.84865464587E+02 -0.14844421353E+03  0.20125269443E+03  0.92798504630E+02 0.  0.
          5    1    1    2  502    0 -0.54488797714E+02  0.80681327930E+01 -0.18570781259E+03  0.19374980748E+03  0.41800000000E+01 0. -1.
         -5    1    1    2    0  502  0.29790613108E+01 -0.92933597380E+02 -0.12794781263E+03  0.15822023728E+03  0.41800000000E+01 0. -1.
        -11    1    3    3    0    0  0.62490365526E+02  0.99534880550E+02 -0.12664044393E+03  0.17277164197E+03  0.00000000000E+00 0.  1.
         11    1    3    3    0    0 -0.10980629122E+02 -0.14669415963E+02 -0.21803769609E+02  0.28481052470E+02  0.00000000000E+00 0. -1.
</event>
<event>
 7    1  0.6610867E-006  0.1319106E+03  0.7561462E-02  0.1224648E+00
         -2   -1    0    0    0  501 -0.00000000000E+00  0.00000000000E+00  0.28807656722E+02  0.28807656722E+02  0.00000000000E+00 0.  1.
          2   -1    0    0  501    0  0.00000000000E+00 -0.00000000000E+00 -0.75161353846E+03  0.75161353846E+03  0.00000000000E+00 0. -1.
         23    2    1    2    0    0  0.32245090084E+02  0.84722206453E+02 -0.23308585439E+03  0.26691267330E+03  0.93251067287E+02 0.  0.
          5    1    1    2  502    0 -0.65399176395E+02 -0.95126315252E+02 -0.31983482469E+03  0.34005566546E+03  0.41800000000E+01 0. -1.
         -5    1    1    2    0  502  0.33154086311E+02  0.10404108799E+02 -0.16988520266E+03  0.17345285642E+03  0.41800000000E+01 0. -1.
        -11    1    3    3    0    0 -0.11225217992E+02  0.64312819452E+02 -0.19494493288E+03  0.20558616471E+03  0.00000000000E+00 0. -1.
         11    1    3    3    0    0  0.43470308076E+02  0.20409387001E+02 -0.38140921507E+02  0.61326508586E+02  0.00000000000E+00 0.  1.
</event>
<event>
 7    1  0.6610867E-006  0.9560285E+02  0.7561462E-02  0.1289824E+00
         -1   -1    0    0    0  501 -0.00000000000E+00  0.00000000000E+00  0.15541608902E+03  0.15541608902E+03  0.00000000000E+00 0.  1.
          1   -1    0    0  501    0  0.00000000000E+00 -0.00000000000E+00 -0.91582003397E+02  0.91582003397E+02  0.00000000000E+00 0. -1.
         23    2    1    2    0    0  0.41343538619E+02  0.14749976215E+02  0.55047423699E+02  0.11413567153E+03  0.89832525716E+02 0.  0.
          5    1    1    2  502    0 -0.44262234008E+02 -0.57793422067E+02  0.36372752338E+02  0.81484197892E+02  0.41800000000E+01 0.  1.
         -5    1    1    2    0  502  0.29186953891E+01  0.43043445851E+02 -0.27586090412E+02  0.51378222992E+02  0.41800000000E+01 0.  1.
        -11    1    3    3    0    0  0.55799252387E+01 -0.22573878825E+02  0.57869155482E+02  0.62366294800E+02  0.00000000000E+00 0. -1.
         11    1    3    3    0    0  0.35763613380E+02  0.37323855040E+02 -0.28217317838E+01  0.51769376733E+02  0.00000000000E+00 0.  1.
</event>
<event>
 7    1  0.6610867E-006  0.8351888E+02  0.7561462E-02  0.1319352E+00
          4   -1    0    0  501    0  0.00000000000E+00  0.00000000000E+00  0.46328728669E+02  0.46328728669E+02  0.00000000000E+00 0. -1.
         -4   -1    0    0    0  501 -0.00000000000E+00 -0.00000000000E+00 -0.30860354666E+03  0.30860354666E+03  0.00000000000E+00 0.  1.
         23    2    1    2    0    0  0.43143210346E+02  0.26245457138E+02 -0.12299642273E+03  0.16102674497E+03  0.90836842599E+02 0.  0.
          5    1    1    2  502    0  0.24565286474E+02 -0.64963346937E+01 -0.11703301157E+03  0.11983260767E+03  0.41800000000E+01 0.  1.
         -5    1    1    2    0  502 -0.67708496820E+02 -0.19749122445E+02 -0.22245383687E+02  0.74072922680E+02  0.41800000000E+01 0.  1.
        -11    1    3    3    0    0  0.50707259487E+02  0.85959031698E+01 -0.18308406792E+02  0.54592247392E+02  0.00000000000E+00 0. -1.
         11    1    3    3    0    0 -0.75640491416E+01  0.17649553969E+02 -0.10468801594E+03  0.10643449758E+03  0.00000000000E+00 0.  1.
</event>
<event>
 7    1  0.6610867E-006  0.1280021E+03  0.7561462E-02  0.1230451E+00
         -2   -1    0    0    0  501 -0.00000000000E+00  0.00000000000E+00  0.58190698920E+02  0.58190698920E+02  0.00000000000E+00 0.  1.
          2   -1    0    0  501    0  0.00000000000E+00 -0.00000000000E+00 -0.34916422576E+03  0.34916422576E+03  0.00000000000E+00 0. -1.
         23    2    1    2    0    0  0.79377011939E+02 -0.45877034897E+02 -0.13516929293E+03  0.18751881095E+03  0.92125752946E+02 0.  0.
          5    1    1    2  502    0 -0.79864760326E+02  0.72416399012E+02 -0.15965494101E+03  0.19269065202E+03  0.41800000000E+01 0. -1.
         -5    1    1    2    0  502  0.48774838719E+00 -0.26539364115E+02  0.38507070928E+01  0.27145461706E+02  0.41800000000E+01 0. -1.
        -11    1    3    3    0    0  0.56488225120E+02 -0.68686352475E+02 -0.64645110789E+02  0.10994419013E+03  0.00000000000E+00 0.  1.
         11    1    3    3    0    0  0.22888786820E+02  0.22809317578E+02 -0.70524182137E+02  0.77574620828E+02  0.00000000000E+00 0. -1.
</event>
<event>
 7    1  0.6610867E-006  0.8338629E+02  0.7561462E-02  0.1319707E+00
          1   -1    0    0  501    0  0.00000000000E+00  0.00000000000E+00  0.15123724946E+03  0.15123724946E+03  0.00000000000E+00 0. -1.
         -1   -1    0    0    0  501 -0.00000000000E+00 -0.00000000000E+00 -0.87665358022E+02  0.87665358022E+02  0.00000000000E+00 0.  1.
         23    2    1    2    0    0 -0.10777954013E+02  0.93244038841E+01 -0.95448742415E+01  0.93452287188E+02  0.91864664348E+02 0.  0.
          5    1    1    2  502    0  0.24970455952E+02 -0.35721868361E+02 -0.19562684953E+02  0.47955673202E+02  0.41800000000E+01 0.  1.
         -5    1    1    2    0  502 -0.14192501939E+02  0.26397464477E+02  0.92679450634E+02  0.97494647094E+02  0.41800000000E+01 0.  1.
        -11    1    3    3    0    0 -0.27428518696E+02 -0.35528209606E+02 -0.12948741206E+01  0.44902717230E+02  0.00000000000E+00 0. -1.
         11    1    3    3    0    0  0.16650564683E+02  0.44852613490E+02 -0.82500001209E+01  0.48549569958E+02  0.00000000000E+00 0.  1.
</event>
<event>
 7    1  0.6610867E-006  0.8393258E+02  0.7561462E-02  0.1318248E+00
          2   -1    0    0  501    0  0.00000000000E+00  0.00000000000E+00  0.94843562938E+02  0.94843562938E+02  0.00000000000E+00 0. -1.
         -2   -1    0    0    0  501 -0.00000000000E+00 -0.00000000000E+00 -0.16959043280E+03  0.16959043280E+03  0.00000000000E+00 0.  1.
         23    2    1    2    0    0  0.42410533576E+02 -0.41712670212E+02 -0.68921653157E+02  0.12579038812E+03  0.86801078654E+02 0.  0.
          5    1    1    2  502    0 -0.45571883380E+01  0.51582618637E+02 -0.55007204455E+02  0.75662404488E+02  0.41800000000E+01 0.  1.
         -5    1    1    2    0  502 -0.37853345238E+02 -0.98699484249E+01  0.49181987753E+02  0.62981203124E+02  0.41800000000E+01 0.  1.
        -11    1    3    3    0    0  0.35901028849E+02 -0.16026844932E+01  0.97572507666E+01  0.37237835765E+02  0.00000000000E+00 0. -1.
         11    1    3    3    0    0  0.65095047275E+01 -0.40109985719E+02 -0.78678903923E+02  0.88552552356E+02  0.00000000000E+00 0.  1.
</event>
<event>
 7    1  0.6610867E-006  0.2717528E+03  0.7561462E-02  0.1100281E+00
          1   -1    0    0  501    0  0.00000000000E+00  0.00000000000E+00  0.60699496821E+03  0.60699496821E+03  0.00000000000E+00 0. -1.
         -1   -1    0    0    0  501 -0.00000000000E+00 -0.00000000000E+00 -0.28691496063E+03  0.28691496063E+03  0.00000000000E+00 0.  1.
         23    2    1    2    0    0 -0.37462571393E+02 -0.25043217589E+03 -0.17925097501E+03  0.32320720351E+03  0.90621550297E+02 0.  0.
          5    1    1    2  502    0  0.52771150010E+02  0.25347924650E+03  0.48094341124E+03  0.54622391004E+03  0.41800000000E+01 0. -1.
         -5    1    1    2    0  502 -0.15308578616E+02 -0.30470706067E+01  0.18387571344E+02  0.24478815299E+02  0.41800000000E+01 0.  1.
        -11    1    3    3    0    0 -0.66020630263E+02 -0.14795217901E+03 -0.98045239525E+02  0.18937116964E+03  0.00000000000E+00 0.  1.
         11    1    3    3    0    0  0.28558058870E+02 -0.10247999688E+03 -0.81205735483E+02  0.13383603387E+03  0.00000000000E+00 0. -1.
</event>
<event>
 7    1  0.6610867E-006  0.1313719E+03  0.7561462E-02  0.1225434E+00
          2   -1    0    0  501    0  0.00000000000E+00  0.00000000000E+00  0.63275712168E+03  0.63275712168E+03  0.00000000000E+00 0. -1.
         -2   -1    0    0    0  501 -0.00000000000E+00 -0.00000000000E+00 -0.30100077647E+02  0.30100077647E+02  0.00000000000E+00 0.  1.
         23    2    1    2    0    0  0.29163181376E+02  0.80067154358E+02  0.26454354319E+03  0.29241123904E+03  0.90883475499E+02 0.  0.
          5    1    1    2  502    0  0.34911975298E+02 -0.64005620435E+02  0.24869367578E+03  0.25919410148E+03  0.41800000000E+01 0. -1.
         -5    1    1    2    0  502 -0.64075156673E+02 -0.16061533922E+02  0.89419825056E+02  0.11125185881E+03  0.41800000000E+01 0. -1.
        -11    1    3    3    0    0  0.56264378687E+02  0.23835929122E+02  0.14989029963E+03  0.16186702490E+03  0.00000000000E+00 0.  1.
         11    1    3    3    0    0 -0.27101197312E+02  0.56231225236E+02  0.11465324356E+03  0.13054421414E+03  0.00000000000E+00 0. -1.
</event>
<event>
 7    1  0.6610867E-006  0.1067367E+03  0.7561462E-02  0.1266735E+00
         -1   -1    0    0    0  501 -0.00000000000E+00  0.00000000000E+00  0.12274405252E+02  0.12274405252E+02  0.00000000000E+00 0.  1.
          1   -1    0    0  501    0  0.00000000000E+00 -0.00000000000E+00 -0.11866134500E+04  0.11866134500E+04  0.00000000000E+00 0. -1.
         23    2    1    2    0    0 -0.34849450305E+02 -0.45979132390E+02 -0.52068907121E+03  0.53087862333E+03  0.85944394985E+02 0.  0.
          5    1    1    2  502    0  0.59883642995E+02  0.56614644135E+02 -0.61529518998E+03  0.62080344058E+03  0.41800000000E+01 0. -1.
         -5    1    1    2    0  502 -0.25034192690E+02 -0.10635511745E+02 -0.38354783539E+02  0.47205791319E+02  0.41800000000E+01 0. -1.
        -11    1    3    3    0    0 -0.71530976166E+01 -0.67802117981E+02 -0.35259039536E+03  0.35912154058E+03  0.00000000000E+00 0. -1.
         11    1    3    3    0    0 -0.27696352688E+02  0.21822985591E+02 -0.16809867585E+03  0.17175708275E+03  0.00000000000E+00 0.  1.
</event>
<event>
 7    1  0.6610867E-006  0.1136356E+03  0.7561462E-02  0.1253982E+00
         -3   -1    0    0    0  501 -0.00000000000E+00  0.00000000000E+00  0.15931895808E+03  0.15931895808E+03  0.00000000000E+00 0.  1.
          3   -1    0    0  501    0  0.00000000000E+00 -0.00000000000E+00 -0.14302961208E+03  0.14302961208E+03  0.00000000000E+00 0. -1.
         23    2    1    2    0    0  0.20638779222E+02 -0.96533263414E+02  0.43005833155E+02  0.14119109330E+03  0.91327941991E+02 0.  0.
          5    1    1    2  502    0 -0.13331554514E+02  0.35652777354E+02 -0.74195557145E+02  0.83494335011E+02  0.41800000000E+01 0. -1.
         -5    1    1    2    0  502 -0.73072247076E+01  0.60880486060E+02  0.47479069987E+02  0.77663141855E+02  0.41800000000E+01 0.  1.
        -11    1    3    3    0    0  0.13572918939E+02  0.12383448216E+02  0.24284003598E+02  0.30451383367E+02  0.00000000000E+00 0. -1.
         11    1    3    3    0    0  0.70658602827E+01 -0.10891671163E+03  0.18721829557E+02  0.11073970993E+03  0.00000000000E+00 0.  1.
</event>
<event>
 7    1  0.6610867E-006  0.1750457E+03  0.7561462E-02  0.1172686E+00
         -1   -1    0    0    0  501 -0.00000000000E+00  0.00000000000E+00  0.27256705855E+03  0.27256705855E+03  0.00000000000E+00 0.  1.
          1   -1    0    0  501    0  0.00000000000E+00 -0.00000000000E+00 -0.11686498502E+03  0.11686498502E+03  0.00000000000E+00 0. -1.
         23    2    1    2    0    0  0.10180008643E+03 -0.94199601319E+02  0.10420335064E+03  0.19568773460E+03  0.90545727130E+02 0.  0.
          5    1    1    2  502    0  0.28116198766E+02  0.13512318608E+02  0.20739289914E+02  0.37692093778E+02  0.41800000000E+01 0. -1.
         -5    1    1    2    0  502 -0.12991628520E+03  0.80687282711E+02  0.30759432982E+02  0.15605221520E+03  0.41800000000E+01 0. -1.
        -11    1    3    3    0    0  0.36077289001E+02 -0.93154018816E+02  0.63842091185E+02  0.11855401558E+03  0.00000000000E+00 0.  1.
         11    1    3    3    0    0  0.65722797429E+02 -0.10455825029E+01  0.40361259450E+02  0.77133719015E+02  0.00000000000E+00 0. -1.
</event>
<event>
 6    1  0.6610867E-006  0.1826210E+03  0.7561462E-02  0.1165290E+00
         -2   -1    0    0    0  501 -0.00000000000E+00  0.00000000000E+00  0.56686496499E+02  0.56686496499E+02  0.00000000000E+00 0.  1.
          2   -1    0    0  501    0  0.00000000000E+00 -0.00000000000E+00 -0.77037313011E+03  0.77037313011E+03  0.00000000000E+00 0. -1.
          5    1    1    2  502    0 -0.51257729376E+02 -0.16268184170E+03 -0.44387644847E+03  0.47553812712E+03  0.41800000000E+01 0. -1.
         -5    1    1    2    0  502  0.43873561517E+02  0.14812690353E+03 -0.27022405236E+03  0.31129564697E+03  0.41800000000E+01 0.  1.
        -11    1    1    2    0    0  0.22313672173E+02  0.10158132979E+02  0.19056545517E+01  0.24591038017E+02  0.00000000000E+00 0. -1.
         11    1    1    2    0    0 -0.14929504315E+02  0.43968051814E+01 -0.14917873296E+01  0.15634814496E+02  0.00000000000E+00 0.  1.
</event>
<event>
 7    1  0.6610867E-006  0.1093933E+03  0.7561462E-02  0.1261698E+00
         -1   -1    0    0    0  501 -0.00000000000E+00  0.00000000000E+00  0.47876517140E+03  0.47876517140E+03  0.00000000000E+00 0.  1.
          1   -1    0    0  501    0  0.00000000000E+00 -0.00000000000E+00 -0.42152960886E+02  0.42152960886E+02  0.00000000000E+00 0. -1.
         23    2    1    2    0    0 -0.10892400601E+02 -0.41997279581E+02  0.31958908176E+03  0.33555133744E+03  0.92601852008E+02 0.  0.
          5    1    1    2  502    0  0.37106503470E+02 -0.25579423565E+02 -0.27072326424E+01  0.45343147423E+02  0.41800000000E+01 0. -1.
         -5    1    1    2    0  502 -0.26214102870E+02  0.67576703146E+02  0.11973036140E+03  0.14002364743E+03  0.41800000000E+01 0.  1.
        -11    1    3    3    0    0  0.40437367170E+02 -0.18626076508E+02  0.11457640949E+03  0.12292219085E+03  0.00000000000E+00 0. -1.
         11    1    3    3    0    0 -0.51329767770E+02 -0.23371203073E+02  0.20501267226E+03  0.21262914659E+03  0.00000000000E+00 0.  1.
</event>
<event>
 7    1  0.6610867E-006  0.1002429E+03  0.7561462E-02  0.1279786E+00
         -2   -1    0    0    0  501 -0.00000000000E+00  0.00000000000E+00  0.77249129642E+02  0.77249129642E+02  0.00000000000E+00 0. -1.
          2   -1    0    0  501    0  0.00000000000E+00 -0.00000000000E+00 -0.24793940963E+03  0.24793940963E+03  0.00000000000E+00 0.  1.
         23    2    1    2    0    0 -0.58340185770E+02 -0.55137689300E+02 -0.41683146232E+02  0.12838331665E+03  0.91110094162E+02 0.  0.
          5    1    1    2  502    0  0.70809213383E+01 -0.20583392867E+02  0.14574875263E+02  0.26527625183E+02  0.41800000000E+01 0. -1.
         -5    1    1    2    0  502  0.51259264432E+02  0.75721082166E+02 -0.14358200902E+03  0.17027759744E+03  0.41800000000E+01 0. -1.
        -11    1    3    3    0    0 -0.18609554983E+02  0.26285514972E+00 -0.55748510367E+02  0.58773131937E+02  0.00000000000E+00 0.  1.
         11    1    3    3    0    0 -0.39730630787E+02 -0.55400544449E+02  0.14065364136E+02  0.69610184717E+02  0.00000000000E+00 0. -1.
</event>
<event>
 7    1  0.6610867E-006  0.1478205E+03  0.7561462E-02  0.1203177E+00
         -1   -1    0    0    0  501 -0.00000000000E+00  0.00000000000E+00  0.40889344696E+03  0.40889344696E+03  0.00000000000E+00 0.  1.
          1   -1    0    0  501    0  0.00000000000E+00 -0.00000000000E+00 -0.84649521038E+02  0.84649521038E+02  0.00000000000E+00 0. -1.
         23    2    1    2    0    0 -0.61762541267E+02 -0.13054805971E+03  0.21030536927E+03  0.27108659583E+03  0.91663442536E+02 0.  0.
          5    1    1    2  502    0  0.36214853194E+02  0.89797848799E+02  0.13790753672E+03  0.16855601539E+03  0.41800000000E+01 0.  1.
         -5    1    1    2    0  502  0.25547688073E+02  0.40750210908E+02 -0.23968980070E+02  0.53900356775E+02  0.41800000000E+01 0.  1.
        -11    1    3    3    0    0 -0.53058204334E+02 -0.63110437554E+02  0.17723381689E+03  0.19547359470E+03  0.00000000000E+00 0. -1.
         11    1    3    3    0    0 -0.87043369329E+01 -0.67437622153E+02  0.33071552381E+02  0.75613001130E+02  0.00000000000E+00 0.  1.
</event>
<event>
 7    1  0.6610867E-006  0.8780705E+02  0.7561462E-02  0.1308251E+00
         -2   -1    0    0    0  501 -0.00000000000E+00  0.00000000000E+00  0.40819664180E+02  0.40819664180E+02  0.00000000000E+00 0.  1.
          2   -1    0    0  501    0  0.00000000000E+00 -0.00000000000E+00 -0.34210364942E+03  0.34210364942E+03  0.00000000000E+00 0. -1.
         23    2    1    2    0    0 -0.22885992534E+02 -0.54175186507E+01 -0.64569988641E+02  0.11416178519E+03  0.91162007448E+02 0.  0.
          5    1    1    2  502    0 -0.64296053026E+01 -0.51004409151E+02 -0.16478015254E+03  0.17266372128E+03  0.41800000000E+01 0.  1.
         -5    1    1    2    0  502  0.29315597837E+02  0.56421927802E+02 -0.71933844066E+02  0.96097807132E+02  0.41800000000E+01 0.  1.
        -11    1    3    3    0    0 -0.41412633151E+02 -0.18858150555E+01  0.52982320938E+01  0.41792747532E+02  0.00000000000E+00 0.  1.
         11    1    3    3    0    0  0.18526640617E+02 -0.35317035952E+01 -0.69868220735E+02  0.72369037658E+02  0.00000000000E+00 0. -1.
</event>
<event>
 7    1  0.6610867E-006  0.1240141E+03  0.7561462E-02  0.1236618E+00
         -1   -1    0    0    0  501 -0.00000000000E+00  0.00000000000E+00  0.31916716603E+03  0.31916716603E+03  0.00000000000E+00 0.  1.
          1   -1    0    0  501    0  0.00000000000E+00 -0.00000000000E+00 -0.52232009418E+02  0.52232009418E+02  0.00000000000E+00 0. -1.
         23    2    1    2    0    0 -0.23662510360E+02  0.75861261869E+02  0.10749780173E+03  0.16153876904E+03  0.90687105356E+02 0.  0.
          5    1    1    2  502    0 -0.40266517139E+02 -0.35090233259E+02  0.99923699351E+02  0.11337960559E+03  0.41800000000E+01 0. -1.
         -5    1    1    2    0  502  0.63929027499E+02 -0.40771028610E+02  0.59513655533E+02  0.96480800815E+02  0.41800000000E+01 0.  1.
        -11    1    3    3    0    0  0.30454104636E+02  0.75686903348E+01  0.16131880452E+02  0.35284205099E+02  0.00000000000E+00 0.  1.
         11    1    3    3    0    0 -0.54116614996E+02  0.68292571534E+02  0.91365921278E+02  0.12625456394E+03  0.00000000000E+00 0. -1.
</event>
<event>
 7    1  0.6610867E-006  0.1314958E+03  0.7561462E-02  0.1225253E+00
         -2   -1    0    0    0  501 -0.00000000000E+00  0.00000000000E+00  0.11428792039E+03  0.11428792039E+03  0.00000000000E+00 0.  1.
          2   -1    0    0  501    0  0.00000000000E+00 -0.00000000000E+00 -0.16171542614E+03  0.16171542614E+03  0.00000000000E+00 0. -1.
         23    2    1    2    0    0 -0.63003126497E+02  0.49946267899E+02 -0.13799242553E+02  0.12354862769E+03  0.92789119425E+02 0.  0.
          5    1    1    2  502    0  0.97419443908E+02 -0.39181068480E+02 -0.45139646718E+02  0.11437116894E+03  0.41800000000E+01 0. -1.
         -5    1    1    2    0  502 -0.34416317411E+02 -0.10765199419E+02  0.11511383522E+02  0.38083549904E+02  0.41800000000E+01 0. -1.
        -11    1    3    3    0    0 -0.60928002641E+01  0.62935050297E+02  0.13406058310E+01  0.63243497650E+02  0.00000000000E+00 0.  1.
         11    1    3    3    0    0 -0.56910326232E+02 -0.12988782398E+02 -0.15139848384E+02  0.60305130040E+02  0.00000000000E+00 0. -1.
</event>
<event>
 7    1  0.6610867E-006  0.1396705E+03  0.7561462E-02  0.1213773E+00
         -1   -1    0    0    0  501 -0.00000000000E+00  0.00000000000E+00  0.19962881717E+03  0.19962881717E+03  0.00000000000E+00 0.  1.
          1   -1    0    0  501    0  0.00000000000E+00 -0.00000000000E+00 -0.15189384586E+03  0.15189384586E+03  0.00000000000E+00 0. -1.
         23    2    1    2    0    0  0.10150714477E+03 -0.29070883224E+02  0.10857297871E+03  0.17688726505E+03  0.91390350364E+02 0.  0.
          5    1    1    2  502    0  0.99357748104E+01 -0.27095171829E+02  0.10300389267E+02  0.30926337911E+02  0.41800000000E+01 0. -1.
         -5    1    1    2    0  502 -0.11144291958E+03  0.56166055053E+02 -0.71138396672E+02  0.14370906007E+03  0.41800000000E+01 0. -1.
        -11    1    3    3    0    0  0.19479545413E+02 -0.38099935929E+02  0.77841668965E+02  0.88827829167E+02  0.00000000000E+00 0.  1.
         11    1    3    3    0    0  0.82027599359E+02  0.90290527048E+01  0.30731309745E+02  0.88059435882E+02  0.00000000000E+00 0. -1.
</event>
<event>
 7    1  0.6610867E-006  0.1181183E+03  0.7561462E-02  0.1246234E+00
         -2   -1    0    0    0  501 -0.00000000000E+00  0.00000000000E+00  0.15328706618E+03  0.15328706618E+03  0.00000000000E+00 0.  1.
          2   -1    0    0  501    0  0.00000000000E+00 -0.00000000000E+00 -0.14861136949E+03  0.14861136949E+03  0.00000000000E+00 0. -1.
         23    2    1    2    0    0  0.43968996836E+02  0.28884464227E+02  0.92437949635E+02  0.14029042359E+03  0.91482476257E+02 0.  0.
          5    1    1    2  502    0 -0.36851315913E+02  0.46505179086E+02 -0.32619551755E+02  0.67839949315E+02  0.41800000000E+01 0. -1.
         -5    1    1    2    0  502 -0.71176809234E+01 -0.75389643313E+02 -0.55142701185E+02  0.93768062764E+02  0.41800000000E+01 0. -1.
        -11    1    3    3    0    0  0.42797234071E+02  0.57830246532E+02  0.82959076987E+02  0.10980960392E+03  0.00000000000E+00 0.  1.
         11    1    3    3    0    0  0.11717627655E+01 -0.28945782306E+02  0.94788726482E+01  0.30480819673E+02  0.00000000000E+00 0. -1.
</event>
<event>
 7    1  0.6610867E-006  0.1195146E+03  0.7561462E-02  0.1243900E+00
         -1   -1    0    0    0  501 -0.00000000000E+00  0.00000000000E+00  0.11867317902E+02  0.11867317902E+02  0.00000000000E+00 0.  1.
          1   -1    0    0  501    0  0.00000000000E+00 -0.00000000000E+00 -0.14798838286E+04  0.14798838286E+04  0.00000000000E+00 0. -1.
         23    2    1    2    0    0 -0.31760622262E+02 -0.29074238967E+02 -0.37704413485E+03  0.39278703564E+03  0.10131795123E+03 0.  0.
          5    1    1    2  502    0 -0.32295657155E+01  0.74486931655E+02 -0.59146583388E+03  0.59616108404E+03  0.41800000000E+01 0. -1.
         -5    1    1    2    0  502  0.34990187978E+02 -0.45412692688E+02 -0.49950654193E+03  0.50280302679E+03  0.41800000000E+01 0. -1.
        -11    1    3    3    0    0 -0.66035698956E+02 -0.30125224858E+02 -0.20801188655E+03  0.22031156950E+03  0.00000000000E+00 0.  1.
         11    1    3    3    0    0  0.34275076693E+02  0.10509858918E+01 -0.16903224831E+03  0.17247546615E+03  0.00000000000E+00 0. -1.
</event>
<event>
 7    1  0.6610867E-006  0.9675375E+02  0.7561462E-02  0.1287274E+00
          2   -1    0    0  501    0  0.00000000000E+00  0.00000000000E+00  0.11394948782E+03  0.11394948782E+03  0.00000000000E+00 0. -1.
         -2   -1    0    0    0  501 -0.00000000000E+00 -0.00000000000E+00 -0.11461478544E+03  0.11461478544E+03  0.00000000000E+00 0.  1.
         23    2    1    2    0    0 -0.36769984158E+02  0.10096144361E+02  0.39969242125E+01  0.97709033236E+02  0.89872776227E+02 0.  0.
          5    1    1    2  502    0  0.53708940228E+01 -0.53992503644E+02  0.34149640225E+02  0.64247235582E+02  0.41800000000E+01 0.  1.
         -5    1    1    2    0  502  0.31399090135E+02  0.43896359284E+02 -0.38811862052E+02  0.66608004441E+02  0.41800000000E+01 0.  1.
        -11    1    3    3    0    0 -0.23553123585E+02  0.43259480946E+02  0.26076810406E+02  0.55732686668E+02  0.00000000000E+00 0. -1.
         11    1    3    3    0    0 -0.13216860573E+02 -0.33163336585E+02 -0.22079886193E+02  0.41976346568E+02  0.00000000000E+00 0.  1.
</event>
<event>
 7    1  0.6610867E-006  0.9701950E+02  0.7561462E-02  0.1286691E+00
          2   -1    0    0  501    0  0.00000000000E+00  0.00000000000E+00  0.80663106432E+03  0.80663106432E+03  0.00000000000E+00 0. -1.
         -2   -1    0    0    0  501 -0.00000000000E+00 -0.00000000000E+00 -0.41871842509E+02  0.41871842509E+02  0.00000000000E+00 0.  1.
         23    2    1    2    0    0  0.53037957122E+02  0.27819359569E+02  0.51203723492E+02  0.12159407835E+03  0.92608622319E+02 0.  0.
          5    1    1    2  502    0 -0.19633588315E+02 -0.43151676214E+02  0.66060185335E+03  0.66231399351E+03  0.41800000000E+01 0.  1.
         -5    1    1    2    0  502 -0.33404368807E+02  0.15332316645E+02  0.52953644970E+02  0.64594834969E+02  0.41800000000E+01 0.  1.
        -11    1    3    3    0    0  0.10936419224E+02 -0.33406136258E+02  0.23551755810E+02  0.42311468975E+02  0.00000000000E+00 0. -1.
         11    1    3    3    0    0  0.42101537898E+02  0.61225495827E+02  0.27651967682E+02  0.79282609375E+02  0.00000000000E+00 0.  1.
</event>
<event>
 7    1  0.6610867E-006  0.9978336E+02  0.7561462E-02  0.1280752E+00
          2   -1    0    0  501    0  0.00000000000E+00  0.00000000000E+00  0.36875025975E+03  0.36875025975E+03  0.00000000000E+00 0. -1.
         -2   -1    0    0    0  501 -0.00000000000E+00 -0.00000000000E+00 -0.45964072224E+02  0.45964072224E+02  0.00000000000E+00 0.  1.
         23    2    1    2    0    0  0.32860638261E+00  0.69833158224E+02  0.12542715933E+03  0.17083959420E+03  0.92614343802E+02 0.  0.
          5    1    1    2  502    0  0.51771776932E+02 -0.45098211322E+02  0.16224165768E+03  0.17622143297E+03  0.41800000000E+01 0.  1.
         -5    1    1    2    0  502 -0.52100383314E+02 -0.24734946902E+02  0.35117370521E+02  0.67653304812E+02  0.41800000000E+01 0.  1.
        -11    1    3    3    0    0  0.10621191986E+02  0.40443403339E+02  0.21712110653E+00  0.41815376770E+02  0.00000000000E+00 0.  1.
         11    1    3    3    0    0 -0.10292585604E+02  0.29389754886E+02  0.12521003822E+03  0.12902421743E+03  0.00000000000E+00 0. -1.
</event>
<event>
 7    1  0.6610867E-006  0.1662979E+03  0.7561462E-02  0.1181764E+00
         -2   -1    0    0    0  501 -0.00000000000E+00  0.00000000000E+00  0.43614349158E+02  0.43614349158E+02  0.00000000000E+00 0.  1.
          2   -1    0    0  501    0  0.00000000000E+00 -0.00000000000E+00 -0.96567436138E+03  0.96567436138E+03  0.00000000000E+00 0. -1.
         23    2    1    2    0    0  0.14449300107E+03  0.42529390489E+02 -0.23279407352E+03  0.29275438211E+03  0.93941849920E+02 0.  0.
          5    1    1    2  502    0 -0.12295796440E+03  0.83038813306E+01 -0.59116785366E+03  0.60389114835E+03  0.41800000000E+01 0.  1.
         -5    1    1    2    0  502 -0.21535036673E+02 -0.50833271820E+02 -0.98098085043E+02  0.11264318008E+03  0.41800000000E+01 0.  1.
        -11    1    3    3    0    0  0.12378712775E+03  0.23908375771E+02 -0.11150615916E+03  0.16831068581E+03  0.00000000000E+00 0.  1.
         11    1    3    3    0    0  0.20705873323E+02  0.18621014718E+02 -0.12128791436E+03  0.12444369630E+03  0.00000000000E+00 0. -1.
</event>
<event>
 7    1  0.6610867E-006  0.1093220E+03  0.7561462E-02  0.1261831E+00
         -1   -1    0    0    0  501 -0.00000000000E+00  0.00000000000E+00  0.12390674146E+03  0.12390674146E+03  0.00000000000E+00 0.  1.
          1   -1    0    0  501    0  0.00000000000E+00 -0.00000000000E+00 -0.22446924682E+03  0.22446924682E+03  0.00000000000E+00 0. -1.
         23    2    1    2    0    0 -0.34944988740E+02 -0.56956775850E+02  0.64966262581E+02  0.13040375184E+03  0.91210178528E+02 0.  0.
          5    1    1    2  502    0 -0.36316889901E+02  0.72452822918E+01 -0.10653786830E+03  0.11286806630E+03  0.41800000000E+01 0.  1.
         -5    1    1    2    0  502  0.71261878641E+02  0.49711493558E+02 -0.58990899641E+02  0.10510417013E+03  0.41800000000E+01 0.  1.
        -11    1    3    3    0    0 -0.25940918364E+02  0.92733615898E+01  0.56721786076E+02  0.63057810749E+02  0.00000000000E+00 0.  1.
         11    1    3    3    0    0 -0.90040703757E+01 -0.66230137440E+02  0.82444765041E+01  0.67345941091E+02  0.00000000000E+00 0. -1.
</event>
<event>
 7    1  0.6610867E-006  0.1014831E+03  0.7561462E-02  0.1277208E+00
         -1   -1    0    0    0  501 -0.00000000000E+00  0.00000000000E+00  0.37360266017E+02  0.37360266017E+02  0.00000000000E+00 0.  1.
          1   -1    0    0  501    0  0.00000000000E+00 -0.00000000000E+00 -0.49582616403E+03  0.49582616403E+03  0.00000000000E+00 0. -1.
         23    2    1    2    0    0  0.79719790392E+02  0.18518269135E+02 -0.21918485578E+03  0.25105039579E+03  0.91028176695E+02 0.  0.
          5    1    1    2  502    0 -0.85866444979E+02 -0.25093161912E+02 -0.72944221020E+02  0.11550344120E+03  0.41800000000E+01 0. -1.
         -5    1    1    2    0  502  0.61466545878E+01  0.65748927771E+01 -0.16633682121E+03  0.16663259306E+03  0.41800000000E+01 0. -1.
        -11    1    3    3    0    0  0.46079099437E+02  0.42090832861E+02 -0.19175772403E+03  0.20165799350E+03  0.00000000000E+00 0. -1.
         11    1    3    3    0    0  0.33640690955E+02 -0.23572563726E+02 -0.27427131750E+02  0.49392402296E+02  0.00000000000E+00 0.  1.
</event>
<event>
 7    1  0.6610867E-006  0.8875734E+02  0.7561462E-02  0.1305889E+00
         -1   -1    0    0    0  501 -0.00000000000E+00  0.00000000000E+00  0.37590797167E+02  0.37590797167E+02  0.00000000000E+00 0.  1.
          1   -1    0    0  501    0  0.00000000000E+00 -0.00000000000E+00 -0.42271742787E+03  0.42271742787E+03  0.00000000000E+00 0. -1.
         23    2    1    2    0    0 -0.48631436102E+02 -0.73603456789E+01 -0.94409656932E+02  0.14002396035E+03  0.90963371114E+02 0.  0.
          5    1    1    2  502    0  0.96414108709E+01 -0.52993139103E+02 -0.71904930601E+02  0.89938985097E+02  0.41800000000E+01 0.  1.
         -5    1    1    2    0  502  0.38990025231E+02  0.60353484781E+02 -0.21881204317E+03  0.23034527959E+03  0.41800000000E+01 0.  1.
        -11    1    3    3    0    0 -0.30198940447E+02  0.30400433665E+01  0.11171667756E+02  0.32342294728E+02  0.00000000000E+00 0.  1.
         11    1    3    3    0    0 -0.18432495655E+02 -0.10400389045E+02 -0.10558132469E+03  0.10768166562E+03  0.00000000000E+00 0. -1.
</event>
<event>
 7    1  0.6610867E-006  0.1033705E+03  0.7561462E-02  0.1273364E+00
         -2   -1    0    0    0  501 -0.00000000000E+00  0.00000000000E+00  0.15116282424E+02  0.15116282424E+02  0.00000000000E+00 0.  1.
          2   -1    0    0  501    0  0.00000000000E+00 -0.00000000000E+00 -0.13067136323E+04  0.13067136323E+04  0.00000000000E+00 0. -1.
         23    2    1    2    0    0  0.71442836950E+02 -0.37158903794E+01 -0.32595792824E+03  0.34549742694E+03  0.89453978401E+02 0.  0.
          5    1    1    2  502    0 -0.22211372523E+02  0.35157097247E+02 -0.79162460899E+03  0.79272716651E+03  0.41800000000E+01 0.  1.
         -5    1    1    2    0  502 -0.49231464427E+02 -0.31441206867E+02 -0.17401481265E+03  0.18360532128E+03  0.41800000000E+01 0.  1.
        -11    1    3    3    0    0  0.87341808688E+02 -0.12477090503E+02 -0.30623819979E+03  0.31869437450E+03  0.00000000000E+00 0.  1.
         11    1    3    3    0    0 -0.15898971738E+02  0.87612001240E+01 -0.19719728450E+02  0.26803052439E+02  0.00000000000E+00 0. -1.
</event>
<event>
 7    1  0.6610867E-006  0.1082469E+03  0.7561462E-02  0.1263851E+00
          2   -1    0    0  501    0  0.00000000000E+00  0.00000000000E+00  0.21428985513E+03  0.21428985513E+03  0.00000000000E+00 0. -1.
         -2   -1    0    0    0  501 -0.00000000000E+00 -0.00000000000E+00 -0.95694811153E+02  0.95694811153E+02  0.00000000000E+00 0.  1.
         23    2    1    2    0    0 -0.59600870168E+02  0.20361280967E+02 -0.19653994562E+02  0.11319358899E+03  0.91976429582E+02 0.  0.
          5    1    1    2  502    0  0.94060519433E+02 -0.13199666281E+02  0.12883786171E+03  0.16011957880E+03  0.41800000000E+01 0. -1.
         -5    1    1    2    0  502 -0.34459649265E+02 -0.71616146851E+01  0.94111768314E+01  0.36671498493E+02  0.41800000000E+01 0. -1.
        -11    1    3    3    0    0 -0.33312475492E+02 -0.19220846639E+02 -0.45116638002E+02  0.59284677561E+02  0.00000000000E+00 0.  1.
         11    1    3    3    0    0 -0.26288394677E+02  0.39582127606E+02  0.25462643440E+02  0.53908911429E+02  0.00000000000E+00 0. -1.
</event>
<event>
 7    1  0.6610867E-006  0.1350155E+03  0.7561462E-02  0.1220198E+00
          1   -1    0    0  501    0  0.00000000000E+00  0.00000000000E+00  0.16383049055E+03  0.16383049055E+03  0.00000000000E+00 0. -1.
         -1   -1    0    0    0  501 -0.00000000000E+00 -0.00000000000E+00 -0.13762332674E+03  0.13762332674E+03  0.00000000000E+00 0.  1.
         23    2    1    2    0    0  0.82408116986E+02 -0.55103779168E+02  0.26240367742E+02  0.14184719939E+03  0.98002790016E+02 0.  0.
          5    1    1    2  502    0  0.26503683332E+02  0.17564513154E+01 -0.23852432845E+02  0.35943585019E+02  0.41800000000E+01 0.  1.
         -5    1    1    2    0  502 -0.10891180032E+03  0.53347327853E+02  0.23819228913E+02  0.12366303289E+03  0.41800000000E+01 0.  1.
        -11    1    3    3    0    0  0.67253666735E+02 -0.27694572196E+01  0.48528542248E+02  0.82980389222E+02  0.00000000000E+00 0. -1.
         11    1    3    3    0    0  0.15154450250E+02 -0.52334321949E+02 -0.22288174506E+02  0.58866810165E+02  0.00000000000E+00 0.  1.
</event>
<event>
 7    1  0.6610867E-006  0.9547926E+02  0.7561462E-02  0.1290100E+00
          1   -1    0    0  501    0  0.00000000000E+00  0.00000000000E+00  0.13709082104E+03  0.13709082104E+03  0.00000000000E+00 0. -1.
         -1   -1    0    0    0  501 -0.00000000000E+00 -0.00000000000E+00 -0.12602724943E+03  0.12602724943E+03  0.00000000000E+00 0.  1.
         23    2    1    2    0    0  0.70269626610E+02  0.13333829646E+02  0.10788472206E+02  0.11902277434E+03  0.94522051622E+02 0.  0.
          5    1    1    2  502    0  0.18629664547E+02 -0.20103957468E+02  0.38130320717E+02  0.47144748010E+02  0.41800000000E+01 0. -1.
         -5    1    1    2    0  502 -0.88899291157E+02  0.67701278219E+01 -0.37855221311E+02  0.96950548114E+02  0.41800000000E+01 0. -1.
        -11    1    3    3    0    0  0.43195734592E+02  0.17461522297E+02  0.51823428388E+02  0.69688191092E+02  0.00000000000E+00 0. -1.
         11    1    3    3    0    0  0.27073892018E+02 -0.41276926518E+01 -0.41034956182E+02  0.49334583250E+02  0.00000000000E+00 0.  1.
</event>
<event>
 7    1  0.6610867E-006  0.1607417E+03  0.7561462E-02  0.1187862E+00
          1   -1    0    0  501    0  0.00000000000E+00  0.00000000000E+00  0.52015314808E+02  0.52015314808E+02  0.00000000000E+00 0. -1.
         -1   -1    0    0    0  501 -0.00000000000E+00 -0.00000000000E+00 -0.55836244956E+03  0.55836244956E+03  0.00000000000E+00 0.  1.
         23    2    1    2    0    0 -0.11595133058E+03  0.40391610888E+02 -0.17998401994E+03  0.23992119432E+03  0.10045764658E+03 0.  0.
          5    1    1    2  502    0 -0.87178280381E+01 -0.37459062640E+02 -0.30185606290E+02  0.49069594727E+02  0.41800000000E+01 0. -1.
         -5    1    1    2    0  502  0.12466915862E+03 -0.29325482477E+01 -0.29617750852E+03  0.32138697532E+03  0.41800000000E+01 0. -1.
        -11    1    3    3    0    0 -0.40597353642E+02 -0.33388352934E+02 -0.70100824693E+02  0.87618792830E+02  0.00000000000E+00 0.  1.
         11    1    3    3    0    0 -0.75353976941E+02  0.73779963822E+02 -0.10988319525E+03  0.15230240149E+03  0.00000000000E+00 0. -1.
</event>
<event>
 7    1  0.6610867E-006  0.1203821E+03  0.7561462E-02  0.1242468E+00
          1   -1    0    0  501    0  0.00000000000E+00  0.00000000000E+00  0.40763897024E+03  0.40763897024E+03  0.00000000000E+00 0. -1.
         -1   -1    0    0    0  501 -0.00000000000E+00 -0.00000000000E+00 -0.43840028200E+02  0.43840028200E+02  0.00000000000E+00 0.  1.
         23    2    1    2    0    0 -0.28956076648E+02 -0.54301598766E+02  0.71714954150E+02  0.12783285249E+03  0.86087661853E+02 0.  0.
          5    1    1    2  502    0  0.13013944819E+01 -0.39630828728E+02  0.10750179442E+03  0.11465777085E+03  0.41800000000E+01 0.  1.
         -5    1    1    2    0  502  0.27654682166E+02  0.93932427494E+02  0.18458219347E+03  0.20898837510E+03  0.41800000000E+01 0.  1.
        -11    1    3    3    0    0 -0.57713865342E+02 -0.43060732370E+02  0.63186422229E+02  0.95800004588E+02  0.00000000000E+00 0. -1.
         11    1    3    3    0    0  0.28757788694E+02 -0.11240866397E+02  0.85285319214E+01  0.32032847901E+02  0.00000000000E+00 0.  1.
</event>
<event>
 7    1  0.6610867E-006  0.1548077E+03  0.7561462E-02  0.1194687E+00
          1   -1    0    0  501    0  0.00000000000E+00  0.00000000000E+00  0.85283394206E+03  0.85283394206E+03  0.00000000000E+00 0.  1.
         -1   -1    0    0    0  501 -0.00000000000E+00 -0.00000000000E+00 -0.31571255423E+02  0.31571255423E+02  0.00000000000E+00 0. -1.
         23    2    1    2    0    0  0.10403423568E+03 -0.32616958224E+02  0.24365389802E+03  0.28343392140E+03  0.95292064866E+02 0.  0.
          5    1    1    2  502    0 -0.42184538940E+02 -0.47458825127E+02  0.25633502045E+03  0.26411548709E+03  0.41800000000E+01 0. -1.
         -5    1    1    2    0  502 -0.61849696739E+02  0.80075783351E+02  0.32127376816E+03  0.33685578899E+03  0.41800000000E+01 0. -1.
        -11    1    3    3    0    0  0.41004503362E+02  0.33807653804E+02  0.84757860004E+02  0.10004109947E+03  0.00000000000E+00 0.  1.
         11    1    3    3    0    0  0.63029732318E+02 -0.66424612027E+02  0.15889603801E+03  0.18339282193E+03  0.00000000000E+00 0. -1.
</event>
<event>
 7    1  0.6610867E-006  0.1107810E+03  0.7561462E-02  0.1259130E+00
          1   -1    0    0  501    0  0.00000000000E+00  0.00000000000E+00  0.12844379637E+03  0.12844379637E+03  0.00000000000E+00 0. -1.
         -1   -1    0    0    0  501 -0.00000000000E+00 -0.00000000000E+00 -0.16853177390E+03  0.16853177390E+03  0.00000000000E+00 0.  1.
         23    2    1    2    0    0  0.47702770616E+02 -0.38453091589E+02 -0.96630498072E+02  0.14664423651E+03  0.91721776954E+02 0.  0.
          5    1    1    2  502    0 -0.64457538289E+01  0.65950768173E+02 -0.10102681501E+02  0.67160912282E+02  0.41800000000E+01 0.  1.
         -5    1    1    2    0  502 -0.41257016787E+02 -0.27497676584E+02  0.66645202045E+02  0.83170421469E+02  0.41800000000E+01 0.  1.
        -11    1    3    3    0    0  0.28838777729E+02  0.25645125017E+02 -0.57384455701E+02  0.69154344001E+02  0.00000000000E+00 0. -1.
         11    1    3    3    0    0  0.18863992888E+02 -0.64098216606E+02 -0.39246042371E+02  0.77489892512E+02  0.00000000000E+00 0.  1.
</event>
<event>
 7    1  0.6610867E-006  0.1041687E+03  0.7561462E-02  0.1271766E+00
          3   -1    0    0  501    0  0.00000000000E+00  0.00000000000E+00  0.19980295545E+03  0.19980295545E+03  0.00000000000E+00 0. -1.
         -3   -1    0    0    0  501 -0.00000000000E+00 -0.00000000000E+00 -0.78817065005E+02  0.78817065005E+02  0.00000000000E+00 0.  1.
         23    2    1    2    0    0  0.46424511432E+02 -0.55309269129E+01 -0.24552221725E+02  0.81485208733E+02  0.62058047313E+02 0.  0.
          5    1    1    2  502    0 -0.85019442949E+01 -0.56998670035E+02  0.81082750770E+02  0.99564131669E+02  0.41800000000E+01 0.  1.
         -5    1    1    2    0  502 -0.37922567137E+02  0.62529596948E+02  0.64455361402E+02  0.97570680054E+02  0.41800000000E+01 0. -1.
        -11    1    3    3    0    0 -0.57098687392E+01  0.18891606073E+02 -0.98955776002E+01  0.22077541464E+02  0.00000000000E+00 0. -1.
         11    1    3    3    0    0  0.52134380172E+02 -0.24422532986E+02 -0.14656644125E+02  0.59407667269E+02  0.00000000000E+00 0.  1.
</event>
<event>
 7    1  0.6610867E-006  0.1340175E+03  0.7561462E-02  0.1221613E+00
          2   -1    0    0  501    0  0.00000000000E+00  0.00000000000E+00  0.33723364047E+03  0.33723364047E+03  0.00000000000E+00 0. -1.
         -2   -1    0    0    0  501 -0.00000000000E+00 -0.00000000000E+00 -0.55506617060E+02  0.55506617060E+02  0.00000000000E+00 0.  1.
         23    2    1    2    0    0 -0.80520125725E+02 -0.51914841359E+02  0.11335439064E+03  0.16213958770E+03  0.65279297051E+02 0.  0.
          5    1    1    2  502    0  0.55347114085E+02 -0.35908677337E+02  0.69857522908E+02  0.96178386618E+02  0.41800000000E+01 0.  1.
         -5    1    1    2    0  502  0.25173011640E+02  0.87823518696E+02  0.98515109863E+02  0.13442228321E+03  0.41800000000E+01 0.  1.
        -11    1    3    3    0    0 -0.69251458094E+02 -0.63752410350E+02  0.74684699398E+02  0.12015797351E+03  0.00000000000E+00 0. -1.
         11    1    3    3    0    0 -0.11268667631E+02  0.11837568991E+02  0.38669691237E+02  0.41981614192E+02  0.00000000000E+00 0.  1.
</event>
<event>
 7    1  0.6610867E-006  0.1409636E+03  0.7561462E-02  0.1212038E+00
          1   -1    0    0  501    0  0.00000000000E+00  0.00000000000E+00  0.80113817488E+03  0.80113817488E+03  0.00000000000E+00 0. -1.
         -1   -1    0    0    0  501 -0.00000000000E+00 -0.00000000000E+00 -0.36502836440E+02  0.36502836440E+02  0.00000000000E+00 0.  1.
         23    2    1    2    0    0 -0.16375860092E+02 -0.12511491667E+03  0.27877352544E+03  0.32031059874E+03  0.94669372109E+02 0.  0.
          5    1    1    2  502    0 -0.15468062584E+01  0.94601814253E+02  0.46797046544E+03  0.47745756335E+03  0.41800000000E+01 0.  1.
         -5    1    1    2    0  502  0.17922666351E+02  0.30513102418E+02  0.17891347562E+02  0.39872849232E+02  0.41800000000E+01 0.  1.
        -11    1    3    3    0    0  0.17105985805E+02  0.45241328227E+01  0.10748488975E+02  0.20702959775E+02  0.00000000000E+00 0.  1.
         11    1    3    3    0    0 -0.33481845898E+02 -0.12963904949E+03  0.26802503646E+03  0.29960763897E+03  0.00000000000E+00 0. -1.
</event>
<event>
 7    1  0.6610867E-006  0.1578675E+03  0.7561462E-02  0.1191126E+00
         -2   -1    0    0    0  501 -0.00000000000E+00  0.00000000000E+00  0.19991616602E+02  0.19991616602E+02  0.00000000000E+00 0.  1.
          2   -1    0    0  501    0  0.00000000000E+00 -0.00000000000E+00 -0.15618277137E+04  0.15618277137E+04  0.00000000000E+00 0. -1.
         23    2    1    2    0    0 -0.11818199482E+03  0.44597471519E+02 -0.46078578854E+03  0.48624933663E+03  0.90326939976E+02 0.  0.
          5    1    1    2  502    0  0.81715099244E+02  0.27662300589E+02 -0.73991177670E+03  0.74493588316E+03  0.41800000000E+01 0. -1.
         -5    1    1    2    0  502  0.36466895577E+02 -0.72259772108E+02 -0.34113853182E+03  0.35063411048E+03  0.41800000000E+01 0. -1.
        -11    1    3    3    0    0 -0.53097809592E+02  0.61323072949E+02 -0.17836196739E+03  0.19594103213E+03  0.00000000000E+00 0.  1.
         11    1    3    3    0    0 -0.65084185228E+02 -0.16725601430E+02 -0.28242382115E+03  0.29030830450E+03  0.00000000000E+00 0. -1.
</event>
<event>
 7    1  0.6610867E-006  0.1809471E+03  0.7561462E-02  0.1166890E+00
         -1   -1    0    0    0  501 -0.00000000000E+00  0.00000000000E+00  0.18147796149E+03  0.18147796149E+03  0.00000000000E+00 0. -1.
          1   -1    0    0  501    0  0.00000000000E+00 -0.00000000000E+00 -0.19676227637E+03  0.19676227637E+03  0.00000000000E+00 0.  1.
         23    2    1    2    0    0 -0.27049345762E+02  0.14566542607E+03  0.38482469018E+02  0.17702316811E+03  0.88916917209E+02 0.  0.
          5    1    1    2  502    0  0.60495817508E+02 -0.14816735204E+03 -0.44944449885E+02  0.16628524926E+03  0.41800000000E+01 0. -1.
         -5    1    1    2    0  502 -0.33446471746E+02  0.25019259646E+01 -0.88223340156E+01  0.34931820497E+02  0.41800000000E+01 0. -1.
        -11    1    3    3    0    0 -0.55372423982E+02  0.96808712345E+02  0.44821609677E+02  0.12019571048E+03  0.00000000000E+00 0. -1.
         11    1    3    3    0    0  0.28323078220E+02  0.48856713730E+02 -0.63391406592E+01  0.56827457630E+02  0.00000000000E+00 0.  1.
</event>
<event>
 7    1  0.6610867E-006  0.1627968E+03  0.7561462E-02  0.1185575E+00
          1   -1    0    0  501    0  0.00000000000E+00  0.00000000000E+00  0.14268898084E+04  0.14268898084E+04  0.00000000000E+00 0. -1.
         -1   -1    0    0    0  501 -0.00000000000E+00 -0.00000000000E+00 -0.21290738674E+02  0.21290738674E+02  0.00000000000E+00 0.  1.
         23    2    1    2    0    0  0.11899150726E+02 -0.11796202373E+03  0.41179608376E+03  0.43955768468E+03  0.97868865008E+02 0.  0.
          5    1    1    2  502    0 -0.47822238544E+02  0.12614511936E+03  0.79969662393E+03  0.81100660932E+03  0.41800000000E+01 0. -1.
         -5    1    1    2    0  502  0.35923087818E+02 -0.81830956362E+01  0.19410636208E+03  0.19761625311E+03  0.41800000000E+01 0.  1.
        -11    1    3    3    0    0 -0.39870147103E+02 -0.79875519528E+02  0.25021094752E+03  0.26566001865E+03  0.00000000000E+00 0.  1.
         11    1    3    3    0    0  0.51769297829E+02 -0.38086504199E+02  0.16158513624E+03  0.17389766603E+03  0.00000000000E+00 0. -1.
</event>
<event>
 7    1  0.6610867E-006  0.1004510E+03  0.7561462E-02  0.1279350E+00
          4   -1    0    0  501    0  0.00000000000E+00  0.00000000000E+00  0.24999399154E+03  0.24999399154E+03  0.00000000000E+00 0. -1.
         -4   -1    0    0    0  501 -0.00000000000E+00 -0.00000000000E+00 -0.59074371923E+02  0.59074371923E+02  0.00000000000E+00 0.  1.
         23    2    1    2    0    0  0.19157146382E+02 -0.50705441348E+02  0.71743159394E+02  0.12799374409E+03  0.91089404246E+02 0.  0.
          5    1    1    2  502    0  0.54339985103E+01  0.88612999915E+02  0.63414397175E+02  0.10918173044E+03  0.41800000000E+01 0.  1.
         -5    1    1    2    0  502 -0.24591144892E+02 -0.37907558567E+02  0.55762063047E+02  0.71892888931E+02  0.41800000000E+01 0.  1.
        -11    1    3    3    0    0  0.31003685556E+02 -0.32420544296E+02 -0.77901350573E+01  0.45530280196E+02  0.00000000000E+00 0.  1.
         11    1    3    3    0    0 -0.11846539174E+02 -0.18284897051E+02  0.79533294451E+02  0.82463463891E+02  0.00000000000E+00 0. -1.
</event>
<event>
 7    1  0.6610867E-006  0.9169660E+02  0.7561462E-02  0.1298794E+00
          1   -1    0    0  501    0  0.00000000000E+00  0.00000000000E+00  0.11651840281E+03  0.11651840281E+03  0.00000000000E+00 0. -1.
         -1   -1    0    0    0  501 -0.00000000000E+00 -0.00000000000E+00 -0.16169760783E+03  0.16169760783E+03  0.00000000000E+00 0.  1.
         23    2    1    2    0    0  0.52299944756E+02  0.60194300748E+02 -0.45314838345E+02  0.12987319874E+03  0.91950938621E+02 0.  0.
          5    1    1    2  502    0 -0.29184150112E+02 -0.33674534305E+02  0.62348669936E+02  0.76749709584E+02  0.41800000000E+01 0.  1.
         -5    1    1    2    0  502 -0.23115794645E+02 -0.26519766443E+02 -0.62213036616E+02  0.71593102316E+02  0.41800000000E+01 0.  1.
        -11    1    3    3    0    0 -0.13332997761E+02  0.25961056018E+02  0.16417987300E+02  0.33485751684E+02  0.00000000000E+00 0. -1.
         11    1    3    3    0    0  0.65632942517E+02  0.34233244729E+02 -0.61732825645E+02  0.96387447057E+02  0.00000000000E+00 0.  1.
</event>
<event>
 7    1  0.6610867E-006  0.9564058E+02  0.7561462E-02  0.1289740E+00
         -1   -1    0    0    0  501 -0.00000000000E+00  0.00000000000E+00  0.24041962334E+02  0.24041962334E+02  0.00000000000E+00 0.  1.
          1   -1    0    0  501    0  0.00000000000E+00 -0.00000000000E+00 -0.71484559835E+03  0.71484559835E+03  0.00000000000E+00 0. -1.
         23    2    1    2    0    0  0.41336160030E+02  0.60985875945E+02 -0.31204741490E+03  0.33326164790E+03  0.90894343217E+02 0.  0.
          5    1    1    2  502    0 -0.52321206064E+01 -0.12906580377E+02  0.63249528055E+01  0.15856617895E+02  0.41800000000E+01 0.  1.
         -5    1    1    2    0  502 -0.36104039423E+02 -0.48079295568E+02 -0.38508117393E+03  0.38976929489E+03  0.41800000000E+01 0.  1.
        -11    1    3    3    0    0 -0.28922811110E+02  0.19384683925E+02 -0.10842187214E+03  0.11387535876E+03  0.00000000000E+00 0.  1.
         11    1    3    3    0    0  0.70258971140E+02  0.41601192020E+02 -0.20362554275E+03  0.21938628915E+03  0.00000000000E+00 0. -1.
</event>
<event>
 7    1  0.6610867E-006  0.8716588E+02  0.7561462E-02  0.1309864E+00
          1   -1    0    0  501    0  0.00000000000E+00  0.00000000000E+00  0.49811178579E+03  0.49811178579E+03  0.00000000000E+00 0. -1.
         -1   -1    0    0    0  501 -0.00000000000E+00 -0.00000000000E+00 -0.37354842196E+02  0.37354842196E+02  0.00000000000E+00 0.  1.
         23    2    1    2    0    0  0.32371436569E+02 -0.65066885131E+02  0.13454364998E+03  0.17861396100E+03  0.92300291818E+02 0.  0.
          5    1    1    2  502    0 -0.45644770560E+02  0.47144370256E+02  0.32758652384E+03  0.33412039706E+03  0.41800000000E+01 0. -1.
         -5    1    1    2    0  502  0.13273333990E+02  0.17922514875E+02 -0.13732302266E+01  0.22732269924E+02  0.41800000000E+01 0. -1.
        -11    1    3    3    0    0  0.31479296661E+02 -0.13399417522E+02  0.12021569476E+03  0.12498921463E+03  0.00000000000E+00 0. -1.
         11    1    3    3    0    0  0.89213990871E+00 -0.51667467609E+02  0.14327955221E+02  0.53624746373E+02  0.00000000000E+00 0.  1.
</event>
<event>
 7    1  0.6610867E-006  0.1124285E+03  0.7561462E-02  0.1256138E+00
         -2   -1    0    0    0  501 -0.00000000000E+00  0.00000000000E+00  0.12793640426E+03  0.12793640426E+03  0.00000000000E+00 0.  1.
          2   -1    0    0  501    0  0.00000000000E+00 -0.00000000000E+00 -0.41867650627E+03  0.41867650627E+03  0.00000000000E+00 0. -1.
         23    2    1    2    0    0  0.39733093686E+02  0.81297911615E+01  0.95480428604E+02  0.14124214003E+03  0.95854147729E+02 0.  0.
          5    1    1    2  502    0 -0.24739688863E+02  0.52827065832E+02 -0.22006765619E+03  0.22770594369E+03  0.41800000000E+01 0. -1.
         -5    1    1    2    0  502 -0.14993404822E+02 -0.60956856993E+02 -0.16615287443E+03  0.17766482680E+03  0.41800000000E+01 0.  1.
        -11    1    3    3    0    0  0.65927771129E+02 -0.16005854566E+02  0.69747538036E+02  0.97300449374E+02  0.00000000000E+00 0.  1.
         11    1    3    3    0    0 -0.26194677443E+02  0.24135645727E+02  0.25732890568E+02  0.43941690659E+02  0.00000000000E+00 0. -1.
</event>
<event>
 7    1  0.6610867E-006  0.3003928E+03  0.7561462E-02  0.1085044E+00
         -2   -1    0    0    0  501 -0.00000000000E+00  0.00000000000E+00  0.14475719505E+03  0.14475719505E+03  0.00000000000E+00 0.  1.
          2   -1    0    0  501    0  0.00000000000E+00 -0.00000000000E+00 -0.10262986833E+04  0.10262986833E+04  0.00000000000E+00 0. -1.
         23    2    1    2    0    0  0.13506086712E+03  0.25122289002E+03 -0.75170492896E+02  0.30662750567E+03  0.83758258880E+02 0.  0.
          5    1    1    2  502    0 -0.35575209968E+02  0.38625369931E+01 -0.68720182401E+02  0.77591562850E+02  0.41800000000E+01 0.  1.
         -5    1    1    2    0  502 -0.99485657152E+02 -0.25508542702E+03 -0.73765081294E+03  0.78683680982E+03  0.41800000000E+01 0.  1.
        -11    1    3    3    0    0  0.99533920277E+02  0.12493183854E+03 -0.72474806737E+02  0.17540685043E+03  0.00000000000E+00 0. -1.
         11    1    3    3    0    0  0.35526946843E+02  0.12629105148E+03 -0.26956861595E+01  0.13122065524E+03  0.00000000000E+00 0.  1.
</event>
<event>
 7    1  0.6610867E-006  0.2177944E+03  0.7561462E-02  0.1135538E+00
         -2   -1    0    0    0  501 -0.00000000000E+00  0.00000000000E+00  0.24322721536E+03  0.24322721536E+03  0.00000000000E+00 0.  1.
          2   -1    0    0  501    0  0.00000000000E+00 -0.00000000000E+00 -0.22996616783E+03  0.22996616783E+03  0.00000000000E+00 0. -1.
         23    2    1    2    0    0 -0.18744809071E+03  0.91669457137E+02  0.20363373063E+02  0.22980557901E+03  0.94105584833E+02 0.  0.
          5    1    1    2  502    0  0.13281345027E+03 -0.16606627414E+02 -0.47452131727E+02  0.14207170673E+03  0.41800000000E+01 0.  1.
         -5    1    1    2    0  502  0.54634640439E+02 -0.75062829722E+02  0.40349806197E+02  0.10131609745E+03  0.41800000000E+01 0.  1.
        -11    1    3    3    0    0 -0.16796439626E+03  0.84054976881E+02 -0.15316136869E+02  0.18844591160E+03  0.00000000000E+00 0. -1.
         11    1    3    3    0    0 -0.19483694450E+02  0.76144802561E+01  0.35679509932E+02  0.41359667407E+02  0.00000000000E+00 0.  1.
</event>
<event>
 7    1  0.6610867E-006  0.1143707E+03  0.7561462E-02  0.1252684E+00
         -3   -1    0    0    0  501 -0.00000000000E+00  0.00000000000E+00  0.29464580450E+03  0.29464580450E+03  0.00000000000E+00 0.  1.
          3   -1    0    0  501    0  0.00000000000E+00 -0.00000000000E+00 -0.16587410837E+03  0.16587410837E+03  0.00000000000E+00 0. -1.
         23    2    1    2    0    0 -0.40890823221E+02 -0.61505684980E+02  0.24826536145E+03  0.27509144284E+03  0.92653135494E+02 0.  0.
          5    1    1    2  502    0  0.45661113691E+02  0.85362421558E+02 -0.12689201567E+03  0.15965818600E+03  0.41800000000E+01 0. -1.
         -5    1    1    2    0  502 -0.47702904703E+01 -0.23856736578E+02  0.73983503450E+01  0.25770284033E+02  0.41800000000E+01 0.  1.
        -11    1    3    3    0    0 -0.54400157853E+02 -0.71865855800E+02  0.23959131481E+03  0.25598452402E+03  0.00000000000E+00 0.  1.
         11    1    3    3    0    0  0.13509334632E+02  0.10360170820E+02  0.86740466406E+01  0.19106918818E+02  0.00000000000E+00 0. -1.
</event>
<event>
 7    1  0.6610867E-006  0.1183957E+03  0.7561462E-02  0.1245767E+00
          1   -1    0    0  501    0  0.00000000000E+00  0.00000000000E+00  0.77470640351E+03  0.77470640351E+03  0.00000000000E+00 0. -1.
         -1   -1    0    0    0  501 -0.00000000000E+00 -0.00000000000E+00 -0.27392859417E+02  0.27392859417E+02  0.00000000000E+00 0.  1.
         23    2    1    2    0    0 -0.50964982733E+02  0.31823952522E+02  0.11909370692E+03  0.15873466232E+03  0.86041783884E+02 0.  0.
          5    1    1    2  502    0  0.19074974945E+02 -0.76419166134E+02  0.44985529672E+03  0.45671764145E+03  0.41800000000E+01 0. -1.
         -5    1    1    2    0  502  0.31890007788E+02  0.44595213612E+02  0.17836454045E+03  0.18664695916E+03  0.41800000000E+01 0. -1.
        -11    1    3    3    0    0  0.15041270949E+02  0.33695866129E+02  0.28477329621E+02  0.46611259673E+02  0.00000000000E+00 0. -1.
         11    1    3    3    0    0 -0.66006253682E+02 -0.18719136073E+01  0.90616377302E+02  0.11212340265E+03  0.00000000000E+00 0.  1.
</event>
<event>
 7    1  0.6610867E-006  0.3977746E+03  0.7561462E-02  0.1044553E+00
          2   -1    0    0  501    0  0.00000000000E+00  0.00000000000E+00  0.57961832455E+03  0.57961832455E+03  0.00000000000E+00 0. -1.
         -2   -1    0    0    0  501 -0.00000000000E+00 -0.00000000000E+00 -0.38991204650E+03  0.38991204650E+03  0.00000000000E+00 0.  1.
         23    2    1    2    0    0  0.12121829921E+03  0.37456173597E+03 -0.15307335654E+03  0.43274782099E+03  0.94068347390E+02 0.  0.
          5    1    1    2  502    0 -0.78361706531E+02 -0.25515202571E+03  0.15069382576E+03  0.30654398510E+03  0.41800000000E+01 0. -1.
         -5    1    1    2    0  502 -0.42856592676E+02 -0.11940971025E+03  0.19208580883E+03  0.23023856496E+03  0.41800000000E+01 0. -1.
        -11    1    3    3    0    0  0.12149235827E+03  0.25873954835E+03 -0.13271191758E+03  0.31514917113E+03  0.00000000000E+00 0.  1.
         11    1    3    3    0    0 -0.27405906378E+00  0.11582218762E+03 -0.20361438958E+02  0.11759864986E+03  0.00000000000E+00 0. -1.
</event>
<event>
 7    1  0.6610867E-006  0.1842022E+03  0.7561462E-02  0.1163797E+00
          1   -1    0    0  501    0  0.00000000000E+00  0.00000000000E+00  0.11110821295E+04  0.11110821295E+04  0.00000000000E+00 0. -1.
         -1   -1    0    0    0  501 -0.00000000000E+00 -0.00000000000E+00 -0.32745245337E+02  0.32745245337E+02  0.00000000000E+00 0.  1.
         23    2    1    2    0    0  0.13454768062E+03  0.75326895696E+02  0.46709004845E+03  0.50113782603E+03  0.95858164727E+02 0.  0.
          5    1    1    2  502    0 -0.30018110020E+02 -0.76639843969E+02  0.16621284225E+03  0.18552340537E+03  0.41800000000E+01 0. -1.
         -5    1    1    2    0  502 -0.10452957060E+03  0.13129482733E+01  0.44503399346E+03  0.45716614343E+03  0.41800000000E+01 0. -1.
        -11    1    3    3    0    0  0.18361423617E+02  0.61713328378E+02  0.17714810183E+03  0.18848641001E+03  0.00000000000E+00 0. -1.
         11    1    3    3    0    0  0.11618625700E+03  0.13613567318E+02  0.28994194662E+03  0.31265141602E+03  0.00000000000E+00 0.  1.
</event>
<event>
 7    1  0.6610867E-006  0.1463469E+03  0.7561462E-02  0.1205035E+00
          2   -1    0    0  501    0  0.00000000000E+00  0.00000000000E+00  0.63038321741E+03  0.63038321741E+03  0.00000000000E+00 0. -1.
         -2   -1    0    0    0  501 -0.00000000000E+00 -0.00000000000E+00 -0.37665230297E+02  0.37665230297E+02  0.00000000000E+00 0.  1.
         23    2    1    2    0    0  0.46094109915E+02 -0.88975630799E+02  0.18210972212E+03  0.22726786496E+03  0.91898866733E+02 0.  0.
          5    1    1    2  502    0 -0.61635107737E+02  0.11375564001E+03  0.35399312225E+03  0.37691887076E+03  0.41800000000E+01 0. -1.
         -5    1    1    2    0  502  0.15540997823E+02 -0.24780009207E+02  0.56615142745E+02  0.63861711985E+02  0.41800000000E+01 0. -1.
        -11    1    3    3    0    0 -0.62260072737E+01  0.15582876212E+02  0.39090300850E+02  0.42539873273E+02  0.00000000000E+00 0. -1.
         11    1    3    3    0    0  0.52320117188E+02 -0.10455850701E+03  0.14301942127E+03  0.18472799168E+03  0.00000000000E+00 0.  1.
</event>
<event>
 7    1  0.6610867E-006  0.1165310E+03  0.7561462E-02  0.1248932E+00
          2   -1    0    0  501    0  0.00000000000E+00  0.00000000000E+00  0.33815541491E+02  0.33815541491E+02  0.00000000000E+00 0. -1.
         -2   -1    0    0    0  501 -0.00000000000E+00 -0.00000000000E+00 -0.43424140626E+03  0.43424140626E+03  0.00000000000E+00 0.  1.
         23    2    1    2    0    0 -0.53460014011E+02 -0.24586081932E+02 -0.20414379175E+03  0.23106622549E+03  0.90854082624E+02 0.  0.
          5    1    1    2  502    0 -0.32326561180E+02  0.29973918963E+02 -0.46258319204E+02  0.64037074194E+02  0.41800000000E+01 0. -1.
         -5    1    1    2    0  502  0.85786575191E+02 -0.53878370317E+01 -0.15002375382E+03  0.17295364807E+03  0.41800000000E+01 0.  1.
        -11    1    3    3    0    0 -0.38387612672E+02 -0.55991772380E+02 -0.16633938757E+03  0.17965934219E+03  0.00000000000E+00 0.  1.
         11    1    3    3    0    0 -0.15072401338E+02  0.31405690448E+02 -0.37804404177E+02  0.51406883292E+02  0.00000000000E+00 0. -1.
</event>
<event>
 7    1  0.6610867E-006  0.1846836E+03  0.7561462E-02  0.1163346E+00
          1   -1    0    0  501    0  0.00000000000E+00  0.00000000000E+00  0.14319087488E+03  0.14319087488E+03  0.00000000000E+00 0. -1.
         -1   -1    0    0    0  501 -0.00000000000E+00 -0.00000000000E+00 -0.61421298313E+03  0.61421298313E+03  0.00000000000E+00 0.  1.
         23    2    1    2    0    0  0.13107497448E+03 -0.12647901210E+03 -0.49538919184E+03  0.53509058611E+03  0.87942563736E+02 0.  0.
          5    1    1    2  502    0 -0.12153594334E+03  0.11517098298E+03 -0.26140961569E+02  0.16951744192E+03  0.41800000000E+01 0. -1.
         -5    1    1    2    0  502 -0.95390311415E+01  0.11308029115E+02  0.50508045159E+02  0.52795829981E+02  0.41800000000E+01 0. -1.
        -11    1    3    3    0    0  0.93003438947E+02 -0.62495065505E+02 -0.39188618606E+03  0.40759054907E+03  0.00000000000E+00 0.  1.
         11    1    3    3    0    0  0.38071535532E+02 -0.63983946594E+02 -0.10350300578E+03  0.12750003704E+03  0.00000000000E+00 0. -1.
</event>
<event>
 7    1  0.6610867E-006  0.9426643E+02  0.7561462E-02  0.1292837E+00
          1   -1    0    0  501    0  0.00000000000E+00  0.00000000000E+00  0.68491651901E+02  0.68491651901E+02  0.00000000000E+00 0. -1.
         -1   -1    0    0    0  501 -0.00000000000E+00 -0.00000000000E+00 -0.18400001950E+03  0.18400001950E+03  0.00000000000E+00 0.  1.
         23    2    1    2    0    0  0.25342753262E+02  0.10248413389E+02 -0.58754887970E+02  0.11244646842E+03  0.91895518277E+02 0.  0.
          5    1    1    2  502    0 -0.51552589647E+02  0.35893380171E+02 -0.10040858553E+01  0.62964155102E+02  0.41800000000E+01 0. -1.
         -5    1    1    2    0  502  0.26209836385E+02 -0.46141793559E+02 -0.55749393773E+02  0.77081047880E+02  0.41800000000E+01 0. -1.
        -11    1    3    3    0    0  0.45829314788E+02  0.19577111500E+02 -0.33181251739E+00  0.49836728305E+02  0.00000000000E+00 0. -1.
         11    1    3    3    0    0 -0.20486561526E+02 -0.93286981116E+01 -0.58423075453E+02  0.62609740113E+02  0.00000000000E+00 0.  1.
</event>
<event>
 7    1  0.6610867E-006  0.1072589E+03  0.7561462E-02  0.1265732E+00
          2   -1    0    0  501    0  0.00000000000E+00  0.00000000000E+00  0.17967217562E+04  0.17967217562E+04  0.00000000000E+00 0.  1.
         -2   -1    0    0    0  501 -0.00000000000E+00 -0.00000000000E+00 -0.14143715418E+02  0.14143715418E+02  0.00000000000E+00 0. -1.
         23    2    1    2    0    0  0.17187658628E+02  0.78012542278E+02  0.35267499715E+03  0.37328027640E+03  0.92612843441E+02 0.  0.
          5    1    1    2  502    0 -0.39954263880E+02 -0.18722081599E+02  0.15822167656E+03  0.16431199249E+03  0.41800000000E+01 0.  1.
         -5    1    1    2    0  502  0.22766605252E+02 -0.59290460679E+02  0.12716813671E+04  0.12732732028E+04  0.41800000000E+01 0.  1.
        -11    1    3    3    0    0 -0.26587633195E+02  0.42720893790E+02  0.26044294003E+03  0.26525931090E+03  0.00000000000E+00 0.  1.
         11    1    3    3    0    0  0.43775291823E+02  0.35291648488E+02  0.92232057117E+02  0.10802096550E+03  0.00000000000E+00 0. -1.
</event>
<event>
 7    1  0.6610867E-006  0.1351943E+03  0.7561462E-02  0.1219946E+00
         -2   -1    0    0    0  501 -0.00000000000E+00  0.00000000000E+00  0.37769872865E+02  0.37769872865E+02  0.00000000000E+00 0.  1.
          2   -1    0    0  501    0  0.00000000000E+00 -0.00000000000E+00 -0.56609163266E+03  0.56609163266E+03  0.00000000000E+00 0. -1.
         23    2    1    2    0    0 -0.72145000166E+02  0.64728161302E+02 -0.24600050482E+03  0.28020938820E+03  0.92770776354E+02 0.  0.
          5    1    1    2  502    0  0.90185774433E+02 -0.21270267846E+02 -0.24935462944E+03  0.26604717971E+03  0.41800000000E+01 0. -1.
         -5    1    1    2    0  502 -0.18040774267E+02 -0.43457893456E+02 -0.32966625524E+02  0.57604937621E+02  0.41800000000E+01 0. -1.
        -11    1    3    3    0    0 -0.75279896771E+02  0.10421229757E+02 -0.10968460038E+03  0.13344053525E+03  0.00000000000E+00 0.  1.
         11    1    3    3    0    0  0.31348966055E+01  0.54306931545E+02 -0.13631590444E+03  0.14676885294E+03  0.00000000000E+00 0. -1.
</event>
<event>
 7    1  0.6610867E-006  0.8505108E+02  0.7561462E-02  0.1315299E+00
         -4   -1    0    0    0  501 -0.00000000000E+00  0.00000000000E+00  0.92291335993E+02  0.92291335993E+02  0.00000000000E+00 0. -1.
          4   -1    0    0  501    0  0.00000000000E+00 -0.00000000000E+00 -0.18550981042E+03  0.18550981042E+03  0.00000000000E+00 0.  1.
         23    2    1    2    0    0 -0.64638547572E+02  0.32022134856E+02 -0.44879138181E+02  0.12552570407E+03  0.92406744260E+02 0.  0.
          5    1    1    2  502    0  0.30471915749E+01 -0.34610117150E+02 -0.76688067880E+02  0.84295182192E+02  0.41800000000E+01 0.  1.
         -5    1    1    2    0  502  0.61591355997E+02  0.25879822940E+01  0.28348731631E+02  0.67980260157E+02  0.41800000000E+01 0.  1.
        -11    1    3    3    0    0 -0.24865399265E+02  0.53573948191E+01 -0.67817511692E+02  0.72430688606E+02  0.00000000000E+00 0.  1.
         11    1    3    3    0    0 -0.39773148307E+02  0.26664740037E+02  0.22938373511E+02  0.53095015461E+02  0.00000000000E+00 0. -1.
</event>
<event>
 7    1  0.6610867E-006  0.9187226E+02  0.7561462E-02  0.1298380E+00
         -2   -1    0    0    0  501 -0.00000000000E+00  0.00000000000E+00  0.37520916266E+02  0.37520916266E+02  0.00000000000E+00 0.  1.
          2   -1    0    0  501    0  0.00000000000E+00 -0.00000000000E+00 -0.42502180171E+03  0.42502180171E+03  0.00000000000E+00 0. -1.
         23    2    1    2    0    0  0.26163229872E+02 -0.35209145984E+02 -0.81266323067E+02  0.12884904286E+03  0.89853558765E+02 0.  0.
          5    1    1    2  502    0 -0.58997709813E+02  0.35868166056E+02 -0.28739576005E+03  0.29560285925E+03  0.41800000000E+01 0.  1.
         -5    1    1    2    0  502  0.32834479941E+02 -0.65902007188E+00 -0.18838802324E+02  0.38090815868E+02  0.41800000000E+01 0.  1.
        -11    1    3    3    0    0  0.23424040580E+02  0.17153047862E+02  0.34311089630E+01  0.29235000201E+02  0.00000000000E+00 0.  1.
         11    1    3    3    0    0  0.27391892922E+01 -0.52362193846E+02 -0.84697432030E+02  0.99614042659E+02  0.00000000000E+00 0. -1.
</event>
<event>
 7    1  0.6610867E-006  0.7418982E+02  0.7561462E-02  0.1346398E+00
          2   -1    0    0  501    0  0.00000000000E+00  0.00000000000E+00  0.13014742222E+04  0.13014742222E+04  0.00000000000E+00 0. -1.
         -2   -1    0    0    0  501 -0.00000000000E+00 -0.00000000000E+00 -0.10156543686E+02  0.10156543686E+02  0.00000000000E+00 0.  1.
         23    2    1    2    0    0 -0.31360438138E+02  0.33590510766E+01  0.44108876062E+03  0.45167056136E+03  0.91936069904E+02 0.  0.
          5    1    1    2  502    0  0.88874808660E+01 -0.20503108036E+02  0.81156818099E+03  0.81188653736E+03  0.41800000000E+01 0. -1.
         -5    1    1    2    0  502  0.22472957272E+02  0.17144056959E+02  0.38660736959E+02  0.48073667218E+02  0.41800000000E+01 0. -1.
        -11    1    3    3    0    0  0.10733324500E+02  0.39907638957E+02  0.17662029726E+03  0.18139060976E+03  0.00000000000E+00 0. -1.
         11    1    3    3    0    0 -0.42093762638E+02 -0.36548587881E+02  0.26446846335E+03  0.27027995160E+03  0.00000000000E+00 0.  1.
</event>
<event>
 7    1  0.6610867E-006  0.1674345E+03  0.7561462E-02  0.1180550E+00
          2   -1    0    0  501    0  0.00000000000E+00  0.00000000000E+00  0.34567159684E+03  0.34567159684E+03  0.00000000000E+00 0. -1.
         -2   -1    0    0    0  501 -0.00000000000E+00 -0.00000000000E+00 -0.93633210962E+02  0.93633210962E+02  0.00000000000E+00 0.  1.
         23    2    1    2    0    0 -0.12585333100E+03 -0.68072802308E+02  0.96770972879E+02  0.19389285396E+03  0.88072982739E+02 0.  0.
          5    1    1    2  502    0  0.56945932530E+02 -0.26257425992E+02  0.18533481796E+02  0.65522927277E+02  0.41800000000E+01 0.  1.
         -5    1    1    2    0  502  0.68907398468E+02  0.94330228300E+02  0.13673393120E+03  0.17988902656E+03  0.41800000000E+01 0.  1.
        -11    1    3    3    0    0 -0.86517335183E+02 -0.75818621320E+02  0.34986053682E+02  0.12024032842E+03  0.00000000000E+00 0.  1.
         11    1    3    3    0    0 -0.39335995815E+02  0.77458190112E+01  0.61784919197E+02  0.73652525544E+02  0.00000000000E+00 0. -1.
</event>
<event>
 7    1  0.6610867E-006  0.1722667E+03  0.7561462E-02  0.1175504E+00
         -1   -1    0    0    0  501 -0.00000000000E+00  0.00000000000E+00  0.51562825681E+03  0.51562825681E+03  0.00000000000E+00 0.  1.
          1   -1    0    0  501    0  0.00000000000E+00 -0.00000000000E+00 -0.65508927058E+02  0.65508927058E+02  0.00000000000E+00 0. -1.
         23    2    1    2    0    0 -0.10287540998E+03  0.76564940248E+02  0.30927264169E+03  0.35325779154E+03  0.11267635215E+03 0.  0.
          5    1    1    2  502    0  0.82656530661E+02 -0.11027397986E+03  0.95491341379E+02  0.16771559669E+03  0.41800000000E+01 0.  1.
         -5    1    1    2    0  502  0.20218879320E+02  0.33709039612E+02  0.45355346685E+02  0.60163795637E+02  0.41800000000E+01 0.  1.
        -11    1    3    3    0    0 -0.91001943190E+02  0.13815865713E+01  0.13199571655E+03  0.16033131832E+03  0.00000000000E+00 0.  1.
         11    1    3    3    0    0 -0.11873466790E+02  0.75183353677E+02  0.17727692514E+03  0.19292647323E+03  0.00000000000E+00 0. -1.
</event>
<event>
 7    1  0.6610867E-006  0.9651179E+02  0.7561462E-02  0.1287807E+00
          1   -1    0    0  501    0  0.00000000000E+00  0.00000000000E+00  0.89026684833E+03  0.89026684833E+03  0.00000000000E+00 0. -1.
         -1   -1    0    0    0  501 -0.00000000000E+00 -0.00000000000E+00 -0.18959282327E+02  0.18959282327E+02  0.00000000000E+00 0.  1.
         23    2    1    2    0    0 -0.19341357040E+02 -0.22652344563E+01  0.14831790159E+03  0.17523747170E+03  0.91272954235E+02 0.  0.
          5    1    1    2  502    0 -0.43498311380E+00  0.49053763727E+02  0.13331712127E+03  0.14211751535E+03  0.41800000000E+01 0. -1.
         -5    1    1    2    0  502  0.19776340154E+02 -0.46788529271E+02  0.58967254315E+03  0.59187114361E+03  0.41800000000E+01 0. -1.
        -11    1    3    3    0    0 -0.55496013825E+02 -0.84705985488E+01  0.98438868638E+02  0.11332153127E+03  0.00000000000E+00 0.  1.
         11    1    3    3    0    0  0.36154656785E+02  0.62053640925E+01  0.49879032952E+02  0.61915940427E+02  0.00000000000E+00 0. -1.
</event>
<event>
 7    1  0.6610867E-006  0.9218547E+02  0.7561462E-02  0.1297644E+00
         -1   -1    0    0    0  501 -0.00000000000E+00  0.00000000000E+00  0.38810731007E+02  0.38810731007E+02  0.00000000000E+00 0.  1.
          1   -1    0    0  501    0  0.00000000000E+00 -0.00000000000E+00 -0.38823585812E+03  0.38823585812E+03  0.00000000000E+00 0. -1.
         23    2    1    2    0    0 -0.33152426958E+02 -0.23944200743E+01 -0.69895948920E+02  0.11900592680E+03  0.90399946223E+02 0.  0.
          5    1    1    2  502    0  0.49628368687E+02 -0.25776765776E+02 -0.46928223608E+02  0.73124190275E+02  0.41800000000E+01 0. -1.
         -5    1    1    2    0  502 -0.16475941729E+02  0.28171185850E+02 -0.23260095459E+03  0.23491647206E+03  0.41800000000E+01 0. -1.
        -11    1    3    3    0    0 -0.39403421488E+02 -0.40657905720E+02 -0.33266873400E+02  0.65668712400E+02  0.00000000000E+00 0. -1.
         11    1    3    3    0    0  0.62509945294E+01  0.38263485646E+02 -0.36629075520E+02  0.53337214399E+02  0.00000000000E+00 0.  1.
</event>
<event>
 7    1  0.6610867E-006  0.1100948E+03  0.7561462E-02  0.1260395E+00
          1   -1    0    0  501    0  0.00000000000E+00  0.00000000000E+00  0.39207416709E+03  0.39207416709E+03  0.00000000000E+00 0. -1.
         -1   -1    0    0    0  501 -0.00000000000E+00 -0.00000000000E+00 -0.33431323483E+02  0.33431323483E+02  0.00000000000E+00 0.  1.
         23    2    1    2    0    0  0.18545066615E+02 -0.29312405637E+02  0.12843861390E+03  0.16124877212E+03  0.91112855021E+02 0.  0.
          5    1    1    2  502    0 -0.10623178639E+02 -0.48219332480E+02  0.11366937838E+03  0.12400062875E+03  0.41800000000E+01 0.  1.
         -5    1    1    2    0  502 -0.79218879765E+01  0.77531738117E+02  0.11653485132E+03  0.14025608970E+03  0.41800000000E+01 0.  1.
        -11    1    3    3    0    0 -0.31403615837E+02  0.52631966497E+01  0.70244675074E+02  0.77124592076E+02  0.00000000000E+00 0. -1.
         11    1    3    3    0    0  0.49948682453E+02 -0.34575602287E+02  0.58193938825E+02  0.84124180045E+02  0.00000000000E+00 0.  1.
</event>
<event>
 7    1  0.6610867E-006  0.9883245E+02  0.7561462E-02  0.1282770E+00
         -2   -1    0    0    0  501 -0.00000000000E+00  0.00000000000E+00  0.11679236834E+02  0.11679236834E+02  0.00000000000E+00 0. -1.
          2   -1    0    0  501    0  0.00000000000E+00 -0.00000000000E+00 -0.11404910421E+04  0.11404910421E+04  0.00000000000E+00 0.  1.
         23    2    1    2    0    0 -0.58635171156E+01 -0.18058004889E+02 -0.31466728795E+03  0.32825309148E+03  0.91510204823E+02 0.  0.
          5    1    1    2  502    0  0.57396960273E+02  0.95373561435E+01 -0.62284840567E+03  0.62557412115E+03  0.41800000000E+01 0.  1.
         -5    1    1    2    0  502 -0.51533443157E+02  0.85206487452E+01 -0.19129611162E+03  0.19834306628E+03  0.41800000000E+01 0.  1.
        -11    1    3    3    0    0  0.27864931593E+02  0.21317914441E+02 -0.19037293856E+03  0.19357883052E+03  0.00000000000E+00 0.  1.
         11    1    3    3    0    0 -0.33728448709E+02 -0.39375919330E+02 -0.12429434940E+03  0.13467426097E+03  0.00000000000E+00 0. -1.
</event>
<event>
 7    1  0.6610867E-006  0.1125646E+03  0.7561462E-02  0.1255893E+00
         -2   -1    0    0    0  501 -0.00000000000E+00  0.00000000000E+00  0.28491010610E+02  0.28491010610E+02  0.00000000000E+00 0.  1.
          2   -1    0    0  501    0  0.00000000000E+00 -0.00000000000E+00 -0.57252507448E+03  0.57252507448E+03  0.00000000000E+00 0. -1.
         23    2    1    2    0    0  0.50993182220E+02 -0.11207966357E+01 -0.19454420782E+03  0.22633967559E+03  0.10382985664E+03 0.  0.
          5    1    1    2  502    0 -0.82676017377E+02 -0.29779795314E+02 -0.19517433479E+03  0.21408562170E+03  0.41800000000E+01 0. -1.
         -5    1    1    2    0  502  0.31682835157E+02  0.30900591950E+02 -0.15431552125E+03  0.16059078780E+03  0.41800000000E+01 0. -1.
        -11    1    3    3    0    0  0.18374032575E+02  0.37733448354E+02 -0.23863777595E+02  0.48279375295E+02  0.00000000000E+00 0.  1.
         11    1    3    3    0    0  0.32619149645E+02 -0.38854244989E+02 -0.17068043023E+03  0.17806030029E+03  0.00000000000E+00 0. -1.
</event>
<event>
 7    1  0.6610867E-006  0.1724908E+03  0.7561462E-02  0.1175275E+00
          1   -1    0    0  501    0  0.00000000000E+00  0.00000000000E+00  0.57787215963E+02  0.57787215963E+02  0.00000000000E+00 0. -1.
         -1   -1    0    0    0  501 -0.00000000000E+00 -0.00000000000E+00 -0.51928557749E+03  0.51928557749E+03  0.00000000000E+00 0.  1.
         23    2    1    2    0    0 -0.13305644394E+03  0.15859248897E+02 -0.19722753929E+03  0.25544835296E+03  0.91649472032E+02 0.  0.
          5    1    1    2  502    0  0.15043142152E+03  0.10828642668E+02 -0.22476722235E+03  0.27071137532E+03  0.41800000000E+01 0.  1.
         -5    1    1    2    0  502 -0.17374977581E+02 -0.26687891565E+02 -0.39503599888E+02  0.50913065182E+02  0.41800000000E+01 0.  1.
        -11    1    3    3    0    0 -0.88032914174E+02  0.53744581346E+02 -0.13362437710E+03  0.16880091279E+03  0.00000000000E+00 0.  1.
         11    1    3    3    0    0 -0.45023529767E+02 -0.37885332449E+02 -0.63603162192E+02  0.86647440172E+02  0.00000000000E+00 0. -1.
</event>
<event>
 7    1  0.6610867E-006  0.1223886E+03  0.7561462E-02  0.1239208E+00
         -3   -1    0    0    0  501 -0.00000000000E+00  0.00000000000E+00  0.77342471705E+02  0.77342471705E+02  0.00000000000E+00 0.  1.
          3   -1    0    0  501    0  0.00000000000E+00 -0.00000000000E+00 -0.30284956781E+03  0.30284956781E+03  0.00000000000E+00 0. -1.
         23    2    1    2    0    0  0.57641665896E+02  0.78161568288E+02 -0.47152537304E+02  0.14167018307E+03  0.91734871193E+02 0.  0.
          5    1    1    2  502    0 -0.90134237695E+02 -0.47378145701E+02 -0.16056184824E+03  0.19017478541E+03  0.41800000000E+01 0. -1.
         -5    1    1    2    0  502  0.32492571798E+02 -0.30783422587E+02 -0.17792710556E+02  0.48347071030E+02  0.41800000000E+01 0. -1.
        -11    1    3    3    0    0  0.26866207708E+02  0.26250617111E+02  0.26856719101E+02  0.46175441267E+02  0.00000000000E+00 0.  1.
         11    1    3    3    0    0  0.30775458188E+02  0.51910951176E+02 -0.74009256405E+02  0.95494741804E+02  0.00000000000E+00 0. -1.
</event>
<event>
 7    1  0.6610867E-006  0.1001004E+03  0.7561462E-02  0.1280085E+00
         -1   -1    0    0    0  501 -0.00000000000E+00  0.00000000000E+00  0.22550592586E+03  0.22550592586E+03  0.00000000000E+00 0.  1.
          1   -1    0    0  501    0  0.00000000000E+00 -0.00000000000E+00 -0.81887268968E+02  0.81887268968E+02  0.00000000000E+00 0. -1.
         23    2    1    2    0    0 -0.27532690964E+02  0.69403355386E+02  0.46200798224E+02  0.13214171087E+03  0.98752433810E+02 0.  0.
          5    1    1    2  502    0 -0.18206708550E+02 -0.44294759906E+02 -0.15731118692E+02  0.50581127772E+02  0.41800000000E+01 0.  1.
         -5    1    1    2    0  502  0.45739399514E+02 -0.25108595480E+02  0.11314897736E+03  0.12467035619E+03  0.41800000000E+01 0.  1.
        -11    1    3    3    0    0 -0.46110110327E+02  0.66586463709E+02  0.66269580969E+02  0.10464968603E+03  0.00000000000E+00 0.  1.
         11    1    3    3    0    0  0.18577419363E+02  0.28168916771E+01 -0.20068782745E+02  0.27492024840E+02  0.00000000000E+00 0. -1.
</event>
<event>
 7    1  0.6610867E-006  0.1164930E+03  0.7561462E-02  0.1248997E+00
         -2   -1    0    0    0  501 -0.00000000000E+00  0.00000000000E+00  0.31351967197E+02  0.31351967197E+02  0.00000000000E+00 0. -1.
          2   -1    0    0  501    0  0.00000000000E+00 -0.00000000000E+00 -0.56129806977E+03  0.56129806977E+03  0.00000000000E+00 0.  1.
         23    2    1    2    0    0  0.72787889003E+02 -0.39701477759E+01 -0.18816187634E+03  0.22146609149E+03  0.91260610961E+02 0.  0.
          5    1    1    2  502    0 -0.79066923607E+02  0.49007619404E+02 -0.27452669866E+03  0.28988912682E+03  0.41800000000E+01 0.  1.
         -5    1    1    2    0  502  0.62790346035E+01 -0.45037471629E+02 -0.67257527574E+02  0.81294818664E+02  0.41800000000E+01 0.  1.
        -11    1    3    3    0    0  0.61102637389E+02  0.22623581150E+02 -0.17979550259E+03  0.19123750017E+03  0.00000000000E+00 0.  1.
         11    1    3    3    0    0  0.11685251614E+02 -0.26593728926E+02 -0.83663737511E+01  0.30228591320E+02  0.00000000000E+00 0. -1.
</event>
<event>
 7    1  0.6610867E-006  0.1990157E+03  0.7561462E-02  0.1150572E+00
         -1   -1    0    0    0  501 -0.00000000000E+00  0.00000000000E+00  0.40690343533E+03  0.40690343533E+03  0.00000000000E+00 0.  1.
          1   -1    0    0  501    0  0.00000000000E+00 -0.00000000000E+00 -0.12309712016E+03  0.12309712016E+03  0.00000000000E+00 0. -1.
         23    2    1    2    0    0 -0.16720672941E+03  0.14491412433E+02  0.25482185836E+03  0.31868171932E+03  0.91955246386E+02 0.  0.
          5    1    1    2  502    0  0.11874242980E+03  0.49254748822E+02  0.10632761463E+02  0.12905937754E+03  0.41800000000E+01 0. -1.
         -5    1    1    2    0  502  0.48464299610E+02 -0.63746161255E+02  0.18351695344E+02  0.82259458626E+02  0.41800000000E+01 0. -1.
        -11    1    3    3    0    0 -0.17443126969E+03  0.25266494011E+02  0.24731666499E+03  0.30369424813E+03  0.00000000000E+00 0.  1.
         11    1    3    3    0    0  0.72245402786E+01 -0.10775081578E+02  0.75051933699E+01  0.14987471194E+02  0.00000000000E+00 0. -1.
</event>
<event>
 7    1  0.6610867E-006  0.1263617E+03  0.7561462E-02  0.1232956E+00
          1   -1    0    0  501    0  0.00000000000E+00  0.00000000000E+00  0.19271114591E+03  0.19271114591E+03  0.00000000000E+00 0. -1.
         -1   -1    0    0    0  501 -0.00000000000E+00 -0.00000000000E+00 -0.10128106478E+03  0.10128106478E+03  0.00000000000E+00 0.  1.
         23    2    1    2    0    0 -0.29484371254E+02 -0.49828417170E+02  0.51357927985E+02  0.12848848978E+03  0.10256439895E+03 0.  0.
          5    1    1    2  502    0  0.88920900429E+02  0.45633336133E+02  0.33096845934E+02  0.10536698492E+03  0.41800000000E+01 0. -1.
         -5    1    1    2    0  502 -0.59436529175E+02  0.41950810378E+01  0.69753072157E+01  0.60136735994E+02  0.41800000000E+01 0.  1.
        -11    1    3    3    0    0  0.83919723187E+01  0.15395786319E+02 -0.18637744700E+02  0.25589469773E+02  0.00000000000E+00 0. -1.
         11    1    3    3    0    0 -0.37876343573E+02 -0.65224203489E+02  0.69995672685E+02  0.10289902000E+03  0.00000000000E+00 0.  1.
</event>
<event>
 7    1  0.6610867E-006  0.9776082E+02  0.7561462E-02  0.1285076E+00
         -1   -1    0    0    0  501 -0.00000000000E+00  0.00000000000E+00  0.95254822199E+02  0.95254822199E+02  0.00000000000E+00 0.  1.
          1   -1    0    0  501    0  0.00000000000E+00 -0.00000000000E+00 -0.13597712161E+03  0.13597712161E+03  0.00000000000E+00 0. -1.
         23    2    1    2    0    0  0.16428572830E+02  0.21980614526E+02 -0.22535070295E+02  0.96372730024E+02  0.89592568212E+02 0.  0.
          5    1    1    2  502    0 -0.11401502358E+02  0.43663904380E+02  0.28951372922E+02  0.53779040488E+02  0.41800000000E+01 0. -1.
         -5    1    1    2    0  502 -0.50270704721E+01 -0.65644518907E+02 -0.47138602040E+02  0.81080173300E+02  0.41800000000E+01 0.  1.
        -11    1    3    3    0    0  0.18664642023E+02 -0.28300116084E+02  0.11290844021E+02  0.35731618924E+02  0.00000000000E+00 0.  1.
         11    1    3    3    0    0 -0.22360691928E+01  0.50280730610E+02 -0.33825914316E+02  0.60641111100E+02  0.00000000000E+00 0. -1.
</event>
<event>
 7    1  0.6610867E-006  0.1476311E+03  0.7561462E-02  0.1203414E+00
         -2   -1    0    0    0  501 -0.00000000000E+00  0.00000000000E+00  0.17956772680E+02  0.17956772680E+02  0.00000000000E+00 0.  1.
          2   -1    0    0  501    0  0.00000000000E+00 -0.00000000000E+00 -0.16607951153E+04  0.16607951153E+04  0.00000000000E+00 0. -1.
         23    2    1    2    0    0 -0.87222634978E+02 -0.55629131675E+02 -0.35064961170E+03  0.37640735010E+03  0.89582111377E+02 0.  0.
          5    1    1    2  502    0  0.11890244489E+03  0.51761024074E+02 -0.10695362813E+04  0.10773775217E+04  0.41800000000E+01 0. -1.
         -5    1    1    2    0  502 -0.31679809916E+02  0.38681076010E+01 -0.22265244962E+03  0.22496701610E+03  0.41800000000E+01 0. -1.
        -11    1    3    3    0    0 -0.27292826269E+01  0.19845828776E+02 -0.27873522104E+02  0.34325488168E+02  0.00000000000E+00 0.  1.
         11    1    3    3    0    0 -0.84493352352E+02 -0.75474960451E+02 -0.32277608960E+03  0.34208186193E+03  0.00000000000E+00 0. -1.
</event>
<event>
 7    1  0.6610867E-006  0.8174623E+02  0.7561462E-02  0.1324168E+00
         -1   -1    0    0    0  501 -0.00000000000E+00  0.00000000000E+00  0.66874806530E+02  0.66874806530E+02  0.00000000000E+00 0.  1.
          1   -1    0    0  501    0  0.00000000000E+00 -0.00000000000E+00 -0.22146029327E+03  0.22146029327E+03  0.00000000000E+00 0. -1.
         23    2    1    2    0    0  0.24767193051E+02  0.41759157977E+02 -0.39852467968E+02  0.11178400572E+03  0.92467311004E+02 0.  0.
          5    1    1    2  502    0 -0.26853529119E+02  0.16486519375E+01  0.20733914275E+02  0.34222765530E+02  0.41800000000E+01 0.  1.
         -5    1    1    2    0  502  0.20863360674E+01 -0.43407809915E+02 -0.13546693304E+03  0.14232832855E+03  0.41800000000E+01 0.  1.
        -11    1    3    3    0    0  0.39635937441E+02 -0.82060481169E+01 -0.43633275810E+02  0.59516464281E+02  0.00000000000E+00 0. -1.
         11    1    3    3    0    0 -0.14868744390E+02  0.49965206094E+02  0.37808078422E+01  0.52267541436E+02  0.00000000000E+00 0.  1.
</event>
<event>
 7    1  0.6610867E-006  0.9974285E+02  0.7561462E-02  0.1280838E+00
          1   -1    0    0  501    0  0.00000000000E+00  0.00000000000E+00  0.45475696268E+03  0.45475696268E+03  0.00000000000E+00 0. -1.
         -1   -1    0    0    0  501 -0.00000000000E+00 -0.00000000000E+00 -0.29232529183E+02  0.29232529183E+02  0.00000000000E+00 0.  1.
         23    2    1    2    0    0 -0.24839093107E+02 -0.23069887147E+02  0.13576995226E+03  0.16656974348E+03  0.90348211208E+02 0.  0.
          5    1    1    2  502    0 -0.21888124829E+01  0.65104501832E+02  0.23162888646E+03  0.24065078538E+03  0.41800000000E+01 0. -1.
         -5    1    1    2    0  502  0.27027905590E+02 -0.42034614685E+02  0.58125594776E+02  0.76768963002E+02  0.41800000000E+01 0. -1.
        -11    1    3    3    0    0 -0.52313368149E+02 -0.21448766328E+02  0.46661333887E+02  0.73307694987E+02  0.00000000000E+00 0.  1.
         11    1    3    3    0    0  0.27474275042E+02 -0.16211208186E+01  0.89108618371E+02  0.93262048497E+02  0.00000000000E+00 0. -1.
</event>
<event>
 7    1  0.6610867E-006  0.1034307E+03  0.7561462E-02  0.1273243E+00
         -2   -1    0    0    0  501 -0.00000000000E+00  0.00000000000E+00  0.54103386848E+03  0.54103386848E+03  0.00000000000E+00 0.  1.
          2   -1    0    0  501    0  0.00000000000E+00 -0.00000000000E+00 -0.50859963690E+02  0.50859963690E+02  0.00000000000E+00 0. -1.
         23    2    1    2    0    0 -0.67981690025E+02  0.53688019819E+02  0.38961622466E+03  0.40951858093E+03  0.91655616039E+02 0.  0.
          5    1    1    2  502    0  0.20998169990E+02 -0.64940737165E+02 -0.25572551581E+01  0.68426854673E+02  0.41800000000E+01 0. -1.
         -5    1    1    2    0  502  0.46983520034E+02  0.11252717346E+02  0.10311493529E+03  0.11394839657E+03  0.41800000000E+01 0. -1.
        -11    1    3    3    0    0 -0.23896339393E+01  0.12079097551E+02  0.80237897596E-01  0.12313463613E+02  0.00000000000E+00 0. -1.
         11    1    3    3    0    0 -0.65592056085E+02  0.41608922268E+02  0.38953598677E+03  0.39720511731E+03  0.00000000000E+00 0.  1.
</event>
<event>
 7    1  0.6610867E-006  0.1445483E+03  0.7561462E-02  0.1207337E+00
         -2   -1    0    0    0  501 -0.00000000000E+00  0.00000000000E+00  0.63992281301E+02  0.63992281301E+02  0.00000000000E+00 0.  1.
          2   -1    0    0  501    0  0.00000000000E+00 -0.00000000000E+00 -0.37945290811E+03  0.37945290811E+03  0.00000000000E+00 0. -1.
         23    2    1    2    0    0  0.10537544505E+03 -0.31561529940E+02 -0.13907228851E+03  0.20080594524E+03  0.94243363797E+02 0.  0.
          5    1    1    2  502    0 -0.86836873946E+02  0.74567508902E+02 -0.95713715080E+02  0.14926333681E+03  0.41800000000E+01 0. -1.
         -5    1    1    2    0  502 -0.18538571101E+02 -0.43005978963E+02 -0.80674623217E+02  0.93375907365E+02  0.41800000000E+01 0. -1.
        -11    1    3    3    0    0  0.79823063680E+02  0.82378852275E+01 -0.12981019823E+03  0.15261150617E+03  0.00000000000E+00 0. -1.
         11    1    3    3    0    0  0.25552381367E+02 -0.39799415167E+02 -0.92620902763E+01  0.48194439072E+02  0.00000000000E+00 0.  1.
</event>
<event>
 7    1  0.6610867E-006  0.1000525E+03  0.7561462E-02  0.1280186E+00
         -2   -1    0    0    0  501 -0.00000000000E+00  0.00000000000E+00  0.45070944033E+02  0.45070944033E+02  0.00000000000E+00 0.  1.
          2   -1    0    0  501    0  0.00000000000E+00 -0.00000000000E+00 -0.44607943456E+03  0.44607943456E+03  0.00000000000E+00 0. -1.
         23    2    1    2    0    0  0.41604136138E+02  0.26837199951E+02 -0.52912936078E+02  0.11796259747E+03  0.93081986188E+02 0.  0.
          5    1    1    2  502    0  0.10749361023E+02  0.29337931060E+02 -0.23071653893E+03  0.23286016555E+03  0.41800000000E+01 0.  1.
         -5    1    1    2    0  502 -0.52353497162E+02 -0.56175131011E+02 -0.11737901551E+03  0.14032761557E+03  0.41800000000E+01 0.  1.
        -11    1    3    3    0    0  0.45636415949E+01  0.48536332924E+02  0.13537689707E+01  0.48769202667E+02  0.00000000000E+00 0.  1.
         11    1    3    3    0    0  0.37040494544E+02 -0.21699132973E+02 -0.54266705048E+02  0.69193394805E+02  0.00000000000E+00 0. -1.
</event>
<event>
 7    1  0.6610867E-006  0.1705781E+03  0.7561462E-02  0.1177246E+00
          1   -1    0    0  501    0  0.00000000000E+00  0.00000000000E+00  0.15027116803E+04  0.15027116803E+04  0.00000000000E+00 0. -1.
         -1   -1    0    0    0  501 -0.00000000000E+00 -0.00000000000E+00 -0.21468729552E+02  0.21468729552E+02  0.00000000000E+00 0.  1.
         23    2    1    2    0    0  0.27263080648E+02  0.12858901635E+03  0.46513541215E+03  0.49199828204E+03  0.91831079744E+02 0.  0.
          5    1    1    2  502    0 -0.76887696011E+02 -0.65599766873E+02  0.56641152098E+03  0.57537338374E+03  0.41800000000E+01 0. -1.
         -5    1    1    2    0  502  0.49624615363E+02 -0.62989249479E+02  0.44969601767E+03  0.45680874412E+03  0.41800000000E+01 0. -1.
        -11    1    3    3    0    0  0.43811250961E+02  0.17160890483E+02  0.15792223883E+03  0.16478275210E+03  0.00000000000E+00 0. -1.
         11    1    3    3    0    0 -0.16548170313E+02  0.11142812587E+03  0.30721317331E+03  0.32721552994E+03  0.00000000000E+00 0.  1.
</event>
<event>
 7    1  0.6610867E-006  0.8600472E+02  0.7561462E-02  0.1312826E+00
          1   -1    0    0  501    0  0.00000000000E+00  0.00000000000E+00  0.40237313197E+03  0.40237313197E+03  0.00000000000E+00 0. -1.
         -1   -1    0    0    0  501 -0.00000000000E+00 -0.00000000000E+00 -0.36030786265E+02  0.36030786265E+02  0.00000000000E+00 0.  1.
         23    2    1    2    0    0  0.45925165285E+02  0.11787671797E+02  0.10577534567E+03  0.14550315519E+03  0.87946997710E+02 0.  0.
          5    1    1    2  502    0  0.12449019333E+02  0.24402908730E+01 -0.93768265096E+01  0.16319631653E+02  0.41800000000E+01 0.  1.
         -5    1    1    2    0  502 -0.58374184618E+02 -0.14227962670E+02  0.26994382655E+03  0.27658113140E+03  0.41800000000E+01 0.  1.
        -11    1    3    3    0    0 -0.67530826910E+01 -0.30271278800E+02  0.45565849797E+02  0.55119879479E+02  0.00000000000E+00 0. -1.
         11    1    3    3    0    0  0.52678247976E+02  0.42058950597E+02  0.60209495868E+02  0.90383275709E+02  0.00000000000E+00 0.  1.
</event>
<event>
 7    1  0.6610867E-006  0.2780455E+03  0.7561462E-02  0.1096761E+00
         -2   -1    0    0    0  501 -0.00000000000E+00  0.00000000000E+00  0.40204940406E+03  0.40204940406E+03  0.00000000000E+00 0.  1.
          2   -1    0    0  501    0  0.00000000000E+00 -0.00000000000E+00 -0.30027825500E+03  0.30027825500E+03  0.00000000000E+00 0. -1.
         23    2    1    2    0    0  0.16395569159E+03 -0.21793852158E+03  0.23780428799E+03  0.37288395148E+03  0.90071604238E+02 0.  0.
          5    1    1    2  502    0 -0.20981971352E+02  0.45851879265E+02  0.22329815440E+02  0.55305795460E+02  0.41800000000E+01 0.  1.
         -5    1    1    2    0  502 -0.14297372024E+03  0.17208664232E+03 -0.15836295437E+03  0.27413791212E+03  0.41800000000E+01 0.  1.
        -11    1    3    3    0    0  0.90243929633E+02 -0.17373326052E+03  0.19701838346E+03  0.27774710812E+03  0.00000000000E+00 0.  1.
         11    1    3    3    0    0  0.73711761958E+02 -0.44205261068E+02  0.40785904527E+02  0.95136843363E+02  0.00000000000E+00 0. -1.
</event>
<event>
 7    1  0.6610867E-006  0.8535117E+02  0.7561462E-02  0.1314517E+00
          2   -1    0    0  501    0  0.00000000000E+00  0.00000000000E+00  0.17385201038E+03  0.17385201038E+03  0.00000000000E+00 0.  1.
         -2   -1    0    0    0  501 -0.00000000000E+00 -0.00000000000E+00 -0.85377411789E+02  0.85377411789E+02  0.00000000000E+00 0. -1.
         23    2    1    2    0    0  0.35766415618E+02 -0.95779835944E+01 -0.58178924308E+01  0.98260053078E+02  0.90830699120E+02 0.  0.
          5    1    1    2  502    0 -0.77603983250E+02  0.66650543404E+01  0.89234457076E+02  0.11852030162E+03  0.41800000000E+01 0.  1.
         -5    1    1    2    0  502  0.41837567632E+02  0.29129292540E+01  0.50580339479E+01  0.42449067476E+02  0.41800000000E+01 0.  1.
        -11    1    3    3    0    0  0.22565002457E+01  0.11000669614E+02 -0.42817683752E+02  0.44265794550E+02  0.00000000000E+00 0. -1.
         11    1    3    3    0    0  0.33509915373E+02 -0.20578653208E+02  0.36999791321E+02  0.53994258528E+02  0.00000000000E+00 0.  1.
</event>
<event>
 7    1  0.6610867E-006  0.1029981E+03  0.7561462E-02  0.1274115E+00
         -2   -1    0    0    0  501 -0.00000000000E+00  0.00000000000E+00  0.10621256177E+03  0.10621256177E+03  0.00000000000E+00 0.  1.
          2   -1    0    0  501    0  0.00000000000E+00 -0.00000000000E+00 -0.13862089140E+03  0.13862089140E+03  0.00000000000E+00 0. -1.
         23    2    1    2    0    0  0.47640375068E+02 -0.25186782823E+02 -0.21027429675E+02  0.10815235427E+03  0.91382709355E+02 0.  0.
          5    1    1    2  502    0 -0.50443514172E+02  0.67149784659E+02  0.16975189197E+02  0.85786194402E+02  0.41800000000E+01 0.  1.
         -5    1    1    2    0  502  0.28031391032E+01 -0.41963001836E+02 -0.28356089152E+02  0.50894904499E+02  0.41800000000E+01 0.  1.
        -11    1    3    3    0    0  0.36230252547E+01  0.17771481929E+02 -0.39889724718E+02  0.43819425145E+02  0.00000000000E+00 0. -1.
         11    1    3    3    0    0  0.44017349814E+02 -0.42958264752E+02  0.18862295042E+02  0.64332929122E+02  0.00000000000E+00 0.  1.
</event>
<event>
 7    1  0.6610867E-006  0.1737462E+03  0.7561462E-02  0.1173996E+00
          3   -1    0    0  501    0  0.00000000000E+00  0.00000000000E+00  0.83237622289E+02  0.83237622289E+02  0.00000000000E+00 0. -1.
         -3   -1    0    0    0  501 -0.00000000000E+00 -0.00000000000E+00 -0.39515047160E+03  0.39515047160E+03  0.00000000000E+00 0.  1.
         23    2    1    2    0    0 -0.10683686438E+03 -0.90978254408E+02 -0.19209858725E+03  0.25546722518E+03  0.93115399118E+02 0.  0.
          5    1    1    2  502    0 -0.49699945141E+01  0.63697634577E+02 -0.11951921189E+02  0.65133787824E+02  0.41800000000E+01 0.  1.
         -5    1    1    2    0  502  0.11180685890E+03  0.27280619831E+02 -0.10786234087E+03  0.15778708088E+03  0.41800000000E+01 0.  1.
        -11    1    3    3    0    0 -0.72537867601E+02 -0.15858882616E+01 -0.87346548345E+02  0.11355032710E+03  0.00000000000E+00 0. -1.
         11    1    3    3    0    0 -0.34298996781E+02 -0.89392366147E+02 -0.10475203891E+03  0.14191689808E+03  0.00000000000E+00 0.  1.
</event>
<event>
 7    1  0.6610867E-006  0.9822304E+02  0.7561462E-02  0.1284078E+00
         -2   -1    0    0    0  501 -0.00000000000E+00  0.00000000000E+00  0.68740655103E+03  0.68740655103E+03  0.00000000000E+00 0.  1.
          2   -1    0    0  501    0  0.00000000000E+00 -0.00000000000E+00 -0.28999034232E+02  0.28999034232E+02  0.00000000000E+00 0. -1.
         23    2    1    2    0    0  0.48491411195E+02 -0.53546122505E+02  0.43682339166E+03  0.45189509383E+03  0.90420662076E+02 0.  0.
          5    1    1    2  502    0 -0.18233238072E+02  0.63241459466E+02  0.33980820347E+02  0.74189633491E+02  0.41800000000E+01 0.  1.
         -5    1    1    2    0  502 -0.30258173123E+02 -0.96953369605E+01  0.18760330479E+03  0.19032085794E+03  0.41800000000E+01 0.  1.
        -11    1    3    3    0    0 -0.16223269202E+02 -0.33914379188E+01  0.15507628743E+02  0.22697640053E+02  0.00000000000E+00 0. -1.
         11    1    3    3    0    0  0.64714680397E+02 -0.50154684587E+02  0.42131576292E+03  0.42919745377E+03  0.00000000000E+00 0.  1.
</event>
<event>
 7    1  0.6610867E-006  0.1159457E+03  0.7561462E-02  0.1249939E+00
          2   -1    0    0  501    0  0.00000000000E+00  0.00000000000E+00  0.51794305301E+03  0.51794305301E+03  0.00000000000E+00 0. -1.
         -2   -1    0    0    0  501 -0.00000000000E+00 -0.00000000000E+00 -0.57518178569E+02  0.57518178569E+02  0.00000000000E+00 0.  1.
         23    2    1    2    0    0 -0.17067745575E+02  0.81678721576E+02  0.40401351805E+02  0.12933332237E+03  0.90178254310E+02 0.  0.
          5    1    1    2  502    0 -0.43629410817E+02 -0.45799082226E+02  0.30201482461E+03  0.30859602736E+03  0.41800000000E+01 0. -1.
         -5    1    1    2    0  502  0.60697156392E+02 -0.35879639350E+02  0.11800869803E+03  0.13753188184E+03  0.41800000000E+01 0. -1.
        -11    1    3    3    0    0 -0.32003437037E+02  0.74927434859E+02 -0.44333005764E+01  0.81596535654E+02  0.00000000000E+00 0.  1.
         11    1    3    3    0    0  0.14935691462E+02  0.67512867166E+01  0.44834652382E+02  0.47736786716E+02  0.00000000000E+00 0. -1.
</event>
<event>
 7    1  0.6610867E-006  0.1196129E+03  0.7561462E-02  0.1243737E+00
         -1   -1    0    0    0  501 -0.00000000000E+00  0.00000000000E+00  0.27120562427E+02  0.27120562427E+02  0.00000000000E+00 0.  1.
          1   -1    0    0  501    0  0.00000000000E+00 -0.00000000000E+00 -0.64642316144E+03  0.64642316144E+03  0.00000000000E+00 0. -1.
         23    2    1    2    0    0 -0.54430565533E+02  0.37424584588E+02 -0.18260850745E+03  0.21450971100E+03  0.91133216344E+02 0.  0.
          5    1    1    2  502    0 -0.38470706582E+01 -0.67638280527E+02 -0.29658453897E+03  0.30425252358E+03  0.41800000000E+01 0. -1.
         -5    1    1    2    0  502  0.58277636191E+02  0.30213695938E+02 -0.14010955258E+03  0.15478148929E+03  0.41800000000E+01 0. -1.
        -11    1    3    3    0    0  0.98698528520E+01  0.40020364105E+02 -0.37307938024E+02  0.55596094989E+02  0.00000000000E+00 0.  1.
         11    1    3    3    0    0 -0.64300418385E+02 -0.25957795169E+01 -0.14530056943E+03  0.15891361601E+03  0.00000000000E+00 0. -1.
</event>
<event>
 7    1  0.6610867E-006  0.8747905E+02  0.7561462E-02  0.1309074E+00
         -1   -1    0    0    0  501 -0.00000000000E+00  0.00000000000E+00  0.24881826660E+03  0.24881826660E+03  0.00000000000E+00 0. -1.
          1   -1    0    0  501    0  0.00000000000E+00 -0.00000000000E+00 -0.56472766939E+02  0.56472766939E+02  0.00000000000E+00 0.  1.
         23    2    1    2    0    0 -0.11594880375E+02  0.53649866642E+01  0.14210220530E+03  0.16988050651E+03  0.92212392926E+02 0.  0.
          5    1    1    2  502    0  0.28643312698E+02 -0.48424069392E+02  0.65523601468E+02  0.86464701515E+02  0.41800000000E+01 0. -1.
         -5    1    1    2    0  502 -0.17048432323E+02  0.43059082728E+02 -0.15280307104E+02  0.48945825514E+02  0.41800000000E+01 0. -1.
        -11    1    3    3    0    0  0.13538259976E+02 -0.27509884682E+02  0.11280639425E+02  0.32670033123E+02  0.00000000000E+00 0.  1.
         11    1    3    3    0    0 -0.25133140351E+02  0.32874871346E+02  0.13082156587E+03  0.13721047339E+03  0.00000000000E+00 0. -1.
</event>
<event>
 7    1  0.6610867E-006  0.8484353E+02  0.7561462E-02  0.1315842E+00
         -1   -1    0    0    0  501 -0.00000000000E+00  0.00000000000E+00  0.23743189161E+02  0.23743189161E+02  0.00000000000E+00 0.  1.
          1   -1    0    0  501    0  0.00000000000E+00 -0.00000000000E+00 -0.63032072911E+03  0.63032072911E+03  0.00000000000E+00 0. -1.
         23    2    1    2    0    0  0.15222934176E+02  0.18449341276E+02 -0.12592142483E+03  0.15682528406E+03  0.90365084908E+02 0.  0.
          5    1    1    2  502    0  0.31964906841E+02 -0.12480407453E+02 -0.35576350035E+02  0.49605089672E+02  0.41800000000E+01 0.  1.
         -5    1    1    2    0  502 -0.47187841018E+02 -0.59689338237E+01 -0.44507976508E+03  0.44763354454E+03  0.41800000000E+01 0.  1.
        -11    1    3    3    0    0  0.42371942299E+02  0.35529200607E+02 -0.10458073139E+03  0.11829976741E+03  0.00000000000E+00 0. -1.
         11    1    3    3    0    0 -0.27149008122E+02 -0.17079859331E+02 -0.21340693433E+02  0.38525516648E+02  0.00000000000E+00 0.  1.
</event>
<event>
 7    1  0.6610867E-006  0.1212722E+03  0.7561462E-02  0.1241013E+00
          1   -1    0    0  501    0  0.00000000000E+00  0.00000000000E+00  0.76494370830E+02  0.76494370830E+02  0.00000000000E+00 0. -1.
         -1   -1    0    0    0  501 -0.00000000000E+00 -0.00000000000E+00 -0.19886537797E+03  0.19886537797E+03  0.00000000000E+00 0.  1.
         23    2    1    2    0    0  0.59973546147E+02  0.13642886336E+01 -0.41766920526E+02  0.11491759613E+03  0.88672942480E+02 0.  0.
          5    1    1    2  502    0 -0.79022806175E+02  0.42562743073E+02 -0.60625767266E+02  0.10839348251E+03  0.41800000000E+01 0. -1.
         -5    1    1    2    0  502  0.19049260028E+02 -0.43927031707E+02 -0.19978319350E+02  0.52048670168E+02  0.41800000000E+01 0. -1.
        -11    1    3    3    0    0  0.58699076312E+01  0.38539866318E+02 -0.27589510707E+02  0.47759378267E+02  0.00000000000E+00 0.  1.
         11    1    3    3    0    0  0.54103638515E+02 -0.37175577684E+02 -0.14177409819E+02  0.67158217859E+02  0.00000000000E+00 0. -1.
</event>
<event>
 7    1  0.6610867E-006  0.1043192E+03  0.7561462E-02  0.1271467E+00
          1   -1    0    0  501    0  0.00000000000E+00  0.00000000000E+00  0.79812866844E+03  0.79812866844E+03  0.00000000000E+00 0. -1.
         -1   -1    0    0    0  501 -0.00000000000E+00 -0.00000000000E+00 -0.15679304238E+02  0.15679304238E+02  0.00000000000E+00 0.  1.
         23    2    1    2    0    0 -0.28545506342E+01 -0.24613264614E+02  0.28215310471E+03  0.29751564236E+03  0.91056145847E+02 0.  0.
          5    1    1    2  502    0  0.26716468055E+02  0.63189303137E+02  0.17828339109E+03  0.19107353986E+03  0.41800000000E+01 0.  1.
         -5    1    1    2    0  502 -0.23861917421E+02 -0.38576038522E+02  0.32201286840E+03  0.32521879046E+03  0.41800000000E+01 0.  1.
        -11    1    3    3    0    0 -0.38094094669E+02 -0.40586493931E+02  0.16400856631E+03  0.17319709398E+03  0.00000000000E+00 0.  1.
         11    1    3    3    0    0  0.35239544035E+02  0.15973229317E+02  0.11814453840E+03  0.12431854839E+03  0.00000000000E+00 0. -1.
</event>
<event>
 7    1  0.6610867E-006  0.2264407E+03  0.7561462E-02  0.1129170E+00
         -3   -1    0    0    0  501 -0.00000000000E+00  0.00000000000E+00  0.64379123933E+02  0.64379123933E+02  0.00000000000E+00 0.  1.
          3   -1    0    0  501    0  0.00000000000E+00 -0.00000000000E+00 -0.86842176408E+03  0.86842176408E+03  0.00000000000E+00 0. -1.
         23    2    1    2    0    0  0.17614170136E+03  0.11300637320E+03 -0.38430924091E+03  0.44739396040E+03  0.93120480098E+02 0.  0.
          5    1    1    2  502    0 -0.91931783956E+02 -0.11455259158E+03 -0.33525671426E+03  0.36604410390E+03  0.41800000000E+01 0. -1.
         -5    1    1    2    0  502 -0.84209917405E+02  0.15462183775E+01 -0.84476684975E+02  0.11936282371E+03  0.41800000000E+01 0. -1.
        -11    1    3    3    0    0  0.68869900812E+02  0.87499099279E+02 -0.13647305989E+03  0.17613645758E+03  0.00000000000E+00 0.  1.
         11    1    3    3    0    0  0.10727180055E+03  0.25507273924E+02 -0.24783618102E+03  0.27125750283E+03  0.00000000000E+00 0. -1.
</event>
<event>
 7    1  0.6610867E-006  0.1879340E+03  0.7561462E-02  0.1160338E+00
          2   -1    0    0  501    0  0.00000000000E+00  0.00000000000E+00  0.21207206909E+03  0.21207206909E+03  0.00000000000E+00 0. -1.
         -2   -1    0    0    0  501 -0.00000000000E+00 -0.00000000000E+00 -0.22744128704E+03  0.22744128704E+03  0.00000000000E+00 0.  1.
         23    2    1    2    0    0  0.16046311064E+03  0.62374906621E+02  0.74719487851E+02  0.20841631355E+03  0.90638397152E+02 0.  0.
          5    1    1    2  502    0 -0.17293136199E+03 -0.71178913501E+02 -0.58874571077E+02  0.19610043653E+03  0.41800000000E+01 0.  1.
         -5    1    1    2    0  502  0.12468251348E+02  0.88040068800E+01 -0.31214134723E+02  0.34996606054E+02  0.41800000000E+01 0.  1.
        -11    1    3    3    0    0  0.51422656213E+02  0.28581499692E+02  0.73638758586E+02  0.94254222519E+02  0.00000000000E+00 0. -1.
         11    1    3    3    0    0  0.10904045443E+03  0.33793406929E+02  0.10807292652E+01  0.11416209104E+03  0.00000000000E+00 0.  1.
</event>
<event>
 7    1  0.6610867E-006  0.1348475E+03  0.7561462E-02  0.1220435E+00
         -2   -1    0    0    0  501 -0.00000000000E+00  0.00000000000E+00  0.35182182456E+02  0.35182182456E+02  0.00000000000E+00 0.  1.
          2   -1    0    0  501    0  0.00000000000E+00 -0.00000000000E+00 -0.16044654027E+04  0.16044654027E+04  0.00000000000E+00 0. -1.
         23    2    1    2    0    0  0.37211237652E+02  0.23537705933E+02 -0.60536854374E+02  0.11771916721E+03  0.90853683377E+02 0.  0.
          5    1    1    2  502    0 -0.40528908149E+02  0.82905475183E+02 -0.62816096377E+03  0.63491698593E+03  0.41800000000E+01 0. -1.
         -5    1    1    2    0  502  0.33176704971E+01 -0.10644318112E+03 -0.88058540205E+03  0.88701143197E+03  0.41800000000E+01 0.  1.
        -11    1    3    3    0    0 -0.14744625729E+02  0.46798128807E+01  0.16686183877E+02  0.22753755050E+02  0.00000000000E+00 0. -1.
         11    1    3    3    0    0  0.51955863381E+02  0.18857893052E+02 -0.77223038251E+02  0.94965412160E+02  0.00000000000E+00 0.  1.
</event>
<event>
 7    1  0.6610867E-006  0.1028169E+03  0.7561462E-02  0.1274481E+00
         -2   -1    0    0    0  501 -0.00000000000E+00  0.00000000000E+00  0.23269319695E+02  0.23269319695E+02  0.00000000000E+00 0.  1.
          2   -1    0    0  501    0  0.00000000000E+00 -0.00000000000E+00 -0.19489653800E+04  0.19489653800E+04  0.00000000000E+00 0. -1.
         23    2    1    2    0    0 -0.23401048489E+02  0.63457007499E+02 -0.13208051924E+03  0.17299080177E+03  0.88916551107E+02 0.  0.
          5    1    1    2  502    0  0.20204438895E+01  0.22553499130E+02 -0.77805307820E+02  0.81141116837E+02  0.41800000000E+01 0.  1.
         -5    1    1    2    0  502  0.21380604599E+02 -0.86010506630E+02 -0.17158102332E+04  0.17181027810E+04  0.41800000000E+01 0.  1.
        -11    1    3    3    0    0 -0.45577045853E+02  0.51183953138E+02 -0.13073436781E+03  0.14760941398E+03  0.00000000000E+00 0.  1.
         11    1    3    3    0    0  0.22175997365E+02  0.12273054361E+02 -0.13461514337E+01  0.25381387790E+02  0.00000000000E+00 0. -1.
</event>
<event>
 7    1  0.6610867E-006  0.1845301E+03  0.7561462E-02  0.1163489E+00
          1   -1    0    0  501    0  0.00000000000E+00  0.00000000000E+00  0.91020297118E+03  0.91020297118E+03  0.00000000000E+00 0. -1.
         -1   -1    0    0    0  501 -0.00000000000E+00 -0.00000000000E+00 -0.46575065334E+02  0.46575065334E+02  0.00000000000E+00 0.  1.
         23    2    1    2    0    0  0.14619467832E+03  0.76814493077E+02  0.27904327044E+03  0.33656741231E+03  0.90217104447E+02 0.  0.
          5    1    1    2  502    0  0.15643231194E+02 -0.13898146157E+02  0.16086607614E+03  0.16227518604E+03  0.41800000000E+01 0.  1.
         -5    1    1    2    0  502 -0.16183790952E+03 -0.62916346920E+02  0.42371855926E+03  0.45793543816E+03  0.41800000000E+01 0.  1.
        -11    1    3    3    0    0  0.31741828154E+02  0.45313170334E+02  0.35783477524E+02  0.65888423292E+02  0.00000000000E+00 0.  1.
         11    1    3    3    0    0  0.11445285017E+03  0.31501322743E+02  0.24325979291E+03  0.27067898902E+03  0.00000000000E+00 0. -1.
</event>
<event>
 7    1  0.6610867E-006  0.1989086E+03  0.7561462E-02  0.1150663E+00
          2   -1    0    0  501    0  0.00000000000E+00  0.00000000000E+00  0.42650207649E+03  0.42650207649E+03  0.00000000000E+00 0. -1.
         -2   -1    0    0    0  501 -0.00000000000E+00 -0.00000000000E+00 -0.11401262362E+03  0.11401262362E+03  0.00000000000E+00 0.  1.
         23    2    1    2    0    0 -0.10286989263E+03 -0.15328522034E+03  0.90857709370E+02  0.22611539936E+03  0.93778872311E+02 0.  0.
          5    1    1    2  502    0  0.30902643231E+02 -0.11544163236E+02  0.75938769505E+02  0.82900001070E+02  0.41800000000E+01 0. -1.
         -5    1    1    2    0  502  0.71967249400E+02  0.16482938358E+03  0.14569297400E+03  0.23149929968E+03  0.41800000000E+01 0. -1.
        -11    1    3    3    0    0 -0.59687017462E+02 -0.84851314078E+02  0.10072647836E+03  0.14459636578E+03  0.00000000000E+00 0. -1.
         11    1    3    3    0    0 -0.43182875169E+02 -0.68433906265E+02 -0.98687689923E+01  0.81519033581E+02  0.00000000000E+00 0.  1.
</event>
<event>
 7    1  0.6610867E-006  0.1015956E+03  0.7561462E-02  0.1276976E+00
         -1   -1    0    0    0  501 -0.00000000000E+00  0.00000000000E+00  0.46038895922E+02  0.46038895922E+02  0.00000000000E+00 0.  1.
          1   -1    0    0  501    0  0.00000000000E+00 -0.00000000000E+00 -0.35884483660E+03  0.35884483660E+03  0.00000000000E+00 0. -1.
         23    2    1    2    0    0  0.39651120398E+02  0.16634209402E+02 -0.12468536498E+03  0.16126781318E+03  0.92800641478E+02 0.  0.
          5    1    1    2  502    0 -0.19789039274E+02  0.40008101662E+02  0.13201783828E+01  0.44849409639E+02  0.41800000000E+01 0. -1.
         -5    1    1    2    0  502 -0.19862081124E+02 -0.56642311065E+02 -0.18944075409E+03  0.19876650970E+03  0.41800000000E+01 0.  1.
        -11    1    3    3    0    0  0.59337255085E+02  0.36951241413E+02 -0.66081168240E+02  0.96192644620E+02  0.00000000000E+00 0. -1.
         11    1    3    3    0    0 -0.19686134687E+02 -0.20317032011E+02 -0.58604196735E+02  0.65075168564E+02  0.00000000000E+00 0.  1.
</event>
<event>
 7    1  0.6610867E-006  0.9187351E+02  0.7561462E-02  0.1298377E+00
          1   -1    0    0  501    0  0.00000000000E+00  0.00000000000E+00  0.18463275490E+03  0.18463275490E+03  0.00000000000E+00 0. -1.
         -1   -1    0    0    0  501 -0.00000000000E+00 -0.00000000000E+00 -0.10704496154E+03  0.10704496154E+03  0.00000000000E+00 0.  1.
         23    2    1    2    0    0  0.73392305409E+01 -0.67269885839E+02 -0.25215771224E+02  0.11619247311E+03  0.91026116273E+02 0.  0.
          5    1    1    2  502    0  0.73843162247E+01  0.26442024017E+02 -0.26891709102E+02  0.38656761099E+02  0.41800000000E+01 0.  1.
         -5    1    1    2    0  502 -0.14723546766E+02  0.40827861822E+02  0.12969527369E+03  0.13682848223E+03  0.41800000000E+01 0.  1.
        -11    1    3    3    0    0  0.70512491088E+01 -0.89682869175E+02 -0.13714159150E+02  0.90998985152E+02  0.00000000000E+00 0.  1.
         11    1    3    3    0    0  0.28798143211E+00  0.22412983336E+02 -0.11501612074E+02  0.25193487961E+02  0.00000000000E+00 0. -1.
</event>
<event>
 7    1  0.6610867E-006  0.1093633E+03  0.7561462E-02  0.1261753E+00
          2   -1    0    0  501    0  0.00000000000E+00  0.00000000000E+00  0.29732083759E+03  0.29732083759E+03  0.00000000000E+00 0. -1.
         -2   -1    0    0    0  501 -0.00000000000E+00 -0.00000000000E+00 -0.62268542977E+02  0.62268542977E+02  0.00000000000E+00 0.  1.
         23    2    1    2    0    0  0.15214000132E+02  0.47513387171E+02  0.19193138582E+02  0.10516740360E+03  0.90569412336E+02 0.  0.
          5    1    1    2  502    0  0.67394847039E+01 -0.82122292125E+02  0.18619720899E+03  0.20365746869E+03  0.41800000000E+01 0.  1.
         -5    1    1    2    0  502 -0.21953484836E+02  0.34608904954E+02  0.29661947046E+02  0.50764508282E+02  0.41800000000E+01 0.  1.
        -11    1    3    3    0    0  0.93147540936E+01  0.70592315415E+02 -0.47893105774E+01  0.71365097459E+02  0.00000000000E+00 0.  1.
         11    1    3    3    0    0  0.58992460386E+01 -0.23078928244E+02  0.23982449160E+02  0.33802306141E+02  0.00000000000E+00 0. -1.
</event>
<event>
 7    1  0.6610867E-006  0.1008148E+03  0.7561462E-02  0.1278592E+00
          1   -1    0    0  501    0  0.00000000000E+00  0.00000000000E+00  0.37120198010E+03  0.37120198010E+03  0.00000000000E+00 0. -1.
         -1   -1    0    0    0  501 -0.00000000000E+00 -0.00000000000E+00 -0.53205985180E+02  0.53205985180E+02  0.00000000000E+00 0.  1.
         23    2    1    2    0    0 -0.11436610846E+02 -0.67731190755E+02  0.61884302735E+02  0.13121983829E+03  0.93116425874E+02 0.  0.
          5    1    1    2  502    0  0.39642343732E+02  0.45660971327E+02  0.36751670745E+02  0.70884394768E+02  0.41800000000E+01 0.  1.
         -5    1    1    2    0  502 -0.28205732886E+02  0.22070219428E+02  0.21936002144E+03  0.22230373222E+03  0.41800000000E+01 0.  1.
        -11    1    3    3    0    0  0.12445195573E+02 -0.77983318611E+02  0.19240133745E+02  0.81280155149E+02  0.00000000000E+00 0.  1.
         11    1    3    3    0    0 -0.23881806420E+02  0.10252127857E+02  0.42644168991E+02  0.49939683142E+02  0.00000000000E+00 0. -1.
</event>
<event>
 7    1  0.6610867E-006  0.1597745E+03  0.7561462E-02  0.1188952E+00
         -1   -1    0    0    0  501 -0.00000000000E+00  0.00000000000E+00  0.34721113903E+02  0.34721113903E+02  0.00000000000E+00 0.  1.
          1   -1    0    0  501    0  0.00000000000E+00 -0.00000000000E+00 -0.11324666430E+04  0.11324666430E+04  0.00000000000E+00 0. -1.
         23    2    1    2    0    0 -0.10197153686E+03  0.88784050022E+02 -0.24074535606E+03  0.29061684001E+03  0.90658807438E+02 0.  0.
          5    1    1    2  502    0  0.10032430596E+03 -0.30479531019E+02 -0.72008176501E+03  0.72768756267E+03  0.41800000000E+01 0.  1.
         -5    1    1    2    0  502  0.16472309029E+01 -0.58304519004E+02 -0.13691840806E+03  0.14888335425E+03  0.41800000000E+01 0.  1.
        -11    1    3    3    0    0 -0.74018604936E+00  0.46374474709E+02 -0.37556217288E+02  0.59679219473E+02  0.00000000000E+00 0.  1.
         11    1    3    3    0    0 -0.10123135081E+03  0.42409575313E+02 -0.20318913877E+03  0.23093762054E+03  0.00000000000E+00 0. -1.
</event>
<event>
 7    1  0.6610867E-006  0.1139189E+03  0.7561462E-02  0.1253480E+00
          2   -1    0    0  501    0  0.00000000000E+00  0.00000000000E+00  0.71855170195E+03  0.71855170195E+03  0.00000000000E+00 0. -1.
         -2   -1    0    0    0  501 -0.00000000000E+00 -0.00000000000E+00 -0.19933474929E+02  0.19933474929E+02  0.00000000000E+00 0.  1.
         23    2    1    2    0    0 -0.54650262671E+02 -0.32599829607E+02  0.32581649319E+03  0.34431857705E+03  0.91375572019E+02 0.  0.
          5    1    1    2  502    0  0.86903666759E+02  0.21113663481E+02  0.21998302687E+03  0.23750376543E+03  0.41800000000E+01 0. -1.
         -5    1    1    2    0  502 -0.32253404088E+02  0.11486166126E+02  0.15281870696E+03  0.15666283441E+03  0.41800000000E+01 0.  1.
        -11    1    3    3    0    0 -0.52370255219E+02 -0.58097380115E+02  0.28954165034E+03  0.29992051696E+03  0.00000000000E+00 0. -1.
         11    1    3    3    0    0 -0.22800074522E+01  0.25497550508E+02  0.36274842849E+02  0.44398060089E+02  0.00000000000E+00 0.  1.
</event>
<event>
 7    1  0.6610867E-006  0.1010399E+03  0.7561462E-02  0.1278124E+00
          2   -1    0    0  501    0  0.00000000000E+00  0.00000000000E+00  0.16359349525E+03  0.16359349525E+03  0.00000000000E+00 0. -1.
         -2   -1    0    0    0  501 -0.00000000000E+00 -0.00000000000E+00 -0.10219002464E+03  0.10219002464E+03  0.00000000000E+00 0.  1.
         23    2    1    2    0    0 -0.15668342378E+02 -0.66280742604E+02  0.73539034329E+01  0.11344485696E+03  0.90426886938E+02 0.  0.
          5    1    1    2  502    0 -0.26273750089E+02  0.80787728673E+02  0.64268082094E+02  0.10660593710E+03  0.41800000000E+01 0. -1.
         -5    1    1    2    0  502  0.41942092468E+02 -0.14506986069E+02 -0.10218514914E+02  0.45732725837E+02  0.41800000000E+01 0. -1.
        -11    1    3    3    0    0  0.12980842790E+01 -0.45946593544E+02 -0.38853697079E+02  0.60186246417E+02  0.00000000000E+00 0.  1.
         11    1    3    3    0    0 -0.16966426657E+02 -0.20334149060E+02  0.46207600512E+02  0.53258610540E+02  0.00000000000E+00 0. -1.
</event>
<event>
 7    1  0.6610867E-006  0.8742156E+02  0.7561462E-02  0.1309219E+00
         -1   -1    0    0    0  501 -0.00000000000E+00  0.00000000000E+00  0.15517370243E+02  0.15517370243E+02  0.00000000000E+00 0.  1.
          1   -1    0    0  501    0  0.00000000000E+00 -0.00000000000E+00 -0.85633097705E+03  0.85633097705E+03  0.00000000000E+00 0. -1.
         23    2    1    2    0    0  0.36418101597E+02  0.61252356565E+01 -0.24529703084E+03  0.26434466321E+03  0.91343697053E+02 0.  0.
          5    1    1    2  502    0 -0.66010341813E+02 -0.87773865735E+01 -0.54248596010E+03  0.54657378006E+03  0.41800000000E+01 0. -1.
         -5    1    1    2    0  502  0.29592240216E+02  0.26521509170E+01 -0.53030615862E+02  0.60929904022E+02  0.41800000000E+01 0.  1.
        -11    1    3    3    0    0  0.18080660921E+02 -0.31466626051E+02 -0.19760593142E+03  0.20091083343E+03  0.00000000000E+00 0.  1.
         11    1    3    3    0    0  0.18337440677E+02  0.37591861708E+02 -0.47691099423E+02  0.63433829786E+02  0.00000000000E+00 0. -1.
</event>
<event>
 7    1  0.6610867E-006  0.1038947E+03  0.7561462E-02  0.1272313E+00
          1   -1    0    0  501    0  0.00000000000E+00  0.00000000000E+00  0.13894840550E+03  0.13894840550E+03  0.00000000000E+00 0. -1.
         -1   -1    0    0    0  501 -0.00000000000E+00 -0.00000000000E+00 -0.14736021308E+03  0.14736021308E+03  0.00000000000E+00 0.  1.
         23    2    1    2    0    0 -0.11881940961E+02 -0.12572058528E+02 -0.10041843251E+03  0.13898150971E+03  0.94513286250E+02 0.  0.
          5    1    1    2  502    0  0.33266932363E+02  0.56527911382E+02  0.47550936394E+02  0.81121251877E+02  0.41800000000E+01 0. -1.
         -5    1    1    2    0  502 -0.21384991401E+02 -0.43955852855E+02  0.44455688529E+02  0.66205856991E+02  0.41800000000E+01 0.  1.
        -11    1    3    3    0    0  0.39686214183E+02 -0.11904348683E+02 -0.62430100522E+02  0.74928142677E+02  0.00000000000E+00 0.  1.
         11    1    3    3    0    0 -0.51568155145E+02 -0.66770984513E+00 -0.37988331987E+02  0.64053367036E+02  0.00000000000E+00 0. -1.
</event>
<event>
 7    1  0.6610867E-006  0.1493584E+03  0.7561462E-02  0.1201264E+00
         -2   -1    0    0    0  501 -0.00000000000E+00  0.00000000000E+00  0.20811034800E+02  0.20811034800E+02  0.00000000000E+00 0. -1.
          2   -1    0    0  501    0  0.00000000000E+00 -0.00000000000E+00 -0.11962080114E+04  0.11962080114E+04  0.00000000000E+00 0.  1.
         23    2    1    2    0    0  0.84710081739E+02  0.64432269137E+02 -0.38763245858E+03  0.41231500024E+03  0.91746505244E+02 0.  0.
          5    1    1    2  502    0  0.22265759657E+02 -0.43635107630E+02 -0.35599897104E+03  0.35937797157E+03  0.41800000000E+01 0. -1.
         -5    1    1    2    0  502 -0.10697584140E+03 -0.20797161506E+02 -0.43176554702E+03  0.44532607443E+03  0.41800000000E+01 0. -1.
        -11    1    3    3    0    0  0.17405181279E+02 -0.23821617571E+02 -0.78358982292E+02  0.83728966940E+02  0.00000000000E+00 0. -1.
         11    1    3    3    0    0  0.67304900460E+02  0.88253886707E+02 -0.30927347629E+03  0.32858603330E+03  0.00000000000E+00 0.  1.
</event>
<event>
 7    1  0.6610867E-006  0.1752435E+03  0.7561462E-02  0.1172487E+00
          2   -1    0    0  501    0  0.00000000000E+00  0.00000000000E+00  0.28183486389E+04  0.28183486389E+04  0.00000000000E+00 0. -1.
         -2   -1    0    0    0  501 -0.00000000000E+00 -0.00000000000E+00 -0.16505990383E+02  0.16505990383E+02  0.00000000000E+00 0.  1.
         23    2    1    2    0    0 -0.67413937762E+02  0.13373585604E+03  0.60127838145E+03  0.62565569377E+03  0.86483738065E+02 0.  0.
          5    1    1    2  502    0 -0.25149368813E+02 -0.32139482409E+02  0.21497214534E+03  0.21885139422E+03  0.41800000000E+01 0. -1.
         -5    1    1    2    0  502  0.92563306575E+02 -0.10159637363E+03  0.19855921217E+04  0.19903475413E+04  0.41800000000E+01 0. -1.
        -11    1    3    3    0    0 -0.86475211099E+00  0.94908043876E+02  0.29838463688E+03  0.31311607451E+03  0.00000000000E+00 0.  1.
         11    1    3    3    0    0 -0.66549185651E+02  0.38827812166E+02  0.30289374457E+03  0.31253961926E+03  0.00000000000E+00 0. -1.
</event>
<event>
 7    1  0.6610867E-006  0.1711971E+03  0.7561462E-02  0.1176605E+00
         -3   -1    0    0    0  501 -0.00000000000E+00  0.00000000000E+00  0.16545295608E+03  0.16545295608E+03  0.00000000000E+00 0.  1.
          3   -1    0    0  501    0  0.00000000000E+00 -0.00000000000E+00 -0.22550131489E+03  0.22550131489E+03  0.00000000000E+00 0. -1.
         23    2    1    2    0    0  0.10786908834E+03 -0.11513084095E+03 -0.46372967184E+02  0.18914840822E+03  0.93465595208E+02 0.  0.
          5    1    1    2  502    0 -0.11443819220E+03  0.12633093665E+03 -0.37286637045E+02  0.17453759220E+03  0.41800000000E+01 0.  1.
         -5    1    1    2    0  502  0.65691038601E+01 -0.11200095692E+02  0.23611245420E+02  0.27268270560E+02  0.41800000000E+01 0.  1.
        -11    1    3    3    0    0  0.47278756978E+02 -0.59431473074E+02  0.25264969565E+02  0.80035614199E+02  0.00000000000E+00 0.  1.
         11    1    3    3    0    0  0.60590331359E+02 -0.55699367880E+02 -0.71637936748E+02  0.10911279402E+03  0.00000000000E+00 0. -1.
</event>
<event>
 6    1  0.6610867E-006  0.1266012E+03  0.7561462E-02  0.1232588E+00
          2   -1    0    0  501    0  0.00000000000E+00  0.00000000000E+00  0.31920702382E+03  0.31920702382E+03  0.00000000000E+00 0. -1.
         -2   -1    0    0    0  501 -0.00000000000E+00 -0.00000000000E+00 -0.60181501174E+02  0.60181501174E+02  0.00000000000E+00 0.  1.
          5    1    1    2  502    0  0.18432908101E+02  0.31554709763E+02 -0.26672495593E+01  0.36878970017E+02  0.41800000000E+01 0.  1.
         -5    1    1    2    0  502 -0.52407976264E+02 -0.46103705406E+02  0.11836544467E+03  0.13747726547E+03  0.41800000000E+01 0.  1.
        -11    1    1    2    0    0 -0.46234598012E+02 -0.29638153554E+02  0.49758422255E+02  0.74107751178E+02  0.00000000000E+00 0. -1.
         11    1    1    2    0    0  0.80209666174E+02  0.44187149197E+02  0.93568905274E+02  0.13092453833E+03  0.00000000000E+00 0.  1.
</event>
<event>
 7    1  0.6610867E-006  0.1063303E+03  0.7561462E-02  0.1267521E+00
         -1   -1    0    0    0  501 -0.00000000000E+00  0.00000000000E+00  0.99930816010E+02  0.99930816010E+02  0.00000000000E+00 0.  1.
          1   -1    0    0  501    0  0.00000000000E+00 -0.00000000000E+00 -0.14510355173E+03  0.14510355173E+03  0.00000000000E+00 0. -1.
         23    2    1    2    0    0  0.32998394311E+02 -0.34232939728E+02 -0.15251720786E+01  0.10427236973E+03  0.92787998954E+02 0.  0.
          5    1    1    2  502    0  0.14171172267E+02  0.57135364860E+02 -0.61479135862E+02  0.85219883757E+02  0.41800000000E+01 0. -1.
         -5    1    1    2    0  502 -0.47169566577E+02 -0.22902425132E+02  0.17831572219E+02  0.55542114254E+02  0.41800000000E+01 0. -1.
        -11    1    3    3    0    0  0.63894356912E+01  0.30443971071E+02 -0.12414558042E+02  0.33493006948E+02  0.00000000000E+00 0. -1.
         11    1    3    3    0    0  0.26608958619E+02 -0.64676910799E+02  0.10889385963E+02  0.70779362783E+02  0.00000000000E+00 0.  1.
</event>
<event>
 7    1  0.6610867E-006  0.8698084E+02  0.7561462E-02  0.1310332E+00
          2   -1    0    0  501    0  0.00000000000E+00  0.00000000000E+00  0.16025533840E+03  0.16025533840E+03  0.00000000000E+00 0. -1.
         -2   -1    0    0    0  501 -0.00000000000E+00 -0.00000000000E+00 -0.10258528575E+03  0.10258528575E+03  0.00000000000E+00 0.  1.
         23    2    1    2    0    0  0.64329619220E+02 -0.16828627936E+02  0.13325245875E+01  0.11038505166E+03  0.88099837573E+02 0.  0.
          5    1    1    2  502    0 -0.56984423675E+02  0.11771249626E+02 -0.29971649179E+02  0.65586271535E+02  0.41800000000E+01 0.  1.
         -5    1    1    2    0  502 -0.73451955448E+01  0.50573783103E+01  0.86309177243E+02  0.86869300961E+02  0.41800000000E+01 0.  1.
        -11    1    3    3    0    0  0.57615025217E+02  0.25436429517E+02 -0.14721401035E+02  0.64677837980E+02  0.00000000000E+00 0.  1.
         11    1    3    3    0    0  0.67145940029E+01 -0.42265057454E+02  0.16053925623E+02  0.45707213677E+02  0.00000000000E+00 0. -1.
</event>
<event>
 7    1  0.6610867E-006  0.1477681E+03  0.7561462E-02  0.1203243E+00
          2   -1    0    0  501    0  0.00000000000E+00  0.00000000000E+00  0.40756295957E+03  0.40756295957E+03  0.00000000000E+00 0. -1.
         -2   -1    0    0    0  501 -0.00000000000E+00 -0.00000000000E+00 -0.66373027581E+02  0.66373027581E+02  0.00000000000E+00 0.  1.
         23    2    1    2    0    0 -0.90382922784E+02  0.82134347132E+02  0.14938224606E+03  0.21441147618E+03  0.93499208380E+02 0.  0.
          5    1    1    2  502    0  0.12108718482E+03 -0.68344639000E+02  0.16784362082E+03  0.21799552623E+03  0.41800000000E+01 0. -1.
         -5    1    1    2    0  502 -0.30704262034E+02 -0.13789708132E+02  0.23964065109E+02  0.41528984745E+02  0.41800000000E+01 0. -1.
        -11    1    3    3    0    0 -0.11833179733E+02  0.15541830094E+02 -0.12034527435E+02  0.22943462594E+02  0.00000000000E+00 0.  1.
         11    1    3    3    0    0 -0.78549743051E+02  0.66592517038E+02  0.16141677350E+03  0.19146801358E+03  0.00000000000E+00 0. -1.
</event>
<event>
 7    1  0.1095149E-005  0.2945801E+03  0.7561462E-02  0.1087982E+00
          1   -1    0    0  501    0  0.00000000000E+00  0.00000000000E+00  0.51828768597E+03  0.51828768597E+03  0.00000000000E+00 0. -1.
         -1   -1    0    0    0  501 -0.00000000000E+00 -0.00000000000E+00 -0.19274690844E+03  0.19274690844E+03  0.00000000000E+00 0.  1.
         23    2    1    2    0    0 -0.15111698761E+03 -0.23278724997E+03  0.42181521363E+02  0.29514301785E+03  0.91125586665E+02 0.  0.
          5    1    1    2  502    0  0.13161595965E+03  0.91016255944E+02  0.13125210725E+03  0.20700557417E+03  0.41800000000E+01 0. -1.
         -5    1    1    2    0  502  0.19501027957E+02  0.14177099403E+03  0.15210714892E+03  0.20888600239E+03  0.41800000000E+01 0. -1.
        -11    1    3    3    0    0 -0.25455283055E+02 -0.99620760632E+02 -0.13650297608E+02  0.10372366176E+03  0.00000000000E+00 0.  1.
         11    1    3    3    0    0 -0.12566170455E+03 -0.13316648934E+03  0.55831818971E+02  0.19141935609E+03  0.00000000000E+00 0. -1.
</event>
<event>
 7    1  0.6610867E-006  0.1831662E+03  0.7561462E-02  0.1164773E+00
          3   -1    0    0  501    0  0.00000000000E+00  0.00000000000E+00  0.36436700131E+03  0.36436700131E+03  0.00000000000E+00 0. -1.
         -3   -1    0    0    0  501 -0.00000000000E+00 -0.00000000000E+00 -0.13125927969E+03  0.13125927969E+03  0.00000000000E+00 0.  1.
         23    2    1    2    0    0 -0.91756226381E+01 -0.16888987416E+03  0.15360392796E+02  0.19284347645E+03  0.91349237003E+02 0.  0.
          5    1    1    2  502    0  0.25451648753E+02  0.13618853232E+03  0.22598298442E+03  0.26510542131E+03  0.41800000000E+01 0.  1.
         -5    1    1    2    0  502 -0.16276026115E+02  0.32701341839E+02 -0.82356556022E+01  0.37677383234E+02  0.41800000000E+01 0.  1.
        -11    1    3    3    0    0  0.35366346542E+02 -0.11867892354E+03 -0.65841199359E+00  0.12383819632E+03  0.00000000000E+00 0.  1.
         11    1    3    3    0    0 -0.44541969180E+02 -0.50210950614E+02  0.16018804790E+02  0.69005280137E+02  0.00000000000E+00 0. -1.
</event>
<event>
 7    1  0.6610867E-006  0.1251025E+03  0.7561462E-02  0.1234909E+00
         -1   -1    0    0    0  501 -0.00000000000E+00  0.00000000000E+00  0.99601336419E+02  0.99601336419E+02  0.00000000000E+00 0.  1.
          1   -1    0    0  501    0  0.00000000000E+00 -0.00000000000E+00 -0.15852267959E+03  0.15852267959E+03  0.00000000000E+00 0. -1.
         23    2    1    2    0    0 -0.49493930975E+02  0.38123192079E+02 -0.16490819435E+02  0.11200635246E+03  0.91490157326E+02 0.  0.
          5    1    1    2  502    0  0.18621096617E+01 -0.77648703323E+02 -0.23936099150E+02  0.81383031540E+02  0.41800000000E+01 0.  1.
         -5    1    1    2    0  502  0.47631821313E+02  0.39525511244E+02 -0.18494424582E+02  0.64734632009E+02  0.41800000000E+01 0.  1.
        -11    1    3    3    0    0 -0.68084545505E+02  0.53235858890E+02 -0.16808169031E+02  0.88045877556E+02  0.00000000000E+00 0. -1.
         11    1    3    3    0    0  0.18590614530E+02 -0.15112666811E+02  0.31734959530E+00  0.23960474902E+02  0.00000000000E+00 0.  1.
</event>
<event>
 7    1  0.6610867E-006  0.9025891E+02  0.7561462E-02  0.1302226E+00
          1   -1    0    0  501    0  0.00000000000E+00  0.00000000000E+00  0.22993795696E+03  0.22993795696E+03  0.00000000000E+00 0. -1.
         -1   -1    0    0    0  501 -0.00000000000E+00 -0.00000000000E+00 -0.55016569268E+02  0.55016569268E+02  0.00000000000E+00 0.  1.
         23    2    1    2    0    0  0.28621113139E+02  0.97481665445E+01  0.40053557679E+02  0.98538081023E+02  0.84801362375E+02 0.  0.
          5    1    1    2  502    0 -0.53276235965E+02 -0.54068718603E+02  0.95582348142E+02  0.12212797111E+03  0.41800000000E+01 0. -1.
         -5    1    1    2    0  502  0.24655122826E+02  0.44320552058E+02  0.39285481875E+02  0.64288474103E+02  0.41800000000E+01 0. -1.
        -11    1    3    3    0    0  0.38179166267E+02 -0.22766211195E+01 -0.15224312814E+02  0.41165658518E+02  0.00000000000E+00 0.  1.
         11    1    3    3    0    0 -0.95580531275E+01  0.12024787664E+02  0.55277870492E+02  0.57372422505E+02  0.00000000000E+00 0. -1.
</event>
<event>
 7    1  0.6610867E-006  0.9984708E+02  0.7561462E-02  0.1280618E+00
          1   -1    0    0  501    0  0.00000000000E+00  0.00000000000E+00  0.90287931053E+02  0.90287931053E+02  0.00000000000E+00 0. -1.
         -1   -1    0    0    0  501 -0.00000000000E+00 -0.00000000000E+00 -0.15177934480E+03  0.15177934480E+03  0.00000000000E+00 0.  1.
         23    2    1    2    0    0  0.31263475059E+02  0.20933266917E+02 -0.58226565410E+02  0.11143469600E+03  0.87245355272E+02 0.  0.
          5    1    1    2  502    0 -0.11224208733E+02  0.44837097972E+02 -0.31604088923E+02  0.56148366431E+02  0.41800000000E+01 0.  1.
         -5    1    1    2    0  502 -0.20039266326E+02 -0.65770364890E+02  0.28339240583E+02  0.74484213424E+02  0.41800000000E+01 0.  1.
        -11    1    3    3    0    0  0.25391125756E+02  0.49289192201E+02 -0.60894362216E+02  0.82354460017E+02  0.00000000000E+00 0.  1.
         11    1    3    3    0    0  0.58723493025E+01 -0.28355925284E+02  0.26677968060E+01  0.29080235983E+02  0.00000000000E+00 0. -1.
</event>
<event>
 7    1  0.6610867E-006  0.8081313E+02  0.7561462E-02  0.1326760E+00
          1   -1    0    0  501    0  0.00000000000E+00  0.00000000000E+00  0.66820523591E+03  0.66820523591E+03  0.00000000000E+00 0. -1.
         -1   -1    0    0    0  501 -0.00000000000E+00 -0.00000000000E+00 -0.27364128591E+02  0.27364128591E+02  0.00000000000E+00 0.  1.
         23    2    1    2    0    0 -0.39156481716E+02  0.58501923607E+02  0.17940135873E+03  0.21232044964E+03  0.89103426956E+02 0.  0.
          5    1    1    2  502    0  0.20516939918E+02 -0.38048319964E+02  0.34691899372E+02  0.55584348136E+02  0.41800000000E+01 0. -1.
         -5    1    1    2    0  502  0.18639541799E+02 -0.20453603643E+02  0.42674784922E+03  0.42766456673E+03  0.41800000000E+01 0. -1.
        -11    1    3    3    0    0 -0.34640810715E+02  0.69865832271E+02  0.18353298891E+03  0.19941308458E+03  0.00000000000E+00 0. -1.
         11    1    3    3    0    0 -0.45156710009E+01 -0.11363908663E+02 -0.41316301804E+01  0.12907365054E+02  0.00000000000E+00 0.  1.
</event>
<event>
 7    1  0.6610867E-006  0.1092415E+03  0.7561462E-02  0.1261981E+00
         -4   -1    0    0    0  501 -0.00000000000E+00  0.00000000000E+00  0.28122090147E+02  0.28122090147E+02  0.00000000000E+00 0.  1.
          4   -1    0    0  501    0  0.00000000000E+00 -0.00000000000E+00 -0.69425872864E+03  0.69425872864E+03  0.00000000000E+00 0. -1.
         23    2    1    2    0    0  0.53983619848E+02  0.59493110510E+02 -0.21279788232E+03  0.24528714223E+03  0.91810576827E+02 0.  0.
          5    1    1    2  502    0  0.15727400572E+02 -0.10475643017E+02 -0.30765901895E+03  0.30826714805E+03  0.41800000000E+01 0.  1.
         -5    1    1    2    0  502 -0.69711020420E+02 -0.49017467493E+02 -0.14567973722E+03  0.16882652850E+03  0.41800000000E+01 0.  1.
        -11    1    3    3    0    0  0.42687931954E+02 -0.96356795177E+01 -0.41878191623E+02  0.60571352865E+02  0.00000000000E+00 0.  1.
         11    1    3    3    0    0  0.11295687894E+02  0.69128790028E+02 -0.17091969069E+03  0.18471578937E+03  0.00000000000E+00 0. -1.
</event>
<event>
 7    1  0.6610867E-006  0.1563033E+03  0.7561462E-02  0.1192935E+00
         -2   -1    0    0    0  501 -0.00000000000E+00  0.00000000000E+00  0.15400737310E+03  0.15400737310E+03  0.00000000000E+00 0.  1.
          2   -1    0    0  501    0  0.00000000000E+00 -0.00000000000E+00 -0.19439730180E+03  0.19439730180E+03  0.00000000000E+00 0. -1.
         23    2    1    2    0    0  0.14732346554E+02 -0.13129806833E+03 -0.39438722022E+02  0.16646239914E+03  0.93263566047E+02 0.  0.
          5    1    1    2  502    0  0.42280058969E+02  0.11878321174E+02 -0.19535475385E+02  0.48247332556E+02  0.41800000000E+01 0. -1.
         -5    1    1    2    0  502 -0.57012405522E+02  0.11941974715E+03  0.18584268705E+02  0.13369494320E+03  0.41800000000E+01 0. -1.
        -11    1    3    3    0    0 -0.92393307533E+01 -0.63803105380E+02 -0.63903804345E+02  0.90773882250E+02  0.00000000000E+00 0. -1.
         11    1    3    3    0    0  0.23971677307E+02 -0.67494962948E+02  0.24465082324E+02  0.75688516892E+02  0.00000000000E+00 0.  1.
</event>
<event>
 7    1  0.6610867E-006  0.9491842E+02  0.7561462E-02  0.1291360E+00
          4   -1    0    0  501    0  0.00000000000E+00  0.00000000000E+00  0.31181952903E+03  0.31181952903E+03  0.00000000000E+00 0. -1.
         -4   -1    0    0    0  501 -0.00000000000E+00 -0.00000000000E+00 -0.63606521631E+02  0.63606521631E+02  0.00000000000E+00 0.  1.
         23    2    1    2    0    0  0.77655571390E+01  0.28810607990E+01  0.19650462424E+00  0.97521529844E+02  0.97168954816E+02 0.  0.
          5    1    1    2  502    0  0.54660545499E+02 -0.23217116866E+02  0.11380431187E+03  0.12843560079E+03  0.41800000000E+01 0. -1.
         -5    1    1    2    0  502 -0.62426102638E+02  0.20336056067E+02  0.13421219091E+03  0.14946892003E+03  0.41800000000E+01 0. -1.
        -11    1    3    3    0    0 -0.27739812552E+02 -0.48943938765E+01  0.36529810069E+02  0.46128942277E+02  0.00000000000E+00 0. -1.
         11    1    3    3    0    0  0.35505369691E+02  0.77754546756E+01 -0.36333305445E+02  0.51392587567E+02  0.00000000000E+00 0.  1.
</event>
<event>
 7    1  0.6610867E-006  0.1193487E+03  0.7561462E-02  0.1244175E+00
          1   -1    0    0  501    0  0.00000000000E+00  0.00000000000E+00  0.39398588197E+03  0.39398588197E+03  0.00000000000E+00 0. -1.
         -1   -1    0    0    0  501 -0.00000000000E+00 -0.00000000000E+00 -0.60225031974E+02  0.60225031974E+02  0.00000000000E+00 0.  1.
         23    2    1    2    0    0 -0.84182884929E+02  0.10082120973E+02  0.51417630404E+02  0.13400996277E+03  0.90147047247E+02 0.  0.
          5    1    1    2  502    0  0.34786485612E+02  0.53030691166E+02  0.17492008212E+03  0.18610980983E+03  0.41800000000E+01 0. -1.
         -5    1    1    2    0  502  0.49396399317E+02 -0.63112812139E+02  0.10742313747E+03  0.13409114134E+03  0.41800000000E+01 0. -1.
        -11    1    3    3    0    0 -0.32798736858E+02  0.25155106572E+02 -0.19042969930E+02  0.45510122279E+02  0.00000000000E+00 0.  1.
         11    1    3    3    0    0 -0.51384148071E+02 -0.15072985599E+02  0.70460600333E+02  0.88499840493E+02  0.00000000000E+00 0. -1.
</event>
<event>
 7    1  0.6610867E-006  0.8238379E+02  0.7561462E-02  0.1322420E+00
          1   -1    0    0  501    0  0.00000000000E+00  0.00000000000E+00  0.13509392077E+03  0.13509392077E+03  0.00000000000E+00 0. -1.
         -1   -1    0    0    0  501 -0.00000000000E+00 -0.00000000000E+00 -0.12064520662E+03  0.12064520662E+03  0.00000000000E+00 0.  1.
         23    2    1    2    0    0  0.87504418241E+01 -0.13273852019E+02 -0.59009526803E+02  0.10980384636E+03  0.91224969402E+02 0.  0.
          5    1    1    2  502    0  0.11482343453E+02 -0.52792434085E+02  0.47327105660E+02  0.71945900772E+02  0.41800000000E+01 0.  1.
         -5    1    1    2    0  502 -0.20232785277E+02  0.66066286104E+02  0.26131135293E+02  0.73989380261E+02  0.41800000000E+01 0.  1.
        -11    1    3    3    0    0  0.22434016262E+02 -0.20306338067E+00  0.19081879065E+02  0.29452409562E+02  0.00000000000E+00 0. -1.
         11    1    3    3    0    0 -0.13683574438E+02 -0.13070788639E+02 -0.78091405868E+02  0.80351436797E+02  0.00000000000E+00 0.  1.
</event>
<event>
 7    1  0.6610867E-006  0.2779278E+03  0.7561462E-02  0.1096826E+00
          2   -1    0    0  501    0  0.00000000000E+00  0.00000000000E+00  0.17127597641E+04  0.17127597641E+04  0.00000000000E+00 0. -1.
         -2   -1    0    0    0  501 -0.00000000000E+00 -0.00000000000E+00 -0.15668583956E+03  0.15668583956E+03  0.00000000000E+00 0.  1.
         23    2    1    2    0    0 -0.27172907202E+03  0.34406670280E+02  0.13201992522E+01  0.28580204323E+03  0.81612238343E+02 0.  0.
          5    1    1    2  502    0  0.18762917770E+03 -0.38533520314E+02  0.73478557191E+03  0.75935291505E+03  0.41800000000E+01 0. -1.
         -5    1    1    2    0  502  0.84099894326E+02  0.41268500339E+01  0.81996815338E+03  0.82429064539E+03  0.41800000000E+01 0. -1.
        -11    1    3    3    0    0 -0.16575013429E+02 -0.12204461890E+02 -0.15670259990E+02  0.25869615543E+02  0.00000000000E+00 0.  1.
         11    1    3    3    0    0 -0.25515405859E+03  0.46611132171E+02  0.16990459242E+02  0.25993242769E+03  0.00000000000E+00 0. -1.
</event>
<event>
 7    1  0.6610867E-006  0.1129617E+03  0.7561462E-02  0.1255181E+00
         -1   -1    0    0    0  501 -0.00000000000E+00  0.00000000000E+00  0.26992420032E+03  0.26992420032E+03  0.00000000000E+00 0.  1.
          1   -1    0    0  501    0  0.00000000000E+00 -0.00000000000E+00 -0.86802415662E+02  0.86802415662E+02  0.00000000000E+00 0. -1.
         23    2    1    2    0    0 -0.59860433723E+02  0.76133430257E+02  0.11803529829E+03  0.18566095088E+03  0.10563184327E+03 0.  0.
          5    1    1    2  502    0 -0.17547252734E+02  0.17908234731E+01 -0.23652086324E+02  0.29799441517E+02  0.41800000000E+01 0.  1.
         -5    1    1    2    0  502  0.77407686458E+02 -0.77924253730E+02  0.88738572695E+02  0.14126622358E+03  0.41800000000E+01 0.  1.
        -11    1    3    3    0    0 -0.16636648666E+02  0.11886990558E+02  0.10520308712E+03  0.10717167612E+03  0.00000000000E+00 0.  1.
         11    1    3    3    0    0 -0.43223785057E+02  0.64246439699E+02  0.12832211170E+02  0.78489274759E+02  0.00000000000E+00 0. -1.
</event>
<event>
 7    1  0.6610867E-006  0.1540182E+03  0.7561462E-02  0.1195621E+00
          2   -1    0    0  501    0  0.00000000000E+00  0.00000000000E+00  0.35205073617E+03  0.35205073617E+03  0.00000000000E+00 0. -1.
         -2   -1    0    0    0  501 -0.00000000000E+00 -0.00000000000E+00 -0.12907466966E+03  0.12907466966E+03  0.00000000000E+00 0.  1.
         23    2    1    2    0    0 -0.27539620422E+01 -0.15699333990E+01 -0.59625013815E+02  0.10889075654E+03  0.91060450192E+02 0.  0.
          5    1    1    2  502    0 -0.43705011707E+02 -0.97811276562E+02  0.22271939933E+03  0.24718126367E+03  0.41800000000E+01 0. -1.
         -5    1    1    2    0  502  0.46458973749E+02  0.99381209961E+02  0.59881681000E+02  0.12505338562E+03  0.41800000000E+01 0.  1.
        -11    1    3    3    0    0  0.44047309761E+02 -0.35989096835E+01 -0.26719239921E+02  0.51643348363E+02  0.00000000000E+00 0.  1.
         11    1    3    3    0    0 -0.46801271804E+02  0.20289762845E+01 -0.32905773894E+02  0.57247408175E+02  0.00000000000E+00 0. -1.
</event>
<event>
 7    1  0.6610867E-006  0.1111244E+03  0.7561462E-02  0.1258502E+00
         -2   -1    0    0    0  501 -0.00000000000E+00  0.00000000000E+00  0.47575187686E+02  0.47575187686E+02  0.00000000000E+00 0.  1.
          2   -1    0    0  501    0  0.00000000000E+00 -0.00000000000E+00 -0.27673028261E+03  0.27673028261E+03  0.00000000000E+00 0. -1.
         23    2    1    2    0    0 -0.39565826088E+02 -0.31774007434E+01 -0.96717185481E+02  0.13785553341E+03  0.89857574272E+02 0.  0.
          5    1    1    2  502    0  0.77651047481E+02 -0.19875867987E+02 -0.55912053120E+02  0.97818021791E+02  0.41800000000E+01 0.  1.
         -5    1    1    2    0  502 -0.38085221393E+02  0.23053268731E+02 -0.76525856320E+02  0.88631915094E+02  0.41800000000E+01 0.  1.
        -11    1    3    3    0    0  0.28731042603E+02  0.18382524519E+01 -0.37820301652E+02  0.47531328597E+02  0.00000000000E+00 0.  1.
         11    1    3    3    0    0 -0.68296868690E+02 -0.50156531953E+01 -0.58896883829E+02  0.90324204810E+02  0.00000000000E+00 0. -1.
</event>
<event>
 7    1  0.6610867E-006  0.1464262E+03  0.7561462E-02  0.1204934E+00
         -1   -1    0    0    0  501 -0.00000000000E+00  0.00000000000E+00  0.57329793273E+03  0.57329793273E+03  0.00000000000E+00 0.  1.
          1   -1    0    0  501    0  0.00000000000E+00 -0.00000000000E+00 -0.64497229584E+02  0.64497229584E+02  0.00000000000E+00 0. -1.
         23    2    1    2    0    0 -0.47676085466E+02 -0.44720605512E+02  0.41609720194E+03  0.43123721735E+03  0.92497105293E+02 0.  0.
          5    1    1    2  502    0 -0.63395860810E+02  0.33452207950E+02  0.47197644009E+02  0.85925405932E+02  0.41800000000E+01 0. -1.
         -5    1    1    2    0  502  0.11107194628E+03  0.11268397562E+02  0.45505857202E+02  0.12063253903E+03  0.41800000000E+01 0.  1.
        -11    1    3    3    0    0 -0.10867943783E+02 -0.65949323467E+02  0.19620360027E+03  0.20727585056E+03  0.00000000000E+00 0.  1.
         11    1    3    3    0    0 -0.36808141683E+02  0.21228717955E+02  0.21989360167E+03  0.22396136679E+03  0.00000000000E+00 0. -1.
</event>
<event>
 7    1  0.6610867E-006  0.1705662E+03  0.7561462E-02  0.1177259E+00
         -3   -1    0    0    0  501 -0.00000000000E+00  0.00000000000E+00  0.87548450875E+03  0.87548450875E+03  0.00000000000E+00 0.  1.
          3   -1    0    0  501    0  0.00000000000E+00 -0.00000000000E+00 -0.44410784718E+02  0.44410784718E+02  0.00000000000E+00 0. -1.
         23    2    1    2    0    0  0.11849663673E+03  0.75471494238E+02  0.59576723100E+03  0.61864109901E+03  0.89670599928E+02 0.  0.
          5    1    1    2  502    0 -0.61383449794E+02  0.20670157216E+02  0.13981084624E+03  0.15414191006E+03  0.41800000000E+01 0.  1.
         -5    1    1    2    0  502 -0.57113186939E+02 -0.96141651455E+02  0.95495646790E+02  0.14711228440E+03  0.41800000000E+01 0.  1.
        -11    1    3    3    0    0  0.22287280499E+02  0.63590212815E+02  0.29668502689E+03  0.30424076521E+03  0.00000000000E+00 0.  1.
         11    1    3    3    0    0  0.96209356234E+02  0.11881281424E+02  0.29908220411E+03  0.31440033380E+03  0.00000000000E+00 0. -1.
</event>
<event>
 7    1  0.6610867E-006  0.1047174E+03  0.7561462E-02  0.1270677E+00
         -1   -1    0    0    0  501 -0.00000000000E+00  0.00000000000E+00  0.17343757521E+02  0.17343757521E+02  0.00000000000E+00 0.  1.
          1   -1    0    0  501    0  0.00000000000E+00 -0.00000000000E+00 -0.90498190422E+03  0.90498190422E+03  0.00000000000E+00 0. -1.
         23    2    1    2    0    0 -0.31161336538E+02  0.37506734564E+02 -0.22072691565E+03  0.24203465319E+03  0.86502127259E+02 0.  0.
          5    1    1    2  502    0  0.25891662506E+02  0.31854286320E+02 -0.87916898293E+02  0.97118109278E+02  0.41800000000E+01 0.  1.
         -5    1    1    2    0  502  0.52696740317E+01 -0.69361020884E+02 -0.57899433276E+03  0.58317289927E+03  0.41800000000E+01 0.  1.
        -11    1    3    3    0    0 -0.47506149502E+02  0.56243922253E+02 -0.15064616082E+03  0.16767372722E+03  0.00000000000E+00 0.  1.
         11    1    3    3    0    0  0.16344812964E+02 -0.18737187689E+02 -0.70080754828E+02  0.74360925966E+02  0.00000000000E+00 0. -1.
</event>
<event>
 7    1  0.6610867E-006  0.1600300E+03  0.7561462E-02  0.1188663E+00
          2   -1    0    0  501    0  0.00000000000E+00  0.00000000000E+00  0.14409967835E+04  0.14409967835E+04  0.00000000000E+00 0. -1.
         -2   -1    0    0    0  501 -0.00000000000E+00 -0.00000000000E+00 -0.20367963531E+02  0.20367963531E+02  0.00000000000E+00 0.  1.
         23    2    1    2    0    0 -0.11010433122E+03 -0.59893659106E+02  0.47781084015E+03  0.50206107783E+03  0.89732450984E+02 0.  0.
          5    1    1    2  502    0  0.16849369531E+02 -0.38021287902E+02  0.22061806721E+03  0.22454247609E+03  0.41800000000E+01 0.  1.
         -5    1    1    2    0  502  0.93254961685E+02  0.97914947008E+02  0.72219991265E+03  0.73476119315E+03  0.41800000000E+01 0.  1.
        -11    1    3    3    0    0 -0.61678969224E+02 -0.70224680442E+02  0.21216582294E+03  0.23184075874E+03  0.00000000000E+00 0.  1.
         11    1    3    3    0    0 -0.48425361993E+02  0.10331021336E+02  0.26564501721E+03  0.27022031910E+03  0.00000000000E+00 0. -1.
</event>
<event>
 7    1  0.6610867E-006  0.6246576E+02  0.7561462E-02  0.1387766E+00
         -1   -1    0    0    0  501 -0.00000000000E+00  0.00000000000E+00  0.20693286406E+02  0.20693286406E+02  0.00000000000E+00 0.  1.
          1   -1    0    0  501    0  0.00000000000E+00 -0.00000000000E+00 -0.66936487294E+03  0.66936487294E+03  0.00000000000E+00 0. -1.
         23    2    1    2    0    0 -0.42240549565E+02  0.16318110563E+02 -0.24295540150E+03  0.26308793926E+03  0.90207493650E+02 0.  0.
          5    1    1    2  502    0  0.56304703749E+00  0.92904007652E+01  0.63316407473E+01  0.12007940827E+02  0.41800000000E+01 0. -1.
         -5    1    1    2    0  502  0.41677502527E+02 -0.25608511328E+02 -0.41204782579E+03  0.41496227926E+03  0.41800000000E+01 0. -1.
        -11    1    3    3    0    0 -0.45041627994E+02 -0.39116376549E+01 -0.23775228741E+03  0.24201280820E+03  0.00000000000E+00 0. -1.
         11    1    3    3    0    0  0.28010784292E+01  0.20229748218E+02 -0.52031140819E+01  0.21075131066E+02  0.00000000000E+00 0.  1.
</event>
<event>
 7    1  0.6610867E-006  0.8782698E+02  0.7561462E-02  0.1308201E+00
         -1   -1    0    0    0  501 -0.00000000000E+00  0.00000000000E+00  0.41351663155E+03  0.41351663155E+03  0.00000000000E+00 0.  1.
          1   -1    0    0  501    0  0.00000000000E+00 -0.00000000000E+00 -0.35033904684E+02  0.35033904684E+02  0.00000000000E+00 0. -1.
         23    2    1    2    0    0  0.30933801668E+02 -0.19552129166E+01  0.21969214005E+03  0.23939505224E+03  0.89914580007E+02 0.  0.
          5    1    1    2  502    0 -0.54801803770E+02  0.45069938784E+02  0.42573147836E+02  0.82852171940E+02  0.41800000000E+01 0. -1.
         -5    1    1    2    0  502  0.23868002102E+02 -0.43114725868E+02  0.11621743899E+03  0.12630331206E+03  0.41800000000E+01 0.  1.
        -11    1    3    3    0    0 -0.79048057455E+01  0.11552929291E+02 -0.18040330457E+01  0.14114200803E+02  0.00000000000E+00 0. -1.
         11    1    3    3    0    0  0.38838607414E+02 -0.13508142208E+02  0.22149617309E+03  0.22528085144E+03  0.00000000000E+00 0.  1.
</event>
<event>
 7    1  0.6610867E-006  0.1663427E+03  0.7561462E-02  0.1181716E+00
         -4   -1    0    0    0  501 -0.00000000000E+00  0.00000000000E+00  0.15583225784E+03  0.15583225784E+03  0.00000000000E+00 0.  1.
          4   -1    0    0  501    0  0.00000000000E+00 -0.00000000000E+00 -0.18607232914E+03  0.18607232914E+03  0.00000000000E+00 0. -1.
         23    2    1    2    0    0  0.11246263931E+03  0.22259537985E+02  0.10596790260E+02  0.16738538277E+03  0.12149996762E+03 0.  0.
          5    1    1    2  502    0 -0.71759098997E+02  0.46948785948E+02 -0.38484508527E+02  0.94085528044E+02  0.41800000000E+01 0.  1.
         -5    1    1    2    0  502 -0.40703540312E+02 -0.69208323933E+02 -0.23523530297E+01  0.80433676158E+02  0.41800000000E+01 0.  1.
        -11    1    3    3    0    0  0.13156296663E+03 -0.67075936691E+01  0.14220481388E+02  0.13249916261E+03  0.00000000000E+00 0.  1.
         11    1    3    3    0    0 -0.19100327321E+02  0.28967131654E+02 -0.36236911284E+01  0.34886220166E+02  0.00000000000E+00 0. -1.
</event>
<event>
 7    1  0.6610867E-006  0.1661342E+03  0.7561462E-02  0.1181940E+00
          1   -1    0    0  501    0  0.00000000000E+00  0.00000000000E+00  0.13333039400E+04  0.13333039400E+04  0.00000000000E+00 0. -1.
         -1   -1    0    0    0  501 -0.00000000000E+00 -0.00000000000E+00 -0.22392633392E+02  0.22392633392E+02  0.00000000000E+00 0.  1.
         23    2    1    2    0    0  0.23173093977E+02  0.12730767501E+03  0.46947083516E+03  0.49522392722E+03  0.89997981235E+02 0.  0.
          5    1    1    2  502    0  0.29398892367E+02  0.68761488232E+01  0.82308611795E+02  0.87771044602E+02  0.41800000000E+01 0.  1.
         -5    1    1    2    0  502 -0.52571986344E+02 -0.13418382383E+03  0.75913185966E+03  0.77270160158E+03  0.41800000000E+01 0.  1.
        -11    1    3    3    0    0  0.53869612388E+02  0.10972902242E+03  0.36601382955E+03  0.38588666331E+03  0.00000000000E+00 0.  1.
         11    1    3    3    0    0 -0.30696518411E+02  0.17578652583E+02  0.10345700561E+03  0.10933726391E+03  0.00000000000E+00 0. -1.
</event>
<event>
 7    1  0.6610867E-006  0.1787103E+03  0.7561462E-02  0.1169057E+00
          2   -1    0    0  501    0  0.00000000000E+00  0.00000000000E+00  0.12128346574E+04  0.12128346574E+04  0.00000000000E+00 0.  1.
         -2   -1    0    0    0  501 -0.00000000000E+00 -0.00000000000E+00 -0.71918038538E+02  0.71918038538E+02  0.00000000000E+00 0. -1.
         23    2    1    2    0    0  0.48240603350E+02  0.15842468893E+03  0.83056061057E+02  0.20672578339E+03  0.91715333315E+02 0.  0.
          5    1    1    2  502    0 -0.31601195632E+02 -0.13842553106E+03  0.10297358999E+04  0.10394872578E+04  0.41800000000E+01 0.  1.
         -5    1    1    2    0  502 -0.16639407718E+02 -0.19999157868E+02  0.28124657883E+02  0.38539654716E+02  0.41800000000E+01 0.  1.
        -11    1    3    3    0    0 -0.27201214336E+02  0.50236315684E+02  0.19944631056E+02  0.60509352854E+02  0.00000000000E+00 0. -1.
         11    1    3    3    0    0  0.75441817686E+02  0.10818837324E+03  0.63111430001E+02  0.14621643053E+03  0.00000000000E+00 0.  1.
</event>
<event>
 7    1  0.6610867E-006  0.1192573E+03  0.7561462E-02  0.1244327E+00
         -1   -1    0    0    0  501 -0.00000000000E+00  0.00000000000E+00  0.25616976133E+02  0.25616976133E+02  0.00000000000E+00 0.  1.
          1   -1    0    0  501    0  0.00000000000E+00 -0.00000000000E+00 -0.67126183408E+03  0.67126183408E+03  0.00000000000E+00 0. -1.
         23    2    1    2    0    0  0.18502253666E+02 -0.54106092688E+02 -0.16646335477E+03  0.19834871950E+03  0.91445958835E+02 0.  0.
          5    1    1    2  502    0 -0.59629303416E+02  0.67647682751E+02 -0.37331723034E+03  0.38407693198E+03  0.41800000000E+01 0.  1.
         -5    1    1    2    0  502  0.41127049750E+02 -0.13541590063E+02 -0.10586427284E+03  0.11445315874E+03  0.41800000000E+01 0.  1.
        -11    1    3    3    0    0 -0.32728262944E+02 -0.38131375557E+01 -0.32057676571E+02  0.45971445926E+02  0.00000000000E+00 0. -1.
         11    1    3    3    0    0  0.51230516611E+02 -0.50292955132E+02 -0.13440567820E+03  0.15237727357E+03  0.00000000000E+00 0.  1.
</event>
<event>
 7    1  0.6610867E-006  0.2085295E+03  0.7561462E-02  0.1142736E+00
         -3   -1    0    0    0  501 -0.00000000000E+00  0.00000000000E+00  0.15339901383E+03  0.15339901383E+03  0.00000000000E+00 0.  1.
          3   -1    0    0  501    0  0.00000000000E+00 -0.00000000000E+00 -0.38914697015E+03  0.38914697015E+03  0.00000000000E+00 0. -1.
         23    2    1    2    0    0  0.16066632326E+03 -0.86785113043E+02  0.19689162903E+02  0.20454866421E+03  0.90039822403E+02 0.  0.
          5    1    1    2  502    0 -0.36362271056E+01 -0.26346513461E+02 -0.41595470839E+02  0.49548123208E+02  0.41800000000E+01 0. -1.
         -5    1    1    2    0  502 -0.15703009615E+03  0.11313162650E+03 -0.21384164839E+03  0.28844919657E+03  0.41800000000E+01 0. -1.
        -11    1    3    3    0    0  0.62766348314E+02 -0.75226240416E+02 -0.16857627533E+02  0.99412179001E+02  0.00000000000E+00 0.  1.
         11    1    3    3    0    0  0.97899974944E+02 -0.11558872627E+02  0.36546790436E+02  0.10513648521E+03  0.00000000000E+00 0. -1.
</event>
<event>
 7    1  0.6610867E-006  0.1162004E+03  0.7561462E-02  0.1249500E+00
         -2   -1    0    0    0  501 -0.00000000000E+00  0.00000000000E+00  0.33425423808E+02  0.33425423808E+02  0.00000000000E+00 0.  1.
          2   -1    0    0  501    0  0.00000000000E+00 -0.00000000000E+00 -0.46290291301E+03  0.46290291301E+03  0.00000000000E+00 0. -1.
         23    2    1    2    0    0 -0.54867817068E+02 -0.24804206702E+02 -0.17319610530E+03  0.20485953937E+03  0.91349953270E+02 0.  0.
          5    1    1    2  502    0 -0.14002557923E+02  0.56665718914E+02 -0.76754508207E+02  0.96518403730E+02  0.41800000000E+01 0. -1.
         -5    1    1    2    0  502  0.68870374991E+02 -0.31861512212E+02 -0.17952687570E+03  0.19495039372E+03  0.41800000000E+01 0. -1.
        -11    1    3    3    0    0 -0.73225155004E+02 -0.92214704479E+01 -0.81043756732E+02  0.10961318054E+03  0.00000000000E+00 0.  1.
         11    1    3    3    0    0  0.18357337936E+02 -0.15582736254E+02 -0.92152348564E+02  0.95246358834E+02  0.00000000000E+00 0. -1.
</event>
<event>
 7    1  0.6610867E-006  0.6026124E+02  0.7561462E-02  0.1396739E+00
          2   -1    0    0  501    0  0.00000000000E+00  0.00000000000E+00  0.75997031515E+02  0.75997031515E+02  0.00000000000E+00 0. -1.
         -2   -1    0    0    0  501 -0.00000000000E+00 -0.00000000000E+00 -0.15622137851E+03  0.15622137851E+03  0.00000000000E+00 0.  1.
         23    2    1    2    0    0 -0.89299756890E+00  0.25313449744E+02 -0.33050581725E+02  0.96161798710E+02  0.86678615565E+02 0.  0.
          5    1    1    2  502    0 -0.27534581627E+02  0.34153453215E+01 -0.79390116988E+02  0.84202617800E+02  0.41800000000E+01 0. -1.
         -5    1    1    2    0  502  0.28427579196E+02 -0.28728795066E+02  0.32216351721E+02  0.51853993511E+02  0.41800000000E+01 0. -1.
        -11    1    3    3    0    0 -0.13960859951E+01  0.38555312419E+02 -0.56977407894E+02  0.68810509242E+02  0.00000000000E+00 0.  1.
         11    1    3    3    0    0  0.50308842616E+00 -0.13241862674E+02  0.23926826169E+02  0.27351289468E+02  0.00000000000E+00 0. -1.
</event>
<event>
 7    1  0.6610867E-006  0.1378519E+03  0.7561462E-02  0.1216249E+00
          1   -1    0    0  501    0  0.00000000000E+00  0.00000000000E+00  0.22062606193E+03  0.22062606193E+03  0.00000000000E+00 0. -1.
         -1   -1    0    0    0  501 -0.00000000000E+00 -0.00000000000E+00 -0.95990432541E+02  0.95990432541E+02  0.00000000000E+00 0.  1.
         23    2    1    2    0    0 -0.87466615601E+02  0.38362675802E+02  0.39674339865E+02  0.13776481490E+03  0.91010918250E+02 0.  0.
          5    1    1    2  502    0 -0.29817628113E+02 -0.35492630447E+01  0.35858408318E+02  0.46957279111E+02  0.41800000000E+01 0. -1.
         -5    1    1    2    0  502  0.11728424371E+03 -0.34813412758E+02  0.49102881211E+02  0.13189440047E+03  0.41800000000E+01 0. -1.
        -11    1    3    3    0    0 -0.64336152719E+02  0.62391142581E+02  0.50286927807E+02  0.10276463559E+03  0.00000000000E+00 0.  1.
         11    1    3    3    0    0 -0.23130462881E+02 -0.24028466779E+02 -0.10612587942E+02  0.35000179309E+02  0.00000000000E+00 0. -1.
</event>
<event>
 7    1  0.6610867E-006  0.1626161E+03  0.7561462E-02  0.1185774E+00
         -2   -1    0    0    0  501 -0.00000000000E+00  0.00000000000E+00  0.73817486903E+02  0.73817486903E+02  0.00000000000E+00 0.  1.
          2   -1    0    0  501    0  0.00000000000E+00 -0.00000000000E+00 -0.40743021319E+03  0.40743021319E+03  0.00000000000E+00 0. -1.
         23    2    1    2    0    0  0.10143097537E+03 -0.85844756192E+02 -0.12263619618E+03  0.20229162890E+03  0.90690140485E+02 0.  0.
          5    1    1    2  502    0 -0.67096382515E+02  0.11243613760E+03 -0.18938287417E+03  0.23027625803E+03  0.41800000000E+01 0.  1.
         -5    1    1    2    0  502 -0.34334592854E+02 -0.26591381413E+02 -0.21593655935E+02  0.48679813152E+02  0.41800000000E+01 0.  1.
        -11    1    3    3    0    0  0.63877954380E+02 -0.82630575694E+01 -0.88789715177E+02  0.10969177133E+03  0.00000000000E+00 0. -1.
         11    1    3    3    0    0  0.37553020989E+02 -0.77581698622E+02 -0.33846481003E+02  0.92599857574E+02  0.00000000000E+00 0.  1.
</event>
<event>
 7    1  0.6610867E-006  0.1319493E+03  0.7561462E-02  0.1224592E+00
         -2   -1    0    0    0  501 -0.00000000000E+00  0.00000000000E+00  0.20906361660E+03  0.20906361660E+03  0.00000000000E+00 0.  1.
          2   -1    0    0  501    0  0.00000000000E+00 -0.00000000000E+00 -0.92078280587E+02  0.92078280587E+02  0.00000000000E+00 0. -1.
         23    2    1    2    0    0  0.20018881962E+02  0.82195848300E+02  0.56930499600E+02  0.13862317643E+03  0.93906283850E+02 0.  0.
          5    1    1    2  502    0 -0.56921471230E+01  0.26994872282E+02 -0.12498155325E+02  0.30574498441E+02  0.41800000000E+01 0.  1.
         -5    1    1    2    0  502 -0.14326734839E+02 -0.10919072058E+03  0.72552991742E+02  0.13194422232E+03  0.41800000000E+01 0.  1.
        -11    1    3    3    0    0 -0.39044668209E+01  0.97377328950E+02  0.49624437704E+02  0.10936257985E+03  0.00000000000E+00 0.  1.
         11    1    3    3    0    0  0.23923348783E+02 -0.15181480650E+02  0.73060618961E+01  0.29260596579E+02  0.00000000000E+00 0. -1.
</event>
<event>
 7    1  0.6610867E-006  0.3785054E+03  0.7561462E-02  0.1051488E+00
         -2   -1    0    0    0  501 -0.00000000000E+00  0.00000000000E+00  0.86839279304E+03  0.86839279304E+03  0.00000000000E+00 0.  1.
          2   -1    0    0  501    0  0.00000000000E+00 -0.00000000000E+00 -0.19279025538E+03  0.19279025538E+03  0.00000000000E+00 0. -1.
         23    2    1    2    0    0 -0.10030434607E+03 -0.35425608903E+03  0.51695935250E+03  0.64121392122E+03  0.91378236832E+02 0.  0.
          5    1    1    2  502    0  0.88924423548E+02  0.36297306307E+03  0.15500906873E+03  0.40460138582E+03  0.41800000000E+01 0.  1.
         -5    1    1    2    0  502  0.11379922524E+02 -0.87169740376E+01  0.36341164359E+01  0.15367741386E+02  0.41800000000E+01 0.  1.
        -11    1    3    3    0    0 -0.67059051404E+02 -0.21711223779E+03  0.24079606678E+03  0.33108516420E+03  0.00000000000E+00 0. -1.
         11    1    3    3    0    0 -0.33245294667E+02 -0.13714385124E+03  0.27616328572E+03  0.31012875702E+03  0.00000000000E+00 0.  1.
</event>
<event>
 7    1  0.6610867E-006  0.1870086E+03  0.7561462E-02  0.1161187E+00
          2   -1    0    0  501    0  0.00000000000E+00  0.00000000000E+00  0.75799399355E+03  0.75799399355E+03  0.00000000000E+00 0. -1.
         -2   -1    0    0    0  501 -0.00000000000E+00 -0.00000000000E+00 -0.68340966438E+02  0.68340966438E+02  0.00000000000E+00 0.  1.
         23    2    1    2    0    0 -0.12540576356E+03 -0.12664863695E+03  0.17798422646E+03  0.27026047164E+03  0.97958434482E+02 0.  0.
          5    1    1    2  502    0  0.45238375718E+02  0.21326134284E+02  0.31501837566E+03  0.31899116609E+03  0.41800000000E+01 0. -1.
         -5    1    1    2    0  502  0.80167387845E+02  0.10532250267E+03  0.19665042500E+03  0.23708332226E+03  0.41800000000E+01 0. -1.
        -11    1    3    3    0    0 -0.95620232956E+02 -0.13005365887E+03  0.17798244140E+03  0.24028094511E+03  0.00000000000E+00 0. -1.
         11    1    3    3    0    0 -0.29785530608E+02  0.34050219139E+01  0.17850556317E-02  0.29979526531E+02  0.00000000000E+00 0.  1.
</event>
<event>
 7    1  0.6610867E-006  0.3521407E+03  0.7561462E-02  0.1061740E+00
          4   -1    0    0  501    0  0.00000000000E+00  0.00000000000E+00  0.44626231092E+03  0.44626231092E+03  0.00000000000E+00 0.  1.
         -4   -1    0    0    0  501 -0.00000000000E+00 -0.00000000000E+00 -0.30608775343E+03  0.30608775343E+03  0.00000000000E+00 0. -1.
         23    2    1    2    0    0 -0.33811858302E+03 -0.89369938497E+02  0.48163006074E+01  0.35702558483E+03  0.71644325538E+02 0.  0.
          5    1    1    2  502    0  0.24254566837E+03  0.71909097913E+02  0.15415773484E+03  0.29627925884E+03  0.41800000000E+01 0.  1.
         -5    1    1    2    0  502  0.95572914647E+02  0.17460840583E+02 -0.18799477964E+02  0.99045220681E+02  0.41800000000E+01 0.  1.
        -11    1    3    3    0    0 -0.17196904840E+03 -0.73826391400E+02  0.25492843253E+02  0.18887449465E+03  0.00000000000E+00 0. -1.
         11    1    3    3    0    0 -0.16614953462E+03 -0.15543547097E+02 -0.20676542645E+02  0.16815109018E+03  0.00000000000E+00 0.  1.
</event>
<event>
 7    1  0.6610867E-006  0.1105035E+03  0.7561462E-02  0.1259640E+00
         -2   -1    0    0    0  501 -0.00000000000E+00  0.00000000000E+00  0.81533626846E+02  0.81533626846E+02  0.00000000000E+00 0.  1.
          2   -1    0    0  501    0  0.00000000000E+00 -0.00000000000E+00 -0.29772260868E+03  0.29772260868E+03  0.00000000000E+00 0. -1.
         23    2    1    2    0    0  0.20139905658E+01 -0.62389290919E+02  0.11475733618E+02  0.11209705943E+03  0.92399017810E+02 0.  0.
          5    1    1    2  502    0 -0.44635799801E+02  0.65785424230E+02 -0.20198831836E+03  0.21711017898E+03  0.41800000000E+01 0.  1.
         -5    1    1    2    0  502  0.42621809235E+02 -0.33961333106E+01 -0.25676397095E+02  0.50048997110E+02  0.41800000000E+01 0.  1.
        -11    1    3    3    0    0 -0.13897931259E+02 -0.76145717608E+02  0.31016717783E+02  0.83386807022E+02  0.00000000000E+00 0.  1.
         11    1    3    3    0    0  0.15911921825E+02  0.13756426688E+02 -0.19540984166E+02  0.28710252412E+02  0.00000000000E+00 0. -1.
</event>
<event>
 7    1  0.6610867E-006  0.1685239E+03  0.7561462E-02  0.1179396E+00
         -1   -1    0    0    0  501 -0.00000000000E+00  0.00000000000E+00  0.46925436312E+02  0.46925436312E+02  0.00000000000E+00 0. -1.
          1   -1    0    0  501    0  0.00000000000E+00 -0.00000000000E+00 -0.60728077650E+03  0.60728077650E+03  0.00000000000E+00 0.  1.
         23    2    1    2    0    0  0.93256080348E+02  0.88336406212E+02 -0.24739874869E+03  0.29352924867E+03  0.91941621616E+02 0.  0.
          5    1    1    2  502    0  0.31103831091E+02 -0.15421395486E+02 -0.66084120211E+02  0.74765306736E+02  0.41800000000E+01 0.  1.
         -5    1    1    2    0  502 -0.12435991144E+03 -0.72915010726E+02 -0.24687247128E+03  0.28591165741E+03  0.41800000000E+01 0.  1.
        -11    1    3    3    0    0 -0.74959704652E+01  0.49209431919E+02 -0.83072345267E+02  0.96844061827E+02  0.00000000000E+00 0. -1.
         11    1    3    3    0    0  0.10075205081E+03  0.39126974294E+02 -0.16432640343E+03  0.19668518684E+03  0.00000000000E+00 0.  1.
</event>
<event>
 7    1  0.6610867E-006  0.1159936E+03  0.7561462E-02  0.1249857E+00
          1   -1    0    0  501    0  0.00000000000E+00  0.00000000000E+00  0.11097961665E+04  0.11097961665E+04  0.00000000000E+00 0. -1.
         -1   -1    0    0    0  501 -0.00000000000E+00 -0.00000000000E+00 -0.17859332927E+02  0.17859332927E+02  0.00000000000E+00 0.  1.
         23    2    1    2    0    0 -0.21207917701E+02 -0.68554219911E+02  0.28496058786E+03  0.30789381006E+03  0.91905412232E+02 0.  0.
          5    1    1    2  502    0 -0.40367070292E+02  0.34896666884E+02  0.57190878630E+03  0.57440787771E+03  0.41800000000E+01 0.  1.
         -5    1    1    2    0  502  0.61574987993E+02  0.33657553026E+02  0.23506745938E+03  0.24535381163E+03  0.41800000000E+01 0.  1.
        -11    1    3    3    0    0 -0.23357224170E+02  0.12900434231E+02  0.29616213940E+02  0.39863532864E+02  0.00000000000E+00 0.  1.
         11    1    3    3    0    0  0.21493064691E+01 -0.81454654142E+02  0.25534437392E+03  0.26803027719E+03  0.00000000000E+00 0. -1.
</event>
<event>
 7    1  0.6610867E-006  0.1483237E+03  0.7561462E-02  0.1202548E+00
          2   -1    0    0  501    0  0.00000000000E+00  0.00000000000E+00  0.31490133108E+03  0.31490133108E+03  0.00000000000E+00 0. -1.
         -2   -1    0    0    0  501 -0.00000000000E+00 -0.00000000000E+00 -0.14721801614E+03  0.14721801614E+03  0.00000000000E+00 0.  1.
         23    2    1    2    0    0  0.42628893864E+02  0.13371852960E+03 -0.50735639317E+02  0.17392992232E+03  0.89328858894E+02 0.  0.
          5    1    1    2  502    0 -0.34368716315E+01 -0.94170912809E+01  0.13042572437E+03  0.13087717781E+03  0.41800000000E+01 0. -1.
         -5    1    1    2    0  502 -0.39192022232E+02 -0.12430143832E+03  0.87993229891E+02  0.15731224708E+03  0.41800000000E+01 0. -1.
        -11    1    3    3    0    0  0.54447006132E+01  0.11238347722E+03 -0.63503315869E+02  0.12919892354E+03  0.00000000000E+00 0.  1.
         11    1    3    3    0    0  0.37184193250E+02  0.21335052381E+02  0.12767676551E+02  0.44730998785E+02  0.00000000000E+00 0. -1.
</event>
<event>
 7    1  0.6610867E-006  0.1188417E+03  0.7561462E-02  0.1245020E+00
          2   -1    0    0  501    0  0.00000000000E+00  0.00000000000E+00  0.39289450643E+03  0.39289450643E+03  0.00000000000E+00 0. -1.
         -2   -1    0    0    0  501 -0.00000000000E+00 -0.00000000000E+00 -0.47767729688E+02  0.47767729688E+02  0.00000000000E+00 0.  1.
         23    2    1    2    0    0 -0.68197836146E+02 -0.21905438351E+02  0.86782902616E+02  0.14482514586E+03  0.91171583309E+02 0.  0.
          5    1    1    2  502    0  0.35450455019E+02  0.66120929595E+02  0.20794510384E+03  0.22110484097E+03  0.41800000000E+01 0.  1.
         -5    1    1    2    0  502  0.32747381127E+02 -0.44215491245E+02  0.50398770295E+02  0.74732249290E+02  0.41800000000E+01 0.  1.
        -11    1    3    3    0    0 -0.85991927400E+02 -0.11523678724E+02  0.43865402341E+02  0.97219238178E+02  0.00000000000E+00 0.  1.
         11    1    3    3    0    0  0.17794091254E+02 -0.10381759626E+02  0.42917500275E+02  0.47605907683E+02  0.00000000000E+00 0. -1.
</event>
<event>
 7    1  0.6610867E-006  0.2558775E+03  0.7561462E-02  0.1109646E+00
         -1   -1    0    0    0  501 -0.00000000000E+00  0.00000000000E+00  0.61377509127E+03  0.61377509127E+03  0.00000000000E+00 0.  1.
          1   -1    0    0  501    0  0.00000000000E+00 -0.00000000000E+00 -0.11599909891E+03  0.11599909891E+03  0.00000000000E+00 0. -1.
         23    2    1    2    0    0  0.12050002991E+03 -0.20960871607E+03  0.20531415565E+03  0.33022774188E+03  0.91871583953E+02 0.  0.
          5    1    1    2  502    0 -0.91431420590E+01  0.10659352214E+03  0.18446471516E+03  0.21328497263E+03  0.41800000000E+01 0. -1.
         -5    1    1    2    0  502 -0.11135688785E+03  0.10301519393E+03  0.10799712155E+03  0.18626147566E+03  0.41800000000E+01 0. -1.
        -11    1    3    3    0    0  0.19180812822E+02 -0.10709123970E+03  0.12312276693E+03  0.16430353903E+03  0.00000000000E+00 0.  1.
         11    1    3    3    0    0  0.10131921709E+03 -0.10251747637E+03  0.82191388715E+02  0.16592420285E+03  0.00000000000E+00 0. -1.
</event>
<event>
 7    1  0.6610867E-006  0.1095220E+03  0.7561462E-02  0.1261458E+00
          2   -1    0    0  501    0  0.00000000000E+00  0.00000000000E+00  0.30905364141E+03  0.30905364141E+03  0.00000000000E+00 0. -1.
         -2   -1    0    0    0  501 -0.00000000000E+00 -0.00000000000E+00 -0.40233600407E+02  0.40233600407E+02  0.00000000000E+00 0.  1.
         23    2    1    2    0    0 -0.23714206358E+02  0.15413647056E+02  0.99819197373E+02  0.13714537637E+03  0.89694135800E+02 0.  0.
          5    1    1    2  502    0  0.68958280455E+02 -0.35980707246E+02  0.94119700590E+02  0.12217138035E+03  0.41800000000E+01 0. -1.
         -5    1    1    2    0  502 -0.45244074097E+02  0.20567060190E+02  0.74881143043E+02  0.89970485100E+02  0.41800000000E+01 0. -1.
        -11    1    3    3    0    0 -0.29411185943E+02  0.49033081810E+02  0.45776721640E+02  0.73244584882E+02  0.00000000000E+00 0.  1.
         11    1    3    3    0    0  0.56969795850E+01 -0.33619434754E+02  0.54042475733E+02  0.63900791489E+02  0.00000000000E+00 0. -1.
</event>
<event>
 7    1  0.6610867E-006  0.1275985E+03  0.7561462E-02  0.1231063E+00
          1   -1    0    0  501    0  0.00000000000E+00  0.00000000000E+00  0.33025078452E+03  0.33025078452E+03  0.00000000000E+00 0. -1.
         -1   -1    0    0    0  501 -0.00000000000E+00 -0.00000000000E+00 -0.96833804422E+02  0.96833804422E+02  0.00000000000E+00 0.  1.
         23    2    1    2    0    0  0.55462430379E+02  0.80814538335E+02 -0.16812556298E+02  0.13065834533E+03  0.84745916511E+02 0.  0.
          5    1    1    2  502    0  0.33053351908E+01  0.30531973569E+02  0.32705823538E+02  0.45058516887E+02  0.41800000000E+01 0.  1.
         -5    1    1    2    0  502 -0.58767765570E+02 -0.11134651190E+03  0.21752371286E+03  0.25136772672E+03  0.41800000000E+01 0.  1.
        -11    1    3    3    0    0  0.35280903892E+02  0.56758676226E+02 -0.51127789713E+02  0.84144758525E+02  0.00000000000E+00 0.  1.
         11    1    3    3    0    0  0.20181526487E+02  0.24055862109E+02  0.34315233415E+02  0.46513586805E+02  0.00000000000E+00 0. -1.
</event>
<event>
 7    1  0.6610867E-006  0.1288731E+03  0.7561462E-02  0.1229138E+00
         -1   -1    0    0    0  501 -0.00000000000E+00  0.00000000000E+00  0.86677381592E+02  0.86677381592E+02  0.00000000000E+00 0.  1.
          1   -1    0    0  501    0  0.00000000000E+00 -0.00000000000E+00 -0.19817870779E+03  0.19817870779E+03  0.00000000000E+00 0. -1.
         23    2    1    2    0    0 -0.43636181234E+02 -0.57739466297E+02 -0.34737406710E+02  0.12121942036E+03  0.90826748080E+02 0.  0.
          5    1    1    2  502    0  0.82238046774E+02  0.12936700762E+02 -0.57639340882E+02  0.10134209679E+03  0.41800000000E+01 0. -1.
         -5    1    1    2    0  502 -0.38601865540E+02  0.44802765535E+02 -0.19124578602E+02  0.62294572231E+02  0.41800000000E+01 0. -1.
        -11    1    3    3    0    0 -0.42077713509E+02  0.13238045970E+02 -0.55485596363E+01  0.44458591400E+02  0.00000000000E+00 0.  1.
         11    1    3    3    0    0 -0.15584677246E+01 -0.70977512267E+02 -0.29188847073E+02  0.76760828961E+02  0.00000000000E+00 0. -1.
</event>
<event>
 7    1  0.6610867E-006  0.5819597E+02  0.7561462E-02  0.1405562E+00
         -2   -1    0    0    0  501 -0.00000000000E+00  0.00000000000E+00  0.68984962847E+02  0.68984962847E+02  0.00000000000E+00 0.  1.
          2   -1    0    0  501    0  0.00000000000E+00 -0.00000000000E+00 -0.25593720226E+03  0.25593720226E+03  0.00000000000E+00 0. -1.
         23    2    1    2    0    0  0.41211180722E+01 -0.10501596021E+02  0.58876352360E+01  0.94787927151E+02  0.93929866133E+02 0.  0.
          5    1    1    2  502    0  0.68309241105E+01 -0.19575733889E+02  0.10940717641E+02  0.23812655962E+02  0.41800000000E+01 0.  1.
         -5    1    1    2    0  502 -0.10952042183E+02  0.30077329910E+02 -0.20378059229E+03  0.20632158199E+03  0.41800000000E+01 0.  1.
        -11    1    3    3    0    0  0.32184792889E+02 -0.13159500984E+02 -0.32208535022E+02  0.47396445940E+02  0.00000000000E+00 0. -1.
         11    1    3    3    0    0 -0.28063674817E+02  0.26579049634E+01  0.38096170258E+02  0.47391481211E+02  0.00000000000E+00 0.  1.
</event>
<event>
 7    1  0.6610867E-006  0.1251570E+03  0.7561462E-02  0.1234824E+00
         -1   -1    0    0    0  501 -0.00000000000E+00  0.00000000000E+00  0.15621292017E+03  0.15621292017E+03  0.00000000000E+00 0.  1.
          1   -1    0    0  501    0  0.00000000000E+00 -0.00000000000E+00 -0.15649839165E+03  0.15649839165E+03  0.00000000000E+00 0. -1.
         23    2    1    2    0    0 -0.94572508934E+02 -0.23484188957E+02  0.56165399409E+02  0.14439384331E+03  0.90551440177E+02 0.  0.
          5    1    1    2  502    0  0.30807770027E+02  0.64795265743E+02 -0.57778464415E+02  0.92213711057E+02  0.41800000000E+01 0. -1.
         -5    1    1    2    0  502  0.63764738907E+02 -0.41311076786E+02  0.13275935266E+01  0.76103757447E+02  0.41800000000E+01 0. -1.
        -11    1    3    3    0    0 -0.39630275322E+02  0.58683378073E+01  0.69936421406E+02  0.80598381806E+02  0.00000000000E+00 0.  1.
         11    1    3    3    0    0 -0.54942233612E+02 -0.29352526764E+02 -0.13771021996E+02  0.63795461504E+02  0.00000000000E+00 0. -1.
</event>
<event>
 7    1  0.1011299E-005  0.1139358E+03  0.7561462E-02  0.1253450E+00
          2   -1    0    0  501    0  0.00000000000E+00  0.00000000000E+00  0.17522249556E+04  0.17522249556E+04  0.00000000000E+00 0.  1.
         -2   -1    0    0    0  501 -0.00000000000E+00 -0.00000000000E+00 -0.98108870193E+01  0.98108870193E+01  0.00000000000E+00 0. -1.
         23    2    1    2    0    0 -0.67172235082E+01 -0.56563871119E+02  0.35674342165E+03  0.36956488777E+03  0.77895730175E+02 0.  0.
          5    1    1    2  502    0  0.51137968987E+02 -0.94465114336E+01  0.75263919595E+03  0.75444520022E+03  0.41800000000E+01 0. -1.
         -5    1    1    2    0  502 -0.44420745479E+02  0.66010382553E+02  0.63303145094E+03  0.63802575458E+03  0.41800000000E+01 0. -1.
        -11    1    3    3    0    0 -0.42129346345E+02 -0.28891851347E+02  0.20793050023E+03  0.21411378709E+03  0.00000000000E+00 0. -1.
         11    1    3    3    0    0  0.35412122837E+02 -0.27672019773E+02  0.14881292142E+03  0.15545110068E+03  0.00000000000E+00 0.  1.
</event>
<event>
 7    1  0.6610867E-006  0.2040481E+03  0.7561462E-02  0.1146368E+00
         -2   -1    0    0    0  501 -0.00000000000E+00  0.00000000000E+00  0.59534325346E+02  0.59534325346E+02  0.00000000000E+00 0.  1.
          2   -1    0    0  501    0  0.00000000000E+00 -0.00000000000E+00 -0.88699556600E+03  0.88699556600E+03  0.00000000000E+00 0. -1.
         23    2    1    2    0    0 -0.18513869102E+03 -0.39321682108E+02 -0.25288311362E+03  0.32878407637E+03  0.91250041761E+02 0.  0.
          5    1    1    2  502    0  0.90072351372E+02 -0.35533944742E+02 -0.34298024314E+03  0.35641073117E+03  0.41800000000E+01 0.  1.
         -5    1    1    2    0  502  0.95066339647E+02  0.74855626850E+02 -0.23159788389E+03  0.26133508380E+03  0.41800000000E+01 0.  1.
        -11    1    3    3    0    0 -0.13652490346E+03 -0.20883631562E+02 -0.23719617658E+03  0.27447623124E+03  0.00000000000E+00 0.  1.
         11    1    3    3    0    0 -0.48613787556E+02 -0.18438050546E+02 -0.15686937044E+02  0.54307845126E+02  0.00000000000E+00 0. -1.
</event>
<event>
 7    1  0.6610867E-006  0.1694593E+03  0.7561462E-02  0.1178413E+00
          1   -1    0    0  501    0  0.00000000000E+00  0.00000000000E+00  0.92367965579E+02  0.92367965579E+02  0.00000000000E+00 0. -1.
         -1   -1    0    0    0  501 -0.00000000000E+00 -0.00000000000E+00 -0.42717800221E+03  0.42717800221E+03  0.00000000000E+00 0.  1.
         23    2    1    2    0    0 -0.48109412077E+02 -0.35934205688E+02 -0.20383964877E+03  0.23114010406E+03  0.90936035888E+02 0.  0.
          5    1    1    2  502    0  0.36933367213E+02 -0.96663019103E+02 -0.11429004687E+03  0.15423196844E+03  0.41800000000E+01 0. -1.
         -5    1    1    2    0  502  0.11176044864E+02  0.13259722479E+03 -0.16680340985E+02  0.13417389529E+03  0.41800000000E+01 0.  1.
        -11    1    3    3    0    0 -0.62724041075E+02 -0.51289457459E+02 -0.18787715220E+03  0.20460385650E+03  0.00000000000E+00 0.  1.
         11    1    3    3    0    0  0.14614628999E+02  0.15355251771E+02 -0.15962496575E+02  0.26536247561E+02  0.00000000000E+00 0. -1.
</event>
<event>
 7    1  0.6610867E-006  0.1156705E+03  0.7561462E-02  0.1250415E+00
          2   -1    0    0  501    0  0.00000000000E+00  0.00000000000E+00  0.12947522817E+03  0.12947522817E+03  0.00000000000E+00 0. -1.
         -2   -1    0    0    0  501 -0.00000000000E+00 -0.00000000000E+00 -0.12039783364E+03  0.12039783364E+03  0.00000000000E+00 0.  1.
         23    2    1    2    0    0 -0.50829074430E+02 -0.41892483169E+02 -0.26040043659E+02  0.11617944606E+03  0.92092371348E+02 0.  0.
          5    1    1    2  502    0  0.85858224895E+02  0.24116577770E+02  0.27898383206E+02  0.93536283286E+02  0.41800000000E+01 0. -1.
         -5    1    1    2    0  502 -0.35029150465E+02  0.17775905399E+02  0.72190549849E+01  0.40157332455E+02  0.41800000000E+01 0.  1.
        -11    1    3    3    0    0 -0.30444137748E+02 -0.64981051542E+02  0.56584048487E+01  0.71981943071E+02  0.00000000000E+00 0.  1.
         11    1    3    3    0    0 -0.20384936682E+02  0.23088568374E+02 -0.31698448508E+02  0.44197502994E+02  0.00000000000E+00 0. -1.
</event>
<event>
 7    1  0.6610867E-006  0.1229385E+03  0.7561462E-02  0.1238327E+00
          1   -1    0    0  501    0  0.00000000000E+00  0.00000000000E+00  0.18908823199E+04  0.18908823199E+04  0.00000000000E+00 0. -1.
         -1   -1    0    0    0  501 -0.00000000000E+00 -0.00000000000E+00 -0.42846533579E+02  0.42846533579E+02  0.00000000000E+00 0.  1.
         23    2    1    2    0    0 -0.80098033501E+02  0.32150686501E+01  0.51520351441E+02  0.13186720092E+03  0.91151414845E+02 0.  0.
          5    1    1    2  502    0  0.61324331498E+02 -0.53175883026E+02  0.12804388148E+04  0.12830157361E+04  0.41800000000E+01 0. -1.
         -5    1    1    2    0  502  0.18773702003E+02  0.49960814376E+02  0.51607662006E+03  0.51884591646E+03  0.41800000000E+01 0.  1.
        -11    1    3    3    0    0 -0.80477062831E+02  0.28802074314E+02  0.14247013476E+02  0.86655031704E+02  0.00000000000E+00 0.  1.
         11    1    3    3    0    0  0.37902932928E+00 -0.25587005663E+02  0.37273337965E+02  0.45212169215E+02  0.00000000000E+00 0. -1.
</event>
<event>
 7    1  0.6610867E-006  0.2891402E+03  0.7561462E-02  0.1090799E+00
          2   -1    0    0  501    0  0.00000000000E+00  0.00000000000E+00  0.27104219567E+04  0.27104219567E+04  0.00000000000E+00 0. -1.
         -2   -1    0    0    0  501 -0.00000000000E+00 -0.00000000000E+00 -0.40956855586E+02  0.40956855586E+02  0.00000000000E+00 0.  1.
         23    2    1    2    0    0  0.16243619932E+03  0.22078278570E+03  0.67799897608E+03  0.73725024422E+03  0.93406390143E+02 0.  0.
          5    1    1    2  502    0 -0.11879461608E+03 -0.74562288758E+02  0.11909559553E+04  0.11991935856E+04  0.41800000000E+01 0.  1.
         -5    1    1    2    0  502 -0.43641583248E+02 -0.14622049695E+03  0.80051016965E+03  0.81493498245E+03  0.41800000000E+01 0.  1.
        -11    1    3    3    0    0  0.13561410555E+03  0.12020974475E+03  0.36719596439E+03  0.40948070116E+03  0.00000000000E+00 0.  1.
         11    1    3    3    0    0  0.26822093772E+02  0.10057304096E+03  0.31080301170E+03  0.32776954307E+03  0.00000000000E+00 0. -1.
</event>
<event>
 7    1  0.8209777E-006  0.3346038E+03  0.7561462E-02  0.1069118E+00
          4   -1    0    0  501    0  0.00000000000E+00  0.00000000000E+00  0.60515418715E+03  0.60515418715E+03  0.00000000000E+00 0. -1.
         -4   -1    0    0    0  501 -0.00000000000E+00 -0.00000000000E+00 -0.19894773983E+03  0.19894773983E+03  0.00000000000E+00 0.  1.
         23    2    1    2    0    0  0.32499650562E+03  0.18072347010E+01  0.25950454978E+03  0.42621985582E+03  0.93245693606E+02 0.  0.
          5    1    1    2  502    0 -0.10744523939E+02  0.14325117437E+02 -0.15315140459E+02  0.23930727351E+02  0.41800000000E+01 0.  1.
         -5    1    1    2    0  502 -0.31425198168E+03 -0.16132352138E+02  0.16201703801E+03  0.35395134381E+03  0.41800000000E+01 0.  1.
        -11    1    3    3    0    0  0.94682923410E+02 -0.38683098106E+02  0.10081548131E+03  0.14361406385E+03  0.00000000000E+00 0. -1.
         11    1    3    3    0    0  0.23031358221E+03  0.40490332807E+02  0.15868906846E+03  0.28260579197E+03  0.00000000000E+00 0.  1.
</event>
<event>
 7    1  0.6610867E-006  0.1406368E+03  0.7561462E-02  0.1212475E+00
          3   -1    0    0  501    0  0.00000000000E+00  0.00000000000E+00  0.12744976852E+03  0.12744976852E+03  0.00000000000E+00 0. -1.
         -3   -1    0    0    0  501 -0.00000000000E+00 -0.00000000000E+00 -0.22297928731E+03  0.22297928731E+03  0.00000000000E+00 0.  1.
         23    2    1    2    0    0  0.10559366874E+03 -0.55737926407E+02 -0.93836011986E+02  0.17751860813E+03  0.91928884310E+02 0.  0.
          5    1    1    2  502    0  0.13376146792E+02  0.41924898869E+01 -0.35888965712E+02  0.38755496827E+02  0.41800000000E+01 0.  1.
         -5    1    1    2    0  502 -0.11896981553E+03  0.51545436520E+02  0.34195458910E+02  0.13415495087E+03  0.41800000000E+01 0.  1.
        -11    1    3    3    0    0  0.14104707633E+02 -0.42128084780E+02 -0.68448300325E+02  0.81602010527E+02  0.00000000000E+00 0.  1.
         11    1    3    3    0    0  0.91488961102E+02 -0.13609841627E+02 -0.25387711661E+02  0.95916597604E+02  0.00000000000E+00 0. -1.
</event>
<event>
 7    1  0.6610867E-006  0.2469736E+03  0.7561462E-02  0.1115233E+00
         -2   -1    0    0    0  501 -0.00000000000E+00  0.00000000000E+00  0.37997505254E+02  0.37997505254E+02  0.00000000000E+00 0.  1.
          2   -1    0    0  501    0  0.00000000000E+00 -0.00000000000E+00 -0.19188435767E+04  0.19188435767E+04  0.00000000000E+00 0. -1.
         23    2    1    2    0    0  0.12881531223E+03  0.21053609263E+03 -0.95200244438E+03  0.98765720288E+03  0.90770398970E+02 0.  0.
          5    1    1    2  502    0 -0.36648377215E+02 -0.54032248342E+02 -0.92263370672E+02  0.11310432963E+03  0.41800000000E+01 0.  1.
         -5    1    1    2    0  502 -0.92166935019E+02 -0.15650384428E+03 -0.83658025638E+03  0.85607954943E+03  0.41800000000E+01 0.  1.
        -11    1    3    3    0    0  0.66264192230E+02  0.10443584673E+03 -0.64716329437E+03  0.65887640635E+03  0.00000000000E+00 0. -1.
         11    1    3    3    0    0  0.62551120004E+02  0.10610024589E+03 -0.30483915001E+03  0.32878079654E+03  0.00000000000E+00 0.  1.
</event>
<event>
 6    1  0.6610867E-006  0.7506354E+02  0.7561462E-02  0.1343674E+00
          2   -1    0    0  501    0  0.00000000000E+00  0.00000000000E+00  0.49902973848E+03  0.49902973848E+03  0.00000000000E+00 0. -1.
         -2   -1    0    0    0  501 -0.00000000000E+00 -0.00000000000E+00 -0.14568010302E+02  0.14568010302E+02  0.00000000000E+00 0.  1.
          5    1    1    2  502    0  0.54803036246E+02 -0.24331709148E+02  0.29505890145E+03  0.30111896748E+03  0.41800000000E+01 0. -1.
         -5    1    1    2    0  502 -0.40351457567E+02  0.30724071547E+02  0.13983941628E+03  0.14881109988E+03  0.41800000000E+01 0.  1.
        -11    1    1    2    0    0 -0.18784909930E+02 -0.18442793200E+02  0.26909466123E+02  0.37644771604E+02  0.00000000000E+00 0. -1.
         11    1    1    2    0    0  0.43333312509E+01  0.12050430800E+02  0.22653944326E+02  0.26022909824E+02  0.00000000000E+00 0.  1.
</event>
<event>
 7    1  0.6610867E-006  0.1278191E+03  0.7561462E-02  0.1230728E+00
         -1   -1    0    0    0  501 -0.00000000000E+00  0.00000000000E+00  0.41941153817E+02  0.41941153817E+02  0.00000000000E+00 0.  1.
          1   -1    0    0  501    0  0.00000000000E+00 -0.00000000000E+00 -0.42306729112E+03  0.42306729112E+03  0.00000000000E+00 0. -1.
         23    2    1    2    0    0  0.74532242384E+02 -0.11453502406E+02 -0.16884229475E+03  0.20732986082E+03  0.93764133977E+02 0.  0.
          5    1    1    2  502    0  0.81057223408E+01  0.51209243434E+02 -0.56013946049E+02  0.76440329014E+02  0.41800000000E+01 0.  1.
         -5    1    1    2    0  502 -0.82637964725E+02 -0.39755741028E+02 -0.15626989651E+03  0.18123825511E+03  0.41800000000E+01 0.  1.
        -11    1    3    3    0    0  0.77219447471E+02  0.20391236793E+02 -0.15076655800E+03  0.17061418644E+03  0.00000000000E+00 0. -1.
         11    1    3    3    0    0 -0.26872050875E+01 -0.31844739199E+02 -0.18075736749E+02  0.36715674376E+02  0.00000000000E+00 0.  1.
</event>
<event>
 7    1  0.6610867E-006  0.1395428E+03  0.7561462E-02  0.1213945E+00
         -2   -1    0    0    0  501 -0.00000000000E+00  0.00000000000E+00  0.11810255995E+03  0.11810255995E+03  0.00000000000E+00 0.  1.
          2   -1    0    0  501    0  0.00000000000E+00 -0.00000000000E+00 -0.27189558468E+04  0.27189558468E+04  0.00000000000E+00 0. -1.
         23    2    1    2    0    0  0.57168616748E+02 -0.42998092509E+02  0.85998937460E+02  0.14440222423E+03  0.91318664122E+02 0.  0.
          5    1    1    2  502    0 -0.11133165199E+03  0.44151959929E+02 -0.16238088712E+04  0.16282250628E+04  0.41800000000E+01 0. -1.
         -5    1    1    2    0  502  0.54163035239E+02 -0.11538674208E+01 -0.10630433531E+04  0.10644311198E+04  0.41800000000E+01 0.  1.
        -11    1    3    3    0    0  0.72222660258E+02 -0.50463360079E+02  0.91204877497E+02  0.12681085539E+03  0.00000000000E+00 0.  1.
         11    1    3    3    0    0 -0.15054043510E+02  0.74652675706E+01 -0.52059400376E+01  0.17591368837E+02  0.00000000000E+00 0. -1.
</event>
<event>
 7    1  0.6610867E-006  0.9600457E+02  0.7561462E-02  0.1288929E+00
         -2   -1    0    0    0  501 -0.00000000000E+00  0.00000000000E+00  0.30526894349E+02  0.30526894349E+02  0.00000000000E+00 0.  1.
          2   -1    0    0  501    0  0.00000000000E+00 -0.00000000000E+00 -0.22383467362E+04  0.22383467362E+04  0.00000000000E+00 0. -1.
         23    2    1    2    0    0 -0.16437857076E+02  0.67573403470E+01 -0.44609437200E+02  0.10253777233E+03  0.90598720047E+02 0.  0.
          5    1    1    2  502    0 -0.26684665641E+02  0.39793778418E+02 -0.64311238946E+03  0.64490823693E+03  0.41800000000E+01 0.  1.
         -5    1    1    2    0  502  0.43122522716E+02 -0.46551118765E+02 -0.15200980152E+04  0.15214276213E+04  0.41800000000E+01 0. -1.
        -11    1    3    3    0    0 -0.47408445303E+02 -0.39008030070E+01 -0.46672796132E+00  0.47570944758E+02  0.00000000000E+00 0.  1.
         11    1    3    3    0    0  0.30970588228E+02  0.10658143354E+02 -0.44142709239E+02  0.54966827577E+02  0.00000000000E+00 0. -1.
</event>
<event>
 7    1  0.6610867E-006  0.6740423E+02  0.7561462E-02  0.1369149E+00
         -1   -1    0    0    0  501 -0.00000000000E+00  0.00000000000E+00  0.10306795528E+02  0.10306795528E+02  0.00000000000E+00 0.  1.
          1   -1    0    0  501    0  0.00000000000E+00 -0.00000000000E+00 -0.10737914255E+04  0.10737914255E+04  0.00000000000E+00 0. -1.
         23    2    1    2    0    0  0.59455077181E+00 -0.16421071487E+02 -0.38185350208E+03  0.39257962405E+03  0.89647415380E+02 0.  0.
          5    1    1    2  502    0 -0.10257826448E+02  0.27322196216E+02 -0.67382741948E+03  0.67447208175E+03  0.41800000000E+01 0. -1.
         -5    1    1    2    0  502  0.96632756762E+01 -0.10901124729E+02 -0.78037084297E+01  0.17046515257E+02  0.41800000000E+01 0.  1.
        -11    1    3    3    0    0  0.38286092773E+02 -0.31496073900E+02 -0.23796499189E+03  0.24307440206E+03  0.00000000000E+00 0.  1.
         11    1    3    3    0    0 -0.37691542001E+02  0.15075002413E+02 -0.14388851019E+03  0.14950522199E+03  0.00000000000E+00 0. -1.
</event>
<event>
 7    1  0.6610867E-006  0.9006910E+02  0.7561462E-02  0.1302684E+00
         -1   -1    0    0    0  501 -0.00000000000E+00  0.00000000000E+00  0.78539921853E+02  0.78539921853E+02  0.00000000000E+00 0.  1.
          1   -1    0    0  501    0  0.00000000000E+00 -0.00000000000E+00 -0.20952934666E+03  0.20952934666E+03  0.00000000000E+00 0. -1.
         23    2    1    2    0    0 -0.46251284778E+02 -0.46162870296E+02 -0.47886029087E+02  0.12429141720E+03  0.94260769516E+02 0.  0.
          5    1    1    2  502    0  0.38512890101E+02  0.44623679926E+02  0.18393099428E+02  0.61889369206E+02  0.41800000000E+01 0.  1.
         -5    1    1    2    0  502  0.77383946770E+01  0.15391903701E+01 -0.10149649515E+03  0.10188848211E+03  0.41800000000E+01 0.  1.
        -11    1    3    3    0    0  0.19218543948E+02 -0.42383811544E+02 -0.71319510286E+01  0.47080830897E+02  0.00000000000E+00 0.  1.
         11    1    3    3    0    0 -0.65469828726E+02 -0.37790587524E+01 -0.40754078059E+02  0.77210586301E+02  0.00000000000E+00 0. -1.
</event>
<event>
 7    1  0.6610867E-006  0.9247168E+02  0.7561462E-02  0.1296974E+00
         -1   -1    0    0    0  501 -0.00000000000E+00  0.00000000000E+00  0.32461133106E+02  0.32461133106E+02  0.00000000000E+00 0.  1.
          1   -1    0    0  501    0  0.00000000000E+00 -0.00000000000E+00 -0.43586074761E+03  0.43586074761E+03  0.00000000000E+00 0. -1.
         23    2    1    2    0    0 -0.27085671295E+02 -0.21558341657E+02 -0.10510861716E+03  0.14317706362E+03  0.90848524821E+02 0.  0.
          5    1    1    2  502    0  0.66059893968E+02 -0.53328923450E+01 -0.24451074253E+03  0.25336796353E+03  0.41800000000E+01 0. -1.
         -5    1    1    2    0  502 -0.38974222673E+02  0.26891234002E+02 -0.53780254822E+02  0.71776853567E+02  0.41800000000E+01 0.  1.
        -11    1    3    3    0    0 -0.12391580962E+02  0.21879976787E+02  0.34024769704E+01  0.25374426348E+02  0.00000000000E+00 0.  1.
         11    1    3    3    0    0 -0.14694090333E+02 -0.43438318444E+02 -0.10851109413E+03  0.11780263727E+03  0.00000000000E+00 0. -1.
</event>
<event>
 7    1  0.6610867E-006  0.1092168E+03  0.7561462E-02  0.1262027E+00
          2   -1    0    0  501    0  0.00000000000E+00  0.00000000000E+00  0.96269906332E+03  0.96269906332E+03  0.00000000000E+00 0. -1.
         -2   -1    0    0    0  501 -0.00000000000E+00 -0.00000000000E+00 -0.16346861386E+02  0.16346861386E+02  0.00000000000E+00 0.  1.
         23    2    1    2    0    0  0.51801114605E+02 -0.32278359009E+02  0.37010482001E+03  0.38622900509E+03  0.92032704216E+02 0.  0.
          5    1    1    2  502    0 -0.72816974285E+02  0.65372350376E+02  0.36448377296E+03  0.37741455866E+03  0.41800000000E+01 0.  1.
         -5    1    1    2    0  502  0.21015859680E+02 -0.33093991367E+02  0.21176360897E+03  0.21540236096E+03  0.41800000000E+01 0.  1.
        -11    1    3    3    0    0 -0.55697767245E+01  0.88611457512E+01  0.10910634311E+01  0.10522962330E+02  0.00000000000E+00 0.  1.
         11    1    3    3    0    0  0.57370891330E+02 -0.41139504760E+02  0.36901375658E+03  0.37570604276E+03  0.00000000000E+00 0. -1.
</event>
<event>
 7    1  0.6610867E-006  0.1183529E+03  0.7561462E-02  0.1245839E+00
          1   -1    0    0  501    0  0.00000000000E+00  0.00000000000E+00  0.58894159826E+02  0.58894159826E+02  0.00000000000E+00 0. -1.
         -1   -1    0    0    0  501 -0.00000000000E+00 -0.00000000000E+00 -0.35925000423E+03  0.35925000423E+03  0.00000000000E+00 0.  1.
         23    2    1    2    0    0 -0.38903495204E+02 -0.72436434261E+02 -0.20775003739E+03  0.24212000092E+03  0.93281819568E+02 0.  0.
          5    1    1    2  502    0 -0.27982384494E+02  0.30766905299E+02 -0.87468438046E+02  0.96942335219E+02  0.41800000000E+01 0. -1.
         -5    1    1    2    0  502  0.66885879697E+02  0.41669528962E+02 -0.51373689679E+01  0.79081827917E+02  0.41800000000E+01 0. -1.
        -11    1    3    3    0    0  0.25297114161E+02 -0.12729704233E+02 -0.95956380029E+02  0.10004806956E+03  0.00000000000E+00 0.  1.
         11    1    3    3    0    0 -0.64200609365E+02 -0.59706730028E+02 -0.11179365736E+03  0.14207193136E+03  0.00000000000E+00 0. -1.
</event>
<event>
 7    1  0.6610867E-006  0.1233832E+03  0.7561462E-02  0.1237618E+00
          1   -1    0    0  501    0  0.00000000000E+00  0.00000000000E+00  0.31385834972E+03  0.31385834972E+03  0.00000000000E+00 0. -1.
         -1   -1    0    0    0  501 -0.00000000000E+00 -0.00000000000E+00 -0.82480671659E+02  0.82480671659E+02  0.00000000000E+00 0.  1.
         23    2    1    2    0    0  0.95759688818E+02  0.70525020670E+02  0.10812965088E+03  0.18425140671E+03  0.90071432387E+02 0.  0.
          5    1    1    2  502    0 -0.22681600094E+02 -0.52167736314E+00  0.10706158082E+03  0.10951886421E+03  0.41800000000E+01 0. -1.
         -5    1    1    2    0  502 -0.73078088724E+02 -0.70003343307E+02  0.16186446367E+02  0.10256875046E+03  0.41800000000E+01 0. -1.
        -11    1    3    3    0    0  0.54809826672E+02  0.22364604191E+02  0.23081554845E+00  0.59197515963E+02  0.00000000000E+00 0.  1.
         11    1    3    3    0    0  0.40949862147E+02  0.48160416479E+02  0.10789883533E+03  0.12505389075E+03  0.00000000000E+00 0. -1.
</event>
<event>
 7    1  0.6610867E-006  0.1917156E+03  0.7561462E-02  0.1156923E+00
         -2   -1    0    0    0  501 -0.00000000000E+00  0.00000000000E+00  0.13004275843E+04  0.13004275843E+04  0.00000000000E+00 0.  1.
          2   -1    0    0  501    0  0.00000000000E+00 -0.00000000000E+00 -0.29326862156E+02  0.29326862156E+02  0.00000000000E+00 0. -1.
         23    2    1    2    0    0  0.31596290503E+02 -0.70693171027E+01  0.34740702714E+03  0.35462133886E+03  0.63374684632E+02 0.  0.
          5    1    1    2  502    0 -0.15466537597E+03  0.74661099560E+02  0.48814812483E+03  0.51749562558E+03  0.41800000000E+01 0. -1.
         -5    1    1    2    0  502  0.12306908547E+03 -0.67591782457E+02  0.43554557017E+03  0.45763748202E+03  0.41800000000E+01 0.  1.
        -11    1    3    3    0    0  0.29957918735E+02  0.25022031463E+02  0.19093245985E+03  0.19488145929E+03  0.00000000000E+00 0. -1.
         11    1    3    3    0    0  0.16383717679E+01 -0.32091348565E+02  0.15647456730E+03  0.15973987957E+03  0.00000000000E+00 0.  1.
</event>
<event>
 7    1  0.6610867E-006  0.4131829E+03  0.7561462E-02  0.1039308E+00
          2   -1    0    0  501    0  0.00000000000E+00  0.00000000000E+00  0.21229168174E+04  0.21229168174E+04  0.00000000000E+00 0. -1.
         -2   -1    0    0    0  501 -0.00000000000E+00 -0.00000000000E+00 -0.88459546601E+02  0.88459546601E+02  0.00000000000E+00 0.  1.
         23    2    1    2    0    0  0.39585249627E+03 -0.43360769569E+02  0.67732629182E+03  0.79150509196E+03  0.95551294399E+02 0.  0.
          5    1    1    2  502    0 -0.62595409127E+02 -0.39134560268E+02  0.22736857740E+03  0.23908919139E+03  0.41800000000E+01 0.  1.
         -5    1    1    2    0  502 -0.33325708714E+03  0.82495329837E+02  0.11297624016E+04  0.11807820807E+04  0.41800000000E+01 0.  1.
        -11    1    3    3    0    0  0.12882743480E+03  0.29777281489E+02  0.23632425156E+03  0.27079945777E+03  0.00000000000E+00 0.  1.
         11    1    3    3    0    0  0.26702506147E+03 -0.73138051058E+02  0.44100204026E+03  0.52070563419E+03  0.00000000000E+00 0. -1.
</event>
<event>
 6    1  0.6610867E-006  0.9751058E+02  0.7561462E-02  0.1285620E+00
         -4   -1    0    0    0  501 -0.00000000000E+00  0.00000000000E+00  0.12366565184E+03  0.12366565184E+03  0.00000000000E+00 0.  1.
          4   -1    0    0  501    0  0.00000000000E+00 -0.00000000000E+00 -0.11995086308E+03  0.11995086308E+03  0.00000000000E+00 0. -1.
          5    1    1    2  502    0  0.52134543679E+02  0.26958620206E+02 -0.58357940882E+02  0.82872791144E+02  0.41800000000E+01 0.  1.
         -5    1    1    2    0  502 -0.28344618679E+02  0.48622690835E+02  0.35907101611E+02  0.66890775285E+02  0.41800000000E+01 0.  1.
        -11    1    1    2    0    0 -0.18555723321E+02 -0.44322356902E+02  0.36691083903E+02  0.60456776521E+02  0.00000000000E+00 0.  1.
         11    1    1    2    0    0 -0.52342016782E+01 -0.31258954139E+02 -0.10525455867E+02  0.33396171970E+02  0.00000000000E+00 0. -1.
</event>
<event>
 7    1  0.6610867E-006  0.1125835E+03  0.7561462E-02  0.1255859E+00
         -2   -1    0    0    0  501 -0.00000000000E+00  0.00000000000E+00  0.39875645610E+03  0.39875645610E+03  0.00000000000E+00 0.  1.
          2   -1    0    0  501    0  0.00000000000E+00 -0.00000000000E+00 -0.57716698961E+02  0.57716698961E+02  0.00000000000E+00 0. -1.
         23    2    1    2    0    0  0.26066153522E+02  0.10228082870E+03  0.14402835120E+03  0.20034419957E+03  0.90845033295E+02 0.  0.
          5    1    1    2  502    0 -0.20070734429E+02 -0.78300948160E+02  0.21199657919E+03  0.22692266271E+03  0.41800000000E+01 0.  1.
         -5    1    1    2    0  502 -0.59954190923E+01 -0.23979880537E+02 -0.14985173250E+02  0.29206292780E+02  0.41800000000E+01 0.  1.
        -11    1    3    3    0    0  0.42217759264E+02  0.87979321698E+02  0.62204675939E+02  0.11572433604E+03  0.00000000000E+00 0. -1.
         11    1    3    3    0    0 -0.16151605743E+02  0.14301506998E+02  0.81823675260E+02  0.84619863529E+02  0.00000000000E+00 0.  1.
</event>
<event>
 7    1  0.6610867E-006  0.1495555E+03  0.7561462E-02  0.1201020E+00
          2   -1    0    0  501    0  0.00000000000E+00  0.00000000000E+00  0.73276785354E+03  0.73276785354E+03  0.00000000000E+00 0. -1.
         -2   -1    0    0    0  501 -0.00000000000E+00 -0.00000000000E+00 -0.42779740062E+02  0.42779740062E+02  0.00000000000E+00 0.  1.
         23    2    1    2    0    0 -0.12163307473E+03 -0.70339803652E+02  0.28870982170E+03  0.33236142817E+03  0.85839763174E+02 0.  0.
          5    1    1    2  502    0  0.84562292906E+02  0.58526751513E+02  0.11535512885E+03  0.15459767196E+03  0.41800000000E+01 0.  1.
         -5    1    1    2    0  502  0.37070781821E+02  0.11813052139E+02  0.28592316293E+03  0.28858849348E+03  0.41800000000E+01 0.  1.
        -11    1    3    3    0    0  0.30330280937E+01 -0.23787454206E+02  0.15747017494E+02  0.28688164754E+02  0.00000000000E+00 0.  1.
         11    1    3    3    0    0 -0.12466610282E+03 -0.46552349446E+02  0.27296280421E+03  0.30367326342E+03  0.00000000000E+00 0. -1.
</event>
<event>
 7    1  0.6610867E-006  0.9155234E+02  0.7561462E-02  0.1299135E+00
          2   -1    0    0  501    0  0.00000000000E+00  0.00000000000E+00  0.36729318967E+03  0.36729318967E+03  0.00000000000E+00 0.  1.
         -2   -1    0    0    0  501 -0.00000000000E+00 -0.00000000000E+00 -0.33526083121E+02  0.33526083121E+02  0.00000000000E+00 0. -1.
         23    2    1    2    0    0 -0.15575273308E+00 -0.36243667557E+02  0.12252076722E+03  0.15265383952E+03  0.83535792456E+02 0.  0.
          5    1    1    2  502    0  0.33353424368E+02  0.72200054326E+02  0.11198505771E+03  0.13741697243E+03  0.41800000000E+01 0. -1.
         -5    1    1    2    0  502 -0.33197671635E+02 -0.35956386768E+02  0.99261281619E+02  0.11074846085E+03  0.41800000000E+01 0. -1.
        -11    1    3    3    0    0  0.17681645832E+02 -0.31112752033E+02  0.12831338423E+03  0.13321024177E+03  0.00000000000E+00 0.  1.
         11    1    3    3    0    0 -0.17837398565E+02 -0.51309155249E+01 -0.57926170081E+01  0.19443597751E+02  0.00000000000E+00 0. -1.
</event>
<event>
 7    1  0.6610867E-006  0.1510488E+03  0.7561462E-02  0.1199190E+00
         -2   -1    0    0    0  501 -0.00000000000E+00  0.00000000000E+00  0.11512220841E+03  0.11512220841E+03  0.00000000000E+00 0.  1.
          2   -1    0    0  501    0  0.00000000000E+00 -0.00000000000E+00 -0.25194751258E+03  0.25194751258E+03  0.00000000000E+00 0. -1.
         23    2    1    2    0    0  0.12601983511E+03 -0.27813266656E+02 -0.41315903060E+02  0.16353898591E+03  0.91561014769E+02 0.  0.
          5    1    1    2  502    0 -0.38720631680E+02  0.50522006661E+02 -0.93524056058E+02  0.11320769380E+03  0.41800000000E+01 0.  1.
         -5    1    1    2    0  502 -0.87299203425E+02 -0.22708740005E+02 -0.19853450539E+01  0.90323041281E+02  0.41800000000E+01 0.  1.
        -11    1    3    3    0    0  0.44637983941E+02 -0.46551082967E+02 -0.47047782180E+02  0.79831364411E+02  0.00000000000E+00 0. -1.
         11    1    3    3    0    0  0.81381851165E+02  0.18737816311E+02  0.57318791205E+01  0.83707621501E+02  0.00000000000E+00 0.  1.
</event>
<event>
 7    1  0.6610867E-006  0.8503455E+02  0.7561462E-02  0.1315342E+00
          2   -1    0    0  501    0  0.00000000000E+00  0.00000000000E+00  0.46278225735E+03  0.46278225735E+03  0.00000000000E+00 0.  1.
         -2   -1    0    0    0  501 -0.00000000000E+00 -0.00000000000E+00 -0.31477097922E+02  0.31477097922E+02  0.00000000000E+00 0. -1.
         23    2    1    2    0    0  0.29378036333E+02 -0.14587430718E+02  0.10357151314E+03  0.14193481790E+03  0.91337681415E+02 0.  0.
          5    1    1    2  502    0  0.34466621616E+02  0.96329440835E+01  0.27545758569E+02  0.45353972621E+02  0.41800000000E+01 0. -1.
         -5    1    1    2    0  502 -0.63844657949E+02  0.49544866348E+01  0.30018788772E+03  0.30697056474E+03  0.41800000000E+01 0. -1.
        -11    1    3    3    0    0 -0.12729135437E+01 -0.33712974243E+02  0.10010889239E+03  0.10564078415E+03  0.00000000000E+00 0.  1.
         11    1    3    3    0    0  0.30650949877E+02  0.19125543525E+02  0.34626207484E+01  0.36294033751E+02  0.00000000000E+00 0. -1.
</event>
<event>
 7    1  0.6610867E-006  0.2440722E+03  0.7561462E-02  0.1117109E+00
          3   -1    0    0  501    0  0.00000000000E+00  0.00000000000E+00  0.39495875908E+03  0.39495875908E+03  0.00000000000E+00 0. -1.
         -3   -1    0    0    0  501 -0.00000000000E+00 -0.00000000000E+00 -0.18220358823E+03  0.18220358823E+03  0.00000000000E+00 0.  1.
         23    2    1    2    0    0 -0.22315258445E+03  0.55241661950E+02  0.17751144345E+03  0.30442364802E+03  0.91185129028E+02 0.  0.
          5    1    1    2  502    0  0.18278676085E+03  0.19519878935E+00  0.69960124334E+02  0.19576243113E+03  0.41800000000E+01 0. -1.
         -5    1    1    2    0  502  0.40365823597E+02 -0.55436860740E+02 -0.34716396939E+02  0.76976268160E+02  0.41800000000E+01 0.  1.
        -11    1    3    3    0    0 -0.21455883719E+03  0.64431911968E+02  0.13837571088E+03  0.26331502664E+03  0.00000000000E+00 0.  1.
         11    1    3    3    0    0 -0.85937472642E+01 -0.91902500179E+01  0.39135732577E+02  0.41108621380E+02  0.00000000000E+00 0. -1.
</event>
<event>
 7    1  0.6610867E-006  0.1001193E+03  0.7561462E-02  0.1280045E+00
         -1   -1    0    0    0  501 -0.00000000000E+00  0.00000000000E+00  0.21416070848E+02  0.21416070848E+02  0.00000000000E+00 0.  1.
          1   -1    0    0  501    0  0.00000000000E+00 -0.00000000000E+00 -0.70918530315E+03  0.70918530315E+03  0.00000000000E+00 0. -1.
         23    2    1    2    0    0 -0.39185773618E+02  0.31368276537E+02 -0.20497516207E+03  0.22934422200E+03  0.89802346684E+02 0.  0.
          5    1    1    2  502    0 -0.30287416957E+02 -0.23890298861E+02 -0.34022736863E+03  0.34243277993E+03  0.41800000000E+01 0. -1.
         -5    1    1    2    0  502  0.69473190575E+02 -0.74779776758E+01 -0.14256670160E+03  0.15882437207E+03  0.41800000000E+01 0. -1.
        -11    1    3    3    0    0 -0.47739904419E+01  0.51399367254E+02 -0.16514600634E+03  0.17302568985E+03  0.00000000000E+00 0. -1.
         11    1    3    3    0    0 -0.34411783176E+02 -0.20031090717E+02 -0.39829155735E+02  0.56318532147E+02  0.00000000000E+00 0.  1.
</event>
<event>
 7    1  0.6610867E-006  0.1351014E+03  0.7561462E-02  0.1220077E+00
          2   -1    0    0  501    0  0.00000000000E+00  0.00000000000E+00  0.21643583721E+04  0.21643583721E+04  0.00000000000E+00 0.  1.
         -2   -1    0    0    0  501 -0.00000000000E+00 -0.00000000000E+00 -0.11799748579E+02  0.11799748579E+02  0.00000000000E+00 0. -1.
         23    2    1    2    0    0 -0.87160046137E+02  0.13186016420E+02  0.43949420241E+03  0.45627202907E+03  0.85195456980E+02 0.  0.
          5    1    1    2  502    0 -0.35455391176E+01  0.44164173421E+02  0.41196120438E+03  0.41435799905E+03  0.41800000000E+01 0. -1.
         -5    1    1    2    0  502  0.90705585254E+02 -0.57350189842E+02  0.13011032167E+04  0.13055280925E+04  0.41800000000E+01 0. -1.
        -11    1    3    3    0    0 -0.52607729586E+02 -0.31881764138E+02  0.28769815250E+03  0.29420103169E+03  0.00000000000E+00 0.  1.
         11    1    3    3    0    0 -0.34552316551E+02  0.45067780559E+02  0.15179604991E+03  0.16207099738E+03  0.00000000000E+00 0. -1.
</event>
<event>
 7    1  0.6610867E-006  0.1615198E+03  0.7561462E-02  0.1186992E+00
         -3   -1    0    0    0  501 -0.00000000000E+00  0.00000000000E+00  0.12327464081E+03  0.12327464081E+03  0.00000000000E+00 0. -1.
          3   -1    0    0  501    0  0.00000000000E+00 -0.00000000000E+00 -0.26419263510E+03  0.26419263510E+03  0.00000000000E+00 0.  1.
         23    2    1    2    0    0  0.86085189130E+02  0.10399822268E+03 -0.16444065824E+02  0.16527691835E+03  0.93913589697E+02 0.  0.
          5    1    1    2  502    0 -0.47950882082E+02  0.48103464224E+01 -0.89324883321E+02  0.10158166028E+03  0.41800000000E+01 0.  1.
         -5    1    1    2    0  502 -0.38134307048E+02 -0.10880856911E+03 -0.35149045136E+02  0.12060869728E+03  0.41800000000E+01 0.  1.
        -11    1    3    3    0    0  0.97768392173E+02  0.62161754151E+02 -0.30174144108E+02  0.11972143150E+03  0.00000000000E+00 0.  1.
         11    1    3    3    0    0 -0.11683203043E+02  0.41836468534E+02  0.13730078284E+02  0.45555486853E+02  0.00000000000E+00 0. -1.
</event>
<event>
 7    1  0.6610867E-006  0.9834776E+02  0.7561462E-02  0.1283809E+00
          1   -1    0    0  501    0  0.00000000000E+00  0.00000000000E+00  0.12974353197E+03  0.12974353197E+03  0.00000000000E+00 0. -1.
         -1   -1    0    0    0  501 -0.00000000000E+00 -0.00000000000E+00 -0.13261963783E+03  0.13261963783E+03  0.00000000000E+00 0.  1.
         23    2    1    2    0    0  0.44038335343E+02  0.28941299654E+02 -0.53680242069E+02  0.11742956532E+03  0.90172948373E+02 0.  0.
          5    1    1    2  502    0  0.20853342607E+02 -0.16027879078E+02  0.70836481061E+02  0.75677171292E+02  0.41800000000E+01 0.  1.
         -5    1    1    2    0  502 -0.64891677950E+02 -0.12913420576E+02 -0.20032344849E+02  0.69256433190E+02  0.41800000000E+01 0.  1.
        -11    1    3    3    0    0  0.25967603738E+02 -0.31418885858E+02 -0.27665952629E+02  0.49263249663E+02  0.00000000000E+00 0.  1.
         11    1    3    3    0    0  0.18070731605E+02  0.60360185512E+02 -0.26014289440E+02  0.68166315662E+02  0.00000000000E+00 0. -1.
</event>
<event>
 6    1  0.6610867E-006  0.1794928E+03  0.7561462E-02  0.1168295E+00
         -2   -1    0    0    0  501 -0.00000000000E+00  0.00000000000E+00  0.53156469034E+02  0.53156469034E+02  0.00000000000E+00 0. -1.
          2   -1    0    0  501    0  0.00000000000E+00 -0.00000000000E+00 -0.72782842764E+03  0.72782842764E+03  0.00000000000E+00 0.  1.
          5    1    1    2  502    0  0.69232784657E+02 -0.62963090098E+02 -0.31213018227E+03  0.32588380179E+03  0.41800000000E+01 0. -1.
         -5    1    1    2    0  502  0.14216810716E+00  0.24753237683E+02 -0.72270618600E+01  0.26123663807E+02  0.41800000000E+01 0. -1.
        -11    1    1    2    0    0 -0.15126022402E+03  0.35878249833E+01 -0.23115711867E+03  0.27627186135E+03  0.00000000000E+00 0.  1.
         11    1    1    2    0    0  0.81885271251E+02  0.34622027432E+02 -0.12415759580E+03  0.15270556973E+03  0.00000000000E+00 0. -1.
</event>
<event>
 7    1  0.6610867E-006  0.1098777E+03  0.7561462E-02  0.1260796E+00
         -2   -1    0    0    0  501 -0.00000000000E+00  0.00000000000E+00  0.13450715555E+02  0.13450715555E+02  0.00000000000E+00 0.  1.
          2   -1    0    0  501    0  0.00000000000E+00 -0.00000000000E+00 -0.12905131039E+04  0.12905131039E+04  0.00000000000E+00 0. -1.
         23    2    1    2    0    0  0.24614064603E+02 -0.20901195116E+02 -0.32648977749E+03  0.34036876266E+03  0.90623438773E+02 0.  0.
          5    1    1    2  502    0 -0.38224364797E+02 -0.43249108504E+02 -0.75628529094E+03  0.75849621037E+03  0.41800000000E+01 0. -1.
         -5    1    1    2    0  502  0.13610300194E+02  0.64150303620E+02 -0.19428731990E+03  0.20509884642E+03  0.41800000000E+01 0.  1.
        -11    1    3    3    0    0  0.48209171430E+02 -0.42437880364E+02 -0.21390196040E+03  0.22333639776E+03  0.00000000000E+00 0. -1.
         11    1    3    3    0    0 -0.23595106827E+02  0.21536685248E+02 -0.11258781709E+03  0.11703236490E+03  0.00000000000E+00 0.  1.
</event>
<event>
 7    1  0.6610867E-006  0.9167776E+02  0.7561462E-02  0.1298839E+00
          2   -1    0    0  501    0  0.00000000000E+00  0.00000000000E+00  0.56019749795E+03  0.56019749795E+03  0.00000000000E+00 0. -1.
         -2   -1    0    0    0  501 -0.00000000000E+00 -0.00000000000E+00 -0.33124210188E+02  0.33124210188E+02  0.00000000000E+00 0.  1.
         23    2    1    2    0    0 -0.21368761663E+02  0.71260284530E+02  0.13026354623E+03  0.17066320193E+03  0.81379880133E+02 0.  0.
          5    1    1    2  502    0  0.44701316135E+02 -0.16053925327E+02  0.32741838516E+03  0.33087188989E+03  0.41800000000E+01 0.  1.
         -5    1    1    2    0  502 -0.23332554472E+02 -0.55206359203E+02  0.69391356367E+02  0.91786616307E+02  0.41800000000E+01 0.  1.
        -11    1    3    3    0    0 -0.47226936212E+01  0.39080924383E+02  0.12849556896E+03  0.13439022929E+03  0.00000000000E+00 0.  1.
         11    1    3    3    0    0 -0.16646068042E+02  0.32179360146E+02  0.17679772703E+01  0.36272972642E+02  0.00000000000E+00 0. -1.
</event>
<event>
 7    1  0.6610867E-006  0.9387373E+02  0.7561462E-02  0.1293733E+00
          1   -1    0    0  501    0  0.00000000000E+00  0.00000000000E+00  0.13668309811E+03  0.13668309811E+03  0.00000000000E+00 0. -1.
         -1   -1    0    0    0  501 -0.00000000000E+00 -0.00000000000E+00 -0.94342304041E+02  0.94342304041E+02  0.00000000000E+00 0.  1.
         23    2    1    2    0    0 -0.29605884390E+02 -0.13459411860E+02  0.17364788730E+02  0.99384507876E+02  0.92293447005E+02 0.  0.
          5    1    1    2  502    0 -0.40667254327E+02  0.13015549616E+02  0.41106751270E+02  0.59417737304E+02  0.41800000000E+01 0.  1.
         -5    1    1    2    0  502  0.70273138717E+02  0.44386224383E+00 -0.16130745930E+02  0.72223156972E+02  0.41800000000E+01 0.  1.
        -11    1    3    3    0    0 -0.27312327042E+02 -0.39654385049E+02  0.41594545484E+02  0.63628135884E+02  0.00000000000E+00 0. -1.
         11    1    3    3    0    0 -0.22935573482E+01  0.26194973189E+02 -0.24229756754E+02  0.35756371992E+02  0.00000000000E+00 0.  1.
</event>
<event>
 7    1  0.6610867E-006  0.2140202E+03  0.7561462E-02  0.1138421E+00
          1   -1    0    0  501    0  0.00000000000E+00  0.00000000000E+00  0.41795155698E+03  0.41795155698E+03  0.00000000000E+00 0. -1.
         -1   -1    0    0    0  501 -0.00000000000E+00 -0.00000000000E+00 -0.22309836439E+03  0.22309836439E+03  0.00000000000E+00 0.  1.
         23    2    1    2    0    0 -0.59965604157E+02 -0.19191055227E+03 -0.11604582757E+03  0.25024187483E+03  0.93428197366E+02 0.  0.
          5    1    1    2  502    0  0.73457148377E+02  0.19246822616E+03  0.31471314329E+03  0.37616725760E+03  0.41800000000E+01 0.  1.
         -5    1    1    2    0  502 -0.13491544220E+02 -0.55767388604E+00 -0.38141231300E+01  0.14640788942E+02  0.41800000000E+01 0.  1.
        -11    1    3    3    0    0 -0.17190773096E+02 -0.13784475834E+03 -0.11650291519E+03  0.18129983268E+03  0.00000000000E+00 0. -1.
         11    1    3    3    0    0 -0.42774831061E+02 -0.54065793930E+02  0.45708762096E+00  0.68942042142E+02  0.00000000000E+00 0.  1.
</event>
<event>
 7    1  0.6610867E-006  0.1431396E+03  0.7561462E-02  0.1209166E+00
          2   -1    0    0  501    0  0.00000000000E+00  0.00000000000E+00  0.24109659910E+02  0.24109659910E+02  0.00000000000E+00 0.  1.
         -2   -1    0    0    0  501 -0.00000000000E+00 -0.00000000000E+00 -0.11073522646E+04  0.11073522646E+04  0.00000000000E+00 0. -1.
         23    2    1    2    0    0 -0.11071700086E+03  0.42281661071E+02 -0.40360101740E+03  0.43031565869E+03  0.90729221964E+02 0.  0.
          5    1    1    2  502    0  0.13485162089E+03 -0.38797945648E+02 -0.63266547311E+03  0.64805348044E+03  0.41800000000E+01 0. -1.
         -5    1    1    2    0  502 -0.24134620031E+02 -0.34837154233E+01 -0.46976114215E+02  0.53092785423E+02  0.41800000000E+01 0. -1.
        -11    1    3    3    0    0 -0.30693252584E+02  0.98429445181E-01 -0.21058820627E+02  0.37223102621E+02  0.00000000000E+00 0.  1.
         11    1    3    3    0    0 -0.80023748279E+02  0.42183231626E+02 -0.38254219678E+03  0.39309255606E+03  0.00000000000E+00 0. -1.
</event>
<event>
 7    1  0.6610867E-006  0.1587532E+03  0.7561462E-02  0.1190112E+00
          2   -1    0    0  501    0  0.00000000000E+00  0.00000000000E+00  0.78070261418E+03  0.78070261418E+03  0.00000000000E+00 0. -1.
         -2   -1    0    0    0  501 -0.00000000000E+00 -0.00000000000E+00 -0.46450090451E+02  0.46450090451E+02  0.00000000000E+00 0.  1.
         23    2    1    2    0    0 -0.15456910131E+03  0.17914744795E+02  0.30279354818E+03  0.35174159144E+03  0.88462812347E+02 0.  0.
          5    1    1    2  502    0  0.97090413108E+02 -0.16556193964E+02  0.10548322928E+03  0.14437742183E+03  0.41800000000E+01 0. -1.
         -5    1    1    2    0  502  0.57478688202E+02 -0.13585508314E+01  0.32597574627E+03  0.33103369135E+03  0.41800000000E+01 0. -1.
        -11    1    3    3    0    0 -0.77322605492E+02  0.30297918850E+02  0.23131892571E+03  0.24577468258E+03  0.00000000000E+00 0.  1.
         11    1    3    3    0    0 -0.77246495818E+02 -0.12383174054E+02  0.71474622472E+02  0.10596690886E+03  0.00000000000E+00 0. -1.
</event>
<event>
 7    1  0.6610867E-006  0.8683707E+02  0.7561462E-02  0.1310697E+00
          1   -1    0    0  501    0  0.00000000000E+00  0.00000000000E+00  0.81874353347E+02  0.81874353347E+02  0.00000000000E+00 0. -1.
         -1   -1    0    0    0  501 -0.00000000000E+00 -0.00000000000E+00 -0.16015215223E+03  0.16015215223E+03  0.00000000000E+00 0.  1.
         23    2    1    2    0    0  0.90100924326E+01  0.35106717661E+02 -0.49423828636E+02  0.10863653517E+03  0.89696814585E+02 0.  0.
          5    1    1    2  502    0 -0.52299423113E+02 -0.17257981191E+02  0.26086093657E+02  0.61082110761E+02  0.41800000000E+01 0.  1.
         -5    1    1    2    0  502  0.43289330681E+02 -0.17848736470E+02 -0.54940063902E+02  0.72307859641E+02  0.41800000000E+01 0.  1.
        -11    1    3    3    0    0  0.30761374560E+02  0.75262614140E+00 -0.59286804832E+02  0.66796360965E+02  0.00000000000E+00 0.  1.
         11    1    3    3    0    0 -0.21751282127E+02  0.34354091520E+02  0.98629761963E+01  0.41840174208E+02  0.00000000000E+00 0. -1.
</event>
<event>
 7    1  0.6610867E-006  0.1066496E+03  0.7561462E-02  0.1266903E+00
          1   -1    0    0  501    0  0.00000000000E+00  0.00000000000E+00  0.53417190226E+02  0.53417190226E+02  0.00000000000E+00 0. -1.
         -1   -1    0    0    0  501 -0.00000000000E+00 -0.00000000000E+00 -0.40000795939E+03  0.40000795939E+03  0.00000000000E+00 0.  1.
         23    2    1    2    0    0 -0.62904085225E+02  0.43510377570E+02 -0.25018712088E+03  0.27793491382E+03  0.93830400047E+02 0.  0.
          5    1    1    2  502    0  0.42904996947E+02  0.12652939677E+01 -0.11504390898E+03  0.12286176430E+03  0.41800000000E+01 0. -1.
         -5    1    1    2    0  502  0.19999088278E+02 -0.44775671538E+02  0.18640260696E+02  0.52628471500E+02  0.41800000000E+01 0. -1.
        -11    1    3    3    0    0 -0.86615643244E+02  0.44184573237E+02 -0.20546158935E+03  0.22730818478E+03  0.00000000000E+00 0. -1.
         11    1    3    3    0    0  0.23711558020E+02 -0.67419566730E+00 -0.44725531525E+02  0.50626729044E+02  0.00000000000E+00 0.  1.
</event>
<event>
 7    1  0.6610867E-006  0.1075651E+03  0.7561462E-02  0.1265147E+00
         -2   -1    0    0    0  501 -0.00000000000E+00  0.00000000000E+00  0.20399389787E+02  0.20399389787E+02  0.00000000000E+00 0.  1.
          2   -1    0    0  501    0  0.00000000000E+00 -0.00000000000E+00 -0.64274928165E+03  0.64274928165E+03  0.00000000000E+00 0. -1.
         23    2    1    2    0    0 -0.20897504599E+02 -0.28724847829E+02 -0.25480964655E+03  0.27328353502E+03  0.92163506635E+02 0.  0.
          5    1    1    2  502    0  0.23469740131E+02  0.76138288853E+02 -0.26573078722E+03  0.27744943937E+03  0.41800000000E+01 0. -1.
         -5    1    1    2    0  502 -0.25722355317E+01 -0.47413441024E+02 -0.10180945809E+03  0.11241569704E+03  0.41800000000E+01 0. -1.
        -11    1    3    3    0    0 -0.48609906924E+02 -0.12048567031E+01 -0.20097842004E+03  0.20677693307E+03  0.00000000000E+00 0. -1.
         11    1    3    3    0    0  0.27712402324E+02 -0.27519991126E+02 -0.53831226513E+02  0.66506601944E+02  0.00000000000E+00 0.  1.
</event>
<event>
 7    1  0.6610867E-006  0.2473283E+03  0.7561462E-02  0.1115005E+00
          2   -1    0    0  501    0  0.00000000000E+00  0.00000000000E+00  0.81839383834E+02  0.81839383834E+02  0.00000000000E+00 0. -1.
         -2   -1    0    0    0  501 -0.00000000000E+00 -0.00000000000E+00 -0.93360243778E+03  0.93360243778E+03  0.00000000000E+00 0.  1.
         23    2    1    2    0    0 -0.13031598530E+03 -0.20731688442E+03 -0.54080367956E+03  0.60034493890E+03  0.89346959938E+02 0.  0.
          5    1    1    2  502    0  0.11980133021E+03  0.16381108503E+03 -0.16261637483E+03  0.26009226836E+03  0.41800000000E+01 0. -1.
         -5    1    1    2    0  502  0.10514655091E+02  0.43505799389E+02 -0.14834299955E+03  0.15500461435E+03  0.41800000000E+01 0. -1.
        -11    1    3    3    0    0 -0.11272316750E+03 -0.15597906286E+03 -0.32393083823E+03  0.37678530823E+03  0.00000000000E+00 0. -1.
         11    1    3    3    0    0 -0.17592817804E+02 -0.51337821565E+02 -0.21687284133E+03  0.22355963067E+03  0.00000000000E+00 0.  1.
</event>
<event>
 7    1  0.6610867E-006  0.1093393E+03  0.7561462E-02  0.1261798E+00
         -2   -1    0    0    0  501 -0.00000000000E+00  0.00000000000E+00  0.10073287213E+03  0.10073287213E+03  0.00000000000E+00 0.  1.
          2   -1    0    0  501    0  0.00000000000E+00 -0.00000000000E+00 -0.26965282041E+03  0.26965282041E+03  0.00000000000E+00 0. -1.
         23    2    1    2    0    0  0.39521819982E+02  0.33757798129E+02  0.48724902532E+02  0.11404511861E+03  0.89053971072E+02 0.  0.
          5    1    1    2  502    0 -0.31532888290E+02  0.34939790467E+02 -0.29158842801E+02  0.55523170976E+02  0.41800000000E+01 0.  1.
         -5    1    1    2    0  502 -0.79889316917E+01 -0.68697588596E+02 -0.18848600801E+03  0.20081740294E+03  0.41800000000E+01 0.  1.
        -11    1    3    3    0    0  0.63873913463E+02  0.44384047846E+01  0.37983483477E+02  0.74446768064E+02  0.00000000000E+00 0. -1.
         11    1    3    3    0    0 -0.24352093481E+02  0.29319393344E+02  0.10741419055E+02  0.39598350550E+02  0.00000000000E+00 0.  1.
</event>
<event>
 7    1  0.6610867E-006  0.6308017E+02  0.7561462E-02  0.1385342E+00
          2   -1    0    0  501    0  0.00000000000E+00  0.00000000000E+00  0.88712094656E+03  0.88712094656E+03  0.00000000000E+00 0. -1.
         -2   -1    0    0    0  501 -0.00000000000E+00 -0.00000000000E+00 -0.14178452906E+02  0.14178452906E+02  0.00000000000E+00 0.  1.
         23    2    1    2    0    0 -0.31104377067E+02 -0.14216906771E+02  0.25186702607E+03  0.26682990144E+03  0.81188636936E+02 0.  0.
          5    1    1    2  502    0  0.40282000744E+02  0.20075166437E+02  0.62116396261E+03  0.62280638463E+03  0.41800000000E+01 0.  1.
         -5    1    1    2    0  502 -0.91776236776E+01 -0.58582596660E+01 -0.88495030975E-01  0.11663113394E+02  0.41800000000E+01 0.  1.
        -11    1    3    3    0    0 -0.15087124570E+02 -0.37850574690E+02  0.22123490456E+03  0.22495592975E+03  0.00000000000E+00 0. -1.
         11    1    3    3    0    0 -0.16017252497E+02  0.23633667919E+02  0.30632121512E+02  0.41873971691E+02  0.00000000000E+00 0.  1.
</event>
<event>
 7    1  0.6610867E-006  0.1628543E+03  0.7561462E-02  0.1185511E+00
          4   -1    0    0  501    0  0.00000000000E+00  0.00000000000E+00  0.91473358140E+02  0.91473358140E+02  0.00000000000E+00 0. -1.
         -4   -1    0    0    0  501 -0.00000000000E+00 -0.00000000000E+00 -0.36840361588E+03  0.36840361588E+03  0.00000000000E+00 0.  1.
         23    2    1    2    0    0  0.21688749174E+02 -0.14460184786E+03 -0.16290718525E+03  0.23620670677E+03  0.88739850547E+02 0.  0.
          5    1    1    2  502    0 -0.49015492584E+01 -0.11696260575E+02 -0.53551597304E+02  0.55191246321E+02  0.41800000000E+01 0. -1.
         -5    1    1    2    0  502 -0.16787199916E+02  0.15629810843E+03 -0.60471475187E+02  0.16847902093E+03  0.41800000000E+01 0. -1.
        -11    1    3    3    0    0  0.30719833167E+02 -0.41638001101E+02 -0.11701862255E+02  0.53050587798E+02  0.00000000000E+00 0.  1.
         11    1    3    3    0    0 -0.90310839930E+01 -0.10296384676E+03 -0.15120532299E+03  0.18315611898E+03  0.00000000000E+00 0. -1.
</event>
<event>
 7    1  0.6610867E-006  0.1063907E+03  0.7561462E-02  0.1267403E+00
          2   -1    0    0  501    0  0.00000000000E+00  0.00000000000E+00  0.38359454278E+02  0.38359454278E+02  0.00000000000E+00 0. -1.
         -2   -1    0    0    0  501 -0.00000000000E+00 -0.00000000000E+00 -0.41615026879E+03  0.41615026879E+03  0.00000000000E+00 0.  1.
         23    2    1    2    0    0  0.11031963762E+02 -0.49424514774E+02 -0.26328976967E+03  0.27753647674E+03  0.71697323679E+02 0.  0.
          5    1    1    2  502    0  0.13736000615E+00  0.88051944505E+02 -0.51427113923E+02  0.10205578987E+03  0.41800000000E+01 0.  1.
         -5    1    1    2    0  502 -0.11169323768E+02 -0.38627429731E+02 -0.63073930917E+02  0.74917456459E+02  0.41800000000E+01 0.  1.
        -11    1    3    3    0    0 -0.17369197415E+02  0.87632478410E+01 -0.10005574331E+03  0.10192956048E+03  0.00000000000E+00 0.  1.
         11    1    3    3    0    0  0.28401161176E+02 -0.58187762615E+02 -0.16323402636E+03  0.17560691626E+03  0.00000000000E+00 0. -1.
</event>
<event>
 7    1  0.6610867E-006  0.1018429E+03  0.7561462E-02  0.1276468E+00
          1   -1    0    0  501    0  0.00000000000E+00  0.00000000000E+00  0.19075366364E+03  0.19075366364E+03  0.00000000000E+00 0. -1.
         -1   -1    0    0    0  501 -0.00000000000E+00 -0.00000000000E+00 -0.82790401005E+02  0.82790401005E+02  0.00000000000E+00 0.  1.
         23    2    1    2    0    0  0.16826675584E+02  0.57537198387E+02  0.70708535863E+02  0.12991459104E+03  0.91018886571E+02 0.  0.
          5    1    1    2  502    0  0.50332779164E+02 -0.19237390220E+02  0.38225575662E+02  0.66197680288E+02  0.41800000000E+01 0. -1.
         -5    1    1    2    0  502 -0.67159454748E+02 -0.38299808167E+02 -0.97084889219E+00  0.77431793310E+02  0.41800000000E+01 0. -1.
        -11    1    3    3    0    0 -0.10610120462E+02  0.27806602778E+01 -0.18617660793E+02  0.21608424774E+02  0.00000000000E+00 0.  1.
         11    1    3    3    0    0  0.27436796046E+02  0.54756538109E+02  0.89326196656E+02  0.10830616627E+03  0.00000000000E+00 0. -1.
</event>
<event>
 7    1  0.6610867E-006  0.1160478E+03  0.7561462E-02  0.1249763E+00
          2   -1    0    0  501    0  0.00000000000E+00  0.00000000000E+00  0.19424347934E+03  0.19424347934E+03  0.00000000000E+00 0. -1.
         -2   -1    0    0    0  501 -0.00000000000E+00 -0.00000000000E+00 -0.85882022463E+02  0.85882022463E+02  0.00000000000E+00 0.  1.
         23    2    1    2    0    0 -0.61405292231E+02  0.26805788664E+02  0.28404422858E+02  0.11724571509E+03  0.91927070270E+02 0.  0.
          5    1    1    2  502    0  0.45233299835E+02  0.37899558754E+02  0.63932451914E+00  0.59163410175E+02  0.41800000000E+01 0.  1.
         -5    1    1    2    0  502  0.16171992397E+02 -0.64705347417E+02  0.79317709495E+02  0.10371637654E+03  0.41800000000E+01 0.  1.
        -11    1    3    3    0    0  0.19459862566E+02  0.14600003891E+02  0.25745417535E+02  0.35421362040E+02  0.00000000000E+00 0. -1.
         11    1    3    3    0    0 -0.80865154797E+02  0.12205784773E+02  0.26590053233E+01  0.81824353047E+02  0.00000000000E+00 0.  1.
</event>
<event>
 7    1  0.6610867E-006  0.1284177E+03  0.7561462E-02  0.1229823E+00
         -1   -1    0    0    0  501 -0.00000000000E+00  0.00000000000E+00  0.42509750369E+02  0.42509750369E+02  0.00000000000E+00 0.  1.
          1   -1    0    0  501    0  0.00000000000E+00 -0.00000000000E+00 -0.68857859938E+03  0.68857859938E+03  0.00000000000E+00 0. -1.
         23    2    1    2    0    0  0.64698714309E+02 -0.80129049275E+02 -0.12740750491E+03  0.18770654719E+03  0.91621435149E+02 0.  0.
          5    1    1    2  502    0  0.10118448601E+02 -0.35423101399E+00 -0.28422287303E+03  0.28443386303E+03  0.41800000000E+01 0. -1.
         -5    1    1    2    0  502 -0.74817162910E+02  0.80483280289E+02 -0.23443847107E+03  0.25894793953E+03  0.41800000000E+01 0. -1.
        -11    1    3    3    0    0  0.86592915704E+02 -0.54986544044E+02 -0.10878305870E+03  0.14951791510E+03  0.00000000000E+00 0.  1.
         11    1    3    3    0    0 -0.21894201395E+02 -0.25142505232E+02 -0.18624446211E+02  0.38188632088E+02  0.00000000000E+00 0. -1.
</event>
<event>
 7    1  0.6610867E-006  0.1842448E+03  0.7561462E-02  0.1163757E+00
         -1   -1    0    0    0  501 -0.00000000000E+00  0.00000000000E+00  0.26549133480E+03  0.26549133480E+03  0.00000000000E+00 0.  1.
          1   -1    0    0  501    0  0.00000000000E+00 -0.00000000000E+00 -0.14776038959E+03  0.14776038959E+03  0.00000000000E+00 0. -1.
         23    2    1    2    0    0 -0.10154474580E+03 -0.12394727089E+03  0.95805138981E+02  0.20879547055E+03  0.93502205891E+02 0.  0.
          5    1    1    2  502    0  0.86165406511E+01  0.10734875074E+03  0.15162646767E+01  0.10778576213E+03  0.41800000000E+01 0.  1.
         -5    1    1    2    0  502  0.92928205148E+02  0.16598520147E+02  0.20409541551E+02  0.96670491720E+02  0.41800000000E+01 0.  1.
        -11    1    3    3    0    0 -0.99061601584E+01 -0.42441030939E+02 -0.12327203861E+02  0.45291644608E+02  0.00000000000E+00 0. -1.
         11    1    3    3    0    0 -0.91638585640E+02 -0.81506239949E+02  0.10813234284E+03  0.16350382594E+03  0.00000000000E+00 0.  1.
</event>
<event>
 7    1  0.6610867E-006  0.1008264E+03  0.7561462E-02  0.1278568E+00
          1   -1    0    0  501    0  0.00000000000E+00  0.00000000000E+00  0.20475595002E+04  0.20475595002E+04  0.00000000000E+00 0. -1.
         -1   -1    0    0    0  501 -0.00000000000E+00 -0.00000000000E+00 -0.25743650832E+02  0.25743650832E+02  0.00000000000E+00 0.  1.
         23    2    1    2    0    0  0.31655047686E+02 -0.20879759676E+02  0.94285764103E+02  0.13770418142E+03  0.92922709069E+02 0.  0.
          5    1    1    2  502    0 -0.61479583096E+02  0.35382250589E+02  0.18475377760E+04  0.18489037154E+04  0.41800000000E+01 0. -1.
         -5    1    1    2    0  502  0.29824535410E+02 -0.14502490913E+02  0.79992309255E+02  0.86695254167E+02  0.41800000000E+01 0.  1.
        -11    1    3    3    0    0  0.23658634744E+01 -0.53372249832E+02  0.34396381906E+02  0.63539794226E+02  0.00000000000E+00 0.  1.
         11    1    3    3    0    0  0.29289184211E+02  0.32492490156E+02  0.59889382197E+02  0.74164387197E+02  0.00000000000E+00 0. -1.
</event>
<event>
 6    1  0.6610867E-006  0.6718809E+02  0.7561462E-02  0.1369925E+00
         -2   -1    0    0    0  501 -0.00000000000E+00  0.00000000000E+00  0.26885773824E+02  0.26885773824E+02  0.00000000000E+00 0. -1.
          2   -1    0    0  501    0  0.00000000000E+00 -0.00000000000E+00 -0.48198272966E+03  0.48198272966E+03  0.00000000000E+00 0.  1.
          5    1    1    2  502    0 -0.12048899439E+01  0.65521690093E+02 -0.84102811112E+02  0.10670191596E+03  0.41800000000E+01 0. -1.
         -5    1    1    2    0  502  0.51538572433E+01 -0.77588286382E+01 -0.32191993181E+03  0.32208178552E+03  0.41800000000E+01 0. -1.
        -11    1    1    2    0    0 -0.61022387646E+01 -0.27861550338E+02 -0.39287451131E+02  0.48549017720E+02  0.00000000000E+00 0.  1.
         11    1    1    2    0    0  0.21532714652E+01 -0.29901311116E+02 -0.97867617854E+01  0.31535784289E+02  0.00000000000E+00 0. -1.
</event>
<event>
 7    1  0.6610867E-006  0.1054429E+03  0.7561462E-02  0.1269249E+00
         -2   -1    0    0    0  501 -0.00000000000E+00  0.00000000000E+00  0.23237697776E+02  0.23237697776E+02  0.00000000000E+00 0. -1.
          2   -1    0    0  501    0  0.00000000000E+00 -0.00000000000E+00 -0.61888085508E+03  0.61888085508E+03  0.00000000000E+00 0.  1.
         23    2    1    2    0    0 -0.82666110178E+01 -0.39099222617E+02 -0.18186143515E+03  0.20799936031E+03  0.92698793009E+02 0.  0.
          5    1    1    2  502    0 -0.55495091617E+02  0.10529367292E+02 -0.24375004263E+03  0.25024413770E+03  0.41800000000E+01 0.  1.
         -5    1    1    2    0  502  0.63761702635E+02  0.28569855325E+02 -0.17003167952E+03  0.18387505485E+03  0.41800000000E+01 0.  1.
        -11    1    3    3    0    0  0.32633077813E+02 -0.24567121439E+02 -0.14627550265E+03  0.15187160333E+03  0.00000000000E+00 0.  1.
         11    1    3    3    0    0 -0.40899688831E+02 -0.14532101178E+02 -0.35585932509E+02  0.56127756980E+02  0.00000000000E+00 0. -1.
</event>
<event>
 7    1  0.6610867E-006  0.1392789E+03  0.7561462E-02  0.1214303E+00
         -1   -1    0    0    0  501 -0.00000000000E+00  0.00000000000E+00  0.46396231159E+02  0.46396231159E+02  0.00000000000E+00 0.  1.
          1   -1    0    0  501    0  0.00000000000E+00 -0.00000000000E+00 -0.66468858567E+03  0.66468858567E+03  0.00000000000E+00 0. -1.
         23    2    1    2    0    0 -0.29335266388E+02 -0.11724276293E+03 -0.16312837512E+03  0.22381854614E+03  0.94220228784E+02 0.  0.
          5    1    1    2  502    0  0.46797429441E+01 -0.21592870490E+01  0.67791083330E+01  0.94863704531E+01  0.41800000000E+01 0. -1.
         -5    1    1    2    0  502  0.24655523444E+02  0.11940204998E+03 -0.46194308772E+03  0.47777990024E+03  0.41800000000E+01 0. -1.
        -11    1    3    3    0    0 -0.51343549958E+02 -0.28966940869E+02 -0.87527710857E+02  0.10552887734E+03  0.00000000000E+00 0.  1.
         11    1    3    3    0    0  0.22008283570E+02 -0.88275822062E+02 -0.75600664266E+02  0.11828966880E+03  0.00000000000E+00 0. -1.
</event>
<event>
 7    1  0.6610867E-006  0.1749374E+03  0.7561462E-02  0.1172795E+00
          2   -1    0    0  501    0  0.00000000000E+00  0.00000000000E+00  0.42107222693E+03  0.42107222693E+03  0.00000000000E+00 0. -1.
         -2   -1    0    0    0  501 -0.00000000000E+00 -0.00000000000E+00 -0.81507856392E+02  0.81507856392E+02  0.00000000000E+00 0.  1.
         23    2    1    2    0    0  0.90671218112E+02  0.11078511024E+03  0.20836176739E+03  0.27158916907E+03  0.99254421572E+02 0.  0.
          5    1    1    2  502    0 -0.11649078772E+02  0.27454666518E+02  0.13876162725E+02  0.33158408312E+02  0.41800000000E+01 0.  1.
         -5    1    1    2    0  502 -0.79022139340E+02 -0.13823977676E+03  0.11732644043E+03  0.19783250594E+03  0.41800000000E+01 0.  1.
        -11    1    3    3    0    0  0.80079190387E+02  0.41143184725E+02  0.62468753921E+02  0.10958003285E+03  0.00000000000E+00 0.  1.
         11    1    3    3    0    0  0.10592027725E+02  0.69641925517E+02  0.14589301347E+03  0.16200913622E+03  0.00000000000E+00 0. -1.
</event>
<event>
 7    1  0.6610867E-006  0.8842800E+02  0.7561462E-02  0.1306704E+00
         -1   -1    0    0    0  501 -0.00000000000E+00  0.00000000000E+00  0.91720930681E+02  0.91720930681E+02  0.00000000000E+00 0.  1.
          1   -1    0    0  501    0  0.00000000000E+00 -0.00000000000E+00 -0.24360020132E+03  0.24360020132E+03  0.00000000000E+00 0. -1.
         23    2    1    2    0    0  0.29594735409E+02  0.35944829397E+02  0.33126258604E+02  0.10717976033E+03  0.90676749452E+02 0.  0.
          5    1    1    2  502    0  0.30254657282E+02 -0.35394161951E+01  0.23717953498E+00  0.30747364251E+02  0.41800000000E+01 0.  1.
         -5    1    1    2    0  502 -0.59849392691E+02 -0.32405413201E+02 -0.18524270878E+03  0.19739400742E+03  0.41800000000E+01 0.  1.
        -11    1    3    3    0    0  0.49047816593E+02  0.20832556440E+02  0.53277784544E+02  0.75353872138E+02  0.00000000000E+00 0.  1.
         11    1    3    3    0    0 -0.19453081184E+02  0.15112272957E+02 -0.20151525941E+02  0.31825888192E+02  0.00000000000E+00 0. -1.
</event>
<event>
 7    1  0.6610867E-006  0.5776217E+02  0.7561462E-02  0.1407470E+00
          1   -1    0    0  501    0  0.00000000000E+00  0.00000000000E+00  0.18356500194E+03  0.18356500194E+03  0.00000000000E+00 0. -1.
         -1   -1    0    0    0  501 -0.00000000000E+00 -0.00000000000E+00 -0.74139016378E+02  0.74139016378E+02  0.00000000000E+00 0.  1.
         23    2    1    2    0    0  0.41260431552E+01  0.21554338455E+02  0.62387003575E+01  0.94296063908E+02  0.91494330688E+02 0.  0.
          5    1    1    2  502    0  0.21119225966E+02 -0.13134959607E+02  0.12575915088E+03  0.12826295373E+03  0.41800000000E+01 0. -1.
         -5    1    1    2    0  502 -0.25245269121E+02 -0.84193788477E+01 -0.22571865672E+02  0.35145000684E+02  0.41800000000E+01 0. -1.
        -11    1    3    3    0    0 -0.25822445334E+02  0.21209057711E+02 -0.31632158799E+02  0.46013218560E+02  0.00000000000E+00 0.  1.
         11    1    3    3    0    0  0.29948488489E+02  0.34528074420E+00  0.37870859157E+02  0.48282845347E+02  0.00000000000E+00 0. -1.
</event>
<event>
 7    1  0.6610867E-006  0.1519889E+03  0.7561462E-02  0.1198050E+00
         -1   -1    0    0    0  501 -0.00000000000E+00  0.00000000000E+00  0.49156584140E+02  0.49156584140E+02  0.00000000000E+00 0.  1.
          1   -1    0    0  501    0  0.00000000000E+00 -0.00000000000E+00 -0.70236430925E+03  0.70236430925E+03  0.00000000000E+00 0. -1.
         23    2    1    2    0    0  0.11057946747E+03  0.60495587774E+02 -0.11853358350E+03  0.18812800724E+03  0.73853922888E+02 0.  0.
          5    1    1    2  502    0 -0.10695716502E+02 -0.57713176223E+02 -0.89418243165E+02  0.10704346627E+03  0.41800000000E+01 0. -1.
         -5    1    1    2    0  502 -0.99883750965E+02 -0.27824115513E+01 -0.44525589844E+03  0.45634941987E+03  0.41800000000E+01 0. -1.
        -11    1    3    3    0    0  0.42056911047E+02  0.63920269514E+02 -0.51672917245E+02  0.92329166563E+02  0.00000000000E+00 0.  1.
         11    1    3    3    0    0  0.68522556419E+02 -0.34246817400E+01 -0.66860666257E+02  0.95798840680E+02  0.00000000000E+00 0. -1.
</event>
<event>
 7    1  0.6610867E-006  0.1716984E+03  0.7561462E-02  0.1176088E+00
         -1   -1    0    0    0  501 -0.00000000000E+00  0.00000000000E+00  0.55711445815E+02  0.55711445815E+02  0.00000000000E+00 0.  1.
          1   -1    0    0  501    0  0.00000000000E+00 -0.00000000000E+00 -0.73559943484E+03  0.73559943484E+03  0.00000000000E+00 0. -1.
         23    2    1    2    0    0  0.21385595758E+02 -0.16937415188E+03 -0.31110559961E+03  0.36611358381E+03  0.90041740922E+02 0.  0.
          5    1    1    2  502    0 -0.13947777236E+02  0.11030085013E+03 -0.99114958223E+02  0.14900357503E+03  0.41800000000E+01 0.  1.
         -5    1    1    2    0  502 -0.74378185223E+01  0.59073301747E+02 -0.26966743119E+03  0.27619372182E+03  0.41800000000E+01 0.  1.
        -11    1    3    3    0    0  0.81528200876E+01 -0.13998222378E+03 -0.16517862137E+03  0.21666902965E+03  0.00000000000E+00 0.  1.
         11    1    3    3    0    0  0.13232775670E+02 -0.29391928095E+02 -0.14592697825E+03  0.14944455416E+03  0.00000000000E+00 0. -1.
</event>
<event>
 7    1  0.6610867E-006  0.4640660E+02  0.7561462E-02  0.1465747E+00
         -1   -1    0    0    0  501 -0.00000000000E+00  0.00000000000E+00  0.35019250156E+02  0.35019250156E+02  0.00000000000E+00 0.  1.
          1   -1    0    0  501    0  0.00000000000E+00 -0.00000000000E+00 -0.48127721489E+03  0.48127721489E+03  0.00000000000E+00 0. -1.
         23    2    1    2    0    0  0.27223851180E+02 -0.19127941744E+02 -0.69633467896E+02  0.11804809663E+03  0.89328142472E+02 0.  0.
          5    1    1    2  502    0 -0.18790650595E+02  0.41942331079E+01  0.14566433160E+01  0.19755362586E+02  0.41800000000E+01 0.  1.
         -5    1    1    2    0  502 -0.84332005851E+01  0.14933708636E+02 -0.37808114015E+03  0.37849300583E+03  0.41800000000E+01 0.  1.
        -11    1    3    3    0    0 -0.12337958410E+02 -0.64082552661E+01 -0.74881954226E+02  0.76161657164E+02  0.00000000000E+00 0. -1.
         11    1    3    3    0    0  0.39561809590E+02 -0.12719686478E+02  0.52484863291E+01  0.41886439463E+02  0.00000000000E+00 0.  1.
</event>
<event>
 7    1  0.6610867E-006  0.1048048E+03  0.7561462E-02  0.1270505E+00
          2   -1    0    0  501    0  0.00000000000E+00  0.00000000000E+00  0.61147824323E+03  0.61147824323E+03  0.00000000000E+00 0. -1.
         -2   -1    0    0    0  501 -0.00000000000E+00 -0.00000000000E+00 -0.33498790287E+02  0.33498790287E+02  0.00000000000E+00 0.  1.
         23    2    1    2    0    0  0.92174222809E+02  0.63356028128E+01  0.28368518839E+03  0.31212084459E+03  0.91683740665E+02 0.  0.
          5    1    1    2  502    0 -0.20369895986E+02  0.14056228298E+01  0.24367257600E+03  0.24456227251E+03  0.41800000000E+01 0.  1.
         -5    1    1    2    0  502 -0.71804326823E+02 -0.77412256426E+01  0.50621688550E+02  0.88293916419E+02  0.41800000000E+01 0.  1.
        -11    1    3    3    0    0  0.42654646625E+02  0.38432256082E+02  0.21005842050E+03  0.21776362692E+03  0.00000000000E+00 0. -1.
         11    1    3    3    0    0  0.49519576184E+02 -0.32096653270E+02  0.73626767891E+02  0.94357217671E+02  0.00000000000E+00 0.  1.
</event>
<event>
 7    1  0.6610867E-006  0.1144951E+03  0.7561462E-02  0.1252465E+00
         -3   -1    0    0    0  501 -0.00000000000E+00  0.00000000000E+00  0.24399667922E+03  0.24399667922E+03  0.00000000000E+00 0.  1.
          3   -1    0    0  501    0  0.00000000000E+00 -0.00000000000E+00 -0.83797015952E+02  0.83797015952E+02  0.00000000000E+00 0. -1.
         23    2    1    2    0    0  0.62832909624E+02  0.54675922592E+02  0.11820076363E+03  0.17175019367E+03  0.92678354859E+02 0.  0.
          5    1    1    2  502    0 -0.69425297057E+02  0.29804785186E+01  0.63293507030E+02  0.94086638561E+02  0.41800000000E+01 0.  1.
         -5    1    1    2    0  502  0.65923874321E+01 -0.57656401111E+02 -0.21294607395E+02  0.61956862939E+02  0.41800000000E+01 0.  1.
        -11    1    3    3    0    0 -0.11140904511E+02  0.61868908807E+01 -0.98604018002E+01  0.16112879809E+02  0.00000000000E+00 0. -1.
         11    1    3    3    0    0  0.73973814135E+02  0.48489031711E+02  0.12806116543E+03  0.15563731386E+03  0.00000000000E+00 0.  1.
</event>
<event>
 7    1  0.6610867E-006  0.8559329E+02  0.7561462E-02  0.1313888E+00
         -2   -1    0    0    0  501 -0.00000000000E+00  0.00000000000E+00  0.15640719246E+02  0.15640719246E+02  0.00000000000E+00 0.  1.
          2   -1    0    0  501    0  0.00000000000E+00 -0.00000000000E+00 -0.89135153344E+03  0.89135153344E+03  0.00000000000E+00 0. -1.
         23    2    1    2    0    0 -0.28145583244E+02 -0.11888817553E+02 -0.23469644952E+03  0.25317205324E+03  0.89889639463E+02 0.  0.
          5    1    1    2  502    0  0.14641884637E+02 -0.34930871662E+02 -0.62206591708E+02  0.72949866571E+02  0.41800000000E+01 0. -1.
         -5    1    1    2    0  502  0.13503698607E+02  0.46819689214E+02 -0.57880777297E+03  0.58087033288E+03  0.41800000000E+01 0. -1.
        -11    1    3    3    0    0 -0.44498708638E+02  0.19652714055E+02 -0.73732699415E+02  0.88333884796E+02  0.00000000000E+00 0.  1.
         11    1    3    3    0    0  0.16353125394E+02 -0.31541531607E+02 -0.16096375011E+03  0.16483816844E+03  0.00000000000E+00 0. -1.
</event>
<event>
 7    1  0.6610867E-006  0.9862938E+02  0.7561462E-02  0.1283205E+00
         -2   -1    0    0    0  501 -0.00000000000E+00  0.00000000000E+00  0.19740150264E+02  0.19740150264E+02  0.00000000000E+00 0.  1.
          2   -1    0    0  501    0  0.00000000000E+00 -0.00000000000E+00 -0.86762802804E+03  0.86762802804E+03  0.00000000000E+00 0. -1.
         23    2    1    2    0    0 -0.51664745965E+02  0.51272259688E+01 -0.20738795125E+03  0.23270545410E+03  0.91905014135E+02 0.  0.
          5    1    1    2  502    0 -0.53286660682E+01  0.35394273279E+02 -0.45418815865E+03  0.45561552336E+03  0.41800000000E+01 0.  1.
         -5    1    1    2    0  502  0.56993412033E+02 -0.40521499248E+02 -0.18631176787E+03  0.19904720084E+03  0.41800000000E+01 0.  1.
        -11    1    3    3    0    0 -0.45256097094E+02 -0.30754970834E+02 -0.61432586912E+02  0.82267522691E+02  0.00000000000E+00 0.  1.
         11    1    3    3    0    0 -0.64086488712E+01  0.35882196802E+02 -0.14595536434E+03  0.15043793141E+03  0.00000000000E+00 0. -1.
</event>
<event>
 7    1  0.6610867E-006  0.1109519E+03  0.7561462E-02  0.1258817E+00
          1   -1    0    0  501    0  0.00000000000E+00  0.00000000000E+00  0.84110955886E+03  0.84110955886E+03  0.00000000000E+00 0. -1.
         -1   -1    0    0    0  501 -0.00000000000E+00 -0.00000000000E+00 -0.17123994336E+02  0.17123994336E+02  0.00000000000E+00 0.  1.
         23    2    1    2    0    0  0.69041393396E+01  0.36962635292E+02  0.22673213721E+03  0.24686803765E+03  0.90124704836E+02 0.  0.
          5    1    1    2  502    0 -0.48464318378E+02  0.24866167014E+02  0.21005036848E+03  0.21703858209E+03  0.41800000000E+01 0.  1.
         -5    1    1    2    0  502  0.41560179039E+02 -0.61828802305E+02  0.38720305884E+03  0.39432693346E+03  0.41800000000E+01 0.  1.
        -11    1    3    3    0    0  0.40185660818E+02 -0.34151361553E+01  0.61466793393E+02  0.73516781624E+02  0.00000000000E+00 0.  1.
         11    1    3    3    0    0 -0.33281521479E+02  0.40377771447E+02  0.16526534381E+03  0.17335125602E+03  0.00000000000E+00 0. -1.
</event>
<event>
 7    1  0.6610867E-006  0.8291775E+02  0.7561462E-02  0.1320969E+00
         -2   -1    0    0    0  501 -0.00000000000E+00  0.00000000000E+00  0.51080918628E+02  0.51080918628E+02  0.00000000000E+00 0.  1.
          2   -1    0    0  501    0  0.00000000000E+00 -0.00000000000E+00 -0.28974740419E+03  0.28974740419E+03  0.00000000000E+00 0. -1.
         23    2    1    2    0    0  0.38202281702E+02  0.33197107883E+02 -0.83338983118E+02  0.13507391479E+03  0.93477880009E+02 0.  0.
          5    1    1    2  502    0 -0.51078802667E+01 -0.24226234923E+02 -0.16731676348E+03  0.16919034441E+03  0.41800000000E+01 0. -1.
         -5    1    1    2    0  502 -0.33094401435E+02 -0.89708729595E+01  0.11989261038E+02  0.36564063618E+02  0.41800000000E+01 0. -1.
        -11    1    3    3    0    0  0.68475220783E+02  0.32758322160E+02 -0.62383376130E+02  0.98252985448E+02  0.00000000000E+00 0. -1.
         11    1    3    3    0    0 -0.30272939081E+02  0.43878572222E+00 -0.20955606988E+02  0.36820929344E+02  0.00000000000E+00 0.  1.
</event>
<event>
 7    1  0.6610867E-006  0.1228195E+03  0.7561462E-02  0.1238517E+00
         -2   -1    0    0    0  501 -0.00000000000E+00  0.00000000000E+00  0.33687850657E+02  0.33687850657E+02  0.00000000000E+00 0.  1.
          2   -1    0    0  501    0  0.00000000000E+00 -0.00000000000E+00 -0.63163352564E+03  0.63163352564E+03  0.00000000000E+00 0. -1.
         23    2    1    2    0    0  0.34140103996E+02 -0.55803684010E+02 -0.99189219455E+02  0.14697314549E+03  0.86504372089E+02 0.  0.
          5    1    1    2  502    0 -0.23542416111E+02 -0.38541897857E+02 -0.18749765243E+03  0.19290558653E+03  0.41800000000E+01 0. -1.
         -5    1    1    2    0  502 -0.10597687885E+02  0.94345581867E+02 -0.31125880309E+03  0.32544264427E+03  0.41800000000E+01 0. -1.
        -11    1    3    3    0    0  0.25708163463E+02 -0.77671099534E+02 -0.60559566665E+02  0.10178983489E+03  0.00000000000E+00 0.  1.
         11    1    3    3    0    0  0.84319405326E+01  0.21867415524E+02 -0.38629652791E+02  0.45183310609E+02  0.00000000000E+00 0. -1.
</event>
<event>
 7    1  0.6610867E-006  0.1068771E+03  0.7561462E-02  0.1266465E+00
          1   -1    0    0  501    0  0.00000000000E+00  0.00000000000E+00  0.27797922794E+03  0.27797922794E+03  0.00000000000E+00 0. -1.
         -1   -1    0    0    0  501 -0.00000000000E+00 -0.00000000000E+00 -0.59582213321E+02  0.59582213321E+02  0.00000000000E+00 0.  1.
         23    2    1    2    0    0 -0.30834591412E+02  0.50204914107E+02  0.49183489710E+02  0.11903134218E+03  0.90984280695E+02 0.  0.
          5    1    1    2  502    0  0.55312177947E+02 -0.67859775776E+01  0.15755345160E+03  0.16717071822E+03  0.41800000000E+01 0. -1.
         -5    1    1    2    0  502 -0.24477586535E+02 -0.43418936529E+02  0.11660073306E+02  0.51359380851E+02  0.41800000000E+01 0. -1.
        -11    1    3    3    0    0  0.16488765559E+00 -0.25783522925E+02  0.68040006830E+01  0.26666677102E+02  0.00000000000E+00 0. -1.
         11    1    3    3    0    0 -0.30999479067E+02  0.75988437032E+02  0.42379489027E+02  0.92364665080E+02  0.00000000000E+00 0.  1.
</event>
<event>
 7    1  0.6610867E-006  0.7589981E+02  0.7561462E-02  0.1341107E+00
         -1   -1    0    0    0  501 -0.00000000000E+00  0.00000000000E+00  0.14185595448E+03  0.14185595448E+03  0.00000000000E+00 0.  1.
          1   -1    0    0  501    0  0.00000000000E+00 -0.00000000000E+00 -0.13401714100E+03  0.13401714100E+03  0.00000000000E+00 0. -1.
         23    2    1    2    0    0 -0.34707432423E+02 -0.39341696798E+02  0.69302858517E+02  0.12694938496E+03  0.92525051581E+02 0.  0.
          5    1    1    2  502    0 -0.25161922470E+02  0.16897683047E+01  0.25935205762E+02  0.36415449431E+02  0.41800000000E+01 0. -1.
         -5    1    1    2    0  502  0.59869354893E+02  0.37651928494E+02 -0.87399250796E+02  0.11250826109E+03  0.41800000000E+01 0. -1.
        -11    1    3    3    0    0 -0.31097733931E+02 -0.23068244332E+02  0.91404084470E+02  0.99266910953E+02  0.00000000000E+00 0.  1.
         11    1    3    3    0    0 -0.36096984919E+01 -0.16273452467E+02 -0.22101225953E+02  0.27682474005E+02  0.00000000000E+00 0. -1.
</event>
<event>
 7    1  0.6610867E-006  0.1101679E+03  0.7561462E-02  0.1260259E+00
          3   -1    0    0  501    0  0.00000000000E+00  0.00000000000E+00  0.34326532953E+03  0.34326532953E+03  0.00000000000E+00 0. -1.
         -3   -1    0    0    0  501 -0.00000000000E+00 -0.00000000000E+00 -0.44237208470E+02  0.44237208470E+02  0.00000000000E+00 0.  1.
         23    2    1    2    0    0 -0.53240696814E+02 -0.57928311033E+01  0.98447293809E+02  0.14512461173E+03  0.92201705955E+02 0.  0.
          5    1    1    2  502    0  0.25374100364E+02  0.55354506047E+02  0.16310602076E+03  0.17415226877E+03  0.41800000000E+01 0.  1.
         -5    1    1    2    0  502  0.27866596450E+02 -0.49561674944E+02  0.37474806499E+02  0.68225657513E+02  0.41800000000E+01 0.  1.
        -11    1    3    3    0    0 -0.12114423280E+02 -0.44312733902E+02  0.24221258021E+02  0.51933100980E+02  0.00000000000E+00 0. -1.
         11    1    3    3    0    0 -0.41126273534E+02  0.38519902799E+02  0.74226035788E+02  0.93191510747E+02  0.00000000000E+00 0.  1.
</event>
<event>
 7    1  0.6610867E-006  0.2402943E+03  0.7561462E-02  0.1119597E+00
         -3   -1    0    0    0  501 -0.00000000000E+00  0.00000000000E+00  0.22838120608E+03  0.22838120608E+03  0.00000000000E+00 0.  1.
          3   -1    0    0  501    0  0.00000000000E+00 -0.00000000000E+00 -0.27968240921E+03  0.27968240921E+03  0.00000000000E+00 0. -1.
         23    2    1    2    0    0  0.15668130263E+03  0.16133394182E+03  0.13652943193E+02  0.24264505676E+03  0.90069691561E+02 0.  0.
          5    1    1    2  502    0 -0.14712660727E+03 -0.16993286692E+03 -0.85753550202E+02  0.24061288744E+03  0.41800000000E+01 0.  1.
         -5    1    1    2    0  502 -0.95546953564E+01  0.85989251057E+01  0.20799403876E+02  0.24805671084E+02  0.41800000000E+01 0.  1.
        -11    1    3    3    0    0  0.26965165188E+02 -0.87551680948E+01  0.12911628832E+01  0.28380278426E+02  0.00000000000E+00 0.  1.
         11    1    3    3    0    0  0.12971613744E+03  0.17008910991E+03  0.12361780310E+02  0.21426477834E+03  0.00000000000E+00 0. -1.
</event>
<event>
 7    1  0.6610867E-006  0.1878904E+03  0.7561462E-02  0.1160378E+00
         -1   -1    0    0    0  501 -0.00000000000E+00  0.00000000000E+00  0.20750477838E+03  0.20750477838E+03  0.00000000000E+00 0.  1.
          1   -1    0    0  501    0  0.00000000000E+00 -0.00000000000E+00 -0.19960803057E+03  0.19960803057E+03  0.00000000000E+00 0. -1.
         23    2    1    2    0    0  0.89594211653E+02  0.13939396203E+03  0.60163281865E+02  0.19301475176E+03  0.78595639195E+02 0.  0.
          5    1    1    2  502    0 -0.54739910524E+02  0.79641683735E+01 -0.64987954799E+01  0.55853312567E+02  0.41800000000E+01 0. -1.
         -5    1    1    2    0  502 -0.34854301129E+02 -0.14735813041E+03 -0.45767738570E+02  0.15824474461E+03  0.41800000000E+01 0. -1.
        -11    1    3    3    0    0  0.42873934576E+02  0.95664419649E+02  0.73002652883E+02  0.12774679167E+03  0.00000000000E+00 0.  1.
         11    1    3    3    0    0  0.46720277076E+02  0.43729542385E+02 -0.12839371018E+02  0.65267960098E+02  0.00000000000E+00 0. -1.
</event>
<event>
 7    1  0.6610867E-006  0.1108557E+03  0.7561462E-02  0.1258993E+00
         -2   -1    0    0    0  501 -0.00000000000E+00  0.00000000000E+00  0.59405274395E+02  0.59405274395E+02  0.00000000000E+00 0.  1.
          2   -1    0    0  501    0  0.00000000000E+00 -0.00000000000E+00 -0.36422763910E+03  0.36422763910E+03  0.00000000000E+00 0. -1.
         23    2    1    2    0    0  0.15709998068E+02  0.68856807678E+02 -0.38535720667E+02  0.12114286677E+03  0.90567811057E+02 0.  0.
          5    1    1    2  502    0  0.37664113768E+01 -0.10325511202E+03 -0.18274552053E+03  0.20997428815E+03  0.41800000000E+01 0. -1.
         -5    1    1    2    0  502 -0.19476409445E+02  0.34398304340E+02 -0.83541123512E+02  0.92515758571E+02  0.41800000000E+01 0. -1.
        -11    1    3    3    0    0 -0.10251977695E+02  0.30985388277E+02 -0.61635820312E+02  0.69743613893E+02  0.00000000000E+00 0. -1.
         11    1    3    3    0    0  0.25961975762E+02  0.37871419402E+02  0.23100099645E+02  0.51399252880E+02  0.00000000000E+00 0.  1.
</event>
<event>
 7    1  0.6610867E-006  0.1114557E+03  0.7561462E-02  0.1257898E+00
          2   -1    0    0  501    0  0.00000000000E+00  0.00000000000E+00  0.18161368220E+03  0.18161368220E+03  0.00000000000E+00 0. -1.
         -2   -1    0    0    0  501 -0.00000000000E+00 -0.00000000000E+00 -0.84191125481E+02  0.84191125481E+02  0.00000000000E+00 0.  1.
         23    2    1    2    0    0 -0.36154450597E+02 -0.38455385967E+02  0.14532724812E+02  0.10673160720E+03  0.91621366923E+02 0.  0.
          5    1    1    2  502    0 -0.35893000969E+02 -0.40042248350E+01  0.63427598758E+02  0.73108645311E+02  0.41800000000E+01 0. -1.
         -5    1    1    2    0  502  0.72047451566E+02  0.42459610802E+02  0.19462233148E+02  0.85964555171E+02  0.41800000000E+01 0. -1.
        -11    1    3    3    0    0 -0.19158208642E+02 -0.66953484533E+02  0.21384849488E+02  0.72849967996E+02  0.00000000000E+00 0.  1.
         11    1    3    3    0    0 -0.16996241955E+02  0.28498098566E+02 -0.68521246754E+01  0.33881639203E+02  0.00000000000E+00 0. -1.
</event>
<event>
 7    1  0.6610867E-006  0.1133872E+03  0.7561462E-02  0.1254423E+00
         -4   -1    0    0    0  501 -0.00000000000E+00  0.00000000000E+00  0.15414427317E+03  0.15414427317E+03  0.00000000000E+00 0.  1.
          4   -1    0    0  501    0  0.00000000000E+00 -0.00000000000E+00 -0.10257787267E+03  0.10257787267E+03  0.00000000000E+00 0. -1.
         23    2    1    2    0    0 -0.44837656457E+02  0.33361475565E+02  0.22685382212E+02  0.10994876458E+03  0.91927693202E+02 0.  0.
          5    1    1    2  502    0  0.71663024031E+02 -0.66939623459E+02  0.70970030600E+01  0.98409054739E+02  0.41800000000E+01 0. -1.
         -5    1    1    2    0  502 -0.26825367574E+02  0.33578147894E+02  0.21784015226E+02  0.48364326531E+02  0.41800000000E+01 0.  1.
        -11    1    3    3    0    0  0.16697084986E+02  0.10875327173E+02 -0.22733455655E+02  0.30230372049E+02  0.00000000000E+00 0.  1.
         11    1    3    3    0    0 -0.61534741444E+02  0.22486148392E+02  0.45418837868E+02  0.79718392528E+02  0.00000000000E+00 0. -1.
</event>
<event>
 7    1  0.6610867E-006  0.1617647E+03  0.7561462E-02  0.1186719E+00
          1   -1    0    0  501    0  0.00000000000E+00  0.00000000000E+00  0.11338419144E+04  0.11338419144E+04  0.00000000000E+00 0. -1.
         -1   -1    0    0    0  501 -0.00000000000E+00 -0.00000000000E+00 -0.28715784264E+02  0.28715784264E+02  0.00000000000E+00 0.  1.
         23    2    1    2    0    0 -0.11866578899E+03 -0.81554973263E+02  0.49809139242E+03  0.52626275628E+03  0.90136953003E+02 0.  0.
          5    1    1    2  502    0  0.53691176044E+02  0.98276481799E+02  0.47611577993E+03  0.48912648421E+03  0.41800000000E+01 0. -1.
         -5    1    1    2    0  502  0.64974612947E+02 -0.16721508536E+02  0.13091895780E+03  0.14716845819E+03  0.41800000000E+01 0. -1.
        -11    1    3    3    0    0 -0.48787515624E+02 -0.28463085175E+02  0.73498575160E+02  0.92695250412E+02  0.00000000000E+00 0.  1.
         11    1    3    3    0    0 -0.69878273367E+02 -0.53091888088E+02  0.42459281727E+03  0.43356750587E+03  0.00000000000E+00 0. -1.
</event>
<event>
 7    1  0.6610867E-006  0.1324447E+03  0.7561462E-02  0.1223873E+00
         -2   -1    0    0    0  501 -0.00000000000E+00  0.00000000000E+00  0.93184461400E+02  0.93184461400E+02  0.00000000000E+00 0.  1.
          2   -1    0    0  501    0  0.00000000000E+00 -0.00000000000E+00 -0.19210537409E+03  0.19210537409E+03  0.00000000000E+00 0. -1.
         23    2    1    2    0    0 -0.72145676475E+02 -0.30738496023E+02 -0.43164750086E+02  0.12747452815E+03  0.90756299541E+02 0.  0.
          5    1    1    2  502    0  0.10646089267E+03  0.96852305781E+01 -0.43901819428E+02  0.11563981800E+03  0.41800000000E+01 0. -1.
         -5    1    1    2    0  502 -0.34315216191E+02  0.21053265445E+02 -0.11854343173E+02  0.42175489330E+02  0.41800000000E+01 0. -1.
        -11    1    3    3    0    0 -0.51320581620E+02  0.25611829455E+02 -0.34076573553E+02  0.66715671105E+02  0.00000000000E+00 0. -1.
         11    1    3    3    0    0 -0.20825094855E+02 -0.56350325479E+02 -0.90881765327E+01  0.60758857050E+02  0.00000000000E+00 0.  1.
</event>
<event>
 7    1  0.6610867E-006  0.1304795E+03  0.7561462E-02  0.1226746E+00
         -2   -1    0    0    0  501 -0.00000000000E+00  0.00000000000E+00  0.94805625275E+03  0.94805625275E+03  0.00000000000E+00 0.  1.
          2   -1    0    0  501    0  0.00000000000E+00 -0.00000000000E+00 -0.20645546377E+02  0.20645546377E+02  0.00000000000E+00 0. -1.
         23    2    1    2    0    0 -0.23751863586E+02 -0.29712815957E+02  0.40031290992E+03  0.41246567181E+03  0.91817765791E+02 0.  0.
          5    1    1    2  502    0 -0.13808922288E+02  0.94508200061E+02  0.21580858295E+03  0.23603665624E+03  0.41800000000E+01 0. -1.
         -5    1    1    2    0  502  0.37560785875E+02 -0.64795384104E+02  0.31128921350E+03  0.32019947107E+03  0.41800000000E+01 0.  1.
        -11    1    3    3    0    0  0.24387686955E+02  0.11509259547E+02  0.53530081793E+02  0.59939068955E+02  0.00000000000E+00 0.  1.
         11    1    3    3    0    0 -0.48139550541E+02 -0.41222075505E+02  0.34678282813E+03  0.35252660285E+03  0.00000000000E+00 0. -1.
</event>
<event>
 7    1  0.6610867E-006  0.1356517E+03  0.7561462E-02  0.1219303E+00
         -3   -1    0    0    0  501 -0.00000000000E+00  0.00000000000E+00  0.10564214454E+03  0.10564214454E+03  0.00000000000E+00 0.  1.
          3   -1    0    0  501    0  0.00000000000E+00 -0.00000000000E+00 -0.52979572672E+03  0.52979572672E+03  0.00000000000E+00 0. -1.
         23    2    1    2    0    0  0.37191147756E+02 -0.12952727106E+03  0.13120680788E+02  0.16107853702E+03  0.87256216991E+02 0.  0.
          5    1    1    2  502    0 -0.27146158523E+02  0.71624103240E+02 -0.39363887458E+03  0.40104359123E+03  0.41800000000E+01 0. -1.
         -5    1    1    2    0  502 -0.10044989233E+02  0.57903167821E+02 -0.43635388385E+02  0.73315743002E+02  0.41800000000E+01 0. -1.
        -11    1    3    3    0    0  0.33057034546E+02 -0.89024712506E+02 -0.32088826304E+02  0.10023901308E+03  0.00000000000E+00 0. -1.
         11    1    3    3    0    0  0.41341132102E+01 -0.40502558555E+02  0.45209507091E+02  0.60839523938E+02  0.00000000000E+00 0.  1.
</event>
<event>
 7    1  0.6610867E-006  0.6799447E+02  0.7561462E-02  0.1367049E+00
          1   -1    0    0  501    0  0.00000000000E+00  0.00000000000E+00  0.21774525563E+03  0.21774525563E+03  0.00000000000E+00 0. -1.
         -1   -1    0    0    0  501 -0.00000000000E+00 -0.00000000000E+00 -0.86810829020E+02  0.86810829020E+02  0.00000000000E+00 0.  1.
         23    2    1    2    0    0  0.26317690346E+02 -0.22636422371E+02 -0.26401713342E+02  0.10088316164E+03  0.90968859460E+02 0.  0.
          5    1    1    2  502    0 -0.12867659504E+02  0.38725643531E+02  0.17259557611E+03  0.17740337488E+03  0.41800000000E+01 0. -1.
         -5    1    1    2    0  502 -0.13450030842E+02 -0.16089221159E+02 -0.15259436156E+02  0.26269548130E+02  0.41800000000E+01 0.  1.
        -11    1    3    3    0    0  0.10008127866E+00 -0.41364831895E+02  0.18748543225E+02  0.45415495230E+02  0.00000000000E+00 0.  1.
         11    1    3    3    0    0  0.26217609067E+02  0.18728409524E+02 -0.45150256567E+02  0.55467666406E+02  0.00000000000E+00 0. -1.
</event>
<event>
 7    1  0.6610867E-006  0.2852872E+03  0.7561462E-02  0.1092836E+00
         -2   -1    0    0    0  501 -0.00000000000E+00  0.00000000000E+00  0.27324298956E+03  0.27324298956E+03  0.00000000000E+00 0. -1.
          2   -1    0    0  501    0  0.00000000000E+00 -0.00000000000E+00 -0.63051754054E+03  0.63051754054E+03  0.00000000000E+00 0.  1.
         23    2    1    2    0    0  0.23485913435E+03 -0.13003760889E+03  0.14802344282E+03  0.31806239109E+03  0.84759378756E+02 0.  0.
          5    1    1    2  502    0 -0.15748211774E+03  0.14851507662E+03 -0.36871011565E+03  0.42757685528E+03  0.41800000000E+01 0. -1.
         -5    1    1    2    0  502 -0.77377016614E+02 -0.18477467729E+02 -0.13658787814E+03  0.15812128373E+03  0.41800000000E+01 0. -1.
        -11    1    3    3    0    0  0.17714304062E+03 -0.12430595996E+03  0.14396960127E+03  0.25992090069E+03  0.00000000000E+00 0. -1.
         11    1    3    3    0    0  0.57716093730E+02 -0.57316489311E+01  0.40538415405E+01  0.58141490402E+02  0.00000000000E+00 0.  1.
</event>
<event>
 7    1  0.6610867E-006  0.9597756E+02  0.7561462E-02  0.1288989E+00
          2   -1    0    0  501    0  0.00000000000E+00  0.00000000000E+00  0.91973417850E+02  0.91973417850E+02  0.00000000000E+00 0. -1.
         -2   -1    0    0    0  501 -0.00000000000E+00 -0.00000000000E+00 -0.17762132419E+03  0.17762132419E+03  0.00000000000E+00 0.  1.
         23    2    1    2    0    0  0.44422443360E+02 -0.52648561603E+01 -0.90449316335E+02  0.13666511666E+03  0.92169426062E+02 0.  0.
          5    1    1    2  502    0  0.39824161775E+02 -0.15169582885E+02 -0.12126632961E+02  0.44504019290E+02  0.41800000000E+01 0. -1.
         -5    1    1    2    0  502 -0.84246605135E+02  0.20434439045E+02  0.16928042951E+02  0.88425606099E+02  0.41800000000E+01 0. -1.
        -11    1    3    3    0    0  0.14954284944E+01  0.14859712148E+02 -0.87928631807E+02  0.89187956827E+02  0.00000000000E+00 0.  1.
         11    1    3    3    0    0  0.42927014866E+02 -0.20124568308E+02 -0.25206845276E+01  0.47477159828E+02  0.00000000000E+00 0. -1.
</event>
<event>
 7    1  0.6610867E-006  0.1159663E+03  0.7561462E-02  0.1249904E+00
         -1   -1    0    0    0  501 -0.00000000000E+00  0.00000000000E+00  0.13310726809E+03  0.13310726809E+03  0.00000000000E+00 0.  1.
          1   -1    0    0  501    0  0.00000000000E+00 -0.00000000000E+00 -0.10186102732E+03  0.10186102732E+03  0.00000000000E+00 0. -1.
         23    2    1    2    0    0 -0.67551360851E+01 -0.49210242717E+02  0.23354698030E+02  0.10161462082E+03  0.85514965903E+02 0.  0.
          5    1    1    2  502    0  0.40066595296E+02  0.78663283806E+02  0.74331535837E+01  0.88690295128E+02  0.41800000000E+01 0. -1.
         -5    1    1    2    0  502 -0.33311459211E+02 -0.29453041089E+02  0.45838915468E+00  0.44663379460E+02  0.41800000000E+01 0.  1.
        -11    1    3    3    0    0  0.27135278727E+02  0.11414966098E+02  0.67441883206E+01  0.30201140354E+02  0.00000000000E+00 0. -1.
         11    1    3    3    0    0 -0.33890414812E+02 -0.60625208816E+02  0.16610509709E+02  0.71413480470E+02  0.00000000000E+00 0.  1.
</event>
<event>
 7    1  0.6610867E-006  0.1002836E+03  0.7561462E-02  0.1279701E+00
         -2   -1    0    0    0  501 -0.00000000000E+00  0.00000000000E+00  0.25444455965E+02  0.25444455965E+02  0.00000000000E+00 0. -1.
          2   -1    0    0  501    0  0.00000000000E+00 -0.00000000000E+00 -0.69912620285E+03  0.69912620285E+03  0.00000000000E+00 0.  1.
         23    2    1    2    0    0  0.47001990897E+02  0.51064944948E+02 -0.18893453678E+03  0.21915674552E+03  0.86698351582E+02 0.  0.
          5    1    1    2  502    0  0.21869169547E+02 -0.37337491443E+02 -0.35648059492E+03  0.35912147777E+03  0.41800000000E+01 0. -1.
         -5    1    1    2    0  502 -0.68871160444E+02 -0.13727453505E+02 -0.12826661519E+03  0.14629243553E+03  0.41800000000E+01 0. -1.
        -11    1    3    3    0    0 -0.51023774426E+01  0.30183857046E+02 -0.14410231971E+03  0.14731794876E+03  0.00000000000E+00 0.  1.
         11    1    3    3    0    0  0.52104368340E+02  0.20881087902E+02 -0.44832217072E+02  0.71838796758E+02  0.00000000000E+00 0. -1.
</event>
<event>
 7    1  0.6610867E-006  0.1082604E+03  0.7561462E-02  0.1263826E+00
          1   -1    0    0  501    0  0.00000000000E+00  0.00000000000E+00  0.91308390329E+03  0.91308390329E+03  0.00000000000E+00 0. -1.
         -1   -1    0    0    0  501 -0.00000000000E+00 -0.00000000000E+00 -0.71784612738E+02  0.71784612738E+02  0.00000000000E+00 0.  1.
         23    2    1    2    0    0 -0.61018726401E+02 -0.63253946128E+02  0.35274869172E+02  0.13142652828E+03  0.91127763435E+02 0.  0.
          5    1    1    2  502    0  0.68393532942E+02  0.56400059245E+02  0.82596341337E+03  0.83071756612E+03  0.41800000000E+01 0. -1.
         -5    1    1    2    0  502 -0.73748065407E+01  0.68538868837E+01 -0.19938991988E+02  0.22724421630E+02  0.41800000000E+01 0.  1.
        -11    1    3    3    0    0 -0.58508994238E+02 -0.80459836712E+02  0.47429203619E+02  0.11021169215E+03  0.00000000000E+00 0.  1.
         11    1    3    3    0    0 -0.25097321625E+01  0.17205890583E+02 -0.12154334447E+02  0.21214836133E+02  0.00000000000E+00 0. -1.
</event>
<event>
 7    1  0.6610867E-006  0.1407020E+03  0.7561462E-02  0.1212387E+00
          1   -1    0    0  501    0  0.00000000000E+00  0.00000000000E+00  0.88206548671E+02  0.88206548671E+02  0.00000000000E+00 0. -1.
         -1   -1    0    0    0  501 -0.00000000000E+00 -0.00000000000E+00 -0.32620763399E+03  0.32620763399E+03  0.00000000000E+00 0.  1.
         23    2    1    2    0    0 -0.41439642763E+01 -0.11337519958E+03 -0.18848247891E+03  0.23842996730E+03  0.91935282281E+02 0.  0.
          5    1    1    2  502    0 -0.52364035719E+01  0.12255341750E+03  0.19017590889E+01  0.12275116761E+03  0.41800000000E+01 0.  1.
         -5    1    1    2    0  502  0.93803678482E+01 -0.91782179137E+01 -0.51420365496E+02  0.53233047750E+02  0.41800000000E+01 0.  1.
        -11    1    3    3    0    0 -0.47182791364E+02 -0.58725761727E+02 -0.11272905202E+03  0.13558307439E+03  0.00000000000E+00 0.  1.
         11    1    3    3    0    0  0.43038827088E+02 -0.54649437857E+02 -0.75753426892E+02  0.10284689291E+03  0.00000000000E+00 0. -1.
</event>
<event>
 7    1  0.6610867E-006  0.1221613E+03  0.7561462E-02  0.1239574E+00
          2   -1    0    0  501    0  0.00000000000E+00  0.00000000000E+00  0.38796921039E+03  0.38796921039E+03  0.00000000000E+00 0. -1.
         -2   -1    0    0    0  501 -0.00000000000E+00 -0.00000000000E+00 -0.46374236472E+02  0.46374236472E+02  0.00000000000E+00 0.  1.
         23    2    1    2    0    0 -0.72065234459E+02 -0.30527953693E+02  0.13463720675E+03  0.18016909205E+03  0.90600056928E+02 0.  0.
          5    1    1    2  502    0  0.68034656559E+02 -0.38428847936E+02  0.11464595999E+03  0.13880439254E+03  0.41800000000E+01 0.  1.
         -5    1    1    2    0  502  0.40305779004E+01  0.68956801629E+02  0.92311807180E+02  0.11536996227E+03  0.41800000000E+01 0.  1.
        -11    1    3    3    0    0 -0.80419655735E+01  0.15878786020E+02  0.84918863809E+02  0.86764177437E+02  0.00000000000E+00 0. -1.
         11    1    3    3    0    0 -0.64023268886E+02 -0.46406739712E+02  0.49718342942E+02  0.93404914616E+02  0.00000000000E+00 0.  1.
</event>
<event>
 7    1  0.6610867E-006  0.1361787E+03  0.7561462E-02  0.1218565E+00
         -3   -1    0    0    0  501 -0.00000000000E+00  0.00000000000E+00  0.74241749914E+02  0.74241749914E+02  0.00000000000E+00 0.  1.
          3   -1    0    0  501    0  0.00000000000E+00 -0.00000000000E+00 -0.27738027874E+03  0.27738027874E+03  0.00000000000E+00 0. -1.
         23    2    1    2    0    0 -0.81763443176E+02 -0.44523071165E+02 -0.86933483780E+02  0.15715048971E+03  0.92039563813E+02 0.  0.
          5    1    1    2  502    0 -0.37128915549E+01  0.58266371952E+02 -0.13481185671E+02  0.60066383537E+02  0.41800000000E+01 0. -1.
         -5    1    1    2    0  502  0.85476334731E+02 -0.13743300788E+02 -0.10272385937E+03  0.13440515541E+03  0.41800000000E+01 0. -1.
        -11    1    3    3    0    0 -0.20440242273E+02 -0.60431952273E+02 -0.24895709391E+02  0.68480805382E+02  0.00000000000E+00 0. -1.
         11    1    3    3    0    0 -0.61323200903E+02  0.15908881108E+02 -0.62037774389E+02  0.88669684325E+02  0.00000000000E+00 0.  1.
</event>
<event>
 7    1  0.6610867E-006  0.2309847E+03  0.7561462E-02  0.1125949E+00
          1   -1    0    0  501    0  0.00000000000E+00  0.00000000000E+00  0.17274362398E+04  0.17274362398E+04  0.00000000000E+00 0. -1.
         -1   -1    0    0    0  501 -0.00000000000E+00 -0.00000000000E+00 -0.35707637829E+02  0.35707637829E+02  0.00000000000E+00 0.  1.
         23    2    1    2    0    0  0.16119285175E+02  0.20120160333E+03  0.61327275978E+03  0.65209353540E+03  0.91545532260E+02 0.  0.
          5    1    1    2  502    0  0.35111667370E+02 -0.19017417874E+03  0.61702975482E+03  0.64663918701E+03  0.41800000000E+01 0. -1.
         -5    1    1    2    0  502 -0.51230952545E+02 -0.11027424591E+02  0.46142608738E+03  0.46441115524E+03  0.41800000000E+01 0.  1.
        -11    1    3    3    0    0 -0.22675880919E+01  0.19711700176E+03  0.50346693578E+03  0.54068402026E+03  0.00000000000E+00 0.  1.
         11    1    3    3    0    0  0.18386873267E+02  0.40846015707E+01  0.10980582400E+03  0.11140951514E+03  0.00000000000E+00 0. -1.
</event>
<event>
 7    1  0.6610867E-006  0.1022565E+03  0.7561462E-02  0.1275621E+00
          2   -1    0    0  501    0  0.00000000000E+00  0.00000000000E+00  0.41648711293E+03  0.41648711293E+03  0.00000000000E+00 0. -1.
         -2   -1    0    0    0  501 -0.00000000000E+00 -0.00000000000E+00 -0.33941886162E+02  0.33941886162E+02  0.00000000000E+00 0.  1.
         23    2    1    2    0    0  0.33227459069E+02  0.28534493688E+02  0.12422215591E+03  0.16009064084E+03  0.90992240878E+02 0.  0.
          5    1    1    2  502    0 -0.66496267605E+02 -0.22302987690E+02  0.24299240920E+03  0.25294655600E+03  0.41800000000E+01 0.  1.
         -5    1    1    2    0  502  0.33268808536E+02 -0.62315059978E+01  0.15330661660E+02  0.37391802248E+02  0.41800000000E+01 0.  1.
        -11    1    3    3    0    0 -0.23996302943E+02 -0.14953280164E+02  0.26239255289E+02  0.38573587604E+02  0.00000000000E+00 0.  1.
         11    1    3    3    0    0  0.57223762012E+02  0.43487773852E+02  0.97982900624E+02  0.12151705324E+03  0.00000000000E+00 0. -1.
</event>
<event>
 7    1  0.6610867E-006  0.1121618E+03  0.7561462E-02  0.1256618E+00
         -1   -1    0    0    0  501 -0.00000000000E+00  0.00000000000E+00  0.11281511788E+03  0.11281511788E+03  0.00000000000E+00 0.  1.
          1   -1    0    0  501    0  0.00000000000E+00 -0.00000000000E+00 -0.17866980387E+03  0.17866980387E+03  0.00000000000E+00 0. -1.
         23    2    1    2    0    0 -0.56798933176E+02 -0.16890609430E+02  0.40979543258E+02  0.11663489089E+03  0.91722207294E+02 0.  0.
          5    1    1    2  502    0  0.27386333594E+02 -0.43900214388E+02 -0.91918504040E+02  0.10556383792E+03  0.41800000000E+01 0.  1.
         -5    1    1    2    0  502  0.29412599581E+02  0.60790823818E+02 -0.14915725207E+02  0.69286192947E+02  0.41800000000E+01 0.  1.
        -11    1    3    3    0    0 -0.17055012132E+02  0.35268522441E+02 -0.24712375801E+00  0.39176564220E+02  0.00000000000E+00 0.  1.
         11    1    3    3    0    0 -0.39743921044E+02 -0.52159131871E+02  0.41226667016E+02  0.77458326672E+02  0.00000000000E+00 0. -1.
</event>
<event>
 7    1  0.6610867E-006  0.1249202E+03  0.7561462E-02  0.1235194E+00
          1   -1    0    0  501    0  0.00000000000E+00  0.00000000000E+00  0.74743298704E+03  0.74743298704E+03  0.00000000000E+00 0. -1.
         -1   -1    0    0    0  501 -0.00000000000E+00 -0.00000000000E+00 -0.34650781753E+02  0.34650781753E+02  0.00000000000E+00 0.  1.
         23    2    1    2    0    0  0.11326575493E+02  0.10561021388E+03  0.45639049682E+03  0.47767574618E+03  0.92736316028E+02 0.  0.
          5    1    1    2  502    0 -0.12620212616E+02 -0.26266696154E+02 -0.61749933254E+01  0.30080093681E+02  0.41800000000E+01 0.  1.
         -5    1    1    2    0  502  0.12936371225E+01 -0.79343517729E+02  0.26256670179E+03  0.27432792893E+03  0.41800000000E+01 0.  1.
        -11    1    3    3    0    0  0.23509086330E+02  0.11988621294E+03  0.40042793798E+03  0.41865011012E+03  0.00000000000E+00 0.  1.
         11    1    3    3    0    0 -0.12182510836E+02 -0.14275999059E+02  0.55962558847E+02  0.59025636058E+02  0.00000000000E+00 0. -1.
</event>
<event>
 7    1  0.6610867E-006  0.1134376E+03  0.7561462E-02  0.1254333E+00
          1   -1    0    0  501    0  0.00000000000E+00  0.00000000000E+00  0.53738808999E+03  0.53738808999E+03  0.00000000000E+00 0. -1.
         -1   -1    0    0    0  501 -0.00000000000E+00 -0.00000000000E+00 -0.28906788673E+02  0.28906788673E+02  0.00000000000E+00 0.  1.
         23    2    1    2    0    0 -0.59103613515E+02  0.12116596879E+02  0.20228903095E+03  0.23007857750E+03  0.91516395970E+02 0.  0.
          5    1    1    2  502    0 -0.25338826564E+02 -0.26865693420E+02  0.17873334999E+03  0.18255657866E+03  0.41800000000E+01 0. -1.
         -5    1    1    2    0  502  0.84442440079E+02  0.14749096541E+02  0.12745892038E+03  0.15365972251E+03  0.41800000000E+01 0. -1.
        -11    1    3    3    0    0 -0.41315455558E+02 -0.34605229581E+02  0.14123148516E+03  0.15116488079E+03  0.00000000000E+00 0.  1.
         11    1    3    3    0    0 -0.17788157957E+02  0.46721826460E+02  0.61057545789E+02  0.78913696714E+02  0.00000000000E+00 0. -1.
</event>
<event>
 7    1  0.6610867E-006  0.9766310E+02  0.7561462E-02  0.1285288E+00
         -2   -1    0    0    0  501 -0.00000000000E+00  0.00000000000E+00  0.11987538954E+03  0.11987538954E+03  0.00000000000E+00 0.  1.
          2   -1    0    0  501    0  0.00000000000E+00 -0.00000000000E+00 -0.14251033265E+03  0.14251033265E+03  0.00000000000E+00 0. -1.
         23    2    1    2    0    0 -0.59771000519E+02 -0.38396663540E+02  0.62513591312E+01  0.11564736184E+03  0.91040411552E+02 0.  0.
          5    1    1    2  502    0  0.48554382867E+02 -0.14408015158E+02  0.35963248181E+02  0.62257100929E+02  0.41800000000E+01 0.  1.
         -5    1    1    2    0  502  0.11216617652E+02  0.52804678698E+02 -0.64849550416E+02  0.84481259419E+02  0.41800000000E+01 0.  1.
        -11    1    3    3    0    0 -0.44213400488E+02  0.47776089904E+01  0.39096287881E+02  0.59212921364E+02  0.00000000000E+00 0.  1.
         11    1    3    3    0    0 -0.15557600031E+02 -0.43174272530E+02 -0.32844928750E+02  0.56434440476E+02  0.00000000000E+00 0. -1.
</event>
<event>
 7    1  0.6610867E-006  0.1379278E+03  0.7561462E-02  0.1216145E+00
          2   -1    0    0  501    0  0.00000000000E+00  0.00000000000E+00  0.69342404345E+02  0.69342404345E+02  0.00000000000E+00 0. -1.
         -2   -1    0    0    0  501 -0.00000000000E+00 -0.00000000000E+00 -0.40236235402E+03  0.40236235402E+03  0.00000000000E+00 0.  1.
         23    2    1    2    0    0  0.49632951815E+02  0.11640477622E+03 -0.16669478522E+03  0.22813723319E+03  0.90807179878E+02 0.  0.
          5    1    1    2  502    0  0.14455877128E+02 -0.44751775522E+00  0.13462859679E+02  0.20196377061E+02  0.41800000000E+01 0.  1.
         -5    1    1    2    0  502 -0.64088828943E+02 -0.11595725846E+03 -0.17978802414E+03  0.22337114812E+03  0.41800000000E+01 0.  1.
        -11    1    3    3    0    0  0.26097916485E+02  0.35983871129E+02 -0.12864616328E+03  0.13610942492E+03  0.00000000000E+00 0.  1.
         11    1    3    3    0    0  0.23535035330E+02  0.80420905090E+02 -0.38048621938E+02  0.92027808269E+02  0.00000000000E+00 0. -1.
</event>
<event>
 7    1  0.6610867E-006  0.1506703E+03  0.7561462E-02  0.1199652E+00
         -3   -1    0    0    0  501 -0.00000000000E+00  0.00000000000E+00  0.44590843549E+03  0.44590843549E+03  0.00000000000E+00 0.  1.
          3   -1    0    0  501    0  0.00000000000E+00 -0.00000000000E+00 -0.77057509592E+02  0.77057509592E+02  0.00000000000E+00 0. -1.
         23    2    1    2    0    0 -0.71642722175E+02 -0.12557372496E+03  0.23140280080E+03  0.28750569789E+03  0.90613630666E+02 0.  0.
          5    1    1    2  502    0 -0.58252781305E+01  0.17772134207E+02 -0.21185807647E+02  0.28567349636E+02  0.41800000000E+01 0. -1.
         -5    1    1    2    0  502  0.77468000306E+02  0.10780159075E+03  0.15863393275E+03  0.20689289756E+03  0.41800000000E+01 0. -1.
        -11    1    3    3    0    0 -0.72956368012E+02 -0.10016119910E+03  0.23090605834E+03  0.26205439362E+03  0.00000000000E+00 0.  1.
         11    1    3    3    0    0  0.13136458371E+01 -0.25412525858E+02  0.49674245649E+00  0.25451304268E+02  0.00000000000E+00 0. -1.
</event>
<event>
 7    1  0.6610867E-006  0.9989502E+02  0.7561462E-02  0.1280517E+00
          1   -1    0    0  501    0  0.00000000000E+00  0.00000000000E+00  0.49542964508E+03  0.49542964508E+03  0.00000000000E+00 0. -1.
         -1   -1    0    0    0  501 -0.00000000000E+00 -0.00000000000E+00 -0.26998177555E+02  0.26998177555E+02  0.00000000000E+00 0.  1.
         23    2    1    2    0    0 -0.23294274132E+02 -0.32910893430E+02  0.18481983947E+03  0.20984351198E+03  0.90830481344E+02 0.  0.
          5    1    1    2  502    0  0.75775904830E+01 -0.46924177595E+02  0.78244641582E+02  0.91646029138E+02  0.41800000000E+01 0. -1.
         -5    1    1    2    0  502  0.15716683649E+02  0.79835071025E+02  0.20536698647E+03  0.22093828153E+03  0.41800000000E+01 0. -1.
        -11    1    3    3    0    0 -0.41506196756E+02 -0.31920371011E+02  0.18430376789E+03  0.19159737293E+03  0.00000000000E+00 0. -1.
         11    1    3    3    0    0  0.18211922624E+02 -0.99052241918E+00  0.51607158664E+00  0.18246139049E+02  0.00000000000E+00 0.  1.
</event>
<event>
 7    1  0.6610867E-006  0.1373916E+03  0.7561462E-02  0.1216882E+00
          2   -1    0    0  501    0  0.00000000000E+00  0.00000000000E+00  0.47547104024E+03  0.47547104024E+03  0.00000000000E+00 0. -1.
         -2   -1    0    0    0  501 -0.00000000000E+00 -0.00000000000E+00 -0.53892046869E+02  0.53892046869E+02  0.00000000000E+00 0.  1.
         23    2    1    2    0    0  0.10870401692E+03 -0.49275601069E+02  0.16245147718E+03  0.21785118557E+03  0.82607556924E+02 0.  0.
          5    1    1    2  502    0 -0.11900509632E+03  0.44747405661E+02  0.26795122407E+03  0.29661401542E+03  0.41800000000E+01 0.  1.
         -5    1    1    2    0  502  0.10301079400E+02  0.45281954085E+01 -0.88237078720E+01  0.14897886128E+02  0.41800000000E+01 0.  1.
        -11    1    3    3    0    0  0.35825701554E+02  0.14576484743E+02  0.86446487648E+02  0.94704540683E+02  0.00000000000E+00 0. -1.
         11    1    3    3    0    0  0.72878315363E+02 -0.63852085812E+02  0.76004989529E+02  0.12314664488E+03  0.00000000000E+00 0.  1.
</event>
<event>
 7    1  0.6610867E-006  0.1008587E+03  0.7561462E-02  0.1278501E+00
          2   -1    0    0  501    0  0.00000000000E+00  0.00000000000E+00  0.94807198675E+02  0.94807198675E+02  0.00000000000E+00 0.  1.
         -2   -1    0    0    0  501 -0.00000000000E+00 -0.00000000000E+00 -0.18854747851E+03  0.18854747851E+03  0.00000000000E+00 0. -1.
         23    2    1    2    0    0  0.63070710536E+02  0.43223438625E+02 -0.48600452063E+02  0.12995570615E+03  0.93168135364E+02 0.  0.
          5    1    1    2  502    0 -0.87317647907E+02 -0.21188859704E+02 -0.68399992498E+02  0.11300164063E+03  0.41800000000E+01 0.  1.
         -5    1    1    2    0  502  0.24246937371E+02 -0.22034578921E+02  0.23260164727E+02  0.40397330398E+02  0.41800000000E+01 0.  1.
        -11    1    3    3    0    0  0.12500798333E+02  0.18809721329E+02  0.27369461890E+02  0.35484687114E+02  0.00000000000E+00 0.  1.
         11    1    3    3    0    0  0.50569912203E+02  0.24413717297E+02 -0.75969913953E+02  0.94471019040E+02  0.00000000000E+00 0. -1.
</event>
<event>
 7    1  0.6610867E-006  0.1324023E+03  0.7561462E-02  0.1223934E+00
          1   -1    0    0  501    0  0.00000000000E+00  0.00000000000E+00  0.12635576248E+04  0.12635576248E+04  0.00000000000E+00 0. -1.
         -1   -1    0    0    0  501 -0.00000000000E+00 -0.00000000000E+00 -0.17020874836E+02  0.17020874836E+02  0.00000000000E+00 0.  1.
         23    2    1    2    0    0  0.51006293496E+02  0.48992441955E+02  0.30303320601E+03  0.32406297306E+03  0.90475329327E+02 0.  0.
          5    1    1    2  502    0 -0.60294812093E+01 -0.89356528900E+02  0.69379865252E+03  0.69956771405E+03  0.41800000000E+01 0. -1.
         -5    1    1    2    0  502 -0.44976812287E+02  0.40364086945E+02  0.24970489144E+03  0.25694781253E+03  0.41800000000E+01 0.  1.
        -11    1    3    3    0    0 -0.19151613224E+02  0.39335929745E+02  0.12663441591E+03  0.13397900937E+03  0.00000000000E+00 0.  1.
         11    1    3    3    0    0  0.70157906720E+02  0.96565122091E+01  0.17639879010E+03  0.19008396369E+03  0.00000000000E+00 0. -1.
</event>
<event>
 7    1  0.6610867E-006  0.1119744E+03  0.7561462E-02  0.1256957E+00
          2   -1    0    0  501    0  0.00000000000E+00  0.00000000000E+00  0.11248087377E+04  0.11248087377E+04  0.00000000000E+00 0.  1.
         -2   -1    0    0    0  501 -0.00000000000E+00 -0.00000000000E+00 -0.13409260926E+02  0.13409260926E+02  0.00000000000E+00 0. -1.
         23    2    1    2    0    0  0.25514282465E+00  0.55650245478E+02  0.41354698661E+03  0.42706233458E+03  0.90907164495E+02 0.  0.
          5    1    1    2  502    0 -0.60417364907E+02 -0.11487035096E+02  0.28484174528E+03  0.29143524531E+03  0.41800000000E+01 0.  1.
         -5    1    1    2    0  502  0.60162222082E+02 -0.44163210383E+02  0.41301074486E+03  0.41972041872E+03  0.41800000000E+01 0.  1.
        -11    1    3    3    0    0  0.58822851370E+01  0.70982791448E+02  0.39862896192E+03  0.40494222705E+03  0.00000000000E+00 0.  1.
         11    1    3    3    0    0 -0.56271423123E+01 -0.15332545969E+02  0.14918024689E+02  0.22120107530E+02  0.00000000000E+00 0. -1.
</event>
<event>
 7    1  0.6610867E-006  0.1063412E+03  0.7561462E-02  0.1267499E+00
         -1   -1    0    0    0  501 -0.00000000000E+00  0.00000000000E+00  0.76314325910E+02  0.76314325910E+02  0.00000000000E+00 0.  1.
          1   -1    0    0  501    0  0.00000000000E+00 -0.00000000000E+00 -0.24745284999E+03  0.24745284999E+03  0.00000000000E+00 0. -1.
         23    2    1    2    0    0 -0.94102772468E+01 -0.15193840885E+01  0.18651809350E+02  0.96263793523E+02  0.93957256800E+02 0.  0.
          5    1    1    2  502    0  0.19937801760E+02  0.57934408322E+02 -0.13378514577E+03  0.14720682469E+03  0.41800000000E+01 0. -1.
         -5    1    1    2    0  502 -0.10527524514E+02 -0.56415024234E+02 -0.56005187667E+02  0.80296557693E+02  0.41800000000E+01 0. -1.
        -11    1    3    3    0    0  0.28705084188E+02  0.31988687017E+02  0.26945746395E+01  0.43064122977E+02  0.00000000000E+00 0. -1.
         11    1    3    3    0    0 -0.38115361435E+02 -0.33508071105E+02  0.15957234711E+02  0.53199670545E+02  0.00000000000E+00 0.  1.
</event>
<event>
 7    1  0.6610867E-006  0.9327224E+02  0.7561462E-02  0.1295116E+00
          2   -1    0    0  501    0  0.00000000000E+00  0.00000000000E+00  0.32535314235E+03  0.32535314235E+03  0.00000000000E+00 0. -1.
         -2   -1    0    0    0  501 -0.00000000000E+00 -0.00000000000E+00 -0.63950160963E+02  0.63950160963E+02  0.00000000000E+00 0.  1.
         23    2    1    2    0    0 -0.14463949328E+02  0.14870640502E+02 -0.55774966993E+01  0.93742506437E+02  0.91248053484E+02 0.  0.
          5    1    1    2  502    0  0.44714007782E+02  0.42163528330E+02  0.11710626982E+03  0.13231952405E+03  0.41800000000E+01 0. -1.
         -5    1    1    2    0  502 -0.30250058455E+02 -0.57034168832E+02  0.14987420827E+03  0.16324127283E+03  0.41800000000E+01 0. -1.
        -11    1    3    3    0    0  0.19697828109E+02  0.17002825008E+02 -0.38356599298E+02  0.46350072278E+02  0.00000000000E+00 0.  1.
         11    1    3    3    0    0 -0.34161777437E+02 -0.21321845054E+01  0.32779102599E+02  0.47392434159E+02  0.00000000000E+00 0. -1.
</event>
<event>
 7    1  0.6610867E-006  0.1288843E+03  0.7561462E-02  0.1229121E+00
          2   -1    0    0  501    0  0.00000000000E+00  0.00000000000E+00  0.11611373627E+04  0.11611373627E+04  0.00000000000E+00 0. -1.
         -2   -1    0    0    0  501 -0.00000000000E+00 -0.00000000000E+00 -0.21091484739E+02  0.21091484739E+02  0.00000000000E+00 0.  1.
         23    2    1    2    0    0  0.16284226025E+02 -0.95365018435E+02  0.31741849508E+03  0.34453987600E+03  0.92701469145E+02 0.  0.
          5    1    1    2  502    0 -0.52074074855E+02  0.90947513681E+02  0.40058478490E+03  0.41408791556E+03  0.41800000000E+01 0.  1.
         -5    1    1    2    0  502  0.35789848830E+02  0.44175047546E+01  0.42204259795E+03  0.42360105584E+03  0.41800000000E+01 0.  1.
        -11    1    3    3    0    0 -0.14728947258E+02 -0.81132864018E+02  0.28772013757E+03  0.29930312573E+03  0.00000000000E+00 0. -1.
         11    1    3    3    0    0  0.31013173284E+02 -0.14232154417E+02  0.29698357511E+02  0.45236750273E+02  0.00000000000E+00 0.  1.
</event>
<event>
 7    1  0.6610867E-006  0.2035489E+03  0.7561462E-02  0.1146779E+00
          1   -1    0    0  501    0  0.00000000000E+00  0.00000000000E+00  0.58225966303E+03  0.58225966303E+03  0.00000000000E+00 0. -1.
         -1   -1    0    0    0  501 -0.00000000000E+00 -0.00000000000E+00 -0.77961595182E+02  0.77961595182E+02  0.00000000000E+00 0.  1.
         23    2    1    2    0    0  0.17534526970E+03  0.18342534361E+01  0.16640098856E+03  0.25950381730E+03  0.94358964108E+02 0.  0.
          5    1    1    2  502    0 -0.17820386205E+03  0.32079615431E+02  0.28386558357E+03  0.33672371480E+03  0.41800000000E+01 0.  1.
         -5    1    1    2    0  502  0.28585923469E+01 -0.33913868867E+02  0.54031495724E+02  0.63993726114E+02  0.41800000000E+01 0.  1.
        -11    1    3    3    0    0  0.90430264612E+02 -0.37762180510E+02  0.12005758549E+03  0.15497560734E+03  0.00000000000E+00 0.  1.
         11    1    3    3    0    0  0.84915005090E+02  0.39596433946E+02  0.46343403066E+02  0.10452820996E+03  0.00000000000E+00 0. -1.
</event>
<event>
 7    1  0.6610867E-006  0.7060278E+02  0.7561462E-02  0.1358055E+00
         -2   -1    0    0    0  501 -0.00000000000E+00  0.00000000000E+00  0.11364230968E+03  0.11364230968E+03  0.00000000000E+00 0.  1.
          2   -1    0    0  501    0  0.00000000000E+00 -0.00000000000E+00 -0.11852231521E+03  0.11852231521E+03  0.00000000000E+00 0. -1.
         23    2    1    2    0    0 -0.24670265203E+02 -0.26209716123E+02  0.19395309826E+02  0.99754336707E+02  0.90989990901E+02 0.  0.
          5    1    1    2  502    0  0.14462977978E+02 -0.13162027109E+02  0.46531205551E+02  0.50646245465E+02  0.41800000000E+01 0.  1.
         -5    1    1    2    0  502  0.10207287226E+02  0.39371743232E+02 -0.70806520907E+02  0.81764042712E+02  0.41800000000E+01 0.  1.
        -11    1    3    3    0    0 -0.50238664716E+02 -0.19464750692E+02  0.39273945299E+02  0.66672653549E+02  0.00000000000E+00 0.  1.
         11    1    3    3    0    0  0.25568399513E+02 -0.67449654309E+01 -0.19878635473E+02  0.33081683158E+02  0.00000000000E+00 0. -1.
</event>
<event>
 7    1  0.6610867E-006  0.1039299E+03  0.7561462E-02  0.1272242E+00
          2   -1    0    0  501    0  0.00000000000E+00  0.00000000000E+00  0.52511288799E+02  0.52511288799E+02  0.00000000000E+00 0. -1.
         -2   -1    0    0    0  501 -0.00000000000E+00 -0.00000000000E+00 -0.38401845071E+03  0.38401845071E+03  0.00000000000E+00 0.  1.
         23    2    1    2    0    0  0.51778472493E+02  0.22221663336E+02 -0.26138635890E+03  0.28245540797E+03  0.91013275593E+02 0.  0.
          5    1    1    2  502    0 -0.85395603527E+02 -0.31534713113E+02 -0.20718939121E+02  0.93453700147E+02  0.41800000000E+01 0. -1.
         -5    1    1    2    0  502  0.33617131033E+02  0.93130497771E+01 -0.49401863883E+02  0.60620631390E+02  0.41800000000E+01 0. -1.
        -11    1    3    3    0    0  0.29903292128E+02  0.42369332984E+02 -0.24071345121E+03  0.24623633536E+03  0.00000000000E+00 0.  1.
         11    1    3    3    0    0  0.21875180365E+02 -0.20147669648E+02 -0.20672907697E+02  0.36219072612E+02  0.00000000000E+00 0. -1.
</event>
<event>
 7    1  0.6610867E-006  0.9086205E+02  0.7561462E-02  0.1300777E+00
          2   -1    0    0  501    0  0.00000000000E+00  0.00000000000E+00  0.39214347576E+03  0.39214347576E+03  0.00000000000E+00 0. -1.
         -2   -1    0    0    0  501 -0.00000000000E+00 -0.00000000000E+00 -0.39865603723E+02  0.39865603723E+02  0.00000000000E+00 0.  1.
         23    2    1    2    0    0  0.60933057740E+02  0.19049815495E+02  0.15242556445E+03  0.18774562173E+03  0.89101811342E+02 0.  0.
          5    1    1    2  502    0  0.10668390455E+02  0.28948204465E+02  0.55053579167E+01  0.31616363840E+02  0.41800000000E+01 0. -1.
         -5    1    1    2    0  502 -0.71601448195E+02 -0.47998019961E+02  0.19434694967E+03  0.21264709391E+03  0.41800000000E+01 0. -1.
        -11    1    3    3    0    0  0.29113045486E+02  0.13067116747E+02 -0.83188071874E-02  0.31911111336E+02  0.00000000000E+00 0.  1.
         11    1    3    3    0    0  0.31820012254E+02  0.59826987484E+01  0.15243388326E+03  0.15583451039E+03  0.00000000000E+00 0. -1.
</event>
<event>
 7    1  0.6610867E-006  0.2615724E+03  0.7561462E-02  0.1106202E+00
         -1   -1    0    0    0  501 -0.00000000000E+00  0.00000000000E+00  0.95370530229E+03  0.95370530229E+03  0.00000000000E+00 0.  1.
          1   -1    0    0  501    0  0.00000000000E+00 -0.00000000000E+00 -0.86312736736E+02  0.86312736736E+02  0.00000000000E+00 0. -1.
         23    2    1    2    0    0  0.16369404202E+03 -0.11260602925E+03  0.57394790571E+03  0.61423717412E+03  0.91625598990E+02 0.  0.
          5    1    1    2  502    0 -0.20405742960E+03  0.14997648636E+03  0.23748848990E+03  0.34720402687E+03  0.41800000000E+01 0. -1.
         -5    1    1    2    0  502  0.40363387578E+02 -0.37370457115E+02  0.55956169944E+02  0.78576838041E+02  0.41800000000E+01 0.  1.
        -11    1    3    3    0    0  0.30919225690E+02  0.11467844167E+02  0.52162548319E+02  0.61712570958E+02  0.00000000000E+00 0. -1.
         11    1    3    3    0    0  0.13277481633E+03 -0.12407387341E+03  0.52178535739E+03  0.55252460317E+03  0.00000000000E+00 0.  1.
</event>
<event>
 7    1  0.6610867E-006  0.1552972E+03  0.7561462E-02  0.1194111E+00
         -1   -1    0    0    0  501 -0.00000000000E+00  0.00000000000E+00  0.99648473108E+02  0.99648473108E+02  0.00000000000E+00 0.  1.
          1   -1    0    0  501    0  0.00000000000E+00 -0.00000000000E+00 -0.31798215979E+03  0.31798215979E+03  0.00000000000E+00 0. -1.
         23    2    1    2    0    0 -0.12691728950E+03 -0.26259359832E+02 -0.38301048109E+02  0.16308310392E+03  0.91277467887E+02 0.  0.
          5    1    1    2  502    0  0.11386392394E+03 -0.31669609013E+02 -0.10044306045E+03  0.15515875129E+03  0.41800000000E+01 0. -1.
         -5    1    1    2    0  502  0.13053365564E+02  0.57928968845E+02 -0.79589578124E+02  0.99388777686E+02  0.41800000000E+01 0. -1.
        -11    1    3    3    0    0 -0.11492514584E+03 -0.14200369092E+02 -0.63968357580E+02  0.13229282067E+03  0.00000000000E+00 0. -1.
         11    1    3    3    0    0 -0.11992143667E+02 -0.12058990740E+02  0.25667309471E+02  0.30790283254E+02  0.00000000000E+00 0.  1.
</event>
<event>
 7    1  0.6610867E-006  0.9921306E+02  0.7561462E-02  0.1281960E+00
          2   -1    0    0  501    0  0.00000000000E+00  0.00000000000E+00  0.31839777722E+03  0.31839777722E+03  0.00000000000E+00 0. -1.
         -2   -1    0    0    0  501 -0.00000000000E+00 -0.00000000000E+00 -0.50886472537E+02  0.50886472537E+02  0.00000000000E+00 0.  1.
         23    2    1    2    0    0 -0.36403729879E+02  0.51036744434E+01  0.37156789678E+02  0.10459257789E+03  0.90596364660E+02 0.  0.
          5    1    1    2  502    0  0.76192235767E+02  0.12952911826E+02  0.95801373894E+02  0.12316010050E+03  0.41800000000E+01 0.  1.
         -5    1    1    2    0  502 -0.39788505888E+02 -0.18056586269E+02  0.13455314111E+03  0.14153157136E+03  0.41800000000E+01 0.  1.
        -11    1    3    3    0    0 -0.18230693053E+02  0.36533009419E+02  0.51356993434E+02  0.65609143577E+02  0.00000000000E+00 0. -1.
         11    1    3    3    0    0 -0.18173036826E+02 -0.31429334975E+02 -0.14200203756E+02  0.38983434317E+02  0.00000000000E+00 0.  1.
</event>
<event>
 7    1  0.6610867E-006  0.7179922E+02  0.7561462E-02  0.1354079E+00
         -1   -1    0    0    0  501 -0.00000000000E+00  0.00000000000E+00  0.11818592292E+03  0.11818592292E+03  0.00000000000E+00 0.  1.
          1   -1    0    0  501    0  0.00000000000E+00 -0.00000000000E+00 -0.13780184787E+03  0.13780184787E+03  0.00000000000E+00 0. -1.
         23    2    1    2    0    0 -0.39066919007E+02 -0.48146747993E+02  0.14420760008E+02  0.11228294313E+03  0.92494148445E+02 0.  0.
          5    1    1    2  502    0  0.15753346273E+02  0.19281808271E+02  0.47629652729E+02  0.53907441676E+02  0.41800000000E+01 0. -1.
         -5    1    1    2    0  502  0.23313572735E+02  0.28864939722E+02 -0.81666337679E+02  0.89797385980E+02  0.41800000000E+01 0. -1.
        -11    1    3    3    0    0  0.12728286812E+02 -0.14272805671E+02  0.40759502722E+02  0.45022875619E+02  0.00000000000E+00 0.  1.
         11    1    3    3    0    0 -0.51795205820E+02 -0.33873942322E+02 -0.26338742714E+02  0.67260067515E+02  0.00000000000E+00 0. -1.
</event>
<event>
 7    1  0.6610867E-006  0.2071787E+03  0.7561462E-02  0.1143820E+00
          1   -1    0    0  501    0  0.00000000000E+00  0.00000000000E+00  0.19740985842E+03  0.19740985842E+03  0.00000000000E+00 0.  1.
         -1   -1    0    0    0  501 -0.00000000000E+00 -0.00000000000E+00 -0.25590799381E+03  0.25590799381E+03  0.00000000000E+00 0. -1.
         23    2    1    2    0    0 -0.12445331963E+03  0.15054505047E+03 -0.51613312259E+02  0.22125966449E+03  0.90218978832E+02 0.  0.
          5    1    1    2  502    0  0.94887296498E+02 -0.84088538992E+02 -0.61526894459E+02  0.14098763268E+03  0.41800000000E+01 0.  1.
         -5    1    1    2    0  502  0.29566023132E+02 -0.66456511474E+02  0.54642071323E+02  0.91070555064E+02  0.41800000000E+01 0.  1.
        -11    1    3    3    0    0  0.52230442071E+01  0.50744573225E+02 -0.58511697513E+01  0.51347133221E+02  0.00000000000E+00 0.  1.
         11    1    3    3    0    0 -0.12967636384E+03  0.99800477242E+02 -0.45762142508E+02  0.16991253127E+03  0.00000000000E+00 0. -1.
</event>
<event>
 7    1  0.6610867E-006  0.1138543E+03  0.7561462E-02  0.1253594E+00
          1   -1    0    0  501    0  0.00000000000E+00  0.00000000000E+00  0.17654461557E+04  0.17654461557E+04  0.00000000000E+00 0. -1.
         -1   -1    0    0    0  501 -0.00000000000E+00 -0.00000000000E+00 -0.11800410086E+02  0.11800410086E+02  0.00000000000E+00 0.  1.
         23    2    1    2    0    0 -0.34854771671E+02 -0.49910838799E+01  0.26849957398E+03  0.28642602662E+03  0.93317101715E+02 0.  0.
          5    1    1    2  502    0 -0.46897825175E+02 -0.10624798955E+01  0.62187894844E+03  0.62365970992E+03  0.41800000000E+01 0. -1.
         -5    1    1    2    0  502  0.81752596846E+02  0.60535637753E+01  0.86326722320E+03  0.86716082924E+03  0.41800000000E+01 0. -1.
        -11    1    3    3    0    0 -0.28732901960E+02 -0.47537013981E+02  0.17300608962E+03  0.18170430485E+03  0.00000000000E+00 0.  1.
         11    1    3    3    0    0 -0.61218697106E+01  0.42545930101E+02  0.95493484357E+02  0.10472172178E+03  0.00000000000E+00 0. -1.
</event>
<event>
 7    1  0.6610867E-006  0.1167440E+03  0.7561462E-02  0.1248567E+00
          1   -1    0    0  501    0  0.00000000000E+00  0.00000000000E+00  0.33937385279E+02  0.33937385279E+02  0.00000000000E+00 0. -1.
         -1   -1    0    0    0  501 -0.00000000000E+00 -0.00000000000E+00 -0.42138086438E+03  0.42138086438E+03  0.00000000000E+00 0.  1.
         23    2    1    2    0    0 -0.23291937648E+02  0.38715030790E+02 -0.21051444213E+03  0.23397745557E+03  0.91584667936E+02 0.  0.
          5    1    1    2  502    0  0.32102457539E+02  0.40350975560E+02 -0.53383888011E+02  0.74337614354E+02  0.41800000000E+01 0.  1.
         -5    1    1    2    0  502 -0.88105198908E+01 -0.79066006350E+02 -0.12354514896E+03  0.14700317974E+03  0.41800000000E+01 0.  1.
        -11    1    3    3    0    0 -0.47647664079E+02 -0.90265051046E+01 -0.97048575726E+02  0.10849056981E+03  0.00000000000E+00 0.  1.
         11    1    3    3    0    0  0.24355726431E+02  0.47741535895E+02 -0.11346586640E+03  0.12548688576E+03  0.00000000000E+00 0. -1.
</event>
<event>
 7    1  0.6610867E-006  0.1081035E+03  0.7561462E-02  0.1264123E+00
          2   -1    0    0  501    0  0.00000000000E+00  0.00000000000E+00  0.39483663934E+03  0.39483663934E+03  0.00000000000E+00 0.  1.
         -2   -1    0    0    0  501 -0.00000000000E+00 -0.00000000000E+00 -0.48128889999E+02  0.48128889999E+02  0.00000000000E+00 0. -1.
         23    2    1    2    0    0  0.58047044937E+02  0.19747373063E+01  0.56921777101E+02  0.12203245085E+03  0.90986105192E+02 0.  0.
          5    1    1    2  502    0  0.24501909412E+02  0.82849374406E+01  0.84530736669E+01  0.27530176310E+02  0.41800000000E+01 0.  1.
         -5    1    1    2    0  502 -0.82548954349E+02 -0.10259674747E+02  0.28133289857E+03  0.29340290218E+03  0.41800000000E+01 0.  1.
        -11    1    3    3    0    0  0.17090171283E+02  0.44504571306E+02  0.16377791230E+02  0.50407964323E+02  0.00000000000E+00 0.  1.
         11    1    3    3    0    0  0.40956873654E+02 -0.42529833999E+02  0.40543985871E+02  0.71624486524E+02  0.00000000000E+00 0. -1.
</event>
<event>
 7    1  0.6610867E-006  0.1063751E+03  0.7561462E-02  0.1267434E+00
         -2   -1    0    0    0  501 -0.00000000000E+00  0.00000000000E+00  0.20773888789E+02  0.20773888789E+02  0.00000000000E+00 0. -1.
          2   -1    0    0  501    0  0.00000000000E+00 -0.00000000000E+00 -0.14174005154E+04  0.14174005154E+04  0.00000000000E+00 0.  1.
         23    2    1    2    0    0 -0.51505791390E+02 -0.54095606987E+02 -0.20300094682E+03  0.23568982058E+03  0.93600886080E+02 0.  0.
          5    1    1    2  502    0  0.61710729678E+02  0.22796977775E+02 -0.11174735447E+04  0.11194161477E+04  0.41800000000E+01 0.  1.
         -5    1    1    2    0  502 -0.10204938288E+02  0.31298629212E+02 -0.76152135132E+02  0.83068435890E+02  0.41800000000E+01 0.  1.
        -11    1    3    3    0    0 -0.27050797651E+02  0.21270329721E+02 -0.30999512488E+02  0.46315681518E+02  0.00000000000E+00 0. -1.
         11    1    3    3    0    0 -0.24454993740E+02 -0.75365936708E+02 -0.17200143433E+03  0.18937413907E+03  0.00000000000E+00 0.  1.
</event>
<event>
 7    1  0.6610867E-006  0.1310514E+03  0.7561462E-02  0.1225904E+00
          1   -1    0    0  501    0  0.00000000000E+00  0.00000000000E+00  0.57847920279E+03  0.57847920279E+03  0.00000000000E+00 0. -1.
         -1   -1    0    0    0  501 -0.00000000000E+00 -0.00000000000E+00 -0.51634110157E+02  0.51634110157E+02  0.00000000000E+00 0.  1.
         23    2    1    2    0    0  0.93766396891E+02 -0.48739299710E+02  0.99986817802E+02  0.17289296377E+03  0.93418181664E+02 0.  0.
          5    1    1    2  502    0 -0.10605202713E+03  0.25732530946E+01  0.35725707552E+03  0.37269792662E+03  0.41800000000E+01 0.  1.
         -5    1    1    2    0  502  0.12285630243E+02  0.46166046615E+02  0.69601199310E+02  0.84522422563E+02  0.41800000000E+01 0.  1.
        -11    1    3    3    0    0  0.76346096767E+02 -0.48710189271E+02  0.22286242907E+02  0.93263527991E+02  0.00000000000E+00 0.  1.
         11    1    3    3    0    0  0.17420300125E+02 -0.29110438463E-01  0.77700574894E+02  0.79629435781E+02  0.00000000000E+00 0. -1.
</event>
<event>
 7    1  0.6610867E-006  0.5947182E+02  0.7561462E-02  0.1400062E+00
         -2   -1    0    0    0  501 -0.00000000000E+00  0.00000000000E+00  0.35325345794E+02  0.35325345794E+02  0.00000000000E+00 0.  1.
          2   -1    0    0  501    0  0.00000000000E+00 -0.00000000000E+00 -0.50229602924E+03  0.50229602924E+03  0.00000000000E+00 0. -1.
         23    2    1    2    0    0 -0.53659922155E+01 -0.46732879848E+01 -0.54168328295E+02  0.10622396517E+03  0.91097143161E+02 0.  0.
          5    1    1    2  502    0 -0.99894477225E+01  0.81853180614E+01 -0.41476094520E+03  0.41498301479E+03  0.41800000000E+01 0. -1.
         -5    1    1    2    0  502  0.15355439938E+02 -0.35120300767E+01  0.19585900489E+01  0.16414395083E+02  0.41800000000E+01 0. -1.
        -11    1    3    3    0    0 -0.26921063060E+02 -0.39686599550E+02 -0.40874739138E+02  0.63012015677E+02  0.00000000000E+00 0. -1.
         11    1    3    3    0    0  0.21555070845E+02  0.35013311565E+02 -0.13293589157E+02  0.43211949488E+02  0.00000000000E+00 0.  1.
</event>
<event>
 7    1  0.6610867E-006  0.1032569E+03  0.7561462E-02  0.1273592E+00
         -2   -1    0    0    0  501 -0.00000000000E+00  0.00000000000E+00  0.55321053712E+03  0.55321053712E+03  0.00000000000E+00 0.  1.
          2   -1    0    0  501    0  0.00000000000E+00 -0.00000000000E+00 -0.22184984601E+02  0.22184984601E+02  0.00000000000E+00 0. -1.
         23    2    1    2    0    0 -0.44429595159E+01 -0.74970541066E+01  0.27917216101E+03  0.29405413319E+03  0.91949943173E+02 0.  0.
          5    1    1    2  502    0  0.58918338014E+02 -0.88679374867E+01  0.17971532347E+03  0.18938078245E+03  0.41800000000E+01 0. -1.
         -5    1    1    2    0  502 -0.54475378498E+02  0.16364991593E+02  0.72138068035E+02  0.91960606088E+02  0.41800000000E+01 0. -1.
        -11    1    3    3    0    0  0.19777191099E+02  0.35365223308E+02  0.16134439402E+03  0.16635459053E+03  0.00000000000E+00 0.  1.
         11    1    3    3    0    0 -0.24220150615E+02 -0.42862277415E+02  0.11782776699E+03  0.12769954266E+03  0.00000000000E+00 0. -1.
</event>
<event>
 7    1  0.6610867E-006  0.1225631E+03  0.7561462E-02  0.1238928E+00
          2   -1    0    0  501    0  0.00000000000E+00  0.00000000000E+00  0.99495469096E+03  0.99495469096E+03  0.00000000000E+00 0. -1.
         -2   -1    0    0    0  501 -0.00000000000E+00 -0.00000000000E+00 -0.15671742443E+02  0.15671742443E+02  0.00000000000E+00 0.  1.
         23    2    1    2    0    0 -0.26556298250E+02 -0.54840452319E+02  0.46770555153E+03  0.48046741772E+03  0.91584629520E+02 0.  0.
          5    1    1    2  502    0  0.55874630159E+02  0.79567235270E+02  0.41276998100E+03  0.42408660535E+03  0.41800000000E+01 0. -1.
         -5    1    1    2    0  502 -0.29318331909E+02 -0.24726782951E+02  0.98807415984E+02  0.10607241034E+03  0.41800000000E+01 0. -1.
        -11    1    3    3    0    0 -0.57847985815E+02 -0.17344721458E+02  0.22998478957E+03  0.23778190061E+03  0.00000000000E+00 0.  1.
         11    1    3    3    0    0  0.31291687564E+02 -0.37495730861E+02  0.23772076196E+03  0.24268551710E+03  0.00000000000E+00 0. -1.
</event>
<event>
 7    1  0.6610867E-006  0.1794299E+03  0.7561462E-02  0.1168356E+00
         -2   -1    0    0    0  501 -0.00000000000E+00  0.00000000000E+00  0.16556906686E+03  0.16556906686E+03  0.00000000000E+00 0.  1.
          2   -1    0    0  501    0  0.00000000000E+00 -0.00000000000E+00 -0.26082022387E+03  0.26082022387E+03  0.00000000000E+00 0. -1.
         23    2    1    2    0    0  0.71001477180E+02 -0.15826352999E+03 -0.12775826285E+02  0.19717857320E+03  0.92884946605E+02 0.  0.
          5    1    1    2  502    0 -0.29143755312E+01  0.19458990010E+02  0.31301538010E+02  0.37207587382E+02  0.41800000000E+01 0.  1.
         -5    1    1    2    0  502 -0.68087101649E+02  0.13880453998E+03 -0.11377686874E+03  0.19200313015E+03  0.41800000000E+01 0.  1.
        -11    1    3    3    0    0  0.34597802920E+02 -0.13830697699E+03 -0.39334281951E+02  0.14789527913E+03  0.00000000000E+00 0. -1.
         11    1    3    3    0    0  0.36403674260E+02 -0.19956552992E+02  0.26558455666E+02  0.49283294069E+02  0.00000000000E+00 0.  1.
</event>
<event>
 7    1  0.6610867E-006  0.1050881E+03  0.7561462E-02  0.1269946E+00
         -2   -1    0    0    0  501 -0.00000000000E+00  0.00000000000E+00  0.66118098409E+02  0.66118098409E+02  0.00000000000E+00 0.  1.
          2   -1    0    0  501    0  0.00000000000E+00 -0.00000000000E+00 -0.25551850369E+03  0.25551850369E+03  0.00000000000E+00 0. -1.
         23    2    1    2    0    0 -0.22704956216E+02  0.32627775190E+02 -0.14439308175E+02  0.10291670374E+03  0.93825729610E+02 0.  0.
          5    1    1    2  502    0 -0.30477564226E+02 -0.59415092318E+02 -0.12092710908E+03  0.13820229096E+03  0.41800000000E+01 0. -1.
         -5    1    1    2    0  502  0.53182520442E+02  0.26787317128E+02 -0.54033988022E+02  0.80517607398E+02  0.41800000000E+01 0. -1.
        -11    1    3    3    0    0  0.53841048577E+01 -0.21730947694E+02 -0.32187141996E+02  0.39207585779E+02  0.00000000000E+00 0. -1.
         11    1    3    3    0    0 -0.28089061073E+02  0.54358722883E+02  0.17747833821E+02  0.63709117957E+02  0.00000000000E+00 0.  1.
</event>
<event>
 7    1  0.6610867E-006  0.3844051E+03  0.7561462E-02  0.1049318E+00
         -2   -1    0    0    0  501 -0.00000000000E+00  0.00000000000E+00  0.10793169301E+03  0.10793169301E+03  0.00000000000E+00 0.  1.
          2   -1    0    0  501    0  0.00000000000E+00 -0.00000000000E+00 -0.35497842702E+04  0.35497842702E+04  0.00000000000E+00 0. -1.
         23    2    1    2    0    0 -0.12339209843E+03 -0.34218048253E+03 -0.45199039389E+03  0.58730623703E+03  0.91215170348E+02 0.  0.
          5    1    1    2  502    0  0.15548319654E+03  0.22881546118E+03 -0.29205999458E+04  0.29336756902E+04  0.41800000000E+01 0. -1.
         -5    1    1    2    0  502 -0.32091098110E+02  0.11336502135E+03 -0.69262237483E+02  0.13673403594E+03  0.41800000000E+01 0.  1.
        -11    1    3    3    0    0 -0.70505800745E+02 -0.29519544914E+03 -0.38071733444E+03  0.48688510952E+03  0.00000000000E+00 0.  1.
         11    1    3    3    0    0 -0.52886297688E+02 -0.46985033386E+02 -0.71273059455E+02  0.10042112751E+03  0.00000000000E+00 0. -1.
</event>
<event>
 7    1  0.6610867E-006  0.1030162E+03  0.7561462E-02  0.1274078E+00
          2   -1    0    0  501    0  0.00000000000E+00  0.00000000000E+00  0.91389193770E+03  0.91389193770E+03  0.00000000000E+00 0. -1.
         -2   -1    0    0    0  501 -0.00000000000E+00 -0.00000000000E+00 -0.13079535535E+02  0.13079535535E+02  0.00000000000E+00 0.  1.
         23    2    1    2    0    0  0.36971459132E+02  0.20152102876E+02  0.41728000522E+03  0.42904595571E+03  0.90470068621E+02 0.  0.
          5    1    1    2  502    0 -0.51239864563E+02  0.26404437714E+02  0.36755610030E+03  0.37207213994E+03  0.41800000000E+01 0. -1.
         -5    1    1    2    0  502  0.14268405431E+02 -0.46556540591E+02  0.11597629665E+03  0.12585337758E+03  0.41800000000E+01 0.  1.
        -11    1    3    3    0    0  0.98196315252E+00 -0.34180098448E+02  0.12537164649E+03  0.12995111821E+03  0.00000000000E+00 0.  1.
         11    1    3    3    0    0  0.35989495979E+02  0.54332201325E+02  0.29190835873E+03  0.29909483750E+03  0.00000000000E+00 0. -1.
</event>
<event>
 7    1  0.6610867E-006  0.1284934E+03  0.7561462E-02  0.1229708E+00
         -2   -1    0    0    0  501 -0.00000000000E+00  0.00000000000E+00  0.16921458519E+02  0.16921458519E+02  0.00000000000E+00 0.  1.
          2   -1    0    0  501    0  0.00000000000E+00 -0.00000000000E+00 -0.11497746019E+04  0.11497746019E+04  0.00000000000E+00 0. -1.
         23    2    1    2    0    0  0.75372716008E+02 -0.51218284094E+02 -0.50207655880E+03  0.51721067856E+03  0.84389905628E+02 0.  0.
          5    1    1    2  502    0 -0.17855392410E+02 -0.41174441602E+02 -0.15632196184E+03  0.16269043559E+03  0.41800000000E+01 0.  1.
         -5    1    1    2    0  502 -0.57517323599E+02  0.92392725696E+02 -0.47445462273E+03  0.48679494626E+03  0.41800000000E+01 0.  1.
        -11    1    3    3    0    0  0.17691596436E+02  0.87983783109E+01 -0.20421495282E+02  0.28415515391E+02  0.00000000000E+00 0.  1.
         11    1    3    3    0    0  0.57681119572E+02 -0.60016662405E+02 -0.48165506352E+03  0.48879516317E+03  0.00000000000E+00 0. -1.
</event>
<event>
 7    1  0.6610867E-006  0.2342949E+03  0.7561462E-02  0.1123653E+00
          3   -1    0    0  501    0  0.00000000000E+00  0.00000000000E+00  0.23719466021E+03  0.23719466021E+03  0.00000000000E+00 0. -1.
         -3   -1    0    0    0  501 -0.00000000000E+00 -0.00000000000E+00 -0.25486137939E+03  0.25486137939E+03  0.00000000000E+00 0.  1.
         23    2    1    2    0    0  0.13336033639E+03 -0.17406754906E+03 -0.27584352452E+02  0.23941003596E+03  0.92042261266E+02 0.  0.
          5    1    1    2  502    0  0.11830972531E+02 -0.90206445862E+01 -0.94882494958E+01  0.18134034804E+02  0.41800000000E+01 0. -1.
         -5    1    1    2    0  502 -0.14519130892E+03  0.18308819365E+03  0.19405882774E+02  0.23451196883E+03  0.41800000000E+01 0. -1.
        -11    1    3    3    0    0  0.10825022461E+03 -0.13594002320E+03  0.18234648576E+02  0.17472922894E+03  0.00000000000E+00 0. -1.
         11    1    3    3    0    0  0.25110111781E+02 -0.38127525861E+02 -0.45819001028E+02  0.64680807022E+02  0.00000000000E+00 0.  1.
</event>
<event>
 7    1  0.6610867E-006  0.1057261E+03  0.7561462E-02  0.1268696E+00
         -1   -1    0    0    0  501 -0.00000000000E+00  0.00000000000E+00  0.54743944653E+02  0.54743944653E+02  0.00000000000E+00 0.  1.
          1   -1    0    0  501    0  0.00000000000E+00 -0.00000000000E+00 -0.29695583485E+03  0.29695583485E+03  0.00000000000E+00 0. -1.
         23    2    1    2    0    0  0.12061407096E+02 -0.68788324128E+02 -0.12221697281E+03  0.16509267252E+03  0.86262917865E+02 0.  0.
          5    1    1    2  502    0  0.33338366771E+02  0.42710657042E+02 -0.12251238696E+03  0.13402389444E+03  0.41800000000E+01 0. -1.
         -5    1    1    2    0  502 -0.45399773867E+02  0.26077667086E+02  0.25174695757E+01  0.52583212538E+02  0.41800000000E+01 0.  1.
        -11    1    3    3    0    0 -0.26447642911E+02 -0.59293351426E+02 -0.47309596489E+02  0.80332915165E+02  0.00000000000E+00 0.  1.
         11    1    3    3    0    0  0.38509050007E+02 -0.94949727017E+01 -0.74907376326E+02  0.84759757356E+02  0.00000000000E+00 0. -1.
</event>
<event>
 7    1  0.6610867E-006  0.1234156E+03  0.7561462E-02  0.1237566E+00
         -1   -1    0    0    0  501 -0.00000000000E+00  0.00000000000E+00  0.20721986952E+03  0.20721986952E+03  0.00000000000E+00 0.  1.
          1   -1    0    0  501    0  0.00000000000E+00 -0.00000000000E+00 -0.91167248666E+02  0.91167248666E+02  0.00000000000E+00 0. -1.
         23    2    1    2    0    0 -0.61505805194E+02  0.47277282247E+02  0.83657961241E+02  0.14767222868E+03  0.93756744583E+02 0.  0.
          5    1    1    2  502    0  0.39502428638E+02 -0.79514602471E+02 -0.13958238823E+02  0.89973989049E+02  0.41800000000E+01 0. -1.
         -5    1    1    2    0  502  0.22003376556E+02  0.32237320223E+02  0.46352898438E+02  0.60740900460E+02  0.41800000000E+01 0. -1.
        -11    1    3    3    0    0  0.22588050705E+02  0.78308393949E+00  0.30171544674E+02  0.37698214323E+02  0.00000000000E+00 0.  1.
         11    1    3    3    0    0 -0.84093855900E+02  0.46494198308E+02  0.53486416567E+02  0.10997401436E+03  0.00000000000E+00 0. -1.
</event>
<event>
 7    1  0.6610867E-006  0.9680006E+02  0.7561462E-02  0.1287173E+00
         -1   -1    0    0    0  501 -0.00000000000E+00  0.00000000000E+00  0.12780042058E+03  0.12780042058E+03  0.00000000000E+00 0.  1.
          1   -1    0    0  501    0  0.00000000000E+00 -0.00000000000E+00 -0.13113914660E+03  0.13113914660E+03  0.00000000000E+00 0. -1.
         23    2    1    2    0    0  0.46391829349E+02 -0.53267616975E+02 -0.57517638649E+01  0.11526467468E+03  0.90902263966E+02 0.  0.
          5    1    1    2  502    0 -0.73254148708E+01  0.46531878261E+02  0.58274778549E+02  0.75048648305E+02  0.41800000000E+01 0. -1.
         -5    1    1    2    0  502 -0.39066414478E+02  0.67357387143E+01 -0.55861740705E+02  0.68626244184E+02  0.41800000000E+01 0. -1.
        -11    1    3    3    0    0  0.41074352959E+02  0.10550867734E+02 -0.23931798972E+02  0.48694499515E+02  0.00000000000E+00 0. -1.
         11    1    3    3    0    0  0.53174763897E+01 -0.63818484709E+02  0.18180035107E+02  0.66570175170E+02  0.00000000000E+00 0.  1.
</event>
<event>
 7    1  0.6610867E-006  0.9485576E+02  0.7561462E-02  0.1291501E+00
         -1   -1    0    0    0  501 -0.00000000000E+00  0.00000000000E+00  0.30013711355E+02  0.30013711355E+02  0.00000000000E+00 0.  1.
          1   -1    0    0  501    0  0.00000000000E+00 -0.00000000000E+00 -0.69094742081E+03  0.69094742081E+03  0.00000000000E+00 0. -1.
         23    2    1    2    0    0  0.25830904333E+02  0.88721844517E+02 -0.30087351539E+03  0.32874962572E+03  0.94934940021E+02 0.  0.
          5    1    1    2  502    0 -0.28064622560E+02 -0.74345697521E+02 -0.83895676085E+02  0.11563244633E+03  0.41800000000E+01 0. -1.
         -5    1    1    2    0  502  0.22337182276E+01 -0.14376146996E+02 -0.27616451799E+03  0.27657906011E+03  0.41800000000E+01 0. -1.
        -11    1    3    3    0    0 -0.36162230374E+01  0.18529735760E+02 -0.50479478111E+00  0.18886052901E+02  0.00000000000E+00 0.  1.
         11    1    3    3    0    0  0.29447127370E+02  0.70192108757E+02 -0.30036872061E+03  0.30986357282E+03  0.00000000000E+00 0. -1.
</event>
<event>
 7    1  0.6610867E-006  0.1111187E+03  0.7561462E-02  0.1258512E+00
         -1   -1    0    0    0  501 -0.00000000000E+00  0.00000000000E+00  0.22793496678E+02  0.22793496678E+02  0.00000000000E+00 0.  1.
          1   -1    0    0  501    0  0.00000000000E+00 -0.00000000000E+00 -0.61340240060E+03  0.61340240060E+03  0.00000000000E+00 0. -1.
         23    2    1    2    0    0 -0.22461492661E+02  0.27007530186E+02 -0.19581679828E+03  0.22057409080E+03  0.95261669659E+02 0.  0.
          5    1    1    2  502    0  0.72524802379E+02 -0.17438216363E+02 -0.18129213384E+03  0.19608224943E+03  0.41800000000E+01 0.  1.
         -5    1    1    2    0  502 -0.50063309717E+02 -0.95693138224E+01 -0.21349997180E+03  0.21953955705E+03  0.41800000000E+01 0.  1.
        -11    1    3    3    0    0 -0.37670348031E+02 -0.22987694001E+02 -0.12501669986E+03  0.13257701324E+03  0.00000000000E+00 0. -1.
         11    1    3    3    0    0  0.15208855369E+02  0.49995224187E+02 -0.70800098417E+02  0.87997077560E+02  0.00000000000E+00 0.  1.
</event>
<event>
 7    1  0.6610867E-006  0.9520963E+02  0.7561462E-02  0.1290705E+00
         -2   -1    0    0    0  501 -0.00000000000E+00  0.00000000000E+00  0.12349371696E+03  0.12349371696E+03  0.00000000000E+00 0.  1.
          2   -1    0    0  501    0  0.00000000000E+00 -0.00000000000E+00 -0.15293573404E+03  0.15293573404E+03  0.00000000000E+00 0. -1.
         23    2    1    2    0    0  0.73937244088E+02 -0.19535770729E+02  0.18739310453E+02  0.12209943598E+03  0.93320673533E+02 0.  0.
          5    1    1    2  502    0 -0.15341979611E+02  0.29902888141E+02  0.37114640487E+02  0.50244681271E+02  0.41800000000E+01 0. -1.
         -5    1    1    2    0  502 -0.58595264477E+02 -0.10367117412E+02 -0.85295968022E+02  0.10408533376E+03  0.41800000000E+01 0. -1.
        -11    1    3    3    0    0  0.46646960141E+02 -0.41058860654E+02 -0.24346766586E+02  0.66742295225E+02  0.00000000000E+00 0. -1.
         11    1    3    3    0    0  0.27290283947E+02  0.21523089925E+02  0.43086077039E+02  0.55357140754E+02  0.00000000000E+00 0.  1.
</event>
<event>
 7    1  0.6610867E-006  0.9696714E+02  0.7561462E-02  0.1286806E+00
         -2   -1    0    0    0  501 -0.00000000000E+00  0.00000000000E+00  0.66762757559E+02  0.66762757559E+02  0.00000000000E+00 0.  1.
          2   -1    0    0  501    0  0.00000000000E+00 -0.00000000000E+00 -0.22889725508E+03  0.22889725508E+03  0.00000000000E+00 0. -1.
         23    2    1    2    0    0  0.48548273217E+02  0.21793740581E+02 -0.41250327296E+02  0.11374321033E+03  0.91673477266E+02 0.  0.
          5    1    1    2  502    0  0.40499939619E+02  0.83708949173E+01 -0.42368814120E+02  0.59354071476E+02  0.41800000000E+01 0. -1.
         -5    1    1    2    0  502 -0.89048212836E+02 -0.30164635498E+02 -0.78515356105E+02  0.12256273083E+03  0.41800000000E+01 0. -1.
        -11    1    3    3    0    0  0.25702168981E+02  0.24176625398E+02  0.25248551240E+02  0.43388939209E+02  0.00000000000E+00 0.  1.
         11    1    3    3    0    0  0.22846104235E+02 -0.23828848172E+01 -0.66498878536E+02  0.70354271124E+02  0.00000000000E+00 0. -1.
</event>
<event>
 7    1  0.6610867E-006  0.9172637E+02  0.7561462E-02  0.1298724E+00
         -1   -1    0    0    0  501 -0.00000000000E+00  0.00000000000E+00  0.20355815420E+02  0.20355815420E+02  0.00000000000E+00 0.  1.
          1   -1    0    0  501    0  0.00000000000E+00 -0.00000000000E+00 -0.11860458588E+04  0.11860458588E+04  0.00000000000E+00 0. -1.
         23    2    1    2    0    0  0.70747550964E+02 -0.31437433199E+02 -0.19417517024E+03  0.22369858209E+03  0.79646285019E+02 0.  0.
          5    1    1    2  502    0 -0.29669805341E+02  0.17616402683E+02 -0.88654994004E+03  0.88723103168E+03  0.41800000000E+01 0. -1.
         -5    1    1    2    0  502 -0.41077745623E+02  0.13821030516E+02 -0.84964933104E+02  0.95472060454E+02  0.41800000000E+01 0.  1.
        -11    1    3    3    0    0  0.59976314002E+01 -0.39455543636E+02 -0.11119748429E+03  0.11814225332E+03  0.00000000000E+00 0. -1.
         11    1    3    3    0    0  0.64749919564E+02  0.80181104375E+01 -0.82977685949E+02  0.10555632877E+03  0.00000000000E+00 0.  1.
</event>
<event>
 7    1  0.6610867E-006  0.1555851E+03  0.7561462E-02  0.1193773E+00
         -2   -1    0    0    0  501 -0.00000000000E+00  0.00000000000E+00  0.20079411463E+02  0.20079411463E+02  0.00000000000E+00 0.  1.
          2   -1    0    0  501    0  0.00000000000E+00 -0.00000000000E+00 -0.21347046202E+04  0.21347046202E+04  0.00000000000E+00 0. -1.
         23    2    1    2    0    0  0.94380619473E+01 -0.14164915281E+03 -0.47459615342E+03  0.50387630690E+03  0.92175182692E+02 0.  0.
          5    1    1    2  502    0  0.25812181255E+02  0.11953033344E+03 -0.14941438588E+04  0.14991454608E+04  0.41800000000E+01 0. -1.
         -5    1    1    2    0  502 -0.35250243202E+02  0.22118819373E+02 -0.14588519655E+03  0.15176226405E+03  0.41800000000E+01 0. -1.
        -11    1    3    3    0    0 -0.11704562666E+02 -0.17509392462E+02 -0.11566602456E+02  0.24028356248E+02  0.00000000000E+00 0.  1.
         11    1    3    3    0    0  0.21142624613E+02 -0.12413976035E+03 -0.46302955097E+03  0.47984795065E+03  0.00000000000E+00 0. -1.
</event>
