<event>
 8    1  0.1790275E-005  0.1693361E+03  0.7561462E-02  0.1178542E+00
          2   -1    0    0  501    0  0.00000000000E+00  0.00000000000E+00  0.76217026174E+03  0.76217026174E+03  0.00000000000E+00 0. -1.
         -2   -1    0    0    0  501 -0.00000000000E+00 -0.00000000000E+00 -0.44048674077E+02  0.44048674077E+02  0.00000000000E+00 0.  1.
         23    2    1    2    0    0 -0.12357579049E+03  0.73213482638E+02  0.19010370177E+03  0.24489748603E+03  0.56605399024E+02 0.  0.
         23    2    1    2    0    0  0.12357579049E+03 -0.73213482638E+02  0.52801788589E+03  0.56132144979E+03  0.12509073562E+03 0.  0.
          5    1    4    4  502    0 -0.17549381483E+02 -0.40166069705E+02  0.15427079256E+03  0.16043143016E+03  0.41800000000E+01 0.  1.
         -5    1    4    4    0  502  0.14112517197E+03 -0.33047412933E+02  0.37374709333E+03  0.40089001963E+03  0.41800000000E+01 0.  1.
        -11    1    3    3    0    0 -0.10060620930E+03  0.76561889519E+02  0.13422882363E+03  0.18439281269E+03  0.00000000000E+00 0.  1.
         11    1    3    3    0    0 -0.22969581187E+02 -0.33484068809E+01  0.55874878140E+02  0.60504673338E+02  0.00000000000E+00 0. -1.
</event>
<event>
 8    1  0.1790275E-005  0.3375204E+03  0.7561462E-02  0.1067857E+00
         -1   -1    0    0    0  501 -0.00000000000E+00  0.00000000000E+00  0.22396652325E+03  0.22396652325E+03  0.00000000000E+00 0.  1.
          1   -1    0    0  501    0  0.00000000000E+00 -0.00000000000E+00 -0.60528843615E+03  0.60528843615E+03  0.00000000000E+00 0. -1.
         23    2    1    2    0    0 -0.81879985805E+02  0.32238448950E+03 -0.59007708072E+02  0.34949520926E+03  0.89604132365E+02 0.  0.
         23    2    1    2    0    0  0.81879985805E+02 -0.32238448950E+03 -0.32231420482E+03  0.47975975014E+03  0.12508748969E+03 0.  0.
          5    1    4    4  502    0  0.97151513138E+02 -0.29035550724E+03 -0.32154937412E+03  0.44402275785E+03  0.41800000000E+01 0. -1.
         -5    1    4    4    0  502 -0.15271527333E+02 -0.32028982266E+02 -0.76483069924E+00  0.35736992293E+02  0.41800000000E+01 0. -1.
        -11    1    3    3    0    0 -0.19655506492E+02  0.11202584945E+03  0.21629107497E+02  0.11577542128E+03  0.00000000000E+00 0.  1.
         11    1    3    3    0    0 -0.62224479313E+02  0.21035864005E+03 -0.80636815569E+02  0.23371978798E+03  0.00000000000E+00 0. -1.
</event>
<event>
 8    1  0.1790275E-005  0.8672014E+02  0.7561462E-02  0.1310995E+00
         -2   -1    0    0    0  501 -0.00000000000E+00  0.00000000000E+00  0.88764454656E+02  0.88764454656E+02  0.00000000000E+00 0.  1.
          2   -1    0    0  501    0  0.00000000000E+00 -0.00000000000E+00 -0.16576533568E+03  0.16576533568E+03  0.00000000000E+00 0. -1.
         23    2    1    2    0    0 -0.32768606669E+02  0.18098413523E+02  0.12014075051E+02  0.96506729896E+02  0.88135559004E+02 0.  0.
         23    2    1    2    0    0  0.32768606669E+02 -0.18098413523E+02 -0.89014956070E+02  0.15802306044E+03  0.12508513529E+03 0.  0.
          5    1    4    4  502    0  0.52058396600E+02  0.13346231839E+02  0.76773670107E+01  0.54448259156E+02  0.41800000000E+01 0.  1.
         -5    1    4    4    0  502 -0.19289789931E+02 -0.31444645362E+02 -0.96692323081E+02  0.10357480128E+03  0.41800000000E+01 0.  1.
        -11    1    3    3    0    0 -0.14711761232E+01  0.42623062165E+02  0.30724170069E+02  0.52562956670E+02  0.00000000000E+00 0.  1.
         11    1    3    3    0    0 -0.31297430545E+02 -0.24524648642E+02 -0.18710095018E+02  0.43943773226E+02  0.00000000000E+00 0. -1.
</event>
<event>
 8    1  0.1790275E-005  0.1219361E+03  0.7561462E-02  0.1239937E+00
         -1   -1    0    0    0  501 -0.00000000000E+00  0.00000000000E+00  0.94027255045E+03  0.94027255045E+03  0.00000000000E+00 0.  1.
          1   -1    0    0  501    0  0.00000000000E+00 -0.00000000000E+00 -0.26429927642E+02  0.26429927642E+02  0.00000000000E+00 0. -1.
         23    2    1    2    0    0 -0.36014130951E+02  0.97443585236E+02  0.56698796056E+03  0.58363123770E+03  0.91421027497E+02 0.  0.
         23    2    1    2    0    0  0.36014130951E+02 -0.97443585236E+02  0.34685466225E+03  0.38307124039E+03  0.12507257317E+03 0.  0.
          5    1    4    4  502    0  0.15152099133E+02 -0.58981450631E+01  0.24071882499E+03  0.24130354189E+03  0.41800000000E+01 0.  1.
         -5    1    4    4    0  502  0.20862031819E+02 -0.91545440173E+02  0.10613583725E+03  0.14176769850E+03  0.41800000000E+01 0.  1.
        -11    1    3    3    0    0  0.25552294158E+02  0.47036452495E+02  0.15373288499E+03  0.16278558759E+03  0.00000000000E+00 0. -1.
         11    1    3    3    0    0 -0.61566425110E+02  0.50407132741E+02  0.41325507557E+03  0.42084565011E+03  0.00000000000E+00 0.  1.
</event>
<event>
 8    1  0.1790275E-005  0.7968257E+02  0.7561462E-02  0.1329955E+00
          2   -1    0    0  501    0  0.00000000000E+00  0.00000000000E+00  0.24433327445E+02  0.24433327445E+02  0.00000000000E+00 0. -1.
         -2   -1    0    0    0  501 -0.00000000000E+00 -0.00000000000E+00 -0.54755450190E+03  0.54755450190E+03  0.00000000000E+00 0.  1.
         23    2    1    2    0    0  0.37905486868E+02  0.69606338118E+00 -0.22089967314E+03  0.24271030674E+03  0.93136013272E+02 0.  0.
         23    2    1    2    0    0 -0.37905486868E+02 -0.69606338118E+00 -0.30222150132E+03  0.32927752260E+03  0.12509412693E+03 0.  0.
          5    1    4    4  502    0 -0.37466817047E+02  0.24983759896E+02 -0.26678841616E+02  0.52508890944E+02  0.41800000000E+01 0.  1.
         -5    1    4    4    0  502 -0.43866982125E+00 -0.25679823277E+02 -0.27554265970E+03  0.27676863166E+03  0.41800000000E+01 0.  1.
        -11    1    3    3    0    0  0.43654831562E+02 -0.32501784330E+02 -0.18761529455E+03  0.19534996558E+03  0.00000000000E+00 0.  1.
         11    1    3    3    0    0 -0.57493446937E+01  0.33197847711E+02 -0.33284378585E+02  0.47360341161E+02  0.00000000000E+00 0. -1.
</event>
<event>
 8    1  0.1790275E-005  0.1191980E+03  0.7561462E-02  0.1244426E+00
         -1   -1    0    0    0  501 -0.00000000000E+00  0.00000000000E+00  0.15479318948E+02  0.15479318948E+02  0.00000000000E+00 0.  1.
          1   -1    0    0  501    0  0.00000000000E+00 -0.00000000000E+00 -0.10411625808E+04  0.10411625808E+04  0.00000000000E+00 0. -1.
         23    2    1    2    0    0  0.31234712577E+02 -0.59427014008E+02 -0.41741038496E+03  0.43201995193E+03  0.88896749866E+02 0.  0.
         23    2    1    2    0    0 -0.31234712577E+02  0.59427014008E+02 -0.60827287686E+03  0.62462194777E+03  0.12509799222E+03 0.  0.
          5    1    4    4  502    0 -0.64107159098E+02  0.57336304000E+01 -0.16988483900E+03  0.18171662909E+03  0.41800000000E+01 0.  1.
         -5    1    4    4    0  502  0.32872446521E+02  0.53693383608E+02 -0.43838803785E+03  0.44290531868E+03  0.41800000000E+01 0.  1.
        -11    1    3    3    0    0 -0.29953796748E+02 -0.31734773285E+02 -0.14302884024E+03  0.14953787118E+03  0.00000000000E+00 0.  1.
         11    1    3    3    0    0  0.61188509326E+02 -0.27692240723E+02 -0.27438154471E+03  0.28248208076E+03  0.00000000000E+00 0. -1.
</event>
<event>
 8    1  0.1790275E-005  0.1588574E+03  0.7561462E-02  0.1189993E+00
          2   -1    0    0  501    0  0.00000000000E+00  0.00000000000E+00  0.13166879088E+04  0.13166879088E+04  0.00000000000E+00 0. -1.
         -2   -1    0    0    0  501 -0.00000000000E+00 -0.00000000000E+00 -0.26932549699E+02  0.26932549699E+02  0.00000000000E+00 0.  1.
         23    2    1    2    0    0  0.13842028797E+03  0.48171607815E+02  0.45165888812E+03  0.48365855756E+03  0.91919362318E+02 0.  0.
         23    2    1    2    0    0 -0.13842028797E+03 -0.48171607815E+02  0.83809647095E+03  0.85996190090E+03  0.12509235174E+03 0.  0.
          5    1    4    4  502    0 -0.99361835696E+02 -0.55337822003E+02  0.30784073187E+03  0.32820487128E+03  0.41800000000E+01 0. -1.
         -5    1    4    4    0  502 -0.39058452272E+02  0.71662141882E+01  0.53025573908E+03  0.53175702961E+03  0.41800000000E+01 0. -1.
        -11    1    3    3    0    0  0.10184504968E+03 -0.20277135589E+01  0.35004681924E+03  0.36456727969E+03  0.00000000000E+00 0. -1.
         11    1    3    3    0    0  0.36575238291E+02  0.50199321374E+02  0.10161206888E+03  0.11909127787E+03  0.00000000000E+00 0.  1.
</event>
<event>
 8    1  0.1790275E-005  0.3413328E+03  0.7561462E-02  0.1066230E+00
          2   -1    0    0  501    0  0.00000000000E+00  0.00000000000E+00  0.17413812695E+04  0.17413812695E+04  0.00000000000E+00 0. -1.
         -2   -1    0    0    0  501 -0.00000000000E+00 -0.00000000000E+00 -0.70754518945E+02  0.70754518945E+02  0.00000000000E+00 0.  1.
         23    2    1    2    0    0 -0.14431203082E+03  0.30065452803E+03  0.79013700973E+03  0.86233080143E+03  0.89882197814E+02 0.  0.
         23    2    1    2    0    0  0.14431203082E+03 -0.30065452803E+03  0.88048974087E+03  0.94980498706E+03  0.12509285431E+03 0.  0.
          5    1    4    4  502    0  0.11119748062E+01 -0.11296867956E+03  0.37917533788E+03  0.39566977179E+03  0.41800000000E+01 0. -1.
         -5    1    4    4    0  502  0.14320005601E+03 -0.18768584848E+03  0.50131440299E+03  0.55413521527E+03  0.41800000000E+01 0. -1.
        -11    1    3    3    0    0 -0.40720144357E+02  0.82931630682E+02  0.12956977295E+03  0.15913551328E+03  0.00000000000E+00 0.  1.
         11    1    3    3    0    0 -0.10359188646E+03  0.21772289735E+03  0.66056723678E+03  0.70319528815E+03  0.00000000000E+00 0. -1.
</event>
<event>
 8    1  0.1790275E-005  0.7464834E+02  0.7561462E-02  0.1344963E+00
          1   -1    0    0  501    0  0.00000000000E+00  0.00000000000E+00  0.35022071569E+03  0.35022071569E+03  0.00000000000E+00 0. -1.
         -1   -1    0    0    0  501 -0.00000000000E+00 -0.00000000000E+00 -0.39671622180E+02  0.39671622180E+02  0.00000000000E+00 0.  1.
         23    2    1    2    0    0 -0.33744960180E+02  0.38327561959E+02  0.10229717335E+03  0.14164986470E+03  0.83619663657E+02 0.  0.
         23    2    1    2    0    0  0.33744960180E+02 -0.38327561959E+02  0.20825192016E+03  0.24824247317E+03  0.12509092251E+03 0.  0.
          5    1    4    4  502    0  0.14271304240E+02 -0.18088152636E+02 -0.11900148191E+02  0.26266657905E+02  0.41800000000E+01 0.  1.
         -5    1    4    4    0  502  0.19473655939E+02 -0.20239409323E+02  0.22015206835E+03  0.22197581527E+03  0.41800000000E+01 0.  1.
        -11    1    3    3    0    0  0.17211224525E+02  0.42997933195E+02  0.55728511269E+02  0.72461820823E+02  0.00000000000E+00 0. -1.
         11    1    3    3    0    0 -0.50956184705E+02 -0.46703712365E+01  0.46568662086E+02  0.69188043878E+02  0.00000000000E+00 0.  1.
</event>
<event>
 8    1  0.1790275E-005  0.9923349E+02  0.7561462E-02  0.1281916E+00
          2   -1    0    0  501    0  0.00000000000E+00  0.00000000000E+00  0.43424410401E+02  0.43424410401E+02  0.00000000000E+00 0. -1.
         -2   -1    0    0    0  501 -0.00000000000E+00 -0.00000000000E+00 -0.36589466388E+03  0.36589466388E+03  0.00000000000E+00 0.  1.
         23    2    1    2    0    0  0.16265570179E+02 -0.39505676044E+02 -0.22197248665E+03  0.24326997859E+03  0.89906787514E+02 0.  0.
         23    2    1    2    0    0 -0.16265570179E+02  0.39505676044E+02 -0.10049776683E+03  0.16604909569E+03  0.12508890370E+03 0.  0.
          5    1    4    4  502    0  0.25802615238E+02 -0.34154036375E+02 -0.15028876484E+02  0.45558892460E+02  0.41800000000E+01 0. -1.
         -5    1    4    4    0  502 -0.42068185417E+02  0.73659712419E+02 -0.85468890348E+02  0.12049020323E+03  0.41800000000E+01 0. -1.
        -11    1    3    3    0    0  0.32868445048E+02 -0.42429108200E+02 -0.21981712766E+03  0.22627446501E+03  0.00000000000E+00 0.  1.
         11    1    3    3    0    0 -0.16602874869E+02  0.29234321557E+01 -0.21553589879E+01  0.16995513580E+02  0.00000000000E+00 0. -1.
</event>
<event>
 8    1  0.1790275E-005  0.1780153E+03  0.7561462E-02  0.1169738E+00
         -1   -1    0    0    0  501 -0.00000000000E+00  0.00000000000E+00  0.50879800264E+03  0.50879800264E+03  0.00000000000E+00 0.  1.
          1   -1    0    0  501    0  0.00000000000E+00 -0.00000000000E+00 -0.10664118911E+03  0.10664118911E+03  0.00000000000E+00 0. -1.
         23    2    1    2    0    0  0.97393798822E+02 -0.97255279724E+02  0.39242759468E+03  0.42918348204E+03  0.10608912624E+03 0.  0.
         23    2    1    2    0    0 -0.97393798822E+02  0.97255279724E+02  0.97292188438E+01  0.18625570970E+03  0.12510951289E+03 0.  0.
          5    1    4    4  502    0 -0.19930107649E+02  0.10456863988E+03 -0.62407698665E+01  0.10671564668E+03  0.41800000000E+01 0. -1.
         -5    1    4    4    0  502 -0.77463691173E+02 -0.73133601562E+01  0.15969988710E+02  0.79540063027E+02  0.41800000000E+01 0. -1.
        -11    1    3    3    0    0  0.10838415511E+03 -0.11021940020E+03  0.37039361789E+03  0.40135629238E+03  0.00000000000E+00 0.  1.
         11    1    3    3    0    0 -0.10990356292E+02  0.12964120477E+02  0.22033976796E+02  0.27827189664E+02  0.00000000000E+00 0. -1.
</event>
<event>
 8    1  0.1790275E-005  0.9903747E+02  0.7561462E-02  0.1282333E+00
          1   -1    0    0  501    0  0.00000000000E+00  0.00000000000E+00  0.73254790325E+02  0.73254790325E+02  0.00000000000E+00 0. -1.
         -1   -1    0    0    0  501 -0.00000000000E+00 -0.00000000000E+00 -0.17192771956E+03  0.17192771956E+03  0.00000000000E+00 0.  1.
         23    2    1    2    0    0  0.21063516165E+02  0.17395596758E+02 -0.56200763730E+02  0.11028173030E+03  0.90869443125E+02 0.  0.
         23    2    1    2    0    0 -0.21063516165E+02 -0.17395596758E+02 -0.42472165508E+02  0.13490077959E+03  0.12509219397E+03 0.  0.
          5    1    4    4  502    0  0.90877643149E+01 -0.68090660310E+02 -0.20361112417E+02  0.71770277835E+02  0.41800000000E+01 0.  1.
         -5    1    4    4    0  502 -0.30151280480E+02  0.50695063552E+02 -0.22111053091E+02  0.63130501755E+02  0.41800000000E+01 0.  1.
        -11    1    3    3    0    0 -0.16391302029E+02 -0.13761210331E+02 -0.57697548216E+02  0.61539034458E+02  0.00000000000E+00 0.  1.
         11    1    3    3    0    0  0.37454818194E+02  0.31156807089E+02  0.14967844856E+01  0.48742695840E+02  0.00000000000E+00 0. -1.
</event>
<event>
 8    1  0.1790275E-005  0.8700444E+02  0.7561462E-02  0.1310272E+00
          2   -1    0    0  501    0  0.00000000000E+00  0.00000000000E+00  0.23468634803E+03  0.23468634803E+03  0.00000000000E+00 0. -1.
         -2   -1    0    0    0  501 -0.00000000000E+00 -0.00000000000E+00 -0.72395044443E+02  0.72395044443E+02  0.00000000000E+00 0.  1.
         23    2    1    2    0    0 -0.81165851335E+00 -0.69305007346E+02  0.48694214952E+02  0.12444644491E+03  0.91169886733E+02 0.  0.
         23    2    1    2    0    0  0.81165851335E+00  0.69305007346E+02  0.11359708863E+03  0.18263494756E+03  0.12508949873E+03 0.  0.
          5    1    4    4  502    0  0.25558835465E+02  0.77658918936E+01  0.11298174658E+03  0.11617190111E+03  0.41800000000E+01 0. -1.
         -5    1    4    4    0  502 -0.24747176952E+02  0.61539115452E+02  0.61534204884E+00  0.66463046451E+02  0.41800000000E+01 0. -1.
        -11    1    3    3    0    0  0.11368484667E+02 -0.67194449557E+02 -0.59620738548E+01  0.68409669050E+02  0.00000000000E+00 0.  1.
         11    1    3    3    0    0 -0.12180143181E+02 -0.21105577889E+01  0.54656288807E+02  0.56036775855E+02  0.00000000000E+00 0. -1.
</event>
<event>
 8    1  0.1790275E-005  0.8627347E+02  0.7561462E-02  0.1312135E+00
         -2   -1    0    0    0  501 -0.00000000000E+00  0.00000000000E+00  0.80320318282E+02  0.80320318282E+02  0.00000000000E+00 0.  1.
          2   -1    0    0  501    0  0.00000000000E+00 -0.00000000000E+00 -0.15505527061E+03  0.15505527061E+03  0.00000000000E+00 0. -1.
         23    2    1    2    0    0  0.11015017181E+02  0.18387645523E+02 -0.17459062953E+02  0.96137293033E+02  0.92076729531E+02 0.  0.
         23    2    1    2    0    0 -0.11015017181E+02 -0.18387645523E+02 -0.57275889379E+02  0.13923829586E+03  0.12508932576E+03 0.  0.
          5    1    4    4  502    0  0.55766402700E+02 -0.11703827211E+02 -0.12606314655E+02  0.58508655862E+02  0.41800000000E+01 0.  1.
         -5    1    4    4    0  502 -0.66781419882E+02 -0.66838183118E+01 -0.44669574724E+02  0.80729640001E+02  0.41800000000E+01 0.  1.
        -11    1    3    3    0    0  0.22366133847E+01  0.31941173523E+02 -0.50250850672E+02  0.59585140754E+02  0.00000000000E+00 0. -1.
         11    1    3    3    0    0  0.87784037966E+01 -0.13553528000E+02  0.32791787719E+02  0.36552152279E+02  0.00000000000E+00 0.  1.
</event>
<event>
 8    1  0.1790275E-005  0.1192368E+03  0.7561462E-02  0.1244361E+00
          2   -1    0    0  501    0  0.00000000000E+00  0.00000000000E+00  0.17243732950E+02  0.17243732950E+02  0.00000000000E+00 0. -1.
         -2   -1    0    0    0  501 -0.00000000000E+00 -0.00000000000E+00 -0.92523451563E+03  0.92523451563E+03  0.00000000000E+00 0.  1.
         23    2    1    2    0    0  0.52334394930E+02 -0.32610230564E+02 -0.38609979471E+03  0.40227492481E+03  0.94603105819E+02 0.  0.
         23    2    1    2    0    0 -0.52334394930E+02  0.32610230564E+02 -0.52189098798E+03  0.54020332377E+03  0.12508841533E+03 0.  0.
          5    1    4    4  502    0 -0.71450877304E+02 -0.18567356419E+02 -0.19112068268E+03  0.20492574836E+03  0.41800000000E+01 0. -1.
         -5    1    4    4    0  502  0.19116482374E+02  0.51177586983E+02 -0.33077030530E+03  0.33527757542E+03  0.41800000000E+01 0. -1.
        -11    1    3    3    0    0 -0.22919698994E+02 -0.25290674887E+02 -0.16825699614E+03  0.17168385943E+03  0.00000000000E+00 0.  1.
         11    1    3    3    0    0  0.75254093925E+02 -0.73195556774E+01 -0.21784279856E+03  0.23059106538E+03  0.00000000000E+00 0. -1.
</event>
<event>
 7    1  0.1790275E-005  0.1203646E+03  0.7561462E-02  0.1242497E+00
          2   -1    0    0  501    0  0.00000000000E+00  0.00000000000E+00  0.23004924373E+03  0.23004924373E+03  0.00000000000E+00 0.  1.
         -2   -1    0    0    0  501 -0.00000000000E+00 -0.00000000000E+00 -0.72844987559E+02  0.72844987559E+02  0.00000000000E+00 0. -1.
         23    2    1    2    0    0 -0.50385870524E+02 -0.14361368815E+02  0.49920167528E+02  0.11742745673E+03  0.92478103387E+02 0.  0.
          5    1    1    2  502    0 -0.25370666986E+02  0.51130833473E+02  0.12445344649E+02  0.58569547364E+02  0.41800000000E+01 0. -1.
         -5    1    1    2    0  502  0.75756537510E+02 -0.36769464658E+02  0.94838743996E+02  0.12689722719E+03  0.41800000000E+01 0.  1.
        -11    1    3    3    0    0 -0.18037761712E+02  0.35459576605E+02 -0.79976898511E-01  0.39783775800E+02  0.00000000000E+00 0. -1.
         11    1    3    3    0    0 -0.32348108812E+02 -0.49820945420E+02  0.50000144426E+02  0.77643680934E+02  0.00000000000E+00 0.  1.
</event>
<event>
 8    1  0.1790275E-005  0.1346052E+03  0.7561462E-02  0.1220778E+00
          2   -1    0    0  501    0  0.00000000000E+00  0.00000000000E+00  0.55438629941E+02  0.55438629941E+02  0.00000000000E+00 0. -1.
         -2   -1    0    0    0  501 -0.00000000000E+00 -0.00000000000E+00 -0.49993763327E+03  0.49993763327E+03  0.00000000000E+00 0.  1.
         23    2    1    2    0    0 -0.98954369133E+02  0.16799111557E+02 -0.34488052230E+03  0.36657577683E+03  0.73219179032E+02 0.  0.
         23    2    1    2    0    0  0.98954369133E+02 -0.16799111557E+02 -0.99618481031E+02  0.18880048638E+03  0.12509038562E+03 0.  0.
          5    1    4    4  502    0  0.95761686974E+02  0.28545570000E+02 -0.27978454244E+02  0.10385286015E+03  0.41800000000E+01 0.  1.
         -5    1    4    4    0  502  0.31926821588E+01 -0.45344681556E+02 -0.71640026787E+02  0.84947626234E+02  0.41800000000E+01 0.  1.
        -11    1    3    3    0    0  0.77257524234E+01  0.14977757608E+02 -0.61757006464E+02  0.64015219447E+02  0.00000000000E+00 0.  1.
         11    1    3    3    0    0 -0.10668012156E+03  0.18213539491E+01 -0.28312351583E+03  0.30256055738E+03  0.00000000000E+00 0. -1.
</event>
<event>
 8    1  0.1790275E-005  0.1220401E+03  0.7561462E-02  0.1239769E+00
         -4   -1    0    0    0  501 -0.00000000000E+00  0.00000000000E+00  0.15517234444E+03  0.15517234444E+03  0.00000000000E+00 0.  1.
          4   -1    0    0  501    0  0.00000000000E+00 -0.00000000000E+00 -0.18594693692E+03  0.18594693692E+03  0.00000000000E+00 0. -1.
         23    2    1    2    0    0  0.18704136418E+02  0.56038711898E+02  0.95294769121E+02  0.15395219664E+03  0.10549883354E+03 0.  0.
         23    2    1    2    0    0 -0.18704136418E+02 -0.56038711898E+02 -0.12606936160E+03  0.18716708472E+03  0.12509137348E+03 0.  0.
          5    1    4    4  502    0  0.50399964702E+02 -0.60838571642E+01 -0.63048885027E+02  0.81054327849E+02  0.41800000000E+01 0. -1.
         -5    1    4    4    0  502 -0.69104101120E+02 -0.49954854734E+02 -0.63020476569E+02  0.10611275687E+03  0.41800000000E+01 0. -1.
        -11    1    3    3    0    0 -0.85696970929E+01  0.74400183214E+02  0.29676386283E+02  0.80557525244E+02  0.00000000000E+00 0. -1.
         11    1    3    3    0    0  0.27273833511E+02 -0.18361471317E+02  0.65618382838E+02  0.73394671397E+02  0.00000000000E+00 0.  1.
</event>
<event>
 8    1  0.1790275E-005  0.1265258E+03  0.7561462E-02  0.1232704E+00
         -1   -1    0    0    0  501 -0.00000000000E+00  0.00000000000E+00  0.37469200930E+03  0.37469200930E+03  0.00000000000E+00 0.  1.
          1   -1    0    0  501    0  0.00000000000E+00 -0.00000000000E+00 -0.85892000982E+02  0.85892000982E+02  0.00000000000E+00 0. -1.
         23    2    1    2    0    0  0.28729229610E+02 -0.87300780926E+02  0.27596377687E+03  0.30482601501E+03  0.91192643882E+02 0.  0.
         23    2    1    2    0    0 -0.28729229610E+02  0.87300780926E+02  0.12836231448E+02  0.15575799527E+03  0.12509592027E+03 0.  0.
          5    1    4    4  502    0  0.41565044946E+01  0.90531076008E+02  0.51822990751E+02  0.10448084525E+03  0.41800000000E+01 0. -1.
         -5    1    4    4    0  502 -0.32885734104E+02 -0.32302950818E+01 -0.38986759304E+02  0.51277150027E+02  0.41800000000E+01 0. -1.
        -11    1    3    3    0    0  0.25576370440E+02  0.12986562769E+02  0.72462195947E+02  0.77933121193E+02  0.00000000000E+00 0.  1.
         11    1    3    3    0    0  0.31528591696E+01 -0.10028734370E+03  0.20350158092E+03  0.22689289382E+03  0.00000000000E+00 0. -1.
</event>
<event>
 8    1  0.1790275E-005  0.1568477E+03  0.7561462E-02  0.1192302E+00
         -1   -1    0    0    0  501 -0.00000000000E+00  0.00000000000E+00  0.19052566732E+02  0.19052566732E+02  0.00000000000E+00 0.  1.
          1   -1    0    0  501    0  0.00000000000E+00 -0.00000000000E+00 -0.14615746813E+04  0.14615746813E+04  0.00000000000E+00 0. -1.
         23    2    1    2    0    0 -0.51315412403E+02  0.11407064551E+03 -0.52336231090E+03  0.54620227064E+03  0.93719945961E+02 0.  0.
         23    2    1    2    0    0  0.51315412403E+02 -0.11407064551E+03 -0.91915980364E+03  0.93442497736E+03  0.11247181854E+03 0.  0.
          5    1    4    4  502    0 -0.28780396569E+02 -0.14602477767E+02 -0.95006752213E+02  0.10042558912E+03  0.41800000000E+01 0. -1.
         -5    1    4    4    0  502  0.80095808973E+02 -0.99468167739E+02 -0.82415305143E+03  0.83399938824E+03  0.41800000000E+01 0.  1.
        -11    1    3    3    0    0 -0.26377826192E+02  0.12382199870E+03 -0.46612242355E+03  0.48300910014E+03  0.00000000000E+00 0. -1.
         11    1    3    3    0    0 -0.24937586211E+02 -0.97513531963E+01 -0.57239887343E+02  0.63193170503E+02  0.00000000000E+00 0.  1.
</event>
<event>
 8    1  0.1790275E-005  0.1009286E+03  0.7561462E-02  0.1278355E+00
         -1   -1    0    0    0  501 -0.00000000000E+00  0.00000000000E+00  0.84600530021E+02  0.84600530021E+02  0.00000000000E+00 0.  1.
          1   -1    0    0  501    0  0.00000000000E+00 -0.00000000000E+00 -0.29777808506E+03  0.29777808506E+03  0.00000000000E+00 0. -1.
         23    2    1    2    0    0 -0.22143868937E+02 -0.33259460990E+02  0.30557018941E+02  0.10551998081E+03  0.92758785393E+02 0.  0.
         23    2    1    2    0    0  0.22143868937E+02  0.33259460990E+02 -0.24373457398E+03  0.27685863427E+03  0.12509043983E+03 0.  0.
          5    1    4    4  502    0 -0.15761857796E+02 -0.26237136698E+02 -0.96874043779E+01  0.32375016708E+02  0.41800000000E+01 0.  1.
         -5    1    4    4    0  502  0.37905726732E+02  0.59496597688E+02 -0.23404716960E+03  0.24448361756E+03  0.41800000000E+01 0.  1.
        -11    1    3    3    0    0  0.19376200766E+02  0.23191295581E+02  0.35832294087E+01  0.30432102783E+02  0.00000000000E+00 0. -1.
         11    1    3    3    0    0 -0.41520069702E+02 -0.56450756570E+02  0.26973789533E+02  0.75087878031E+02  0.00000000000E+00 0.  1.
</event>
<event>
 8    1  0.1790275E-005  0.1113082E+03  0.7561462E-02  0.1258166E+00
         -2   -1    0    0    0  501 -0.00000000000E+00  0.00000000000E+00  0.25354149732E+03  0.25354149732E+03  0.00000000000E+00 0.  1.
          2   -1    0    0  501    0  0.00000000000E+00 -0.00000000000E+00 -0.65211633091E+02  0.65211633091E+02  0.00000000000E+00 0. -1.
         23    2    1    2    0    0  0.54671877472E+02 -0.38824867741E+02  0.11372785447E+03  0.15841318446E+03  0.87546145471E+02 0.  0.
         23    2    1    2    0    0 -0.54671877472E+02  0.38824867741E+02  0.74602009760E+02  0.16033994595E+03  0.12508818436E+03 0.  0.
          5    1    4    4  502    0 -0.48426859592E+02 -0.31503869770E+02  0.67966233104E+02  0.89300256343E+02  0.41800000000E+01 0.  1.
         -5    1    4    4    0  502 -0.62450178799E+01  0.70328737511E+02  0.66357766557E+01  0.71039689611E+02  0.41800000000E+01 0.  1.
        -11    1    3    3    0    0  0.35242659146E+02  0.13814301828E+02  0.89727565664E+02  0.97385399309E+02  0.00000000000E+00 0.  1.
         11    1    3    3    0    0  0.19429218326E+02 -0.52639169569E+02  0.24000288808E+02  0.61027785152E+02  0.00000000000E+00 0. -1.
</event>
<event>
 8    1  0.1790275E-005  0.3059240E+03  0.7561462E-02  0.1082316E+00
          2   -1    0    0  501    0  0.00000000000E+00  0.00000000000E+00  0.66477009571E+03  0.66477009571E+03  0.00000000000E+00 0. -1.
         -2   -1    0    0    0  501 -0.00000000000E+00 -0.00000000000E+00 -0.14624000659E+03  0.14624000659E+03  0.00000000000E+00 0.  1.
         23    2    1    2    0    0  0.20809929312E+03  0.19516217962E+03  0.32926483636E+03  0.44650657255E+03  0.97771134341E+02 0.  0.
         23    2    1    2    0    0 -0.20809929312E+03 -0.19516217962E+03  0.18926525276E+03  0.36450352975E+03  0.12509154706E+03 0.  0.
          5    1    4    4  502    0 -0.17599316606E+03 -0.21098689714E+03  0.15919469079E+03  0.31756808284E+03  0.41800000000E+01 0. -1.
         -5    1    4    4    0  502 -0.32106127070E+02  0.15824717515E+02  0.30070561964E+02  0.46935446910E+02  0.41800000000E+01 0. -1.
        -11    1    3    3    0    0  0.75270638029E+02  0.13637782584E+03  0.18392551874E+03  0.24102526169E+03  0.00000000000E+00 0. -1.
         11    1    3    3    0    0  0.13282865510E+03  0.58784353783E+02  0.14533931762E+03  0.20548131086E+03  0.00000000000E+00 0.  1.
</event>
<event>
 8    1  0.1790275E-005  0.1048258E+03  0.7561462E-02  0.1270463E+00
          2   -1    0    0  501    0  0.00000000000E+00  0.00000000000E+00  0.68060160113E+03  0.68060160113E+03  0.00000000000E+00 0. -1.
         -2   -1    0    0    0  501 -0.00000000000E+00 -0.00000000000E+00 -0.33033250859E+02  0.33033250859E+02  0.00000000000E+00 0.  1.
         23    2    1    2    0    0 -0.15426191168E+02 -0.29390287841E+02  0.68975882207E+02  0.12074488500E+03  0.93380396943E+02 0.  0.
         23    2    1    2    0    0  0.15426191168E+02  0.29390287841E+02  0.57859246807E+03  0.59288996699E+03  0.12509001745E+03 0.  0.
          5    1    4    4  502    0  0.29893870849E+02 -0.43191029510E+02  0.30063626215E+03  0.30521917218E+03  0.41800000000E+01 0. -1.
         -5    1    4    4    0  502 -0.14467679681E+02  0.72581317352E+02  0.27795620591E+03  0.28767079482E+03  0.41800000000E+01 0. -1.
        -11    1    3    3    0    0 -0.38607493117E+02 -0.41496711614E+02  0.11831915107E+02  0.57900861951E+02  0.00000000000E+00 0.  1.
         11    1    3    3    0    0  0.23181301949E+02  0.12106423773E+02  0.57143967100E+02  0.62844023046E+02  0.00000000000E+00 0. -1.
</event>
<event>
 8    1  0.1790275E-005  0.9821033E+02  0.7561462E-02  0.1284105E+00
         -1   -1    0    0    0  501 -0.00000000000E+00  0.00000000000E+00  0.79212430792E+02  0.79212430792E+02  0.00000000000E+00 0.  1.
          1   -1    0    0  501    0  0.00000000000E+00 -0.00000000000E+00 -0.34020065304E+03  0.34020065304E+03  0.00000000000E+00 0. -1.
         23    2    1    2    0    0  0.78601641863E+02  0.52688297961E+02 -0.21905956614E+02  0.13347268484E+03  0.91546773927E+02 0.  0.
         23    2    1    2    0    0 -0.78601641863E+02 -0.52688297961E+02 -0.23908226563E+03  0.28594039899E+03  0.12508919694E+03 0.  0.
          5    1    4    4  502    0 -0.49204814302E+02 -0.31584649831E+02 -0.24237586524E+03  0.24936366276E+03  0.41800000000E+01 0.  1.
         -5    1    4    4    0  502 -0.29396827561E+02 -0.21103648130E+02  0.32935996067E+01  0.36576736232E+02  0.41800000000E+01 0.  1.
        -11    1    3    3    0    0  0.19800918681E+02  0.34579718094E+02 -0.51568077629E+02  0.65169777615E+02  0.00000000000E+00 0. -1.
         11    1    3    3    0    0  0.58800723182E+02  0.18108579867E+02  0.29662121016E+02  0.68302907220E+02  0.00000000000E+00 0.  1.
</event>
<event>
 8    1  0.1790275E-005  0.1510302E+03  0.7561462E-02  0.1199213E+00
          2   -1    0    0  501    0  0.00000000000E+00  0.00000000000E+00  0.24405498324E+03  0.24405498324E+03  0.00000000000E+00 0.  1.
         -2   -1    0    0    0  501 -0.00000000000E+00 -0.00000000000E+00 -0.16422060630E+03  0.16422060630E+03  0.00000000000E+00 0. -1.
         23    2    1    2    0    0  0.10211690555E+03  0.79071060393E+02 -0.70749941257E+02  0.17374733592E+03  0.92208934281E+02 0.  0.
         23    2    1    2    0    0 -0.10211690555E+03 -0.79071060393E+02  0.15058431820E+03  0.23452825362E+03  0.12509104632E+03 0.  0.
          5    1    4    4  502    0 -0.11438469818E+03 -0.24976435606E+02  0.69564820170E+02  0.13625130501E+03  0.41800000000E+01 0. -1.
         -5    1    4    4    0  502  0.12267792627E+02 -0.54094624787E+02  0.81019498027E+02  0.98276948606E+02  0.41800000000E+01 0. -1.
        -11    1    3    3    0    0  0.28196608330E+02  0.25152876553E+02  0.21785721759E+02  0.43615749366E+02  0.00000000000E+00 0.  1.
         11    1    3    3    0    0  0.73920297222E+02  0.53918183840E+02 -0.92535663016E+02  0.13013158656E+03  0.00000000000E+00 0. -1.
</event>
<event>
 8    1  0.1790275E-005  0.4054918E+02  0.7561462E-02  0.1504209E+00
         -2   -1    0    0    0  501 -0.00000000000E+00  0.00000000000E+00  0.19524337731E+03  0.19524337731E+03  0.00000000000E+00 0.  1.
          2   -1    0    0  501    0  0.00000000000E+00 -0.00000000000E+00 -0.65704801521E+02  0.65704801521E+02  0.00000000000E+00 0. -1.
         23    2    1    2    0    0 -0.11401040342E+02  0.26401311575E+02  0.70707427444E+02  0.11975188834E+03  0.92271130320E+02 0.  0.
         23    2    1    2    0    0  0.11401040342E+02 -0.26401311575E+02  0.58831148347E+02  0.14119629050E+03  0.12509306720E+03 0.  0.
          5    1    4    4  502    0  0.15356483617E+02 -0.14665050583E+02  0.97762468284E+02  0.10012920604E+03  0.41800000000E+01 0.  1.
         -5    1    4    4    0  502 -0.39554432751E+01 -0.11736260992E+02 -0.38931319937E+02  0.41067084455E+02  0.41800000000E+01 0.  1.
        -11    1    3    3    0    0 -0.24029144574E+02  0.23102759716E+02  0.90274011076E+02  0.96231670313E+02  0.00000000000E+00 0.  1.
         11    1    3    3    0    0  0.12628104232E+02  0.32985518591E+01 -0.19566583632E+02  0.23520218024E+02  0.00000000000E+00 0. -1.
</event>
<event>
 8    1  0.1790275E-005  0.1066745E+03  0.7561462E-02  0.1266855E+00
          1   -1    0    0  501    0  0.00000000000E+00  0.00000000000E+00  0.30022115030E+03  0.30022115030E+03  0.00000000000E+00 0. -1.
         -1   -1    0    0    0  501 -0.00000000000E+00 -0.00000000000E+00 -0.65236679271E+02  0.65236679271E+02  0.00000000000E+00 0.  1.
         23    2    1    2    0    0  0.78900113050E+02 -0.31841106153E+02  0.76012410145E+02  0.14600717578E+03  0.91110509838E+02 0.  0.
         23    2    1    2    0    0 -0.78900113050E+02  0.31841106153E+02  0.15897206088E+03  0.21945065379E+03  0.12508952565E+03 0.  0.
          5    1    4    4  502    0 -0.47588444298E+02 -0.95547500818E+01 -0.34947382700E+01  0.48843002318E+02  0.41800000000E+01 0.  1.
         -5    1    4    4    0  502 -0.31311668752E+02  0.41395856235E+02  0.16246679915E+03  0.17060765147E+03  0.41800000000E+01 0.  1.
        -11    1    3    3    0    0  0.97214763533E+01  0.22551486493E+02 -0.64680625900E+01  0.25395127076E+02  0.00000000000E+00 0.  1.
         11    1    3    3    0    0  0.69178636697E+02 -0.54392592647E+02  0.82480472735E+02  0.12061204870E+03  0.00000000000E+00 0. -1.
</event>
<event>
 8    1  0.1790275E-005  0.1161421E+03  0.7561462E-02  0.1249601E+00
          2   -1    0    0  501    0  0.00000000000E+00  0.00000000000E+00  0.86498298838E+03  0.86498298838E+03  0.00000000000E+00 0. -1.
         -2   -1    0    0    0  501 -0.00000000000E+00 -0.00000000000E+00 -0.38671536899E+02  0.38671536899E+02  0.00000000000E+00 0.  1.
         23    2    1    2    0    0 -0.14056235525E+02  0.61143464409E+02  0.63564445135E+02  0.12817593834E+03  0.91937650000E+02 0.  0.
         23    2    1    2    0    0  0.14056235525E+02 -0.61143464409E+02  0.76274700635E+03  0.77547858694E+03  0.12509173479E+03 0.  0.
          5    1    4    4  502    0  0.30348661538E+02 -0.95675410975E+02  0.59211192085E+03  0.60057374629E+03  0.41800000000E+01 0. -1.
         -5    1    4    4    0  502 -0.16292426013E+02  0.34531946566E+02  0.17063508550E+03  0.17490484065E+03  0.41800000000E+01 0. -1.
        -11    1    3    3    0    0 -0.38221542856E+02  0.14496363456E+02  0.63643766796E+02  0.75640993804E+02  0.00000000000E+00 0. -1.
         11    1    3    3    0    0  0.24165307331E+02  0.46647100953E+02 -0.79321660869E-01  0.52534944538E+02  0.00000000000E+00 0.  1.
</event>
<event>
 8    1  0.1790275E-005  0.9111612E+02  0.7561462E-02  0.1300171E+00
          1   -1    0    0  501    0  0.00000000000E+00  0.00000000000E+00  0.13094645205E+04  0.13094645205E+04  0.00000000000E+00 0. -1.
         -1   -1    0    0    0  501 -0.00000000000E+00 -0.00000000000E+00 -0.90833465061E+01  0.90833465061E+01  0.00000000000E+00 0.  1.
         23    2    1    2    0    0 -0.16236909592E+02 -0.80176299015E+01  0.40063462052E+03  0.41162781093E+03  0.92743926745E+02 0.  0.
         23    2    1    2    0    0  0.16236909592E+02  0.80176299015E+01  0.89974655347E+03  0.90692005607E+03  0.11239309590E+03 0.  0.
          5    1    4    4  502    0  0.33159328966E+02 -0.31264716162E+02  0.74242214294E+03  0.74383138835E+03  0.41800000000E+01 0. -1.
         -5    1    4    4    0  502 -0.16922419374E+02  0.39282346064E+02  0.15732441053E+03  0.16308866772E+03  0.41800000000E+01 0.  1.
        -11    1    3    3    0    0 -0.52807421883E+02  0.82803650396E+01  0.25808322563E+03  0.26356050463E+03  0.00000000000E+00 0.  1.
         11    1    3    3    0    0  0.36570512291E+02 -0.16297994941E+02  0.14255139489E+03  0.14806730630E+03  0.00000000000E+00 0. -1.
</event>
<event>
 8    1  0.1790275E-005  0.9939189E+02  0.7561462E-02  0.1281580E+00
          3   -1    0    0  501    0  0.00000000000E+00  0.00000000000E+00  0.44988982869E+03  0.44988982869E+03  0.00000000000E+00 0. -1.
         -3   -1    0    0    0  501 -0.00000000000E+00 -0.00000000000E+00 -0.29910092109E+02  0.29910092109E+02  0.00000000000E+00 0.  1.
         23    2    1    2    0    0 -0.11387553065E+02 -0.40773622729E+02  0.19167889992E+03  0.21604590001E+03  0.90237827758E+02 0.  0.
         23    2    1    2    0    0  0.11387553065E+02  0.40773622729E+02  0.22830083666E+03  0.26375402079E+03  0.12511093793E+03 0.  0.
          5    1    4    4  502    0  0.57390813574E+01 -0.45194056005E+02  0.74893111705E+02  0.87760414390E+02  0.41800000000E+01 0.  1.
         -5    1    4    4    0  502  0.56484717079E+01  0.85967678733E+02  0.15340772495E+03  0.17599360640E+03  0.41800000000E+01 0.  1.
        -11    1    3    3    0    0  0.10762552496E+02  0.78691360602E+01 -0.34150563292E+01  0.13762937488E+02  0.00000000000E+00 0.  1.
         11    1    3    3    0    0 -0.22150105561E+02 -0.48642758789E+02  0.19509395625E+03  0.20228296252E+03  0.00000000000E+00 0. -1.
</event>
<event>
 8    1  0.1790275E-005  0.1105667E+03  0.7561462E-02  0.1259524E+00
         -4   -1    0    0    0  501 -0.00000000000E+00  0.00000000000E+00  0.33920432607E+03  0.33920432607E+03  0.00000000000E+00 0.  1.
          4   -1    0    0  501    0  0.00000000000E+00 -0.00000000000E+00 -0.50992493021E+02  0.50992493021E+02  0.00000000000E+00 0. -1.
         23    2    1    2    0    0  0.45666292408E+02 -0.51723341210E+02  0.17075568304E+03  0.20525250023E+03  0.90611099071E+02 0.  0.
         23    2    1    2    0    0 -0.45666292408E+02  0.51723341210E+02  0.11745615001E+03  0.18494431886E+03  0.12509092538E+03 0.  0.
          5    1    4    4  502    0 -0.21908241462E+02 -0.23918978400E+02  0.97840108122E+02  0.10316127049E+03  0.41800000000E+01 0.  1.
         -5    1    4    4    0  502 -0.23758050947E+02  0.75642319610E+02  0.19616041890E+02  0.81783048367E+02  0.41800000000E+01 0.  1.
        -11    1    3    3    0    0 -0.11301740977E+02 -0.50816708727E+02  0.11147235341E+03  0.12302907302E+03  0.00000000000E+00 0.  1.
         11    1    3    3    0    0  0.56968033386E+02 -0.90663248289E+00  0.59283329628E+02  0.82223427210E+02  0.00000000000E+00 0. -1.
</event>
<event>
 8    1  0.1790275E-005  0.8836301E+02  0.7561462E-02  0.1306865E+00
         -1   -1    0    0    0  501 -0.00000000000E+00  0.00000000000E+00  0.74928884660E+02  0.74928884660E+02  0.00000000000E+00 0.  1.
          1   -1    0    0  501    0  0.00000000000E+00 -0.00000000000E+00 -0.25865073765E+03  0.25865073765E+03  0.00000000000E+00 0. -1.
         23    2    1    2    0    0  0.40084255266E+02  0.35824375651E+02  0.15109737227E+01  0.10369037834E+03  0.88652569667E+02 0.  0.
         23    2    1    2    0    0 -0.40084255266E+02 -0.35824375651E+02 -0.18523282671E+03  0.22988924397E+03  0.12509089091E+03 0.  0.
          5    1    4    4  502    0 -0.48219845583E+02 -0.10377213493E+02 -0.74457529425E+01  0.50057484004E+02  0.41800000000E+01 0.  1.
         -5    1    4    4    0  502  0.81355903166E+01 -0.25447162158E+02 -0.17778707377E+03  0.17983175997E+03  0.41800000000E+01 0.  1.
        -11    1    3    3    0    0 -0.25256614346E+02  0.21781179729E+02  0.13152442799E+02  0.35851124253E+02  0.00000000000E+00 0.  1.
         11    1    3    3    0    0  0.65340869612E+02  0.14043195922E+02 -0.11641469076E+02  0.67839254091E+02  0.00000000000E+00 0. -1.
</event>
<event>
 8    1  0.1790275E-005  0.1136162E+03  0.7561462E-02  0.1254016E+00
          2   -1    0    0  501    0  0.00000000000E+00  0.00000000000E+00  0.17714132935E+04  0.17714132935E+04  0.00000000000E+00 0. -1.
         -2   -1    0    0    0  501 -0.00000000000E+00 -0.00000000000E+00 -0.80579754966E+01  0.80579754966E+01  0.00000000000E+00 0.  1.
         23    2    1    2    0    0 -0.54068299159E+02 -0.20195362564E+02  0.54081400044E+03  0.54919248363E+03  0.76166707702E+02 0.  0.
         23    2    1    2    0    0  0.54068299159E+02  0.20195362564E+02  0.12225413176E+04  0.12302787854E+04  0.12508949967E+03 0.  0.
          5    1    4    4  502    0  0.30462040856E+01 -0.47330290214E+02  0.61744144518E+03  0.61927445156E+03  0.41800000000E+01 0. -1.
         -5    1    4    4    0  502  0.51022095074E+02  0.67525652778E+02  0.60509987241E+03  0.61100433383E+03  0.41800000000E+01 0. -1.
        -11    1    3    3    0    0  0.80846190825E+01  0.19517660664E+02  0.95217322837E+02  0.97532757121E+02  0.00000000000E+00 0. -1.
         11    1    3    3    0    0 -0.62152918242E+02 -0.39713023228E+02  0.44559667761E+03  0.45165972651E+03  0.00000000000E+00 0.  1.
</event>
<event>
 8    1  0.1790275E-005  0.1020854E+03  0.7561462E-02  0.1275971E+00
          1   -1    0    0  501    0  0.00000000000E+00  0.00000000000E+00  0.11322449195E+04  0.11322449195E+04  0.00000000000E+00 0. -1.
         -1   -1    0    0    0  501 -0.00000000000E+00 -0.00000000000E+00 -0.31399010556E+02  0.31399010556E+02  0.00000000000E+00 0.  1.
         23    2    1    2    0    0  0.26082084078E+02  0.27156114193E+01  0.54874251327E+02  0.10989303511E+03  0.91529481867E+02 0.  0.
         23    2    1    2    0    0 -0.26082084078E+02 -0.27156114193E+01  0.10459716576E+04  0.10537508950E+04  0.12508633185E+03 0.  0.
          5    1    4    4  502    0  0.34399113043E+02  0.25006561377E+02  0.17156594758E+03  0.17680773133E+03  0.41800000000E+01 0. -1.
         -5    1    4    4    0  502 -0.60481197121E+02 -0.27722172796E+02  0.87440571004E+03  0.87694316362E+03  0.41800000000E+01 0. -1.
        -11    1    3    3    0    0  0.59934296785E+02 -0.47055414479E+01  0.29674112378E+02  0.67043381454E+02  0.00000000000E+00 0.  1.
         11    1    3    3    0    0 -0.33852212707E+02  0.74211528673E+01  0.25200138948E+02  0.42849653651E+02  0.00000000000E+00 0. -1.
</event>
<event>
 8    1  0.1790275E-005  0.1352091E+03  0.7561462E-02  0.1219925E+00
         -1   -1    0    0    0  501 -0.00000000000E+00  0.00000000000E+00  0.33571379200E+03  0.33571379200E+03  0.00000000000E+00 0.  1.
          1   -1    0    0  501    0  0.00000000000E+00 -0.00000000000E+00 -0.73429925378E+02  0.73429925378E+02  0.00000000000E+00 0. -1.
         23    2    1    2    0    0  0.49308242049E+02  0.93353819423E+02  0.15667872069E+03  0.21434810939E+03  0.10124550434E+03 0.  0.
         23    2    1    2    0    0 -0.49308242049E+02 -0.93353819423E+02  0.10560514594E+03  0.19479560799E+03  0.12508654487E+03 0.  0.
          5    1    4    4  502    0 -0.18381920255E+02 -0.12069791941E+03  0.80491807544E+02  0.14629520233E+03  0.41800000000E+01 0. -1.
         -5    1    4    4    0  502 -0.30926321794E+02  0.27344099988E+02  0.25113338395E+02  0.48500405660E+02  0.41800000000E+01 0. -1.
        -11    1    3    3    0    0  0.46084416522E+02  0.74237139840E+02  0.16978293782E+03  0.19094808811E+03  0.00000000000E+00 0.  1.
         11    1    3    3    0    0  0.32238255269E+01  0.19116679583E+02 -0.13104217135E+02  0.23400021283E+02  0.00000000000E+00 0. -1.
</event>
<event>
 8    1  0.1790275E-005  0.1526560E+03  0.7561462E-02  0.1197247E+00
          2   -1    0    0  501    0  0.00000000000E+00  0.00000000000E+00  0.11147286292E+03  0.11147286292E+03  0.00000000000E+00 0.  1.
         -2   -1    0    0    0  501 -0.00000000000E+00 -0.00000000000E+00 -0.26451574287E+03  0.26451574287E+03  0.00000000000E+00 0. -1.
         23    2    1    2    0    0  0.70759503527E+02 -0.10154359552E+03 -0.12162969857E+03  0.19723698381E+03  0.93758386713E+02 0.  0.
         23    2    1    2    0    0 -0.70759503527E+02  0.10154359552E+03 -0.31413181383E+02  0.17875162198E+03  0.12508934914E+03 0.  0.
          5    1    4    4  502    0 -0.10280835602E+03  0.66103250085E+02 -0.42591036153E+02  0.12950160810E+03  0.41800000000E+01 0. -1.
         -5    1    4    4    0  502  0.32048852493E+02  0.35440345431E+02  0.11177854770E+02  0.49250013885E+02  0.41800000000E+01 0. -1.
        -11    1    3    3    0    0  0.24652390781E+02 -0.80825877732E+02 -0.11986706605E+03  0.14665836630E+03  0.00000000000E+00 0. -1.
         11    1    3    3    0    0  0.46107112746E+02 -0.20717717784E+02 -0.17626325202E+01  0.50578617512E+02  0.00000000000E+00 0.  1.
</event>
<event>
 8    1  0.1790275E-005  0.1074451E+03  0.7561462E-02  0.1265376E+00
          2   -1    0    0  501    0  0.00000000000E+00  0.00000000000E+00  0.41379933868E+03  0.41379933868E+03  0.00000000000E+00 0. -1.
         -2   -1    0    0    0  501 -0.00000000000E+00 -0.00000000000E+00 -0.36043299075E+02  0.36043299075E+02  0.00000000000E+00 0.  1.
         23    2    1    2    0    0  0.75848667164E+01  0.15841267418E+02  0.67411763510E+02  0.11477815138E+03  0.91220623867E+02 0.  0.
         23    2    1    2    0    0 -0.75848667164E+01 -0.15841267418E+02  0.31034427609E+03  0.33506448637E+03  0.12508462882E+03 0.  0.
          5    1    4    4  502    0 -0.67289890691E+01 -0.68713257187E+02  0.21632675987E+03  0.22711567635E+03  0.41800000000E+01 0.  1.
         -5    1    4    4    0  502 -0.85587764731E+00  0.52871989769E+02  0.94017516218E+02  0.10794881002E+03  0.41800000000E+01 0.  1.
        -11    1    3    3    0    0 -0.27628842756E+01 -0.37874252278E+02  0.23785157145E+02  0.44808773868E+02  0.00000000000E+00 0.  1.
         11    1    3    3    0    0  0.10347750992E+02  0.53715519696E+02  0.43626606365E+02  0.69969377514E+02  0.00000000000E+00 0. -1.
</event>
<event>
 8    1  0.1790275E-005  0.9081089E+02  0.7561462E-02  0.1300900E+00
          1   -1    0    0  501    0  0.00000000000E+00  0.00000000000E+00  0.38366585531E+03  0.38366585531E+03  0.00000000000E+00 0. -1.
         -1   -1    0    0    0  501 -0.00000000000E+00 -0.00000000000E+00 -0.34215471102E+02  0.34215471102E+02  0.00000000000E+00 0.  1.
         23    2    1    2    0    0 -0.25903279368E+02  0.20284185787E+02  0.14889847507E+03  0.17923490147E+03  0.94191113986E+02 0.  0.
         23    2    1    2    0    0  0.25903279368E+02 -0.20284185787E+02  0.20055190914E+03  0.23864642494E+03  0.12509444353E+03 0.  0.
          5    1    4    4  502    0  0.26585105695E+02  0.24791361413E+02  0.38394685368E+01  0.36791213138E+02  0.41800000000E+01 0. -1.
         -5    1    4    4    0  502 -0.68182632640E+00 -0.45075547200E+02  0.19671244061E+03  0.20185521180E+03  0.41800000000E+01 0. -1.
        -11    1    3    3    0    0  0.32344306928E+02  0.25625733781E+02  0.60100909987E+02  0.72903715980E+02  0.00000000000E+00 0. -1.
         11    1    3    3    0    0 -0.58247586296E+02 -0.53415479945E+01  0.88797565078E+02  0.10633118549E+03  0.00000000000E+00 0.  1.
</event>
<event>
 8    1  0.1790275E-005  0.7933395E+02  0.7561462E-02  0.1330952E+00
         -1   -1    0    0    0  501 -0.00000000000E+00  0.00000000000E+00  0.48699596405E+02  0.48699596405E+02  0.00000000000E+00 0.  1.
          1   -1    0    0  501    0  0.00000000000E+00 -0.00000000000E+00 -0.33293174361E+03  0.33293174361E+03  0.00000000000E+00 0. -1.
         23    2    1    2    0    0 -0.12358954956E+02  0.55581157528E+02 -0.41269589510E+02  0.10734688720E+03  0.81105895794E+02 0.  0.
         23    2    1    2    0    0  0.12358954956E+02 -0.55581157528E+02 -0.24296255769E+03  0.27428445282E+03  0.11383825270E+03 0.  0.
          5    1    4    4  502    0 -0.27503885605E+02 -0.77000645830E+01 -0.63297475180E+01  0.29551528244E+02  0.41800000000E+01 0. -1.
         -5    1    4    4    0  502  0.39862840560E+02 -0.47881092945E+02 -0.23663281017E+03  0.24473292457E+03  0.41800000000E+01 0.  1.
        -11    1    3    3    0    0 -0.17599465689E+02  0.77302996417E+01  0.21112032928E+02  0.28551999220E+02  0.00000000000E+00 0.  1.
         11    1    3    3    0    0  0.52405107333E+01  0.47850857886E+02 -0.62381622438E+02  0.78794887976E+02  0.00000000000E+00 0. -1.
</event>
<event>
 8    1  0.1790275E-005  0.1357604E+03  0.7561462E-02  0.1219150E+00
          1   -1    0    0  501    0  0.00000000000E+00  0.00000000000E+00  0.82969680602E+02  0.82969680602E+02  0.00000000000E+00 0. -1.
         -1   -1    0    0    0  501 -0.00000000000E+00 -0.00000000000E+00 -0.34532008915E+03  0.34532008915E+03  0.00000000000E+00 0.  1.
         23    2    1    2    0    0  0.66802285992E+02  0.96712870996E+02 -0.19156363681E+03  0.24261648300E+03  0.91379461858E+02 0.  0.
         23    2    1    2    0    0 -0.66802285992E+02 -0.96712870996E+02 -0.70786771743E+02  0.18567328675E+03  0.12509147664E+03 0.  0.
          5    1    4    4  502    0 -0.54741653659E+01 -0.37971287838E+02 -0.90507692154E+02  0.98391564301E+02  0.41800000000E+01 0.  1.
         -5    1    4    4    0  502 -0.61328120627E+02 -0.58741583158E+02  0.19720920410E+02  0.87281722447E+02  0.41800000000E+01 0.  1.
        -11    1    3    3    0    0  0.72978950420E+02  0.26837134222E+02 -0.11450596968E+03  0.13841161826E+03  0.00000000000E+00 0. -1.
         11    1    3    3    0    0 -0.61766644275E+01  0.69875736775E+02 -0.77057667125E+02  0.10420486474E+03  0.00000000000E+00 0.  1.
</event>
<event>
 8    1  0.1790275E-005  0.9319757E+02  0.7561462E-02  0.1295288E+00
          2   -1    0    0  501    0  0.00000000000E+00  0.00000000000E+00  0.46459673208E+03  0.46459673208E+03  0.00000000000E+00 0. -1.
         -2   -1    0    0    0  501 -0.00000000000E+00 -0.00000000000E+00 -0.31044938832E+02  0.31044938832E+02  0.00000000000E+00 0.  1.
         23    2    1    2    0    0 -0.10040125676E+02  0.50154918271E+02  0.19989791147E+03  0.22571959065E+03  0.91508680688E+02 0.  0.
         23    2    1    2    0    0  0.10040125676E+02 -0.50154918271E+02  0.23365388177E+03  0.26992208026E+03  0.12508985968E+03 0.  0.
          5    1    4    4  502    0  0.29886262133E+02  0.74452832500E+01  0.19541431258E+03  0.19787078326E+03  0.41800000000E+01 0. -1.
         -5    1    4    4    0  502 -0.19846136457E+02 -0.57600201521E+02  0.38239569195E+02  0.72051297003E+02  0.41800000000E+01 0. -1.
        -11    1    3    3    0    0 -0.26896463194E+01 -0.21775771800E+02  0.10012885313E+03  0.10250466167E+03  0.00000000000E+00 0. -1.
         11    1    3    3    0    0 -0.73504793569E+01  0.71930690071E+02  0.99769058339E+02  0.12321492898E+03  0.00000000000E+00 0.  1.
</event>
<event>
 8    1  0.1848594E-005  0.1325289E+03  0.7561462E-02  0.1223751E+00
         -1   -1    0    0    0  501 -0.00000000000E+00  0.00000000000E+00  0.10275854354E+03  0.10275854354E+03  0.00000000000E+00 0.  1.
          1   -1    0    0  501    0  0.00000000000E+00 -0.00000000000E+00 -0.18025910155E+03  0.18025910155E+03  0.00000000000E+00 0. -1.
         23    2    1    2    0    0  0.72851590301E+02  0.21435038311E+02 -0.67707444902E+01  0.12048350045E+03  0.93293171364E+02 0.  0.
         23    2    1    2    0    0 -0.72851590301E+02 -0.21435038311E+02 -0.70729813521E+02  0.16253414464E+03  0.12509127298E+03 0.  0.
          5    1    4    4  502    0 -0.95968252504E+02  0.19612210472E+02 -0.56451458553E+02  0.11313171024E+03  0.41800000000E+01 0. -1.
         -5    1    4    4    0  502  0.23116662203E+02 -0.41047248783E+02 -0.14278354968E+02  0.49402434400E+02  0.41800000000E+01 0. -1.
        -11    1    3    3    0    0  0.44765919973E+02  0.58220615087E+02  0.15612565503E+01  0.73457914034E+02  0.00000000000E+00 0.  1.
         11    1    3    3    0    0  0.28085670328E+02 -0.36785576776E+02 -0.83320010405E+01  0.47025586417E+02  0.00000000000E+00 0. -1.
</event>
<event>
 8    1  0.1790275E-005  0.1028608E+03  0.7561462E-02  0.1274393E+00
         -1   -1    0    0    0  501 -0.00000000000E+00  0.00000000000E+00  0.75722502599E+02  0.75722502599E+02  0.00000000000E+00 0.  1.
          1   -1    0    0  501    0  0.00000000000E+00 -0.00000000000E+00 -0.18037897724E+03  0.18037897724E+03  0.00000000000E+00 0. -1.
         23    2    1    2    0    0  0.17680074718E+02 -0.13012234170E+02 -0.78855067928E+01  0.96428500326E+02  0.93564796680E+02 0.  0.
         23    2    1    2    0    0 -0.17680074718E+02  0.13012234170E+02 -0.96770967850E+02  0.15967297951E+03  0.12509571091E+03 0.  0.
          5    1    4    4  502    0 -0.61159051029E+02 -0.11811257068E+02 -0.15826009853E+02  0.64403961867E+02  0.41800000000E+01 0. -1.
         -5    1    4    4    0  502  0.43478976311E+02  0.24823491238E+02 -0.80944957998E+02  0.95269017648E+02  0.41800000000E+01 0. -1.
        -11    1    3    3    0    0  0.54591927290E+01 -0.51952709782E+02 -0.16368381041E+02  0.54743134153E+02  0.00000000000E+00 0. -1.
         11    1    3    3    0    0  0.12220881989E+02  0.38940475612E+02  0.84828742485E+01  0.41685366174E+02  0.00000000000E+00 0.  1.
</event>
<event>
 7    1  0.1790275E-005  0.1300931E+03  0.7561462E-02  0.1227318E+00
          4   -1    0    0  501    0  0.00000000000E+00  0.00000000000E+00  0.60156425898E+03  0.60156425898E+03  0.00000000000E+00 0. -1.
         -4   -1    0    0    0  501 -0.00000000000E+00 -0.00000000000E+00 -0.31920523920E+02  0.31920523920E+02  0.00000000000E+00 0.  1.
         23    2    1    2    0    0 -0.70271426250E+02  0.35553888529E+02  0.19751716446E+03  0.23149587194E+03  0.91515879125E+02 0.  0.
          5    1    1    2  502    0  0.10265295256E+02 -0.72756615167E+02  0.25261712203E+03  0.26311933429E+03  0.41800000000E+01 0. -1.
         -5    1    1    2    0  502  0.60006130994E+02  0.37202726639E+02  0.11950944858E+03  0.13886957668E+03  0.41800000000E+01 0.  1.
        -11    1    3    3    0    0 -0.24573249802E+02 -0.28212062209E+02  0.35932485046E+02  0.51873967859E+02  0.00000000000E+00 0. -1.
         11    1    3    3    0    0 -0.45698176448E+02  0.63765950737E+02  0.16158467941E+03  0.17962190408E+03  0.00000000000E+00 0.  1.
</event>
<event>
 8    1  0.1790275E-005  0.9976294E+02  0.7561462E-02  0.1280795E+00
          1   -1    0    0  501    0  0.00000000000E+00  0.00000000000E+00  0.81271745084E+03  0.81271745084E+03  0.00000000000E+00 0. -1.
         -1   -1    0    0    0  501 -0.00000000000E+00 -0.00000000000E+00 -0.20706286120E+02  0.20706286120E+02  0.00000000000E+00 0.  1.
         23    2    1    2    0    0  0.66138565701E+02  0.21531870468E+02  0.31411241455E+03  0.33455215586E+03  0.91763852888E+02 0.  0.
         23    2    1    2    0    0 -0.66138565701E+02 -0.21531870468E+02  0.47789875017E+03  0.49887158110E+03  0.12509079781E+03 0.  0.
          5    1    4    4  502    0  0.17040199304E+02 -0.67074029678E+01  0.31279288714E+03  0.31335637905E+03  0.41800000000E+01 0. -1.
         -5    1    4    4    0  502 -0.83178765005E+02 -0.14824467500E+02  0.16510586304E+03  0.18551520205E+03  0.41800000000E+01 0. -1.
        -11    1    3    3    0    0  0.87119561538E+01  0.35908692663E+02  0.41412779901E+02  0.55500907451E+02  0.00000000000E+00 0.  1.
         11    1    3    3    0    0  0.57426609547E+02 -0.14376822195E+02  0.27269963464E+03  0.27905124840E+03  0.00000000000E+00 0. -1.
</event>
<event>
 8    1  0.1790275E-005  0.1088927E+03  0.7561462E-02  0.1262634E+00
          1   -1    0    0  501    0  0.00000000000E+00  0.00000000000E+00  0.15078097366E+03  0.15078097366E+03  0.00000000000E+00 0. -1.
         -1   -1    0    0    0  501 -0.00000000000E+00 -0.00000000000E+00 -0.19156882099E+03  0.19156882099E+03  0.00000000000E+00 0.  1.
         23    2    1    2    0    0 -0.71874065700E+02  0.16422684391E+02 -0.12552831119E+03  0.17422676173E+03  0.95718450203E+02 0.  0.
         23    2    1    2    0    0  0.71874065700E+02 -0.16422684391E+02  0.84740463861E+02  0.16812303292E+03  0.12509525211E+03 0.  0.
          5    1    4    4  502    0 -0.24973796337E+02  0.27556101602E+02  0.12413322138E+02  0.39428317305E+02  0.41800000000E+01 0.  1.
         -5    1    4    4    0  502  0.96847862037E+02 -0.43978785993E+02  0.72327141722E+02  0.12869471562E+03  0.41800000000E+01 0.  1.
        -11    1    3    3    0    0 -0.41192171166E+02  0.12077777048E+02 -0.13513079891E+03  0.14178505027E+03  0.00000000000E+00 0.  1.
         11    1    3    3    0    0 -0.30681894534E+02  0.43449073430E+01  0.96024877258E+01  0.32441711461E+02  0.00000000000E+00 0. -1.
</event>
<event>
 8    1  0.1790275E-005  0.8928740E+02  0.7561462E-02  0.1304587E+00
         -2   -1    0    0    0  501 -0.00000000000E+00  0.00000000000E+00  0.57375938277E+02  0.57375938277E+02  0.00000000000E+00 0. -1.
          2   -1    0    0  501    0  0.00000000000E+00 -0.00000000000E+00 -0.23298511979E+03  0.23298511979E+03  0.00000000000E+00 0.  1.
         23    2    1    2    0    0  0.37090642740E+02 -0.10418616471E+02 -0.55609650308E+02  0.11278718503E+03  0.90245512645E+02 0.  0.
         23    2    1    2    0    0 -0.37090642740E+02  0.10418616471E+02 -0.11999953120E+03  0.17757387303E+03  0.12509328338E+03 0.  0.
          5    1    4    4  502    0  0.19115108369E+02 -0.29571369271E+02 -0.99288517331E+02  0.10543023913E+03  0.41800000000E+01 0. -1.
         -5    1    4    4    0  502 -0.56205751109E+02  0.39989985743E+02 -0.20711013874E+02  0.72143633906E+02  0.41800000000E+01 0. -1.
        -11    1    3    3    0    0  0.44327594221E+02  0.15607967408E+02  0.41773670131E+01  0.47180447763E+02  0.00000000000E+00 0. -1.
         11    1    3    3    0    0 -0.72369514806E+01 -0.26026583879E+02 -0.59787017321E+02  0.65606737271E+02  0.00000000000E+00 0.  1.
</event>
<event>
 7    1  0.1790275E-005  0.1265178E+03  0.7561462E-02  0.1232716E+00
         -2   -1    0    0    0  501 -0.00000000000E+00  0.00000000000E+00  0.26028070482E+02  0.26028070482E+02  0.00000000000E+00 0.  1.
          2   -1    0    0  501    0  0.00000000000E+00 -0.00000000000E+00 -0.84409849666E+03  0.84409849666E+03  0.00000000000E+00 0. -1.
         23    2    1    2    0    0 -0.69257492893E+02  0.10877718537E+02 -0.17555190072E+03  0.20910789418E+03  0.89401993706E+02 0.  0.
          5    1    1    2  502    0  0.85230849040E+02  0.34619682287E+02 -0.53816399397E+03  0.54598605920E+03  0.41800000000E+01 0. -1.
         -5    1    1    2    0  502 -0.15973356147E+02 -0.45497400824E+02 -0.10435453149E+03  0.11503261377E+03  0.41800000000E+01 0.  1.
        -11    1    3    3    0    0 -0.87312547343E+02 -0.64122944853E+01 -0.14757365441E+03  0.17158840846E+03  0.00000000000E+00 0.  1.
         11    1    3    3    0    0  0.18055054450E+02  0.17290013023E+02 -0.27978246318E+02  0.37519485718E+02  0.00000000000E+00 0. -1.
</event>
<event>
 8    1  0.1790275E-005  0.9759387E+02  0.7561462E-02  0.1285439E+00
          1   -1    0    0  501    0  0.00000000000E+00  0.00000000000E+00  0.21053079946E+02  0.21053079946E+02  0.00000000000E+00 0. -1.
         -1   -1    0    0    0  501 -0.00000000000E+00 -0.00000000000E+00 -0.78458599104E+03  0.78458599104E+03  0.00000000000E+00 0.  1.
         23    2    1    2    0    0 -0.31634598976E+02 -0.61131919677E+02 -0.36918509252E+03  0.38623961209E+03  0.90252678340E+02 0.  0.
         23    2    1    2    0    0  0.31634598976E+02  0.61131919677E+02 -0.39434781858E+03  0.41939945890E+03  0.12509134526E+03 0.  0.
          5    1    4    4  502    0  0.38549851807E+02  0.21801416563E+02 -0.36952728420E+03  0.37219521626E+03  0.41800000000E+01 0. -1.
         -5    1    4    4    0  502 -0.69152528304E+01  0.39330503114E+02 -0.24820534373E+02  0.47204242642E+02  0.41800000000E+01 0. -1.
        -11    1    3    3    0    0 -0.57786091956E+02 -0.61511261836E+02 -0.31441595553E+03  0.32554609635E+03  0.00000000000E+00 0. -1.
         11    1    3    3    0    0  0.26151492980E+02  0.37934215898E+00 -0.54769136989E+02  0.60693515733E+02  0.00000000000E+00 0.  1.
</event>
<event>
 8    1  0.1790275E-005  0.1140192E+03  0.7561462E-02  0.1253303E+00
         -1   -1    0    0    0  501 -0.00000000000E+00  0.00000000000E+00  0.84011198095E+02  0.84011198095E+02  0.00000000000E+00 0.  1.
          1   -1    0    0  501    0  0.00000000000E+00 -0.00000000000E+00 -0.20614145106E+03  0.20614145106E+03  0.00000000000E+00 0. -1.
         23    2    1    2    0    0  0.34576256331E+02 -0.66878463924E+01  0.16496482230E+02  0.10014613967E+03  0.92286892746E+02 0.  0.
         23    2    1    2    0    0 -0.34576256331E+02  0.66878463924E+01 -0.13862673520E+03  0.19000650949E+03  0.12507940337E+03 0.  0.
          5    1    4    4  502    0 -0.60543496047E+02  0.50074584607E+02 -0.75811386849E+02  0.10926032085E+03  0.41800000000E+01 0.  1.
         -5    1    4    4    0  502  0.25967239716E+02 -0.43386738214E+02 -0.62815348351E+02  0.80746188639E+02  0.41800000000E+01 0.  1.
        -11    1    3    3    0    0  0.42992803642E+02  0.35406178206E+02  0.12097687327E+02  0.56994145829E+02  0.00000000000E+00 0.  1.
         11    1    3    3    0    0 -0.84165473102E+01 -0.42094024598E+02  0.43987949029E+01  0.43151993837E+02  0.00000000000E+00 0. -1.
</event>
<event>
 8    1  0.1790275E-005  0.1328397E+03  0.7561462E-02  0.1223302E+00
         -2   -1    0    0    0  501 -0.00000000000E+00  0.00000000000E+00  0.29066612342E+02  0.29066612342E+02  0.00000000000E+00 0.  1.
          2   -1    0    0  501    0  0.00000000000E+00 -0.00000000000E+00 -0.65988004505E+03  0.65988004505E+03  0.00000000000E+00 0. -1.
         23    2    1    2    0    0  0.75373909307E+02  0.26878746402E+02 -0.21515597431E+03  0.24755829839E+03  0.92678609236E+02 0.  0.
         23    2    1    2    0    0 -0.75373909307E+02 -0.26878746402E+02 -0.41565745840E+03  0.44138835900E+03  0.12509543367E+03 0.  0.
          5    1    4    4  502    0 -0.89210769946E+02  0.25801661443E+02 -0.23754657641E+03  0.25508848577E+03  0.41800000000E+01 0.  1.
         -5    1    4    4    0  502  0.13836860639E+02 -0.52680407845E+02 -0.17811088199E+03  0.18629987323E+03  0.41800000000E+01 0.  1.
        -11    1    3    3    0    0  0.90877549263E+02  0.38519121033E+02 -0.19971099231E+03  0.22277103065E+03  0.00000000000E+00 0. -1.
         11    1    3    3    0    0 -0.15503639956E+02 -0.11640374631E+02 -0.15444981997E+02  0.24787267746E+02  0.00000000000E+00 0.  1.
</event>
<event>
 8    1  0.1790275E-005  0.1064574E+03  0.7561462E-02  0.1267274E+00
         -1   -1    0    0    0  501 -0.00000000000E+00  0.00000000000E+00  0.23243613911E+02  0.23243613911E+02  0.00000000000E+00 0.  1.
          1   -1    0    0  501    0  0.00000000000E+00 -0.00000000000E+00 -0.80365179596E+03  0.80365179596E+03  0.00000000000E+00 0. -1.
         23    2    1    2    0    0  0.73007943484E+02 -0.37978033172E+02 -0.32041672067E+03  0.34314901378E+03  0.91169512200E+02 0.  0.
         23    2    1    2    0    0 -0.73007943484E+02  0.37978033172E+02 -0.45999146138E+03  0.48374639610E+03  0.12508373347E+03 0.  0.
          5    1    4    4  502    0 -0.69976164056E+02  0.46882250396E+02 -0.13894877612E+03  0.16253874530E+03  0.41800000000E+01 0.  1.
         -5    1    4    4    0  502 -0.30317794280E+01 -0.89042172239E+01 -0.32104268527E+03  0.32120765080E+03  0.41800000000E+01 0.  1.
        -11    1    3    3    0    0 -0.11012625418E+02 -0.32243656844E+02 -0.55066969197E+02  0.64755713430E+02  0.00000000000E+00 0.  1.
         11    1    3    3    0    0  0.84020568903E+02 -0.57343763282E+01 -0.26534975147E+03  0.27839330035E+03  0.00000000000E+00 0. -1.
</event>
<event>
 8    1  0.1790275E-005  0.1288417E+03  0.7561462E-02  0.1229185E+00
         -1   -1    0    0    0  501 -0.00000000000E+00  0.00000000000E+00  0.75053140804E+02  0.75053140804E+02  0.00000000000E+00 0.  1.
          1   -1    0    0  501    0  0.00000000000E+00 -0.00000000000E+00 -0.32842470099E+03  0.32842470099E+03  0.00000000000E+00 0. -1.
         23    2    1    2    0    0  0.11013918042E+03  0.21490113501E+02 -0.97953121750E+02  0.17458042125E+03  0.91055177679E+02 0.  0.
         23    2    1    2    0    0 -0.11013918042E+03 -0.21490113501E+02 -0.15541843843E+03  0.22889742054E+03  0.12508666628E+03 0.  0.
          5    1    4    4  502    0 -0.79004194866E+02 -0.31595446992E+02 -0.17348832480E+02  0.86938998530E+02  0.41800000000E+01 0. -1.
         -5    1    4    4    0  502 -0.31134985556E+02  0.10105333491E+02 -0.13806960595E+03  0.14195842201E+03  0.41800000000E+01 0. -1.
        -11    1    3    3    0    0  0.81420880520E+02 -0.24716215428E+02 -0.36732547331E+02  0.92679723366E+02  0.00000000000E+00 0.  1.
         11    1    3    3    0    0  0.28718299901E+02  0.46206328929E+02 -0.61220574418E+02  0.81900697887E+02  0.00000000000E+00 0. -1.
</event>
<event>
 8    1  0.1790275E-005  0.8815447E+02  0.7561462E-02  0.1307383E+00
          2   -1    0    0  501    0  0.00000000000E+00  0.00000000000E+00  0.20414859253E+04  0.20414859253E+04  0.00000000000E+00 0. -1.
         -2   -1    0    0    0  501 -0.00000000000E+00 -0.00000000000E+00 -0.12558308796E+02  0.12558308796E+02  0.00000000000E+00 0.  1.
         23    2    1    2    0    0 -0.11983930657E+02 -0.10907059316E+02  0.19650649356E+03  0.21728767185E+03  0.91304719429E+02 0.  0.
         23    2    1    2    0    0  0.11983930657E+02  0.10907059316E+02  0.18324211229E+04  0.18367565622E+04  0.12507964906E+03 0.  0.
          5    1    4    4  502    0  0.90218354604E+01  0.57072029303E+02  0.47187588834E+03  0.47541869593E+03  0.41800000000E+01 0.  1.
         -5    1    4    4    0  502  0.29620951969E+01 -0.46164969987E+02  0.13605452346E+04  0.13613378663E+04  0.41800000000E+01 0.  1.
        -11    1    3    3    0    0  0.36143371622E+01  0.28925836572E+02  0.19228419039E+02  0.34921333784E+02  0.00000000000E+00 0.  1.
         11    1    3    3    0    0 -0.15598267819E+02 -0.39832895888E+02  0.17727807452E+03  0.18236633807E+03  0.00000000000E+00 0. -1.
</event>
<event>
 8    1  0.2719627E-005  0.1244201E+03  0.7561462E-02  0.1235978E+00
          1   -1    0    0  501    0  0.00000000000E+00  0.00000000000E+00  0.33491854615E+03  0.33491854615E+03  0.00000000000E+00 0. -1.
         -1   -1    0    0    0  501 -0.00000000000E+00 -0.00000000000E+00 -0.70306438740E+02  0.70306438740E+02  0.00000000000E+00 0.  1.
         23    2    1    2    0    0  0.14003592402E+02  0.97843255161E+02  0.65178314287E+02  0.14990000673E+03  0.91936914145E+02 0.  0.
         23    2    1    2    0    0 -0.14003592402E+02 -0.97843255161E+02  0.19943379312E+03  0.25532497817E+03  0.12509038114E+03 0.  0.
          5    1    4    4  502    0  0.30506415358E+02 -0.99277369395E+02  0.91456567002E+02  0.13845003973E+03  0.41800000000E+01 0.  1.
         -5    1    4    4    0  502 -0.44510007760E+02  0.14341142341E+01  0.10797722612E+03  0.11687493844E+03  0.41800000000E+01 0.  1.
        -11    1    3    3    0    0 -0.11950961826E+01  0.49012169818E+02  0.82446113246E+02  0.95921752666E+02  0.00000000000E+00 0. -1.
         11    1    3    3    0    0  0.15198688585E+02  0.48831085344E+02 -0.17267798959E+02  0.53978254060E+02  0.00000000000E+00 0.  1.
</event>
<event>
 8    1  0.1790275E-005  0.9674033E+02  0.7561462E-02  0.1287304E+00
          4   -1    0    0  501    0  0.00000000000E+00  0.00000000000E+00  0.12549231360E+03  0.12549231360E+03  0.00000000000E+00 0. -1.
         -4   -1    0    0    0  501 -0.00000000000E+00 -0.00000000000E+00 -0.14901142819E+03  0.14901142819E+03  0.00000000000E+00 0.  1.
         23    2    1    2    0    0 -0.53965949801E+02 -0.44150934899E+02 -0.52987757345E+02  0.12828492180E+03  0.93742679411E+02 0.  0.
         23    2    1    2    0    0  0.53965949801E+02  0.44150934899E+02  0.29468642751E+02  0.14621881998E+03  0.12509961479E+03 0.  0.
          5    1    4    4  502    0  0.51601449483E+02  0.22576261417E+02  0.76009670618E+02  0.94696037909E+02  0.41800000000E+01 0.  1.
         -5    1    4    4    0  502  0.23645003182E+01  0.21574673482E+02 -0.46541027867E+02  0.51522782073E+02  0.41800000000E+01 0.  1.
        -11    1    3    3    0    0 -0.48479275917E+02  0.18587987678E+02 -0.12465323053E+02  0.53396046278E+02  0.00000000000E+00 0.  1.
         11    1    3    3    0    0 -0.54866738845E+01 -0.62738922577E+02 -0.40522434292E+02  0.74888875525E+02  0.00000000000E+00 0. -1.
</event>
<event>
 8    1  0.1790275E-005  0.1322974E+03  0.7561462E-02  0.1224086E+00
          3   -1    0    0  501    0  0.00000000000E+00  0.00000000000E+00  0.51440254434E+02  0.51440254434E+02  0.00000000000E+00 0. -1.
         -3   -1    0    0    0  501 -0.00000000000E+00 -0.00000000000E+00 -0.84355867897E+03  0.84355867897E+03  0.00000000000E+00 0.  1.
         23    2    1    2    0    0 -0.82941066267E+02  0.74908751913E+02 -0.67559261556E+03  0.69075314749E+03  0.90686200595E+02 0.  0.
         23    2    1    2    0    0  0.82941066267E+02 -0.74908751913E+02 -0.11652580897E+03  0.20424578591E+03  0.12509010880E+03 0.  0.
          5    1    4    4  502    0 -0.86551448999E+00  0.73279476082E+01 -0.81084367104E+02  0.81526651594E+02  0.41800000000E+01 0. -1.
         -5    1    4    4    0  502  0.83806580757E+02 -0.82236699521E+02 -0.35441441869E+02  0.12271913432E+03  0.41800000000E+01 0. -1.
        -11    1    3    3    0    0  0.12709583630E+02  0.30748571332E+02 -0.94466316891E+02  0.10015434680E+03  0.00000000000E+00 0. -1.
         11    1    3    3    0    0 -0.95650649898E+02  0.44160180581E+02 -0.58112629867E+03  0.59059880069E+03  0.00000000000E+00 0.  1.
</event>
<event>
 8    1  0.1790275E-005  0.1203498E+03  0.7561462E-02  0.1242521E+00
          1   -1    0    0  501    0  0.00000000000E+00  0.00000000000E+00  0.71573474167E+03  0.71573474167E+03  0.00000000000E+00 0. -1.
         -1   -1    0    0    0  501 -0.00000000000E+00 -0.00000000000E+00 -0.32950893935E+02  0.32950893935E+02  0.00000000000E+00 0.  1.
         23    2    1    2    0    0  0.95235817645E+02  0.16818200321E+02  0.19391298109E+03  0.23488198454E+03  0.90634373174E+02 0.  0.
         23    2    1    2    0    0 -0.95235817645E+02 -0.16818200321E+02  0.48887086665E+03  0.51380365107E+03  0.12508698882E+03 0.  0.
          5    1    4    4  502    0 -0.10387243336E+03  0.16866880679E+02  0.23489388509E+03  0.25742296659E+03  0.41800000000E+01 0.  1.
         -5    1    4    4    0  502  0.86366157144E+01 -0.33685081000E+02  0.25397698155E+03  0.25638068447E+03  0.41800000000E+01 0.  1.
        -11    1    3    3    0    0  0.58071678841E+02 -0.31743320616E+01  0.18194979234E+03  0.19101864621E+03  0.00000000000E+00 0. -1.
         11    1    3    3    0    0  0.37164138803E+02  0.19992532382E+02  0.11963188749E+02  0.43863338326E+02  0.00000000000E+00 0.  1.
</event>
<event>
 8    1  0.1790275E-005  0.6738924E+02  0.7561462E-02  0.1369203E+00
          2   -1    0    0  501    0  0.00000000000E+00  0.00000000000E+00  0.30004395133E+03  0.30004395133E+03  0.00000000000E+00 0.  1.
         -2   -1    0    0    0  501 -0.00000000000E+00 -0.00000000000E+00 -0.38535010786E+02  0.38535010786E+02  0.00000000000E+00 0. -1.
         23    2    1    2    0    0  0.85589103689E+01  0.57192413994E+01  0.13399477852E+03  0.15965551356E+03  0.86193489725E+02 0.  0.
         23    2    1    2    0    0 -0.85589103689E+01 -0.57192413994E+01  0.12751416202E+03  0.17892344855E+03  0.12509106386E+03 0.  0.
          5    1    4    4  502    0  0.17606501877E+02  0.17935764732E+02 -0.16657613928E+02  0.30440582561E+02  0.41800000000E+01 0.  1.
         -5    1    4    4    0  502 -0.26165412246E+02 -0.23655006131E+02  0.14417177595E+03  0.14848286599E+03  0.41800000000E+01 0.  1.
        -11    1    3    3    0    0 -0.29539363423E+02 -0.11847863613E+02  0.18582407253E+02  0.36854466798E+02  0.00000000000E+00 0. -1.
         11    1    3    3    0    0  0.38098273792E+02  0.17567105013E+02  0.11541237127E+03  0.12280104677E+03  0.00000000000E+00 0.  1.
</event>
<event>
 8    1  0.1790275E-005  0.1875564E+03  0.7561462E-02  0.1160684E+00
          1   -1    0    0  501    0  0.00000000000E+00  0.00000000000E+00  0.21330905986E+03  0.21330905986E+03  0.00000000000E+00 0. -1.
         -1   -1    0    0    0  501 -0.00000000000E+00 -0.00000000000E+00 -0.27152821356E+03  0.27152821356E+03  0.00000000000E+00 0.  1.
         23    2    1    2    0    0 -0.15672117170E+03  0.64903201566E+02 -0.16003192482E+03  0.25077073642E+03  0.92205173657E+02 0.  0.
         23    2    1    2    0    0  0.15672117170E+03 -0.64903201566E+02  0.10181277112E+03  0.23406653700E+03  0.12508937663E+03 0.  0.
          5    1    4    4  502    0 -0.53062680519E+01 -0.34423227079E+02  0.50227331342E+02  0.61264771745E+02  0.41800000000E+01 0.  1.
         -5    1    4    4    0  502  0.16202743975E+03 -0.30479974487E+02  0.51585439782E+02  0.17280176526E+03  0.41800000000E+01 0.  1.
        -11    1    3    3    0    0 -0.76171432945E+02  0.82153967406E+01 -0.12425741508E+03  0.14597768714E+03  0.00000000000E+00 0. -1.
         11    1    3    3    0    0 -0.80549738757E+02  0.56687804826E+02 -0.35774509740E+02  0.10479304928E+03  0.00000000000E+00 0.  1.
</event>
<event>
 8    1  0.1790275E-005  0.1113636E+03  0.7561462E-02  0.1258065E+00
          2   -1    0    0  501    0  0.00000000000E+00  0.00000000000E+00  0.11093032275E+03  0.11093032275E+03  0.00000000000E+00 0. -1.
         -2   -1    0    0    0  501 -0.00000000000E+00 -0.00000000000E+00 -0.12193920186E+03  0.12193920186E+03  0.00000000000E+00 0.  1.
         23    2    1    2    0    0 -0.65217116655E+02  0.10098007123E+02 -0.19396019176E+02  0.91190715036E+02  0.59869014492E+02 0.  0.
         23    2    1    2    0    0  0.65217116655E+02 -0.10098007123E+02  0.83871400643E+01  0.14167880957E+03  0.12508916384E+03 0.  0.
          5    1    4    4  502    0 -0.32077456842E+02  0.15117218213E+02  0.19134679990E+02  0.40510515947E+02  0.41800000000E+01 0.  1.
         -5    1    4    4    0  502  0.97294573497E+02 -0.25215225337E+02 -0.10747539926E+02  0.10116829363E+03  0.41800000000E+01 0.  1.
        -11    1    3    3    0    0 -0.57112907157E+02 -0.15824797187E+02 -0.27354804842E+01  0.59327828407E+02  0.00000000000E+00 0.  1.
         11    1    3    3    0    0 -0.81042094980E+01  0.25922804310E+02 -0.16660538692E+02  0.31862886630E+02  0.00000000000E+00 0. -1.
</event>
<event>
 8    1  0.1790275E-005  0.1190149E+03  0.7561462E-02  0.1244731E+00
          2   -1    0    0  501    0  0.00000000000E+00  0.00000000000E+00  0.45433855130E+03  0.45433855130E+03  0.00000000000E+00 0. -1.
         -2   -1    0    0    0  501 -0.00000000000E+00 -0.00000000000E+00 -0.43542130515E+02  0.43542130515E+02  0.00000000000E+00 0.  1.
         23    2    1    2    0    0  0.46566840419E+02 -0.60572546900E+02  0.74787077046E+02  0.13129056478E+03  0.76201059324E+02 0.  0.
         23    2    1    2    0    0 -0.46566840419E+02  0.60572546900E+02  0.33600934374E+03  0.36659011703E+03  0.12509408765E+03 0.  0.
          5    1    4    4  502    0 -0.70335353572E+02  0.79829682369E+02  0.19435819348E+03  0.22161322145E+03  0.41800000000E+01 0.  1.
         -5    1    4    4    0  502  0.23768513153E+02 -0.19257135469E+02  0.14165115026E+03  0.14497689559E+03  0.41800000000E+01 0.  1.
        -11    1    3    3    0    0  0.60619685291E+02 -0.31336478181E+02  0.26683246473E+02  0.73271527566E+02  0.00000000000E+00 0.  1.
         11    1    3    3    0    0 -0.14052844872E+02 -0.29236068719E+02  0.48103830573E+02  0.58019037212E+02  0.00000000000E+00 0. -1.
</event>
<event>
 8    1  0.1790275E-005  0.1005455E+03  0.7561462E-02  0.1279153E+00
         -1   -1    0    0    0  501 -0.00000000000E+00  0.00000000000E+00  0.16974036097E+02  0.16974036097E+02  0.00000000000E+00 0.  1.
          1   -1    0    0  501    0  0.00000000000E+00 -0.00000000000E+00 -0.11072919792E+04  0.11072919792E+04  0.00000000000E+00 0. -1.
         23    2    1    2    0    0  0.13181493183E+02  0.34739284587E+02 -0.18917950756E+03  0.21414499521E+03  0.93212784736E+02 0.  0.
         23    2    1    2    0    0 -0.13181493183E+02 -0.34739284587E+02 -0.90113843558E+03  0.91012102012E+03  0.12202139783E+03 0.  0.
          5    1    4    4  502    0 -0.27537938776E+02  0.40035523537E+02 -0.44341437811E+03  0.44608851625E+03  0.41800000000E+01 0. -1.
         -5    1    4    4    0  502  0.14356445593E+02 -0.74774808124E+02 -0.45772405747E+03  0.46403250387E+03  0.41800000000E+01 0.  1.
        -11    1    3    3    0    0 -0.24871398757E+02  0.50211659362E+00 -0.14318075625E+03  0.14532572917E+03  0.00000000000E+00 0. -1.
         11    1    3    3    0    0  0.38052891939E+02  0.34237167993E+02 -0.45998751305E+02  0.68819266043E+02  0.00000000000E+00 0.  1.
</event>
<event>
 8    1  0.1790275E-005  0.7164206E+02  0.7561462E-02  0.1354597E+00
         -2   -1    0    0    0  501 -0.00000000000E+00  0.00000000000E+00  0.55276625767E+02  0.55276625767E+02  0.00000000000E+00 0.  1.
          2   -1    0    0  501    0  0.00000000000E+00 -0.00000000000E+00 -0.26769493959E+03  0.26769493959E+03  0.00000000000E+00 0. -1.
         23    2    1    2    0    0  0.13277495908E+02 -0.10871355838E+02 -0.23740446712E+02  0.95940886726E+02  0.91359546082E+02 0.  0.
         23    2    1    2    0    0 -0.13277495908E+02  0.10871355838E+02 -0.18867786711E+03  0.22703067863E+03  0.12509641572E+03 0.  0.
          5    1    4    4  502    0 -0.48711110213E+02  0.41618542982E+02 -0.15871024970E+03  0.17120540628E+03  0.41800000000E+01 0. -1.
         -5    1    4    4    0  502  0.35433614306E+02 -0.30747187144E+02 -0.29967617404E+02  0.55825272349E+02  0.41800000000E+01 0. -1.
        -11    1    3    3    0    0  0.17919976127E+02  0.22496031576E+01 -0.57049980746E+02  0.59840509372E+02  0.00000000000E+00 0. -1.
         11    1    3    3    0    0 -0.46424802197E+01 -0.13120958995E+02  0.33309534034E+02  0.36100377354E+02  0.00000000000E+00 0.  1.
</event>
<event>
 8    1  0.1790275E-005  0.1605325E+03  0.7561462E-02  0.1188097E+00
          2   -1    0    0  501    0  0.00000000000E+00  0.00000000000E+00  0.53106628263E+02  0.53106628263E+02  0.00000000000E+00 0. -1.
         -2   -1    0    0    0  501 -0.00000000000E+00 -0.00000000000E+00 -0.55119740217E+03  0.55119740217E+03  0.00000000000E+00 0.  1.
         23    2    1    2    0    0 -0.75014343902E+02  0.10803324170E+03 -0.25542683069E+03  0.30126656613E+03  0.90666117851E+02 0.  0.
         23    2    1    2    0    0  0.75014343902E+02 -0.10803324170E+03 -0.24266394322E+03  0.30303746431E+03  0.12509029672E+03 0.  0.
          5    1    4    4  502    0  0.79027669108E+02 -0.26067160966E+02 -0.59797648315E+02  0.10255779107E+03  0.41800000000E+01 0. -1.
         -5    1    4    4    0  502 -0.40133252066E+01 -0.81966080730E+02 -0.18286629490E+03  0.20047967324E+03  0.41800000000E+01 0. -1.
        -11    1    3    3    0    0 -0.50546228713E+02  0.62977492943E+01 -0.11811421215E+03  0.12862950670E+03  0.00000000000E+00 0.  1.
         11    1    3    3    0    0 -0.24468115189E+02  0.10173549240E+03 -0.13731261854E+03  0.17263705942E+03  0.00000000000E+00 0. -1.
</event>
<event>
 8    1  0.1790275E-005  0.1394135E+03  0.7561462E-02  0.1214120E+00
          2   -1    0    0  501    0  0.00000000000E+00  0.00000000000E+00  0.40006260533E+03  0.40006260533E+03  0.00000000000E+00 0. -1.
         -2   -1    0    0    0  501 -0.00000000000E+00 -0.00000000000E+00 -0.77522268880E+02  0.77522268880E+02  0.00000000000E+00 0.  1.
         23    2    1    2    0    0  0.59703536642E+02  0.71311840753E+02  0.11376850643E+02  0.13014209944E+03  0.90319667825E+02 0.  0.
         23    2    1    2    0    0 -0.59703536642E+02 -0.71311840753E+02  0.31116348580E+03  0.34744277477E+03  0.12346609220E+03 0.  0.
          5    1    4    4  502    0 -0.90980840855E+02 -0.24973664490E+02  0.23157580241E+03  0.25009202702E+03  0.41800000000E+01 0. -1.
         -5    1    4    4    0  502  0.31277304214E+02 -0.46338176263E+02  0.79587683399E+02  0.97350747748E+02  0.41800000000E+01 0.  1.
        -11    1    3    3    0    0  0.69120658691E+01  0.75082694798E+02  0.15778431724E+02  0.77033412364E+02  0.00000000000E+00 0. -1.
         11    1    3    3    0    0  0.52791470773E+02 -0.37708540450E+01 -0.44015810810E+01  0.53108687073E+02  0.00000000000E+00 0.  1.
</event>
<event>
 8    1  0.1790275E-005  0.8054640E+02  0.7561462E-02  0.1327508E+00
         -2   -1    0    0    0  501 -0.00000000000E+00  0.00000000000E+00  0.99690172850E+02  0.99690172850E+02  0.00000000000E+00 0.  1.
          2   -1    0    0  501    0  0.00000000000E+00 -0.00000000000E+00 -0.15140169146E+03  0.15140169146E+03  0.00000000000E+00 0. -1.
         23    2    1    2    0    0  0.17148416243E+02 -0.13865582347E+02  0.31206673541E+02  0.99399398519E+02  0.91760892536E+02 0.  0.
         23    2    1    2    0    0 -0.17148416243E+02  0.13865582347E+02 -0.82918192150E+02  0.15169246579E+03  0.12509538375E+03 0.  0.
          5    1    4    4  502    0  0.42112162810E+02  0.33139325249E+02 -0.69415999559E+02  0.87793522137E+02  0.41800000000E+01 0. -1.
         -5    1    4    4    0  502 -0.59260579053E+02 -0.19273742901E+02 -0.13502192591E+02  0.63898943652E+02  0.41800000000E+01 0. -1.
        -11    1    3    3    0    0 -0.55950897296E+01  0.10287304145E+02  0.56487831900E+02  0.57688896751E+02  0.00000000000E+00 0.  1.
         11    1    3    3    0    0  0.22743505972E+02 -0.24152886492E+02 -0.25281158359E+02  0.41710501768E+02  0.00000000000E+00 0. -1.
</event>
<event>
 8    1  0.1790275E-005  0.1050445E+03  0.7561462E-02  0.1270032E+00
         -2   -1    0    0    0  501 -0.00000000000E+00  0.00000000000E+00  0.18680363650E+03  0.18680363650E+03  0.00000000000E+00 0. -1.
          2   -1    0    0  501    0  0.00000000000E+00 -0.00000000000E+00 -0.61958155926E+02  0.61958155926E+02  0.00000000000E+00 0.  1.
         23    2    1    2    0    0  0.48503572146E+01  0.16187432108E+02  0.69983190372E+02  0.11112778225E+03  0.84653281858E+02 0.  0.
         23    2    1    2    0    0 -0.48503572146E+01 -0.16187432108E+02  0.54862290199E+02  0.13763401018E+03  0.12509073086E+03 0.  0.
          5    1    4    4  502    0 -0.43431538454E+02  0.37492424031E+02  0.12085013125E+02  0.58783503932E+02  0.41800000000E+01 0. -1.
         -5    1    4    4    0  502  0.38581181240E+02 -0.53679856139E+02  0.42777277074E+02  0.78850506244E+02  0.41800000000E+01 0. -1.
        -11    1    3    3    0    0 -0.22508170043E+02 -0.27029603662E+02  0.28707893340E+02  0.45402206255E+02  0.00000000000E+00 0.  1.
         11    1    3    3    0    0  0.27358527258E+02  0.43217035770E+02  0.41275297032E+02  0.65725575993E+02  0.00000000000E+00 0. -1.
</event>
<event>
 8    1  0.1790275E-005  0.1224410E+03  0.7561462E-02  0.1239124E+00
         -1   -1    0    0    0  501 -0.00000000000E+00  0.00000000000E+00  0.48979536123E+02  0.48979536123E+02  0.00000000000E+00 0.  1.
          1   -1    0    0  501    0  0.00000000000E+00 -0.00000000000E+00 -0.42524349237E+03  0.42524349237E+03  0.00000000000E+00 0. -1.
         23    2    1    2    0    0  0.41086402660E+02 -0.81065056198E+02 -0.21146424009E+03  0.24828842321E+03  0.93114877678E+02 0.  0.
         23    2    1    2    0    0 -0.41086402660E+02  0.81065056198E+02 -0.16479971616E+03  0.22593460528E+03  0.12501145387E+03 0.  0.
          5    1    4    4  502    0  0.16038552766E+02 -0.25198490099E+02 -0.15417560524E+02  0.33872889612E+02  0.41800000000E+01 0.  1.
         -5    1    4    4    0  502 -0.57124955427E+02  0.10626354630E+03 -0.14938215564E+03  0.19206171567E+03  0.41800000000E+01 0.  1.
        -11    1    3    3    0    0  0.13770716190E+02 -0.53317812094E+02 -0.20037409332E+03  0.20780326991E+03  0.00000000000E+00 0. -1.
         11    1    3    3    0    0  0.27315686470E+02 -0.27747244103E+02 -0.11090146768E+02  0.40485153303E+02  0.00000000000E+00 0.  1.
</event>
<event>
 8    1  0.1790275E-005  0.1094888E+03  0.7561462E-02  0.1261520E+00
         -1   -1    0    0    0  501 -0.00000000000E+00  0.00000000000E+00  0.10934377267E+03  0.10934377267E+03  0.00000000000E+00 0.  1.
          1   -1    0    0  501    0  0.00000000000E+00 -0.00000000000E+00 -0.15452129816E+03  0.15452129816E+03  0.00000000000E+00 0. -1.
         23    2    1    2    0    0  0.56805338367E+02  0.42533374053E+02 -0.24042389063E+02  0.11853620848E+03  0.91852391775E+02 0.  0.
         23    2    1    2    0    0 -0.56805338367E+02 -0.42533374053E+02 -0.21135136426E+02  0.14532886234E+03  0.12505138889E+03 0.  0.
          5    1    4    4  502    0 -0.66343699505E+02  0.21360410829E+02 -0.36508663202E+02  0.78791550966E+02  0.41800000000E+01 0.  1.
         -5    1    4    4    0  502  0.95383611385E+01 -0.63893784882E+02  0.15373526776E+02  0.66537311377E+02  0.41800000000E+01 0.  1.
        -11    1    3    3    0    0  0.17352448814E+02  0.41466080079E+02  0.28198157090E+02  0.53062975230E+02  0.00000000000E+00 0.  1.
         11    1    3    3    0    0  0.39452889553E+02  0.10672939736E+01 -0.52240546153E+02  0.65473233255E+02  0.00000000000E+00 0. -1.
</event>
<event>
 8    1  0.1790275E-005  0.8998678E+02  0.7561462E-02  0.1302884E+00
          1   -1    0    0  501    0  0.00000000000E+00  0.00000000000E+00  0.55417256084E+02  0.55417256084E+02  0.00000000000E+00 0. -1.
         -1   -1    0    0    0  501 -0.00000000000E+00 -0.00000000000E+00 -0.33131269295E+03  0.33131269295E+03  0.00000000000E+00 0.  1.
         23    2    1    2    0    0  0.71239670832E+00 -0.25461375351E+02 -0.23573931963E+03  0.25290695559E+03  0.87977907598E+02 0.  0.
         23    2    1    2    0    0 -0.71239670832E+00  0.25461375351E+02 -0.40156117237E+02  0.13382299344E+03  0.12508913093E+03 0.  0.
          5    1    4    4  502    0  0.50604472631E+02  0.28889439861E+01 -0.55769491645E+02  0.75477594331E+02  0.41800000000E+01 0. -1.
         -5    1    4    4    0  502 -0.51316869339E+02  0.22572431365E+02  0.15613374408E+02  0.58345399107E+02  0.41800000000E+01 0. -1.
        -11    1    3    3    0    0  0.18471156139E+02 -0.43698468410E+02 -0.21470978977E+03  0.21988868450E+03  0.00000000000E+00 0.  1.
         11    1    3    3    0    0 -0.17758759430E+02  0.18237093059E+02 -0.21029529862E+02  0.33018271093E+02  0.00000000000E+00 0. -1.
</event>
<event>
 7    1  0.1790275E-005  0.1501826E+03  0.7561462E-02  0.1200249E+00
         -3   -1    0    0    0  501 -0.00000000000E+00  0.00000000000E+00  0.20996808747E+02  0.20996808747E+02  0.00000000000E+00 0.  1.
          3   -1    0    0  501    0  0.00000000000E+00 -0.00000000000E+00 -0.13687122515E+04  0.13687122515E+04  0.00000000000E+00 0. -1.
         23    2    1    2    0    0  0.90344889410E+02  0.28616971162E+02 -0.56282573521E+03  0.58233597086E+03  0.11559085023E+03 0.  0.
          5    1    1    2  502    0 -0.97197805795E+02 -0.62990436085E+02 -0.74560713019E+03  0.75456124568E+03  0.41800000000E+01 0. -1.
         -5    1    1    2    0  502  0.68529163852E+01  0.34373464923E+02 -0.39282577387E+02  0.52811843747E+02  0.41800000000E+01 0.  1.
        -11    1    3    3    0    0  0.98815174220E+02  0.60710435787E+02 -0.42143595840E+03  0.43710234808E+03  0.00000000000E+00 0.  1.
         11    1    3    3    0    0 -0.84702848097E+01 -0.32093464625E+02 -0.14138977681E+03  0.14523362277E+03  0.00000000000E+00 0. -1.
</event>
<event>
 8    1  0.1790275E-005  0.1888310E+03  0.7561462E-02  0.1159520E+00
          1   -1    0    0  501    0  0.00000000000E+00  0.00000000000E+00  0.21922067275E+03  0.21922067275E+03  0.00000000000E+00 0. -1.
         -1   -1    0    0    0  501 -0.00000000000E+00 -0.00000000000E+00 -0.32876073666E+03  0.32876073666E+03  0.00000000000E+00 0.  1.
         23    2    1    2    0    0 -0.15421649408E+03 -0.38033680395E+02 -0.24417812973E+03  0.30508064431E+03  0.90674983316E+02 0.  0.
         23    2    1    2    0    0  0.15421649408E+03  0.38033680395E+02  0.13463806583E+03  0.24290076511E+03  0.12507631682E+03 0.  0.
          5    1    4    4  502    0  0.16701334109E+03  0.53494574916E+02  0.98057392257E+02  0.20096728645E+03  0.41800000000E+01 0.  1.
         -5    1    4    4    0  502 -0.12796847013E+02 -0.15460894521E+02  0.36580673573E+02  0.41933478652E+02  0.41800000000E+01 0.  1.
        -11    1    3    3    0    0 -0.96273013099E+02 -0.66672605850E+02 -0.17330090363E+03  0.20915767407E+03  0.00000000000E+00 0. -1.
         11    1    3    3    0    0 -0.57943480980E+02  0.28638925455E+02 -0.70877226104E+02  0.95922970239E+02  0.00000000000E+00 0.  1.
</event>
<event>
 8    1  0.1790275E-005  0.9267889E+02  0.7561462E-02  0.1296491E+00
         -1   -1    0    0    0  501 -0.00000000000E+00  0.00000000000E+00  0.10860676963E+03  0.10860676963E+03  0.00000000000E+00 0.  1.
          1   -1    0    0  501    0  0.00000000000E+00 -0.00000000000E+00 -0.12234477577E+03  0.12234477577E+03  0.00000000000E+00 0. -1.
         23    2    1    2    0    0 -0.21154516360E+02  0.23764136809E+02  0.17583253249E+02  0.98135937171E+02  0.91155052569E+02 0.  0.
         23    2    1    2    0    0  0.21154516360E+02 -0.23764136809E+02 -0.31321259379E+02  0.13281560823E+03  0.12508683680E+03 0.  0.
          5    1    4    4  502    0  0.59897039448E+02  0.23831383184E+02 -0.30157928028E+02  0.71292097613E+02  0.41800000000E+01 0. -1.
         -5    1    4    4    0  502 -0.38742523089E+02 -0.47595519994E+02 -0.11633313514E+01  0.61523510617E+02  0.41800000000E+01 0. -1.
        -11    1    3    3    0    0  0.11871718054E+02 -0.72747463696E+01  0.43674165649E+02  0.45839855688E+02  0.00000000000E+00 0.  1.
         11    1    3    3    0    0 -0.33026234414E+02  0.31038883179E+02 -0.26090912401E+02  0.52296081483E+02  0.00000000000E+00 0. -1.
</event>
<event>
 7    1  0.1790275E-005  0.1714539E+03  0.7561462E-02  0.1176340E+00
          1   -1    0    0  501    0  0.00000000000E+00  0.00000000000E+00  0.29034370310E+04  0.29034370310E+04  0.00000000000E+00 0. -1.
         -1   -1    0    0    0  501 -0.00000000000E+00 -0.00000000000E+00 -0.32391249311E+02  0.32391249311E+02  0.00000000000E+00 0.  1.
         23    2    1    2    0    0  0.21374300563E+02  0.50419948701E+02  0.68855979755E+02  0.12312871494E+03  0.86142338848E+02 0.  0.
          5    1    1    2  502    0  0.10259717335E+03  0.95954930803E+01  0.13807906610E+04  0.13846366221E+04  0.41800000000E+01 0. -1.
         -5    1    1    2    0  502 -0.12397147391E+03 -0.60015441781E+02  0.14213991409E+04  0.14280629432E+04  0.41800000000E+01 0.  1.
        -11    1    3    3    0    0 -0.20646726107E+02  0.55911648269E+02  0.42859397256E+02  0.73412040186E+02  0.00000000000E+00 0.  1.
         11    1    3    3    0    0  0.42021026670E+02 -0.54916995681E+01  0.25996582499E+02  0.49716674750E+02  0.00000000000E+00 0. -1.
</event>
<event>
 8    1  0.1790275E-005  0.1318870E+03  0.7561462E-02  0.1224682E+00
         -1   -1    0    0    0  501 -0.00000000000E+00  0.00000000000E+00  0.23766517784E+02  0.23766517784E+02  0.00000000000E+00 0.  1.
          1   -1    0    0  501    0  0.00000000000E+00 -0.00000000000E+00 -0.11549606212E+04  0.11549606212E+04  0.00000000000E+00 0. -1.
         23    2    1    2    0    0  0.83595550859E+02 -0.15048537563E+02 -0.19029406364E+03  0.22747164499E+03  0.91196732464E+02 0.  0.
         23    2    1    2    0    0 -0.83595550859E+02  0.15048537563E+02 -0.94090003978E+03  0.95125549399E+03  0.11126300101E+03 0.  0.
          5    1    4    4  502    0 -0.89113479780E+02  0.50853290885E+02 -0.73708687186E+03  0.74420548140E+03  0.41800000000E+01 0. -1.
         -5    1    4    4    0  502  0.55179289201E+01 -0.35804753322E+02 -0.20381316791E+03  0.20705001259E+03  0.41800000000E+01 0.  1.
        -11    1    3    3    0    0  0.82520718663E+02 -0.45442504306E+02 -0.14281402215E+03  0.17108633823E+03  0.00000000000E+00 0.  1.
         11    1    3    3    0    0  0.10748321963E+01  0.30393966744E+02 -0.47480041488E+02  0.56385306760E+02  0.00000000000E+00 0. -1.
</event>
<event>
 8    1  0.1790275E-005  0.1234254E+03  0.7561462E-02  0.1237551E+00
         -2   -1    0    0    0  501 -0.00000000000E+00  0.00000000000E+00  0.39143777836E+03  0.39143777836E+03  0.00000000000E+00 0. -1.
          2   -1    0    0  501    0  0.00000000000E+00 -0.00000000000E+00 -0.46003103521E+02  0.46003103521E+02  0.00000000000E+00 0.  1.
         23    2    1    2    0    0 -0.72872133090E+02  0.15716603284E+02  0.19750372571E+03  0.22986278980E+03  0.90949552309E+02 0.  0.
         23    2    1    2    0    0  0.72872133090E+02 -0.15716603284E+02  0.14793094913E+03  0.20757809208E+03  0.12509092374E+03 0.  0.
          5    1    4    4  502    0  0.10725441480E+03 -0.71710904057E+01  0.93673162210E+02  0.14264314828E+03  0.41800000000E+01 0.  1.
         -5    1    4    4    0  502 -0.34382281708E+02 -0.85455128787E+01  0.54257786916E+02  0.64934943804E+02  0.41800000000E+01 0.  1.
        -11    1    3    3    0    0  0.12330374937E+02 -0.85571247616E+01  0.18961402358E+01  0.15128049381E+02  0.00000000000E+00 0.  1.
         11    1    3    3    0    0 -0.85202508028E+02  0.24273728046E+02  0.19560758548E+03  0.21473474042E+03  0.00000000000E+00 0. -1.
</event>
<event>
 8    1  0.1790275E-005  0.9107332E+02  0.7561462E-02  0.1300273E+00
         -2   -1    0    0    0  501 -0.00000000000E+00  0.00000000000E+00  0.27045603771E+02  0.27045603771E+02  0.00000000000E+00 0.  1.
          2   -1    0    0  501    0  0.00000000000E+00 -0.00000000000E+00 -0.53158540014E+03  0.53158540014E+03  0.00000000000E+00 0. -1.
         23    2    1    2    0    0 -0.12379499434E+02 -0.49293330353E+02 -0.19711561812E+03  0.22286320917E+03  0.90721324247E+02 0.  0.
         23    2    1    2    0    0  0.12379499434E+02  0.49293330353E+02 -0.30742417825E+03  0.33576779474E+03  0.12508917694E+03 0.  0.
          5    1    4    4  502    0  0.16755475286E+02  0.72854948304E+02 -0.30159868092E+03  0.31075364226E+03  0.41800000000E+01 0.  1.
         -5    1    4    4    0  502 -0.43759758517E+01 -0.23561617950E+02 -0.58254973304E+01  0.25014152479E+02  0.41800000000E+01 0.  1.
        -11    1    3    3    0    0 -0.39537161574E+02 -0.28331180239E+02 -0.42829797728E+02  0.64809216108E+02  0.00000000000E+00 0.  1.
         11    1    3    3    0    0  0.27157662140E+02 -0.20962150115E+02 -0.15428582039E+03  0.15805399307E+03  0.00000000000E+00 0. -1.
</event>
<event>
 8    1  0.1790275E-005  0.8533485E+02  0.7561462E-02  0.1314559E+00
         -2   -1    0    0    0  501 -0.00000000000E+00  0.00000000000E+00  0.11161493444E+02  0.11161493444E+02  0.00000000000E+00 0.  1.
          2   -1    0    0  501    0  0.00000000000E+00 -0.00000000000E+00 -0.11900963680E+04  0.11900963680E+04  0.00000000000E+00 0. -1.
         23    2    1    2    0    0 -0.17056101099E+02  0.84777451521E+01 -0.36090567669E+03  0.37350108292E+03  0.94272841945E+02 0.  0.
         23    2    1    2    0    0  0.17056101099E+02 -0.84777451521E+01 -0.81802919789E+03  0.82775677855E+03  0.12508690212E+03 0.  0.
          5    1    4    4  502    0 -0.12676801716E+02  0.26968653545E+02 -0.50230858796E+02  0.58554428963E+02  0.41800000000E+01 0.  1.
         -5    1    4    4    0  502  0.29732902815E+02 -0.35446398698E+02 -0.76779833910E+03  0.76920234959E+03  0.41800000000E+01 0.  1.
        -11    1    3    3    0    0 -0.76014811029E+01 -0.42044064964E+02 -0.20275209068E+03  0.20720496178E+03  0.00000000000E+00 0.  1.
         11    1    3    3    0    0 -0.94546199962E+01  0.50521810116E+02 -0.15815358601E+03  0.16629612114E+03  0.00000000000E+00 0. -1.
</event>
<event>
 8    1  0.1790275E-005  0.9157270E+02  0.7561462E-02  0.1299087E+00
         -2   -1    0    0    0  501 -0.00000000000E+00  0.00000000000E+00  0.79729133269E+02  0.79729133269E+02  0.00000000000E+00 0.  1.
          2   -1    0    0  501    0  0.00000000000E+00 -0.00000000000E+00 -0.21076512652E+03  0.21076512652E+03  0.00000000000E+00 0. -1.
         23    2    1    2    0    0  0.18634709615E+02  0.56575524407E+02 -0.14995595712E+02  0.10976957275E+03  0.90974990221E+02 0.  0.
         23    2    1    2    0    0 -0.18634709615E+02 -0.56575524407E+02 -0.11604039754E+03  0.18072468704E+03  0.12509195130E+03 0.  0.
          5    1    4    4  502    0 -0.33418021472E+02 -0.40959834794E+02 -0.13913249081E+03  0.14889524715E+03  0.41800000000E+01 0.  1.
         -5    1    4    4    0  502  0.14783311857E+02 -0.15615689613E+02  0.23092093276E+02  0.31829439885E+02  0.41800000000E+01 0.  1.
        -11    1    3    3    0    0  0.32633735575E+02  0.76897020523E+02 -0.16081968812E+02  0.85069043628E+02  0.00000000000E+00 0. -1.
         11    1    3    3    0    0 -0.13999025960E+02 -0.20321496116E+02  0.10863731004E+01  0.24700529118E+02  0.00000000000E+00 0.  1.
</event>
<event>
 8    1  0.1790275E-005  0.1228432E+03  0.7561462E-02  0.1238479E+00
          2   -1    0    0  501    0  0.00000000000E+00  0.00000000000E+00  0.17799450092E+04  0.17799450092E+04  0.00000000000E+00 0. -1.
         -2   -1    0    0    0  501 -0.00000000000E+00 -0.00000000000E+00 -0.11424840069E+02  0.11424840069E+02  0.00000000000E+00 0.  1.
         23    2    1    2    0    0 -0.41990137760E+02  0.70538359067E+02  0.55442093950E+03  0.56808672718E+03  0.92742221658E+02 0.  0.
         23    2    1    2    0    0  0.41990137760E+02 -0.70538359067E+02  0.12140992297E+04  0.12232831221E+04  0.12508327474E+03 0.  0.
          5    1    4    4  502    0  0.71926467080E+02 -0.53508926083E+02  0.47707237088E+03  0.48544015212E+03  0.41800000000E+01 0. -1.
         -5    1    4    4    0  502 -0.29936329320E+02 -0.17029432984E+02  0.73702685879E+03  0.73784297000E+03  0.41800000000E+01 0. -1.
        -11    1    3    3    0    0 -0.66430594579E+02  0.27795820086E+02  0.27013429173E+03  0.27956782197E+03  0.00000000000E+00 0.  1.
         11    1    3    3    0    0  0.24440456819E+02  0.42742538981E+02  0.28428664777E+03  0.28851890522E+03  0.00000000000E+00 0. -1.
</event>
<event>
 8    1  0.1790275E-005  0.1755885E+03  0.7561462E-02  0.1172142E+00
          2   -1    0    0  501    0  0.00000000000E+00  0.00000000000E+00  0.13257169030E+04  0.13257169030E+04  0.00000000000E+00 0. -1.
         -2   -1    0    0    0  501 -0.00000000000E+00 -0.00000000000E+00 -0.25081011538E+02  0.25081011538E+02  0.00000000000E+00 0.  1.
         23    2    1    2    0    0  0.10546214207E+03  0.10128646455E+03  0.57533115781E+03  0.60040160510E+03  0.89971856487E+02 0.  0.
         23    2    1    2    0    0 -0.10546214207E+03 -0.10128646455E+03  0.72530473369E+03  0.75039630947E+03  0.12508578351E+03 0.  0.
          5    1    4    4  502    0 -0.10029446136E+03 -0.10738807333E+02  0.35026401352E+03  0.36452249934E+03  0.41800000000E+01 0.  1.
         -5    1    4    4    0  502 -0.51676807083E+01 -0.90547657214E+02  0.37504072018E+03  0.38587381013E+03  0.41800000000E+01 0.  1.
        -11    1    3    3    0    0  0.76285494754E+02  0.29233032834E+02  0.40517815570E+03  0.41333205148E+03  0.00000000000E+00 0. -1.
         11    1    3    3    0    0  0.29176647316E+02  0.72053431713E+02  0.17015300210E+03  0.18706955363E+03  0.00000000000E+00 0.  1.
</event>
<event>
 8    1  0.1790275E-005  0.1754653E+03  0.7561462E-02  0.1172265E+00
         -2   -1    0    0    0  501 -0.00000000000E+00  0.00000000000E+00  0.37955620797E+02  0.37955620797E+02  0.00000000000E+00 0.  1.
          2   -1    0    0  501    0  0.00000000000E+00 -0.00000000000E+00 -0.13486023879E+04  0.13486023879E+04  0.00000000000E+00 0. -1.
         23    2    1    2    0    0 -0.34876079755E+02 -0.16401685148E+03 -0.28090281704E+03  0.33577828234E+03  0.75649149097E+02 0.  0.
         23    2    1    2    0    0  0.34876079755E+02  0.16401685148E+03 -0.10297439500E+04  0.10507797263E+04  0.12509021597E+03 0.  0.
          5    1    4    4  502    0 -0.16755338836E+02  0.17037164283E+02 -0.44390158079E+03  0.44456393485E+03  0.41800000000E+01 0.  1.
         -5    1    4    4    0  502  0.51631418591E+02  0.14697968720E+03 -0.58584236922E+03  0.60621579146E+03  0.41800000000E+01 0.  1.
        -11    1    3    3    0    0 -0.23486734250E+02 -0.40707642353E+02 -0.29382941669E+02  0.55426492697E+02  0.00000000000E+00 0.  1.
         11    1    3    3    0    0 -0.11389345505E+02 -0.12330920913E+03 -0.25151987537E+03  0.28035178964E+03  0.00000000000E+00 0. -1.
</event>
<event>
 8    1  0.1790275E-005  0.4615970E+02  0.7561462E-02  0.1467229E+00
          2   -1    0    0  501    0  0.00000000000E+00  0.00000000000E+00  0.98752635703E+02  0.98752635703E+02  0.00000000000E+00 0. -1.
         -2   -1    0    0    0  501 -0.00000000000E+00 -0.00000000000E+00 -0.17279417984E+03  0.17279417984E+03  0.00000000000E+00 0.  1.
         23    2    1    2    0    0 -0.17641364053E+02 -0.19216554541E+02 -0.10394204805E+03  0.14031584981E+03  0.90576457552E+02 0.  0.
         23    2    1    2    0    0  0.17641364053E+02  0.19216554541E+02  0.29900503909E+02  0.13123096573E+03  0.12508809911E+03 0.  0.
          5    1    4    4  502    0  0.13040880724E+02  0.11954003189E+02  0.79074207454E+02  0.81136708380E+02  0.41800000000E+01 0.  1.
         -5    1    4    4    0  502  0.46004833288E+01  0.72625513523E+01 -0.49173703545E+02  0.50094257349E+02  0.41800000000E+01 0.  1.
        -11    1    3    3    0    0 -0.20060693860E+02 -0.39421873720E+02 -0.11042816136E+03  0.11895753186E+03  0.00000000000E+00 0.  1.
         11    1    3    3    0    0  0.24193298072E+01  0.20205319179E+02  0.64861133112E+01  0.21358317952E+02  0.00000000000E+00 0. -1.
</event>
<event>
 8    1  0.1790275E-005  0.1202227E+03  0.7561462E-02  0.1242730E+00
         -2   -1    0    0    0  501 -0.00000000000E+00  0.00000000000E+00  0.45038442137E+02  0.45038442137E+02  0.00000000000E+00 0. -1.
          2   -1    0    0  501    0  0.00000000000E+00 -0.00000000000E+00 -0.63202414722E+03  0.63202414722E+03  0.00000000000E+00 0.  1.
         23    2    1    2    0    0 -0.82725012890E+02 -0.52579127412E+02 -0.10697617811E+03  0.17142519543E+03  0.91294592096E+02 0.  0.
         23    2    1    2    0    0  0.82725012890E+02  0.52579127412E+02 -0.48000952696E+03  0.50563739393E+03  0.12510809632E+03 0.  0.
          5    1    4    4  502    0  0.45532083730E+02  0.18558128490E+01 -0.40535109075E+03  0.40792596615E+03  0.41800000000E+01 0.  1.
         -5    1    4    4    0  502  0.37192929160E+02  0.50723314563E+02 -0.74658436216E+02  0.97711427776E+02  0.41800000000E+01 0.  1.
        -11    1    3    3    0    0 -0.72411993304E+02 -0.76659095194E+02 -0.97349973738E+02  0.14351700609E+03  0.00000000000E+00 0.  1.
         11    1    3    3    0    0 -0.10313019586E+02  0.24079967782E+02 -0.96262043763E+01  0.27908189337E+02  0.00000000000E+00 0. -1.
</event>
<event>
 7    1  0.1790275E-005  0.1106084E+03  0.7561462E-02  0.1259447E+00
         -2   -1    0    0    0  501 -0.00000000000E+00  0.00000000000E+00  0.23684759418E+02  0.23684759418E+02  0.00000000000E+00 0.  1.
          2   -1    0    0  501    0  0.00000000000E+00 -0.00000000000E+00 -0.96293829958E+03  0.96293829958E+03  0.00000000000E+00 0. -1.
         23    2    1    2    0    0  0.20267763898E+02 -0.71693574430E+02 -0.19397276276E+03  0.22649555025E+03  0.90133516090E+02 0.  0.
          5    1    1    2  502    0  0.40931180749E+02  0.43644444637E+02 -0.15827293821E+03  0.16925718442E+03  0.41800000000E+01 0. -1.
         -5    1    1    2    0  502 -0.61198944647E+02  0.28049129793E+02 -0.58700783919E+03  0.59087032433E+03  0.41800000000E+01 0.  1.
        -11    1    3    3    0    0 -0.18231754693E+02 -0.92908097180E+01 -0.14862169652E+01  0.20516453526E+02  0.00000000000E+00 0.  1.
         11    1    3    3    0    0  0.38499518591E+02 -0.62402764712E+02 -0.19248654580E+03  0.20597909673E+03  0.00000000000E+00 0. -1.
</event>
<event>
 8    1  0.1790275E-005  0.7603979E+02  0.7561462E-02  0.1340681E+00
          2   -1    0    0  501    0  0.00000000000E+00  0.00000000000E+00  0.12820062468E+03  0.12820062468E+03  0.00000000000E+00 0. -1.
         -2   -1    0    0    0  501 -0.00000000000E+00 -0.00000000000E+00 -0.99739491359E+02  0.99739491359E+02  0.00000000000E+00 0.  1.
         23    2    1    2    0    0  0.19915026428E+02 -0.21307493457E+02 -0.19747580484E+01  0.95935732853E+02  0.91373670242E+02 0.  0.
         23    2    1    2    0    0 -0.19915026428E+02  0.21307493457E+02  0.30435891368E+02  0.13200438318E+03  0.12509275016E+03 0.  0.
          5    1    4    4  502    0 -0.47997314095E+02  0.41651771970E+02  0.59051184669E+02  0.86851177767E+02  0.41800000000E+01 0.  1.
         -5    1    4    4    0  502  0.28082287666E+02 -0.20344278514E+02 -0.28615293301E+02  0.45153205418E+02  0.41800000000E+01 0.  1.
        -11    1    3    3    0    0  0.27151707960E+01 -0.32713439976E+02  0.38444644179E+02  0.50552269717E+02  0.00000000000E+00 0. -1.
         11    1    3    3    0    0  0.17199855632E+02  0.11405946519E+02 -0.40419402227E+02  0.45383463136E+02  0.00000000000E+00 0.  1.
</event>
<event>
 8    1  0.1790275E-005  0.1077541E+03  0.7561462E-02  0.1264786E+00
          1   -1    0    0  501    0  0.00000000000E+00  0.00000000000E+00  0.38611587667E+02  0.38611587667E+02  0.00000000000E+00 0. -1.
         -1   -1    0    0    0  501 -0.00000000000E+00 -0.00000000000E+00 -0.37367742992E+03  0.37367742992E+03  0.00000000000E+00 0.  1.
         23    2    1    2    0    0 -0.37745796486E+02 -0.32686026383E+02 -0.12181507795E+03  0.16006815445E+03  0.91048225581E+02 0.  0.
         23    2    1    2    0    0  0.37745796486E+02  0.32686026383E+02 -0.21325076431E+03  0.25222086314E+03  0.12508538624E+03 0.  0.
          5    1    4    4  502    0 -0.27367978654E+02  0.37125846105E+02 -0.24357606535E+02  0.52326858311E+02  0.41800000000E+01 0. -1.
         -5    1    4    4    0  502  0.65113775139E+02 -0.44398197219E+01 -0.18889315777E+03  0.19989400483E+03  0.41800000000E+01 0. -1.
        -11    1    3    3    0    0 -0.82393087409E+01  0.31816725660E+02 -0.36440250700E+02  0.49072213230E+02  0.00000000000E+00 0. -1.
         11    1    3    3    0    0 -0.29506487745E+02 -0.64502752043E+02 -0.85374827247E+02  0.11099594122E+03  0.00000000000E+00 0.  1.
</event>
<event>
 8    1  0.1790275E-005  0.1077439E+03  0.7561462E-02  0.1264806E+00
          2   -1    0    0  501    0  0.00000000000E+00  0.00000000000E+00  0.10733595269E+03  0.10733595269E+03  0.00000000000E+00 0. -1.
         -2   -1    0    0    0  501 -0.00000000000E+00 -0.00000000000E+00 -0.12338665433E+03  0.12338665433E+03  0.00000000000E+00 0.  1.
         23    2    1    2    0    0 -0.29562865871E+02 -0.27312831175E+01 -0.25485196187E+02  0.10180942656E+03  0.93990644034E+02 0.  0.
         23    2    1    2    0    0  0.29562865871E+02  0.27312831175E+01  0.94344945412E+01  0.12891318046E+03  0.12509266750E+03 0.  0.
          5    1    4    4  502    0  0.27658180465E+02  0.56501828928E+02 -0.21618548679E+02  0.66650323824E+02  0.41800000000E+01 0. -1.
         -5    1    4    4    0  502  0.19046854066E+01 -0.53770545811E+02  0.31053043220E+02  0.62262856636E+02  0.41800000000E+01 0. -1.
        -11    1    3    3    0    0  0.30139138613E+02  0.18201780361E+02 -0.69929087861E+01  0.35896702605E+02  0.00000000000E+00 0.  1.
         11    1    3    3    0    0 -0.59702004484E+02 -0.20933063478E+02 -0.18492287401E+02  0.65912723956E+02  0.00000000000E+00 0. -1.
</event>
<event>
 8    1  0.1790275E-005  0.9333439E+02  0.7561462E-02  0.1294972E+00
          1   -1    0    0  501    0  0.00000000000E+00  0.00000000000E+00  0.10312308769E+04  0.10312308769E+04  0.00000000000E+00 0. -1.
         -1   -1    0    0    0  501 -0.00000000000E+00 -0.00000000000E+00 -0.14809739186E+02  0.14809739186E+02  0.00000000000E+00 0.  1.
         23    2    1    2    0    0 -0.34377813253E+02  0.33346461692E+02  0.27464643998E+03  0.29226968153E+03  0.87732999489E+02 0.  0.
         23    2    1    2    0    0  0.34377813253E+02 -0.33346461692E+02  0.74177469773E+03  0.75377093454E+03  0.12508836487E+03 0.  0.
          5    1    4    4  502    0 -0.14043491386E+01  0.41245425344E+02  0.13115695193E+03  0.13756008050E+03  0.41800000000E+01 0.  1.
         -5    1    4    4    0  502  0.35782162391E+02 -0.74591887036E+02  0.61061774580E+03  0.61621085404E+03  0.41800000000E+01 0.  1.
        -11    1    3    3    0    0  0.90968990193E+01  0.42602099407E+01 -0.24006530714E+01  0.10327927947E+02  0.00000000000E+00 0.  1.
         11    1    3    3    0    0 -0.43474712272E+02  0.29086251751E+02  0.27704709305E+03  0.28194175358E+03  0.00000000000E+00 0. -1.
</event>
<event>
 8    1  0.1790275E-005  0.1042794E+03  0.7561462E-02  0.1271546E+00
          1   -1    0    0  501    0  0.00000000000E+00  0.00000000000E+00  0.90190357257E+03  0.90190357257E+03  0.00000000000E+00 0. -1.
         -1   -1    0    0    0  501 -0.00000000000E+00 -0.00000000000E+00 -0.13290161696E+02  0.13290161696E+02  0.00000000000E+00 0.  1.
         23    2    1    2    0    0 -0.79158739674E+01  0.13902163420E+02  0.33776756921E+03  0.35010334902E+03  0.90716552943E+02 0.  0.
         23    2    1    2    0    0  0.79158739674E+01 -0.13902163420E+02  0.55084584167E+03  0.56509038525E+03  0.12506026950E+03 0.  0.
          5    1    4    4  502    0  0.40846574394E+02  0.37290008086E+02  0.37226894599E+03  0.37637830422E+03  0.41800000000E+01 0.  1.
         -5    1    4    4    0  502 -0.32930700427E+02 -0.51192171505E+02  0.17857689568E+03  0.18871208103E+03  0.41800000000E+01 0.  1.
        -11    1    3    3    0    0 -0.44171178912E+02 -0.13994076887E+02  0.16507385505E+03  0.17145350640E+03  0.00000000000E+00 0.  1.
         11    1    3    3    0    0  0.36255304945E+02  0.27896240307E+02  0.17269371416E+03  0.17864984262E+03  0.00000000000E+00 0. -1.
</event>
<event>
 6    1  0.1790275E-005  0.1052310E+03  0.7561462E-02  0.1269665E+00
          2   -1    0    0  501    0  0.00000000000E+00  0.00000000000E+00  0.61558741755E+03  0.61558741755E+03  0.00000000000E+00 0. -1.
         -2   -1    0    0    0  501 -0.00000000000E+00 -0.00000000000E+00 -0.27989796854E+02  0.27989796854E+02  0.00000000000E+00 0.  1.
          5    1    1    2  502    0 -0.47916751396E+02 -0.72242808450E+02  0.44807252675E+03  0.45640059165E+03  0.41800000000E+01 0. -1.
         -5    1    1    2    0  502  0.71151285739E+02  0.56760283527E+02  0.11315741141E+03  0.14528009982E+03  0.41800000000E+01 0.  1.
        -11    1    1    2    0    0 -0.20904535290E+02  0.45681041258E+01  0.17225896128E+02  0.27469959381E+02  0.00000000000E+00 0. -1.
         11    1    1    2    0    0 -0.23299990533E+01  0.10914420797E+02  0.91417864170E+01  0.14426563549E+02  0.00000000000E+00 0.  1.
</event>
<event>
 8    1  0.1790275E-005  0.1062311E+03  0.7561462E-02  0.1267713E+00
          1   -1    0    0  501    0  0.00000000000E+00  0.00000000000E+00  0.10251213609E+04  0.10251213609E+04  0.00000000000E+00 0.  1.
         -1   -1    0    0    0  501 -0.00000000000E+00 -0.00000000000E+00 -0.16759574205E+02  0.16759574205E+02  0.00000000000E+00 0. -1.
         23    2    1    2    0    0  0.92253566899E+01  0.67119648650E+01  0.16277926624E+03  0.18701978599E+03  0.91373700561E+02 0.  0.
         23    2    1    2    0    0 -0.92253566899E+01 -0.67119648650E+01  0.84558252043E+03  0.85486114909E+03  0.12509047804E+03 0.  0.
          5    1    4    4  502    0  0.55282913626E+02  0.50964195283E+01  0.28060197369E+03  0.28607186871E+03  0.41800000000E+01 0. -1.
         -5    1    4    4    0  502 -0.64508270316E+02 -0.11808384393E+02  0.56498054674E+03  0.56878928038E+03  0.41800000000E+01 0. -1.
        -11    1    3    3    0    0 -0.41772428599E+01  0.47735102769E+02  0.99335251394E+02  0.11028862844E+03  0.00000000000E+00 0.  1.
         11    1    3    3    0    0  0.13402599550E+02 -0.41023137904E+02  0.63444014848E+02  0.76731157545E+02  0.00000000000E+00 0. -1.
</event>
<event>
 8    1  0.1790275E-005  0.1565397E+03  0.7561462E-02  0.1192660E+00
          1   -1    0    0  501    0  0.00000000000E+00  0.00000000000E+00  0.32072543097E+03  0.32072543097E+03  0.00000000000E+00 0. -1.
         -1   -1    0    0    0  501 -0.00000000000E+00 -0.00000000000E+00 -0.21250651917E+03  0.21250651917E+03  0.00000000000E+00 0.  1.
         23    2    1    2    0    0  0.90184380239E+02 -0.10044361399E+03 -0.14683223622E+03  0.21871628388E+03  0.89749457995E+02 0.  0.
         23    2    1    2    0    0 -0.90184380239E+02  0.10044361399E+03  0.25505114802E+03  0.31451566626E+03  0.12508746614E+03 0.  0.
          5    1    4    4  502    0 -0.48983886421E+02 -0.16173184145E+02  0.36397914110E+02  0.63271427721E+02  0.41800000000E+01 0.  1.
         -5    1    4    4    0  502 -0.41200493817E+02  0.11661679813E+03  0.21865323391E+03  0.25124423854E+03  0.41800000000E+01 0.  1.
        -11    1    3    3    0    0  0.37871778871E+02 -0.62011027488E+02 -0.13416731891E+03  0.15257951576E+03  0.00000000000E+00 0.  1.
         11    1    3    3    0    0  0.52312601368E+02 -0.38432586500E+02 -0.12664917307E+02  0.66136768120E+02  0.00000000000E+00 0. -1.
</event>
<event>
 8    1  0.1790275E-005  0.1351266E+03  0.7561462E-02  0.1220041E+00
          2   -1    0    0  501    0  0.00000000000E+00  0.00000000000E+00  0.66830401928E+03  0.66830401928E+03  0.00000000000E+00 0. -1.
         -2   -1    0    0    0  501 -0.00000000000E+00 -0.00000000000E+00 -0.28445599377E+02  0.28445599377E+02  0.00000000000E+00 0.  1.
         23    2    1    2    0    0 -0.82056036861E+02 -0.94531187540E+01  0.23357255554E+03  0.26369305341E+03  0.90306882776E+02 0.  0.
         23    2    1    2    0    0  0.82056036861E+02  0.94531187540E+01  0.40628586436E+03  0.43305656524E+03  0.12508889032E+03 0.  0.
          5    1    4    4  502    0  0.28956939887E+02 -0.57304989799E+02  0.16488655699E+03  0.17699552339E+03  0.41800000000E+01 0. -1.
         -5    1    4    4    0  502  0.53099096974E+02  0.66758108553E+02  0.24139930737E+03  0.25606104185E+03  0.41800000000E+01 0. -1.
        -11    1    3    3    0    0 -0.56576724996E+02  0.36947797528E+02  0.15336686821E+03  0.16759314371E+03  0.00000000000E+00 0. -1.
         11    1    3    3    0    0 -0.25479311864E+02 -0.46400916282E+02  0.80205687326E+02  0.96099909700E+02  0.00000000000E+00 0.  1.
</event>
<event>
 8    1  0.1790275E-005  0.1095330E+03  0.7561462E-02  0.1261437E+00
          2   -1    0    0  501    0  0.00000000000E+00  0.00000000000E+00  0.96316866300E+03  0.96316866300E+03  0.00000000000E+00 0.  1.
         -2   -1    0    0    0  501 -0.00000000000E+00 -0.00000000000E+00 -0.19717998385E+02  0.19717998385E+02  0.00000000000E+00 0. -1.
         23    2    1    2    0    0  0.52568330298E+02  0.64269738952E+02  0.40455695507E+03  0.42346911912E+03  0.93625510740E+02 0.  0.
         23    2    1    2    0    0 -0.52568330298E+02 -0.64269738952E+02  0.53889370955E+03  0.55941754226E+03  0.12509007837E+03 0.  0.
          5    1    4    4  502    0 -0.43117881863E+02 -0.17714083395E+02  0.51082503965E+02  0.69280842217E+02  0.41800000000E+01 0. -1.
         -5    1    4    4    0  502 -0.94504484351E+01 -0.46555655557E+02  0.48781120558E+03  0.49013670005E+03  0.41800000000E+01 0. -1.
        -11    1    3    3    0    0 -0.61707170038E+00 -0.22658855661E+02  0.59232390462E+02  0.63421452185E+02  0.00000000000E+00 0.  1.
         11    1    3    3    0    0  0.53185401999E+02  0.86928594614E+02  0.34532456460E+03  0.36004766694E+03  0.00000000000E+00 0. -1.
</event>
<event>
 8    1  0.1790275E-005  0.1282777E+03  0.7561462E-02  0.1230034E+00
          1   -1    0    0  501    0  0.00000000000E+00  0.00000000000E+00  0.20739895910E+04  0.20739895910E+04  0.00000000000E+00 0. -1.
         -1   -1    0    0    0  501 -0.00000000000E+00 -0.00000000000E+00 -0.12358520248E+02  0.12358520248E+02  0.00000000000E+00 0.  1.
         23    2    1    2    0    0  0.33489847114E+02 -0.89857618955E+02  0.49716843343E+03  0.51396552970E+03  0.88250512575E+02 0.  0.
         23    2    1    2    0    0 -0.33489847114E+02  0.89857618955E+02  0.15644626373E+04  0.15723825815E+04  0.12509067775E+03 0.  0.
          5    1    4    4  502    0 -0.45054124115E+02  0.10672896562E+03  0.88012253637E+03  0.88772411122E+03  0.41800000000E+01 0.  1.
         -5    1    4    4    0  502  0.11564277000E+02 -0.16871346668E+02  0.68434010094E+03  0.68465847033E+03  0.41800000000E+01 0.  1.
        -11    1    3    3    0    0  0.69779604010E+01 -0.92815974848E+02  0.45219954047E+03  0.46167945754E+03  0.00000000000E+00 0.  1.
         11    1    3    3    0    0  0.26511886713E+02  0.29583558935E+01  0.44968892969E+02  0.52286072156E+02  0.00000000000E+00 0. -1.
</event>
<event>
 8    1  0.1790275E-005  0.1307638E+03  0.7561462E-02  0.1226327E+00
         -3   -1    0    0    0  501 -0.00000000000E+00  0.00000000000E+00  0.23147935614E+03  0.23147935614E+03  0.00000000000E+00 0.  1.
          3   -1    0    0  501    0  0.00000000000E+00 -0.00000000000E+00 -0.77851446843E+02  0.77851446843E+02  0.00000000000E+00 0. -1.
         23    2    1    2    0    0 -0.46624289577E+02  0.62248011100E+02  0.74150169586E+02  0.14195939646E+03  0.92766283360E+02 0.  0.
         23    2    1    2    0    0  0.46624289577E+02 -0.62248011100E+02  0.79477739715E+02  0.16737140653E+03  0.12509131604E+03 0.  0.
          5    1    4    4  502    0  0.44399730501E+02 -0.96778653869E+02  0.78765967552E+02  0.13251035415E+03  0.41800000000E+01 0.  1.
         -5    1    4    4    0  502  0.22245590757E+01  0.34530642769E+02  0.71177216266E+00  0.34861052376E+02  0.41800000000E+01 0.  1.
        -11    1    3    3    0    0 -0.74671219260E+02  0.44580354845E+02  0.45521441733E+02  0.98160076820E+02  0.00000000000E+00 0. -1.
         11    1    3    3    0    0  0.28046929683E+02  0.17667656255E+02  0.28628727853E+02  0.43799319637E+02  0.00000000000E+00 0.  1.
</event>
<event>
 8    1  0.1790275E-005  0.7833152E+02  0.7561462E-02  0.1333854E+00
         -3   -1    0    0    0  501 -0.00000000000E+00  0.00000000000E+00  0.79732444271E+02  0.79732444271E+02  0.00000000000E+00 0.  1.
          3   -1    0    0  501    0  0.00000000000E+00 -0.00000000000E+00 -0.13592275671E+03  0.13592275671E+03  0.00000000000E+00 0. -1.
         23    2    1    2    0    0 -0.85275801421E+01  0.40913535828E+01 -0.13487560133E+02  0.90358514507E+02  0.88844178584E+02 0.  0.
         23    2    1    2    0    0  0.85275801421E+01 -0.40913535828E+01 -0.42702752309E+02  0.12529668648E+03  0.11741497260E+03 0.  0.
          5    1    4    4  502    0 -0.10932458587E+02 -0.34506815156E+02 -0.70618427567E+02  0.79464920908E+02  0.41800000000E+01 0. -1.
         -5    1    4    4    0  502  0.19460038729E+02  0.30415461573E+02  0.27915675257E+02  0.45831765569E+02  0.41800000000E+01 0.  1.
        -11    1    3    3    0    0 -0.53425327343E+01 -0.39655316722E+02 -0.22022186131E+02  0.45673443950E+02  0.00000000000E+00 0. -1.
         11    1    3    3    0    0 -0.31850474079E+01  0.43746670304E+02  0.85346259977E+01  0.44685070556E+02  0.00000000000E+00 0.  1.
</event>
<event>
 8    1  0.1790275E-005  0.1058884E+03  0.7561462E-02  0.1268379E+00
         -3   -1    0    0    0  501 -0.00000000000E+00  0.00000000000E+00  0.35309972656E+03  0.35309972656E+03  0.00000000000E+00 0.  1.
          3   -1    0    0  501    0  0.00000000000E+00 -0.00000000000E+00 -0.39711815224E+02  0.39711815224E+02  0.00000000000E+00 0. -1.
         23    2    1    2    0    0  0.38156942142E+02  0.20861213050E+02  0.16787130403E+03  0.19605720763E+03  0.91468636717E+02 0.  0.
         23    2    1    2    0    0 -0.38156942142E+02 -0.20861213050E+02  0.14551660731E+03  0.19675433416E+03  0.12508414193E+03 0.  0.
          5    1    4    4  502    0 -0.77436522701E+01 -0.68067890914E+02  0.46687060866E+02  0.83008168130E+02  0.41800000000E+01 0. -1.
         -5    1    4    4    0  502 -0.30413289872E+02  0.47206677865E+02  0.98829546441E+02  0.11374616603E+03  0.41800000000E+01 0. -1.
        -11    1    3    3    0    0 -0.23065368221E+02  0.55462752407E+01  0.10243935863E+03  0.10515034274E+03  0.00000000000E+00 0.  1.
         11    1    3    3    0    0  0.61222310363E+02  0.15314937809E+02  0.65431945399E+02  0.90906864895E+02  0.00000000000E+00 0. -1.
</event>
<event>
 8    1  0.1790275E-005  0.5419216E+02  0.7561462E-02  0.1423958E+00
          1   -1    0    0  501    0  0.00000000000E+00  0.00000000000E+00  0.99018781031E+03  0.99018781031E+03  0.00000000000E+00 0. -1.
         -1   -1    0    0    0  501 -0.00000000000E+00 -0.00000000000E+00 -0.63159969584E+02  0.63159969584E+02  0.00000000000E+00 0.  1.
         23    2    1    2    0    0  0.40072008212E+02  0.77113696008E+01 -0.15733018684E+02  0.10116774540E+03  0.91225839369E+02 0.  0.
         23    2    1    2    0    0 -0.40072008212E+02 -0.77113696008E+01  0.94276085941E+03  0.95218003450E+03  0.12721457855E+03 0.  0.
          5    1    4    4  502    0 -0.47559698428E+02  0.59224385291E+01  0.93098661442E+03  0.93222880712E+03  0.41800000000E+01 0. -1.
         -5    1    4    4    0  502  0.74876902158E+01 -0.13633808130E+02  0.11774244995E+02  0.19951227383E+02  0.41800000000E+01 0.  1.
        -11    1    3    3    0    0  0.24183140329E+02  0.12958216373E+02  0.36875440545E+02  0.45962351584E+02  0.00000000000E+00 0. -1.
         11    1    3    3    0    0  0.15888867883E+02 -0.52468467717E+01 -0.52608459229E+02  0.55205393813E+02  0.00000000000E+00 0.  1.
</event>
<event>
 8    1  0.1790275E-005  0.5553310E+02  0.7561462E-02  0.1417595E+00
         -2   -1    0    0    0  501 -0.00000000000E+00  0.00000000000E+00  0.12485206034E+03  0.12485206034E+03  0.00000000000E+00 0.  1.
          2   -1    0    0  501    0  0.00000000000E+00 -0.00000000000E+00 -0.98588243788E+02  0.98588243788E+02  0.00000000000E+00 0. -1.
         23    2    1    2    0    0  0.62109245077E+01  0.22552014322E+02  0.13435737551E+02  0.95536729477E+02  0.91649215503E+02 0.  0.
         23    2    1    2    0    0 -0.62109245077E+01 -0.22552014322E+02  0.12828078998E+02  0.12790357465E+03  0.12509035080E+03 0.  0.
          5    1    4    4  502    0 -0.82789079240E+01 -0.29276719889E+02 -0.53169035092E+02  0.61401020647E+02  0.41800000000E+01 0. -1.
         -5    1    4    4    0  502  0.20679834163E+01  0.67247055670E+01  0.65997114090E+02  0.66502554001E+02  0.41800000000E+01 0. -1.
        -11    1    3    3    0    0 -0.30050143636E+02  0.11628115462E+01  0.36691706413E+02  0.47440958914E+02  0.00000000000E+00 0.  1.
         11    1    3    3    0    0  0.36261068143E+02  0.21389202776E+02 -0.23255968862E+02  0.48095770563E+02  0.00000000000E+00 0. -1.
</event>
<event>
 8    1  0.1790275E-005  0.2861376E+03  0.7561462E-02  0.1092383E+00
         -2   -1    0    0    0  501 -0.00000000000E+00  0.00000000000E+00  0.31131884634E+02  0.31131884634E+02  0.00000000000E+00 0.  1.
          2   -1    0    0  501    0  0.00000000000E+00 -0.00000000000E+00 -0.30410345032E+04  0.30410345032E+04  0.00000000000E+00 0. -1.
         23    2    1    2    0    0 -0.38970150113E+02 -0.27126333122E+03 -0.10382886112E+04  0.10776710305E+04  0.90714620690E+02 0.  0.
         23    2    1    2    0    0  0.38970150113E+02  0.27126333122E+03 -0.19716140074E+04  0.19944953573E+04  0.12508984306E+03 0.  0.
          5    1    4    4  502    0  0.73954930201E+02  0.10903071632E+03 -0.72627258476E+03  0.73813709335E+03  0.41800000000E+01 0. -1.
         -5    1    4    4    0  502 -0.34984780087E+02  0.16223261490E+03 -0.12453414226E+04  0.12563582640E+04  0.41800000000E+01 0. -1.
        -11    1    3    3    0    0 -0.25740673773E+01 -0.61282426480E+02 -0.11754089168E+03  0.13258213618E+03  0.00000000000E+00 0.  1.
         11    1    3    3    0    0 -0.36396082736E+02 -0.20998090474E+03 -0.92074771948E+03  0.94508889430E+03  0.00000000000E+00 0. -1.
</event>
<event>
 8    1  0.1790275E-005  0.2300268E+03  0.7561462E-02  0.1126621E+00
         -2   -1    0    0    0  501 -0.00000000000E+00  0.00000000000E+00  0.40000100201E+02  0.40000100201E+02  0.00000000000E+00 0.  1.
          2   -1    0    0  501    0  0.00000000000E+00 -0.00000000000E+00 -0.15136473705E+04  0.15136473705E+04  0.00000000000E+00 0. -1.
         23    2    1    2    0    0 -0.65415576637E+02  0.20302332111E+03 -0.88937379780E+03  0.91920759345E+03  0.91973806383E+02 0.  0.
         23    2    1    2    0    0  0.65415576637E+02 -0.20302332111E+03 -0.58427347248E+03  0.63443987723E+03  0.12506318642E+03 0.  0.
          5    1    4    4  502    0 -0.15619325549E+02 -0.71054950927E+02 -0.86434463513E+02  0.11305378483E+03  0.41800000000E+01 0.  1.
         -5    1    4    4    0  502  0.81034902186E+02 -0.13196837018E+03 -0.49783900897E+03  0.52138609240E+03  0.41800000000E+01 0.  1.
        -11    1    3    3    0    0 -0.88121116690E+02  0.14163433672E+03 -0.63293585219E+03  0.65454824844E+03  0.00000000000E+00 0.  1.
         11    1    3    3    0    0  0.22705540054E+02  0.61388984388E+02 -0.25643794561E+03  0.26465934501E+03  0.00000000000E+00 0. -1.
</event>
<event>
 8    1  0.1790275E-005  0.9855539E+02  0.7561462E-02  0.1283363E+00
          2   -1    0    0  501    0  0.00000000000E+00  0.00000000000E+00  0.26629263736E+03  0.26629263736E+03  0.00000000000E+00 0. -1.
         -2   -1    0    0    0  501 -0.00000000000E+00 -0.00000000000E+00 -0.56254065177E+02  0.56254065177E+02  0.00000000000E+00 0.  1.
         23    2    1    2    0    0 -0.45993636590E+02  0.22133380249E+02  0.12865168561E+03  0.16483460312E+03  0.89520327565E+02 0.  0.
         23    2    1    2    0    0  0.45993636590E+02 -0.22133380249E+02  0.81386886577E+02  0.15771209942E+03  0.12507589644E+03 0.  0.
          5    1    4    4  502    0  0.85711236457E+02 -0.31942658298E+02  0.41888718682E+02  0.10069203855E+03  0.41800000000E+01 0. -1.
         -5    1    4    4    0  502 -0.39717599866E+02  0.98092780482E+01  0.39498167895E+02  0.57020060873E+02  0.41800000000E+01 0. -1.
        -11    1    3    3    0    0 -0.22191817037E+02 -0.10075691230E+02 -0.53702598117E+01  0.24956682224E+02  0.00000000000E+00 0.  1.
         11    1    3    3    0    0 -0.23801819553E+02  0.32209071479E+02  0.13402194542E+03  0.13987792090E+03  0.00000000000E+00 0. -1.
</event>
<event>
 8    1  0.1790275E-005  0.6397941E+02  0.7561462E-02  0.1381852E+00
          2   -1    0    0  501    0  0.00000000000E+00  0.00000000000E+00  0.46638669780E+03  0.46638669780E+03  0.00000000000E+00 0. -1.
         -2   -1    0    0    0  501 -0.00000000000E+00 -0.00000000000E+00 -0.38051775084E+02  0.38051775084E+02  0.00000000000E+00 0.  1.
         23    2    1    2    0    0  0.50066063069E+02 -0.17849065810E+02  0.87484028802E+02  0.13748661564E+03  0.91781884721E+02 0.  0.
         23    2    1    2    0    0 -0.50066063069E+02  0.17849065810E+02  0.34085089391E+03  0.36695185724E+03  0.12509649808E+03 0.  0.
          5    1    4    4  502    0  0.10025165272E+01  0.22332801566E+02  0.51226752117E+00  0.22748491888E+02  0.41800000000E+01 0. -1.
         -5    1    4    4    0  502 -0.51068579596E+02 -0.44837357556E+01  0.34033862639E+03  0.34420336535E+03  0.41800000000E+01 0. -1.
        -11    1    3    3    0    0  0.27378477084E+02 -0.14064999138E+02  0.10445935231E+03  0.10889977729E+03  0.00000000000E+00 0. -1.
         11    1    3    3    0    0  0.22687585985E+02 -0.37840666723E+01 -0.16975323512E+02  0.28586838348E+02  0.00000000000E+00 0.  1.
</event>
<event>
 8    1  0.1790275E-005  0.1028954E+03  0.7561462E-02  0.1274322E+00
         -3   -1    0    0    0  501 -0.00000000000E+00  0.00000000000E+00  0.41756375092E+03  0.41756375092E+03  0.00000000000E+00 0.  1.
          3   -1    0    0  501    0  0.00000000000E+00 -0.00000000000E+00 -0.39673235276E+02  0.39673235276E+02  0.00000000000E+00 0. -1.
         23    2    1    2    0    0  0.39083950746E+02 -0.67049808009E+02  0.17824055738E+03  0.20916707763E+03  0.77187681069E+02 0.  0.
         23    2    1    2    0    0 -0.39083950746E+02  0.67049808009E+02  0.19964995827E+03  0.24806990857E+03  0.12512130811E+03 0.  0.
          5    1    4    4  502    0  0.19586423516E+02  0.17983122857E+02 -0.68895923704E+01  0.27784160539E+02  0.41800000000E+01 0.  1.
         -5    1    4    4    0  502 -0.58670374263E+02  0.49066685152E+02  0.20653955064E+03  0.22028574803E+03  0.41800000000E+01 0.  1.
        -11    1    3    3    0    0  0.55416024261E+02 -0.32961623067E+02  0.73281856280E+02  0.97609604036E+02  0.00000000000E+00 0. -1.
         11    1    3    3    0    0 -0.16332073515E+02 -0.34088184942E+02  0.10495870110E+03  0.11155747359E+03  0.00000000000E+00 0.  1.
</event>
<event>
 8    1  0.1790275E-005  0.1073114E+03  0.7561462E-02  0.1265631E+00
         -2   -1    0    0    0  501 -0.00000000000E+00  0.00000000000E+00  0.86597849613E+02  0.86597849613E+02  0.00000000000E+00 0.  1.
          2   -1    0    0  501    0  0.00000000000E+00 -0.00000000000E+00 -0.22576447864E+03  0.22576447864E+03  0.00000000000E+00 0. -1.
         23    2    1    2    0    0 -0.38181094510E+02 -0.74235994333E+02 -0.25943955137E+02  0.12412528767E+03  0.88120482283E+02 0.  0.
         23    2    1    2    0    0  0.38181094510E+02  0.74235994333E+02 -0.11322267389E+03  0.18823704058E+03  0.12508009727E+03 0.  0.
          5    1    4    4  502    0 -0.89020500788E+01  0.38119655141E+02 -0.12191945205E+03  0.12811783557E+03  0.41800000000E+01 0. -1.
         -5    1    4    4    0  502  0.47083144589E+02  0.36116339192E+02  0.86967781612E+01  0.60119205013E+02  0.41800000000E+01 0. -1.
        -11    1    3    3    0    0 -0.45859350277E+02 -0.50264905372E+01  0.77288535861E+01  0.46776925858E+02  0.00000000000E+00 0. -1.
         11    1    3    3    0    0  0.76782557672E+01 -0.69209503795E+02 -0.33672808723E+02  0.77348361809E+02  0.00000000000E+00 0.  1.
</event>
<event>
 8    1  0.1790275E-005  0.8877561E+02  0.7561462E-02  0.1305844E+00
         -2   -1    0    0    0  501 -0.00000000000E+00  0.00000000000E+00  0.38067196574E+02  0.38067196574E+02  0.00000000000E+00 0.  1.
          2   -1    0    0  501    0  0.00000000000E+00 -0.00000000000E+00 -0.58185663053E+03  0.58185663053E+03  0.00000000000E+00 0. -1.
         23    2    1    2    0    0 -0.21071837951E+02  0.58324804362E+02 -0.84999244825E+02  0.14036197071E+03  0.92902131523E+02 0.  0.
         23    2    1    2    0    0  0.21071837951E+02 -0.58324804362E+02 -0.45879018913E+03  0.47956185640E+03  0.12508129880E+03 0.  0.
          5    1    4    4  502    0  0.22237533795E+02  0.23928501814E+02 -0.35868774763E+02  0.48694173279E+02  0.41800000000E+01 0. -1.
         -5    1    4    4    0  502 -0.11656958438E+01 -0.82253306176E+02 -0.42292141437E+03  0.43086768312E+03  0.41800000000E+01 0. -1.
        -11    1    3    3    0    0 -0.99840157522E+01  0.35473398281E+02  0.13036384119E+02  0.39089510959E+02  0.00000000000E+00 0.  1.
         11    1    3    3    0    0 -0.11087822199E+02  0.22851406082E+02 -0.98035628944E+02  0.10127245975E+03  0.00000000000E+00 0. -1.
</event>
<event>
 8    1  0.1790275E-005  0.8733252E+02  0.7561462E-02  0.1309443E+00
          2   -1    0    0  501    0  0.00000000000E+00  0.00000000000E+00  0.72367436208E+03  0.72367436208E+03  0.00000000000E+00 0.  1.
         -2   -1    0    0    0  501 -0.00000000000E+00 -0.00000000000E+00 -0.22529009699E+02  0.22529009699E+02  0.00000000000E+00 0. -1.
         23    2    1    2    0    0  0.19176244589E+02  0.99552384172E+01  0.12679196542E+03  0.15798905740E+03  0.91746959798E+02 0.  0.
         23    2    1    2    0    0 -0.19176244589E+02 -0.99552384172E+01  0.57435338696E+03  0.58821431438E+03  0.12508969345E+03 0.  0.
          5    1    4    4  502    0 -0.84715047719E+01 -0.48657656617E+02  0.50892129793E+03  0.51132933989E+03  0.41800000000E+01 0. -1.
         -5    1    4    4    0  502 -0.10704739817E+02  0.38702418200E+02  0.65432089024E+02  0.76884974495E+02  0.41800000000E+01 0. -1.
        -11    1    3    3    0    0 -0.14970253080E+02  0.37806093919E+02  0.26748092343E+02  0.48671035110E+02  0.00000000000E+00 0.  1.
         11    1    3    3    0    0  0.34146497670E+02 -0.27850855502E+02  0.10004387308E+03  0.10931802229E+03  0.00000000000E+00 0. -1.
</event>
<event>
 8    1  0.1790275E-005  0.1069011E+03  0.7561462E-02  0.1266419E+00
         -1   -1    0    0    0  501 -0.00000000000E+00  0.00000000000E+00  0.38554038713E+03  0.38554038713E+03  0.00000000000E+00 0.  1.
          1   -1    0    0  501    0  0.00000000000E+00 -0.00000000000E+00 -0.56957109396E+02  0.56957109396E+02  0.00000000000E+00 0. -1.
         23    2    1    2    0    0  0.12327825662E+02 -0.86849843698E+02  0.22413282435E+03  0.25738747753E+03  0.91202631548E+02 0.  0.
         23    2    1    2    0    0 -0.12327825662E+02  0.86849843698E+02  0.10445045338E+03  0.18511001900E+03  0.12514372251E+03 0.  0.
          5    1    4    4  502    0 -0.24633439950E+02  0.99784925404E+02  0.12210315810E+03  0.15965741862E+03  0.41800000000E+01 0.  1.
         -5    1    4    4    0  502  0.12305614289E+02 -0.12935081706E+02 -0.17652704723E+02  0.25452600374E+02  0.41800000000E+01 0.  1.
        -11    1    3    3    0    0 -0.98333974253E+01 -0.30657793530E+02  0.17928904637E+03  0.18215696022E+03  0.00000000000E+00 0.  1.
         11    1    3    3    0    0  0.22161223087E+02 -0.56192050168E+02  0.44843777984E+02  0.75230517309E+02  0.00000000000E+00 0. -1.
</event>
<event>
 8    1  0.1868079E-005  0.1502369E+03  0.7561462E-02  0.1200182E+00
         -1   -1    0    0    0  501 -0.00000000000E+00  0.00000000000E+00  0.29631034285E+03  0.29631034285E+03  0.00000000000E+00 0.  1.
          1   -1    0    0  501    0  0.00000000000E+00 -0.00000000000E+00 -0.11471021091E+03  0.11471021091E+03  0.00000000000E+00 0. -1.
         23    2    1    2    0    0 -0.73324616186E+02  0.12714548301E+03  0.11189687116E+03  0.20596315142E+03  0.91419017588E+02 0.  0.
         23    2    1    2    0    0  0.73324616186E+02 -0.12714548301E+03  0.69703260784E+02  0.20505740235E+03  0.12509004958E+03 0.  0.
          5    1    4    4  502    0 -0.51674704346E+01 -0.10497359290E+02 -0.30115815209E+02  0.32578091234E+02  0.41800000000E+01 0.  1.
         -5    1    4    4    0  502  0.78492086621E+02 -0.11664812372E+03  0.99819075993E+02  0.17247931111E+03  0.41800000000E+01 0.  1.
        -11    1    3    3    0    0 -0.23723329269E+02  0.54343377758E+02 -0.50939143887E+01  0.59514258977E+02  0.00000000000E+00 0. -1.
         11    1    3    3    0    0 -0.49601286917E+02  0.72802105251E+02  0.11699078555E+03  0.14644889244E+03  0.00000000000E+00 0.  1.
</event>
<event>
 8    1  0.1790275E-005  0.9942813E+02  0.7561462E-02  0.1281503E+00
          2   -1    0    0  501    0  0.00000000000E+00  0.00000000000E+00  0.88769929967E+03  0.88769929967E+03  0.00000000000E+00 0. -1.
         -2   -1    0    0    0  501 -0.00000000000E+00 -0.00000000000E+00 -0.22997784468E+02  0.22997784468E+02  0.00000000000E+00 0.  1.
         23    2    1    2    0    0 -0.52317708160E+02  0.73631839878E+02  0.32904639685E+03  0.35326229142E+03  0.91454495927E+02 0.  0.
         23    2    1    2    0    0  0.52317708160E+02 -0.73631839878E+02  0.53565511835E+03  0.55743479272E+03  0.12509337269E+03 0.  0.
          5    1    4    4  502    0  0.35866725697E+02 -0.40651138824E+02  0.50866338780E+03  0.51156119046E+03  0.41800000000E+01 0. -1.
         -5    1    4    4    0  502  0.16450982463E+02 -0.32980701054E+02  0.26991730548E+02  0.45873602256E+02  0.41800000000E+01 0. -1.
        -11    1    3    3    0    0 -0.47813335950E+02  0.17250334156E+02  0.61424435134E+02  0.79728604369E+02  0.00000000000E+00 0.  1.
         11    1    3    3    0    0 -0.45043722108E+01  0.56381505722E+02  0.26762196172E+03  0.27353368705E+03  0.00000000000E+00 0. -1.
</event>
<event>
 8    1  0.1790275E-005  0.1068407E+03  0.7561462E-02  0.1266535E+00
          1   -1    0    0  501    0  0.00000000000E+00  0.00000000000E+00  0.12740530850E+04  0.12740530850E+04  0.00000000000E+00 0. -1.
         -1   -1    0    0    0  501 -0.00000000000E+00 -0.00000000000E+00 -0.12114944560E+02  0.12114944560E+02  0.00000000000E+00 0.  1.
         23    2    1    2    0    0 -0.20310218975E+02  0.17903140921E+02  0.40879959762E+03  0.42348310215E+03  0.10718115199E+03 0.  0.
         23    2    1    2    0    0  0.20310218975E+02 -0.17903140921E+02  0.85313854278E+03  0.86268492737E+03  0.12508750252E+03 0.  0.
          5    1    4    4  502    0 -0.39834302389E+02 -0.33613403231E+02  0.58819271128E+03  0.59051229498E+03  0.41800000000E+01 0. -1.
         -5    1    4    4    0  502  0.60144521363E+02  0.15710262310E+02  0.26494583150E+03  0.27217263239E+03  0.41800000000E+01 0. -1.
        -11    1    3    3    0    0 -0.55322274176E+02  0.28867611938E+02  0.33831315823E+03  0.34401989196E+03  0.00000000000E+00 0. -1.
         11    1    3    3    0    0  0.35012055202E+02 -0.10964471017E+02  0.70486439397E+02  0.79463210185E+02  0.00000000000E+00 0.  1.
</event>
<event>
 8    1  0.1790275E-005  0.1063568E+03  0.7561462E-02  0.1267469E+00
         -1   -1    0    0    0  501 -0.00000000000E+00  0.00000000000E+00  0.16324199881E+02  0.16324199881E+02  0.00000000000E+00 0.  1.
          1   -1    0    0  501    0  0.00000000000E+00 -0.00000000000E+00 -0.89370284902E+03  0.89370284902E+03  0.00000000000E+00 0. -1.
         23    2    1    2    0    0  0.38087976429E+02 -0.27262110723E+02 -0.27811393160E+03  0.29605595780E+03  0.90043625919E+02 0.  0.
         23    2    1    2    0    0 -0.38087976429E+02  0.27262110723E+02 -0.59926471754E+03  0.61397109110E+03  0.12509349460E+03 0.  0.
          5    1    4    4  502    0 -0.61962478312E+02 -0.13729980333E+02 -0.16070671617E+03  0.17283512982E+03  0.41800000000E+01 0. -1.
         -5    1    4    4    0  502  0.23874501883E+02  0.40992091055E+02 -0.43855800137E+03  0.44113596128E+03  0.41800000000E+01 0. -1.
        -11    1    3    3    0    0 -0.39520191304E+01 -0.52372131778E+02 -0.14584052404E+03  0.15500940969E+03  0.00000000000E+00 0. -1.
         11    1    3    3    0    0  0.42039995559E+02  0.25110021056E+02 -0.13227340756E+03  0.14104654810E+03  0.00000000000E+00 0.  1.
</event>
<event>
 8    1  0.1790275E-005  0.1017527E+03  0.7561462E-02  0.1276653E+00
          2   -1    0    0  501    0  0.00000000000E+00  0.00000000000E+00  0.50721795778E+03  0.50721795778E+03  0.00000000000E+00 0. -1.
         -2   -1    0    0    0  501 -0.00000000000E+00 -0.00000000000E+00 -0.28219590966E+02  0.28219590966E+02  0.00000000000E+00 0.  1.
         23    2    1    2    0    0 -0.48443644669E+01  0.46339001670E+02  0.19515752726E+03  0.22176696725E+03  0.94463518740E+02 0.  0.
         23    2    1    2    0    0  0.48443644669E+01 -0.46339001670E+02  0.28384083956E+03  0.31367058150E+03  0.12511131266E+03 0.  0.
          5    1    4    4  502    0 -0.53207860921E+02 -0.82448164010E+01  0.67637746298E+02  0.86552819628E+02  0.41800000000E+01 0. -1.
         -5    1    4    4    0  502  0.58052225388E+02 -0.38094185269E+02  0.21620309326E+03  0.22711776187E+03  0.41800000000E+01 0. -1.
        -11    1    3    3    0    0  0.25894481347E+02  0.41364524419E+02  0.38818927360E+02  0.62357494867E+02  0.00000000000E+00 0.  1.
         11    1    3    3    0    0 -0.30738845814E+02  0.49744772508E+01  0.15633859990E+03  0.15940947238E+03  0.00000000000E+00 0. -1.
</event>
<event>
 8    1  0.1790275E-005  0.8268358E+02  0.7561462E-02  0.1321604E+00
          2   -1    0    0  501    0  0.00000000000E+00  0.00000000000E+00  0.50647791041E+02  0.50647791041E+02  0.00000000000E+00 0. -1.
         -2   -1    0    0    0  501 -0.00000000000E+00 -0.00000000000E+00 -0.28748331368E+03  0.28748331368E+03  0.00000000000E+00 0.  1.
         23    2    1    2    0    0  0.16275007156E+02 -0.61899012937E+01 -0.16129250110E+03  0.18853504785E+03  0.96057288223E+02 0.  0.
         23    2    1    2    0    0 -0.16275007156E+02  0.61899012937E+01 -0.75543021539E+02  0.14959605687E+03  0.12794155459E+03 0.  0.
          5    1    4    4  502    0  0.17750788135E+02  0.38478565542E+02  0.16928895419E+02  0.45823033353E+02  0.41800000000E+01 0. -1.
         -5    1    4    4    0  502 -0.34025795291E+02 -0.32288664248E+02 -0.92471916958E+02  0.10377302352E+03  0.41800000000E+01 0.  1.
        -11    1    3    3    0    0  0.35911396060E+02 -0.28591338057E+02 -0.32251971583E+02  0.56100647500E+02  0.00000000000E+00 0.  1.
         11    1    3    3    0    0 -0.19636388904E+02  0.22401436764E+02 -0.12904052951E+03  0.13243440035E+03  0.00000000000E+00 0. -1.
</event>
<event>
 8    1  0.1790275E-005  0.8064223E+02  0.7561462E-02  0.1327239E+00
         -1   -1    0    0    0  501 -0.00000000000E+00  0.00000000000E+00  0.73843066873E+02  0.73843066873E+02  0.00000000000E+00 0.  1.
          1   -1    0    0  501    0  0.00000000000E+00 -0.00000000000E+00 -0.18746363364E+03  0.18746363364E+03  0.00000000000E+00 0. -1.
         23    2    1    2    0    0  0.12396955721E+02  0.44152210341E+02 -0.39113620476E+02  0.10865270668E+03  0.90401510904E+02 0.  0.
         23    2    1    2    0    0 -0.12396955721E+02 -0.44152210341E+02 -0.74506946291E+02  0.15265399383E+03  0.12509538200E+03 0.  0.
          5    1    4    4  502    0  0.43923277411E+02 -0.37587241100E+02 -0.76241522689E+02  0.95772110628E+02  0.41800000000E+01 0.  1.
         -5    1    4    4    0  502 -0.56320233132E+02 -0.65649692416E+01  0.17345763984E+01  0.56881883201E+02  0.41800000000E+01 0.  1.
        -11    1    3    3    0    0  0.96435091631E+00  0.16728247174E+02  0.29475235127E+02  0.33905069120E+02  0.00000000000E+00 0.  1.
         11    1    3    3    0    0  0.11432604805E+02  0.27423963167E+02 -0.68588855603E+02  0.74747637564E+02  0.00000000000E+00 0. -1.
</event>
<event>
 8    1  0.1790275E-005  0.9297413E+02  0.7561462E-02  0.1295805E+00
          2   -1    0    0  501    0  0.00000000000E+00  0.00000000000E+00  0.11820165160E+04  0.11820165160E+04  0.00000000000E+00 0.  1.
         -2   -1    0    0    0  501 -0.00000000000E+00 -0.00000000000E+00 -0.11927366552E+02  0.11927366552E+02  0.00000000000E+00 0. -1.
         23    2    1    2    0    0 -0.71529742263E+01 -0.26572871086E+01  0.26379398004E+03  0.27902525269E+03  0.90606851375E+02 0.  0.
         23    2    1    2    0    0  0.71529742263E+01  0.26572871086E+01  0.90629516944E+03  0.91491862990E+03  0.12508772509E+03 0.  0.
          5    1    4    4  502    0  0.13509396802E+02 -0.47537107273E+02  0.17581398888E+03  0.18267542653E+03  0.41800000000E+01 0.  1.
         -5    1    4    4    0  502 -0.63564225756E+01  0.50194394382E+02  0.73048118056E+03  0.73224320337E+03  0.41800000000E+01 0.  1.
        -11    1    3    3    0    0 -0.30102092985E+02  0.32054210467E+02  0.18222323026E+03  0.18745376511E+03  0.00000000000E+00 0. -1.
         11    1    3    3    0    0  0.22949118758E+02 -0.34711497576E+02  0.81570749788E+02  0.91571487575E+02  0.00000000000E+00 0.  1.
</event>
<event>
 8    1  0.1790275E-005  0.9453685E+02  0.7561462E-02  0.1292223E+00
         -1   -1    0    0    0  501 -0.00000000000E+00  0.00000000000E+00  0.43229032846E+03  0.43229032846E+03  0.00000000000E+00 0.  1.
          1   -1    0    0  501    0  0.00000000000E+00 -0.00000000000E+00 -0.80011043140E+02  0.80011043140E+02  0.00000000000E+00 0. -1.
         23    2    1    2    0    0  0.19937862904E+02 -0.53019586832E+02  0.35891032205E+03  0.37482394667E+03  0.92020523601E+02 0.  0.
         23    2    1    2    0    0 -0.19937862904E+02  0.53019586832E+02 -0.66310367263E+01  0.13747742493E+03  0.12508987469E+03 0.  0.
          5    1    4    4  502    0 -0.26758596177E+02  0.74141594829E+02  0.37888881391E+02  0.87555915198E+02  0.41800000000E+01 0.  1.
         -5    1    4    4    0  502  0.68207332729E+01 -0.21122007997E+02 -0.44519918118E+02  0.49921509727E+02  0.41800000000E+01 0.  1.
        -11    1    3    3    0    0  0.44236875060E+02 -0.41526943934E+02  0.32925760651E+03  0.33480137341E+03  0.00000000000E+00 0.  1.
         11    1    3    3    0    0 -0.24299012156E+02 -0.11492642898E+02  0.29652715534E+02  0.40022573269E+02  0.00000000000E+00 0. -1.
</event>
<event>
 8    1  0.1790275E-005  0.1587359E+03  0.7561462E-02  0.1190131E+00
          1   -1    0    0  501    0  0.00000000000E+00  0.00000000000E+00  0.15753566398E+03  0.15753566398E+03  0.00000000000E+00 0. -1.
         -1   -1    0    0    0  501 -0.00000000000E+00 -0.00000000000E+00 -0.23181954289E+03  0.23181954289E+03  0.00000000000E+00 0.  1.
         23    2    1    2    0    0  0.13919861179E+02  0.14740762023E+03 -0.89385674238E+02  0.19493681050E+03  0.89932153823E+02 0.  0.
         23    2    1    2    0    0 -0.13919861179E+02 -0.14740762023E+03  0.15101795327E+02  0.19441839636E+03  0.12509068544E+03 0.  0.
          5    1    4    4  502    0 -0.43238027825E+02 -0.45014203004E+02 -0.40176864290E+02  0.74346878525E+02  0.41800000000E+01 0. -1.
         -5    1    4    4    0  502  0.29318166646E+02 -0.10239341723E+03  0.55278659617E+02  0.12007151784E+03  0.41800000000E+01 0. -1.
        -11    1    3    3    0    0  0.58519704462E+01  0.10464780575E+03 -0.10533055304E+03  0.14859318359E+03  0.00000000000E+00 0.  1.
         11    1    3    3    0    0  0.80678907331E+01  0.42759814477E+02  0.15944878798E+02  0.46343626907E+02  0.00000000000E+00 0. -1.
</event>
<event>
 8    1  0.1790275E-005  0.9847864E+02  0.7561462E-02  0.1283528E+00
          2   -1    0    0  501    0  0.00000000000E+00  0.00000000000E+00  0.23926288824E+03  0.23926288824E+03  0.00000000000E+00 0. -1.
         -2   -1    0    0    0  501 -0.00000000000E+00 -0.00000000000E+00 -0.88862810962E+02  0.88862810962E+02  0.00000000000E+00 0.  1.
         23    2    1    2    0    0 -0.50116943915E+02 -0.74959052010E+02  0.27378634195E+02  0.13086210040E+03  0.90800507521E+02 0.  0.
         23    2    1    2    0    0  0.50116943915E+02  0.74959052010E+02  0.12302144309E+03  0.19726359880E+03  0.12509230355E+03 0.  0.
          5    1    4    4  502    0  0.19968743155E+02  0.51366863576E+02 -0.12255206578E+02  0.56612435605E+02  0.41800000000E+01 0.  1.
         -5    1    4    4    0  502  0.30148200760E+02  0.23592188434E+02  0.13527664967E+03  0.14065116320E+03  0.41800000000E+01 0.  1.
        -11    1    3    3    0    0 -0.15671153943E+01 -0.47252387618E+02 -0.25670103547E+02  0.53797752764E+02  0.00000000000E+00 0.  1.
         11    1    3    3    0    0 -0.48549828521E+02 -0.27706664392E+02  0.53048737742E+02  0.77064347640E+02  0.00000000000E+00 0. -1.
</event>
<event>
 8    1  0.1790275E-005  0.9560598E+02  0.7561462E-02  0.1289817E+00
         -1   -1    0    0    0  501 -0.00000000000E+00  0.00000000000E+00  0.15866252066E+02  0.15866252066E+02  0.00000000000E+00 0.  1.
          1   -1    0    0  501    0  0.00000000000E+00 -0.00000000000E+00 -0.79826808624E+03  0.79826808624E+03  0.00000000000E+00 0. -1.
         23    2    1    2    0    0 -0.12000606523E+02 -0.36004431030E+02 -0.20673966470E+03  0.22382563128E+03  0.76917427455E+02 0.  0.
         23    2    1    2    0    0  0.12000606523E+02  0.36004431030E+02 -0.57566216947E+03  0.59030870703E+03  0.12504840110E+03 0.  0.
          5    1    4    4  502    0 -0.37770099105E+00 -0.35506041274E+02 -0.37827797209E+03  0.37996383801E+03  0.41800000000E+01 0.  1.
         -5    1    4    4    0  502  0.12378307514E+02  0.71510472304E+02 -0.19738419738E+03  0.21034486902E+03  0.41800000000E+01 0.  1.
        -11    1    3    3    0    0 -0.43188258766E+02 -0.18332231300E+02 -0.87121479507E+02  0.98951748803E+02  0.00000000000E+00 0. -1.
         11    1    3    3    0    0  0.31187652243E+02 -0.17672199730E+02 -0.11961818519E+03  0.12487388248E+03  0.00000000000E+00 0.  1.
</event>
<event>
 8    1  0.1790275E-005  0.1645525E+03  0.7561462E-02  0.1183651E+00
         -1   -1    0    0    0  501 -0.00000000000E+00  0.00000000000E+00  0.64850176026E+03  0.64850176026E+03  0.00000000000E+00 0.  1.
          1   -1    0    0  501    0  0.00000000000E+00 -0.00000000000E+00 -0.85820028217E+02  0.85820028217E+02  0.00000000000E+00 0. -1.
         23    2    1    2    0    0 -0.72901836528E+02  0.11958243142E+03  0.50589692036E+03  0.53814471019E+03  0.11854703455E+03 0.  0.
         23    2    1    2    0    0  0.72901836528E+02 -0.11958243142E+03  0.56784811679E+02  0.19617707828E+03  0.12508515313E+03 0.  0.
          5    1    4    4  502    0  0.63568340991E+02 -0.68208610239E+02 -0.27183366040E+02  0.97209856889E+02  0.41800000000E+01 0. -1.
         -5    1    4    4    0  502  0.93334955367E+01 -0.51373821178E+02  0.83968177719E+02  0.98967221396E+02  0.41800000000E+01 0. -1.
        -11    1    3    3    0    0 -0.36216372150E+02  0.13776597457E+03  0.40009058186E+03  0.42469231575E+03  0.00000000000E+00 0. -1.
         11    1    3    3    0    0 -0.36685464378E+02 -0.18183543150E+02  0.10580633850E+03  0.11345239444E+03  0.00000000000E+00 0.  1.
</event>
<event>
 8    1  0.1790275E-005  0.1160579E+03  0.7561462E-02  0.1249746E+00
         -2   -1    0    0    0  501 -0.00000000000E+00  0.00000000000E+00  0.60690377845E+02  0.60690377845E+02  0.00000000000E+00 0.  1.
          2   -1    0    0  501    0  0.00000000000E+00 -0.00000000000E+00 -0.33289494114E+03  0.33289494114E+03  0.00000000000E+00 0. -1.
         23    2    1    2    0    0  0.83582060978E+02  0.30472777245E+02 -0.98103980182E+02  0.16148005393E+03  0.92395161232E+02 0.  0.
         23    2    1    2    0    0 -0.83582060978E+02 -0.30472777245E+02 -0.17410058311E+03  0.23210526506E+03  0.12508912805E+03 0.  0.
          5    1    4    4  502    0  0.11852630235E+02  0.13403399038E+02  0.93913241234E+01  0.20635050716E+02  0.41800000000E+01 0. -1.
         -5    1    4    4    0  502 -0.95434691213E+02 -0.43876176282E+02 -0.18349190724E+03  0.21147021434E+03  0.41800000000E+01 0. -1.
        -11    1    3    3    0    0  0.48820102369E+02  0.49051259926E+02 -0.10046478608E+03  0.12199426928E+03  0.00000000000E+00 0. -1.
         11    1    3    3    0    0  0.34761958608E+02 -0.18578482681E+02  0.23608058933E+01  0.39485784651E+02  0.00000000000E+00 0.  1.
</event>
<event>
 8    1  0.1790275E-005  0.1408798E+03  0.7561462E-02  0.1212150E+00
         -2   -1    0    0    0  501 -0.00000000000E+00  0.00000000000E+00  0.50343607093E+02  0.50343607093E+02  0.00000000000E+00 0.  1.
          2   -1    0    0  501    0  0.00000000000E+00 -0.00000000000E+00 -0.41713962353E+03  0.41713962353E+03  0.00000000000E+00 0. -1.
         23    2    1    2    0    0  0.80069857775E+02 -0.12722695497E+02 -0.17334270400E+03  0.22325846607E+03  0.11499391523E+03 0.  0.
         23    2    1    2    0    0 -0.80069857775E+02  0.12722695497E+02 -0.19345331244E+03  0.24422476455E+03  0.12509397436E+03 0.  0.
          5    1    4    4  502    0 -0.81750756396E+02 -0.41062359612E+02 -0.95039480967E+02  0.13198211580E+03  0.41800000000E+01 0. -1.
         -5    1    4    4    0  502  0.16808986216E+01  0.53785055110E+02 -0.98413831470E+02  0.11224264875E+03  0.41800000000E+01 0. -1.
        -11    1    3    3    0    0  0.75300725632E+02 -0.55260809848E+02 -0.14295865418E+03  0.17076631164E+03  0.00000000000E+00 0. -1.
         11    1    3    3    0    0  0.47691321428E+01  0.42538114351E+02 -0.30384049820E+02  0.52492154436E+02  0.00000000000E+00 0.  1.
</event>
<event>
 8    1  0.1790275E-005  0.9294072E+02  0.7561462E-02  0.1295883E+00
         -1   -1    0    0    0  501 -0.00000000000E+00  0.00000000000E+00  0.53625591140E+02  0.53625591140E+02  0.00000000000E+00 0.  1.
          1   -1    0    0  501    0  0.00000000000E+00 -0.00000000000E+00 -0.35517376229E+03  0.35517376229E+03  0.00000000000E+00 0. -1.
         23    2    1    2    0    0 -0.30203360596E+02  0.46720322191E+02 -0.40310936280E+02  0.11386281794E+03  0.90800540908E+02 0.  0.
         23    2    1    2    0    0  0.30203360596E+02 -0.46720322191E+02 -0.26123723487E+03  0.29493653549E+03  0.12509050958E+03 0.  0.
          5    1    4    4  502    0  0.68740365143E+02 -0.29487878917E+02 -0.83384331547E+02  0.11209456700E+03  0.41800000000E+01 0. -1.
         -5    1    4    4    0  502 -0.38537004547E+02 -0.17232443274E+02 -0.17785290333E+03  0.18284196849E+03  0.41800000000E+01 0. -1.
        -11    1    3    3    0    0  0.33359333608E-01  0.36688037200E+02 -0.64267896147E+02  0.74002538210E+02  0.00000000000E+00 0. -1.
         11    1    3    3    0    0 -0.30236719930E+02  0.10032284991E+02  0.23956959867E+02  0.39860279732E+02  0.00000000000E+00 0.  1.
</event>
<event>
 8    1  0.1790275E-005  0.7742536E+02  0.7561462E-02  0.1336521E+00
         -2   -1    0    0    0  501 -0.00000000000E+00  0.00000000000E+00  0.11531290153E+02  0.11531290153E+02  0.00000000000E+00 0.  1.
          2   -1    0    0  501    0  0.00000000000E+00 -0.00000000000E+00 -0.14807867413E+04  0.14807867413E+04  0.00000000000E+00 0. -1.
         23    2    1    2    0    0 -0.12268207748E+02  0.46766976138E+02 -0.34324035024E+03  0.35893296157E+03  0.93173353953E+02 0.  0.
         23    2    1    2    0    0  0.12268207748E+02 -0.46766976138E+02 -0.11260151009E+04  0.11333850699E+04  0.11964133983E+03 0.  0.
          5    1    4    4  502    0  0.36733720696E+00 -0.20077872974E+02 -0.10688607139E+04  0.10690575074E+04  0.41800000000E+01 0. -1.
         -5    1    4    4    0  502  0.11900870541E+02 -0.26689103164E+02 -0.57154387039E+02  0.64327562561E+02  0.41800000000E+01 0.  1.
        -11    1    3    3    0    0 -0.41560111912E+02 -0.83607680715E+01 -0.12944510818E+03  0.13621006342E+03  0.00000000000E+00 0.  1.
         11    1    3    3    0    0  0.29291904164E+02  0.55127744210E+02 -0.21379524207E+03  0.22272289815E+03  0.00000000000E+00 0. -1.
</event>
<event>
 8    1  0.1790275E-005  0.8526374E+02  0.7561462E-02  0.1314744E+00
         -2   -1    0    0    0  501 -0.00000000000E+00  0.00000000000E+00  0.72298195312E+02  0.72298195312E+02  0.00000000000E+00 0. -1.
          2   -1    0    0  501    0  0.00000000000E+00 -0.00000000000E+00 -0.28984678442E+03  0.28984678442E+03  0.00000000000E+00 0.  1.
         23    2    1    2    0    0 -0.31223231341E+02  0.39951215374E+02 -0.16218209321E+01  0.10751942002E+03  0.94798763668E+02 0.  0.
         23    2    1    2    0    0  0.31223231341E+02 -0.39951215374E+02 -0.21592676818E+03  0.25462555971E+03  0.12505525442E+03 0.  0.
          5    1    4    4  502    0  0.42611145833E+02 -0.14673144627E+02 -0.22146767110E+03  0.22604515625E+03  0.41800000000E+01 0.  1.
         -5    1    4    4    0  502 -0.11387914492E+02 -0.25278070747E+02  0.55409029178E+01  0.28580403466E+02  0.41800000000E+01 0.  1.
        -11    1    3    3    0    0 -0.57656703758E+02  0.41043169539E+02 -0.22012418005E+02  0.74117365040E+02  0.00000000000E+00 0.  1.
         11    1    3    3    0    0  0.26433472416E+02 -0.10919541652E+01  0.20390597073E+02  0.33402054980E+02  0.00000000000E+00 0. -1.
</event>
<event>
 8    1  0.1790275E-005  0.1175808E+03  0.7561462E-02  0.1247142E+00
          2   -1    0    0  501    0  0.00000000000E+00  0.00000000000E+00  0.92220420705E+03  0.92220420705E+03  0.00000000000E+00 0. -1.
         -2   -1    0    0    0  501 -0.00000000000E+00 -0.00000000000E+00 -0.17872918126E+02  0.17872918126E+02  0.00000000000E+00 0.  1.
         23    2    1    2    0    0  0.48697121413E+02 -0.22152553100E+02  0.22752062346E+03  0.24972759569E+03  0.87955060727E+02 0.  0.
         23    2    1    2    0    0 -0.48697121413E+02  0.22152553100E+02  0.67681066547E+03  0.69034952949E+03  0.12509057011E+03 0.  0.
          5    1    4    4  502    0 -0.44820870336E+02 -0.46052478106E+02  0.25408997961E+03  0.26212388539E+03  0.41800000000E+01 0. -1.
         -5    1    4    4    0  502 -0.38762510771E+01  0.68205031207E+02  0.42272068586E+03  0.42822564410E+03  0.41800000000E+01 0. -1.
        -11    1    3    3    0    0 -0.25559163490E+02 -0.39199625798E+01  0.46191914299E+02  0.52937037050E+02  0.00000000000E+00 0. -1.
         11    1    3    3    0    0  0.74256284904E+02 -0.18232590521E+02  0.18132870916E+03  0.19679055864E+03  0.00000000000E+00 0.  1.
</event>
<event>
 8    1  0.1790275E-005  0.1082998E+03  0.7561462E-02  0.1263751E+00
          1   -1    0    0  501    0  0.00000000000E+00  0.00000000000E+00  0.63438548726E+03  0.63438548726E+03  0.00000000000E+00 0. -1.
         -1   -1    0    0    0  501 -0.00000000000E+00 -0.00000000000E+00 -0.21585746378E+02  0.21585746378E+02  0.00000000000E+00 0.  1.
         23    2    1    2    0    0 -0.29198892368E+02 -0.19232764866E+02  0.17839085552E+03  0.20255969257E+03  0.89356908859E+02 0.  0.
         23    2    1    2    0    0  0.29198892368E+02  0.19232764866E+02  0.43440888537E+03  0.45341154107E+03  0.12509385010E+03 0.  0.
          5    1    4    4  502    0  0.69928799324E+01 -0.53112703840E+02  0.16374826115E+03  0.17233927327E+03  0.41800000000E+01 0. -1.
         -5    1    4    4    0  502  0.22206012435E+02  0.72345468706E+02  0.27066062421E+03  0.28107226781E+03  0.41800000000E+01 0. -1.
        -11    1    3    3    0    0 -0.39059320278E+01 -0.48348518371E+02  0.55254841980E+02  0.73525050805E+02  0.00000000000E+00 0. -1.
         11    1    3    3    0    0 -0.25292960340E+02  0.29115753504E+02  0.12313601353E+03  0.12903464176E+03  0.00000000000E+00 0.  1.
</event>
<event>
 8    1  0.1790275E-005  0.1565764E+03  0.7561462E-02  0.1192617E+00
         -2   -1    0    0    0  501 -0.00000000000E+00  0.00000000000E+00  0.11120355648E+03  0.11120355648E+03  0.00000000000E+00 0.  1.
          2   -1    0    0  501    0  0.00000000000E+00 -0.00000000000E+00 -0.45904863366E+03  0.45904863366E+03  0.00000000000E+00 0. -1.
         23    2    1    2    0    0  0.13314774422E+03  0.78260099508E+02 -0.11382153654E+02  0.17947326397E+03  0.90709062904E+02 0.  0.
         23    2    1    2    0    0 -0.13314774422E+03 -0.78260099508E+02 -0.33646292352E+03  0.39077892617E+03  0.12509158752E+03 0.  0.
          5    1    4    4  502    0 -0.39397997988E+02 -0.41341755088E+02 -0.23369992636E+02  0.61846357331E+02  0.41800000000E+01 0. -1.
         -5    1    4    4    0  502 -0.93749746232E+02 -0.36918344420E+02 -0.31309293089E+03  0.32893256884E+03  0.41800000000E+01 0. -1.
        -11    1    3    3    0    0  0.26834436645E+02  0.22388557197E+02  0.36175788079E+02  0.50299325309E+02  0.00000000000E+00 0.  1.
         11    1    3    3    0    0  0.10631330757E+03  0.55871542311E+02 -0.47557941733E+02  0.12917393866E+03  0.00000000000E+00 0. -1.
</event>
<event>
 8    1  0.1790275E-005  0.7961498E+02  0.7561462E-02  0.1330148E+00
         -3   -1    0    0    0  501 -0.00000000000E+00  0.00000000000E+00  0.10655445983E+03  0.10655445983E+03  0.00000000000E+00 0.  1.
          3   -1    0    0  501    0  0.00000000000E+00 -0.00000000000E+00 -0.72969091072E+03  0.72969091072E+03  0.00000000000E+00 0. -1.
         23    2    1    2    0    0  0.19891419976E+02  0.14810110627E+02  0.80294297331E+02  0.12372133425E+03  0.90800806166E+02 0.  0.
         23    2    1    2    0    0 -0.19891419976E+02 -0.14810110627E+02 -0.70343074822E+03  0.71252403629E+03  0.11072794040E+03 0.  0.
          5    1    4    4  502    0 -0.38188513848E+02 -0.37572966188E+02 -0.64335228915E+03  0.64559254235E+03  0.41800000000E+01 0. -1.
         -5    1    4    4    0  502  0.18297093873E+02  0.22762855561E+02 -0.60078459065E+02  0.66931493941E+02  0.41800000000E+01 0.  1.
        -11    1    3    3    0    0 -0.18146794433E+02  0.29976228319E+02  0.74544230167E+02  0.82369427967E+02  0.00000000000E+00 0.  1.
         11    1    3    3    0    0  0.38038214408E+02 -0.15166117692E+02  0.57500671643E+01  0.41351906288E+02  0.00000000000E+00 0. -1.
</event>
<event>
 8    1  0.1790275E-005  0.1450700E+03  0.7561462E-02  0.1206665E+00
          1   -1    0    0  501    0  0.00000000000E+00  0.00000000000E+00  0.16978606193E+03  0.16978606193E+03  0.00000000000E+00 0. -1.
         -1   -1    0    0    0  501 -0.00000000000E+00 -0.00000000000E+00 -0.12874045715E+03  0.12874045715E+03  0.00000000000E+00 0.  1.
         23    2    1    2    0    0 -0.41429154222E+02  0.90337827354E+02  0.30707438814E+02  0.13842937341E+03  0.91336995537E+02 0.  0.
         23    2    1    2    0    0  0.41429154222E+02 -0.90337827354E+02  0.10338165962E+02  0.16009714566E+03  0.12508765128E+03 0.  0.
          5    1    4    4  502    0 -0.40143145948E+02 -0.60325832533E+02  0.82961476592E+01  0.73054614525E+02  0.41800000000E+01 0.  1.
         -5    1    4    4    0  502  0.81572300170E+02 -0.30011994821E+02  0.20420183026E+01  0.87042531138E+02  0.41800000000E+01 0.  1.
        -11    1    3    3    0    0 -0.67579614346E+02  0.70961841834E+02  0.37953592377E+02  0.10508597645E+03  0.00000000000E+00 0. -1.
         11    1    3    3    0    0  0.26150460124E+02  0.19375985520E+02 -0.72461535624E+01  0.33343396963E+02  0.00000000000E+00 0.  1.
</event>
<event>
 8    1  0.1790275E-005  0.1751320E+03  0.7561462E-02  0.1172599E+00
          2   -1    0    0  501    0  0.00000000000E+00  0.00000000000E+00  0.38729773655E+03  0.38729773655E+03  0.00000000000E+00 0. -1.
         -2   -1    0    0    0  501 -0.00000000000E+00 -0.00000000000E+00 -0.11153945038E+03  0.11153945038E+03  0.00000000000E+00 0.  1.
         23    2    1    2    0    0  0.16550916278E+03  0.20983031309E+02  0.56669734699E+02  0.19638085353E+03  0.86720298855E+02 0.  0.
         23    2    1    2    0    0 -0.16550916278E+03 -0.20983031309E+02  0.21908855147E+03  0.30245633341E+03  0.12508584918E+03 0.  0.
          5    1    4    4  502    0 -0.82107134505E+02  0.23598774866E+02  0.18142519784E+03  0.20057681452E+03  0.41800000000E+01 0.  1.
         -5    1    4    4    0  502 -0.83402028274E+02 -0.44581806175E+02  0.37663353634E+02  0.10187951889E+03  0.41800000000E+01 0.  1.
        -11    1    3    3    0    0  0.11982243697E+02  0.10920761533E+02  0.38102588433E+02  0.41408265380E+02  0.00000000000E+00 0.  1.
         11    1    3    3    0    0  0.15352691908E+03  0.10062269775E+02  0.18567146266E+02  0.15497258814E+03  0.00000000000E+00 0. -1.
</event>
<event>
 8    1  0.1790275E-005  0.1130032E+03  0.7561462E-02  0.1255107E+00
         -2   -1    0    0    0  501 -0.00000000000E+00  0.00000000000E+00  0.15980491810E+02  0.15980491810E+02  0.00000000000E+00 0.  1.
          2   -1    0    0  501    0  0.00000000000E+00 -0.00000000000E+00 -0.16293725086E+04  0.16293725086E+04  0.00000000000E+00 0. -1.
         23    2    1    2    0    0  0.80001344898E+02 -0.92503579656E+01 -0.30032887995E+03  0.32388876823E+03  0.90668151786E+02 0.  0.
         23    2    1    2    0    0 -0.80001344898E+02  0.92503579656E+01 -0.13130631369E+04  0.13214642322E+04  0.12508849381E+03 0.  0.
          5    1    4    4  502    0 -0.80318771937E+02  0.54949486174E+02 -0.70891143142E+03  0.71557210758E+03  0.41800000000E+01 0.  1.
         -5    1    4    4    0  502  0.31742703930E+00 -0.45699128209E+02 -0.60415170544E+03  0.60589212461E+03  0.41800000000E+01 0.  1.
        -11    1    3    3    0    0  0.52588645815E+02 -0.15028333795E+02 -0.28822899283E+03  0.29337240633E+03  0.00000000000E+00 0. -1.
         11    1    3    3    0    0  0.27412699083E+02  0.57779758293E+01 -0.12099887116E+02  0.30516361905E+02  0.00000000000E+00 0.  1.
</event>
<event>
 8    1  0.1790275E-005  0.1040251E+03  0.7561462E-02  0.1272052E+00
          3   -1    0    0  501    0  0.00000000000E+00  0.00000000000E+00  0.81471848398E+02  0.81471848398E+02  0.00000000000E+00 0. -1.
         -3   -1    0    0    0  501 -0.00000000000E+00 -0.00000000000E+00 -0.24529755826E+03  0.24529755826E+03  0.00000000000E+00 0.  1.
         23    2    1    2    0    0 -0.73247822174E+02  0.39119088500E+02 -0.11910945128E+03  0.17011217396E+03  0.88631505734E+02 0.  0.
         23    2    1    2    0    0  0.73247822174E+02 -0.39119088500E+02 -0.44716258585E+02  0.15665723269E+03  0.12508556366E+03 0.  0.
          5    1    4    4  502    0  0.51341244337E+02 -0.69985914938E+02 -0.69456373445E+02  0.11124572743E+03  0.41800000000E+01 0. -1.
         -5    1    4    4    0  502  0.21906577837E+02  0.30866826438E+02  0.24740114860E+02  0.45411505261E+02  0.41800000000E+01 0. -1.
        -11    1    3    3    0    0 -0.26351229783E+02  0.15318115527E+02  0.88733476114E+01  0.31745366153E+02  0.00000000000E+00 0. -1.
         11    1    3    3    0    0 -0.46896592391E+02  0.23800972974E+02 -0.12798279889E+03  0.13836680781E+03  0.00000000000E+00 0.  1.
</event>
<event>
 8    1  0.1790275E-005  0.1109421E+03  0.7561462E-02  0.1258835E+00
          1   -1    0    0  501    0  0.00000000000E+00  0.00000000000E+00  0.18613532195E+03  0.18613532195E+03  0.00000000000E+00 0. -1.
         -1   -1    0    0    0  501 -0.00000000000E+00 -0.00000000000E+00 -0.15613490838E+03  0.15613490838E+03  0.00000000000E+00 0.  1.
         23    2    1    2    0    0  0.45000955460E+02  0.31892396110E+02 -0.10580081238E+03  0.14957597687E+03  0.90205044398E+02 0.  0.
         23    2    1    2    0    0 -0.45000955460E+02 -0.31892396110E+02  0.13580122595E+03  0.19269425345E+03  0.12508753503E+03 0.  0.
          5    1    4    4  502    0  0.23164397890E+02  0.31263107302E+02  0.19361513803E+02  0.43661330998E+02  0.41800000000E+01 0.  1.
         -5    1    4    4    0  502 -0.68165353350E+02 -0.63155503412E+02  0.11643971215E+03  0.14903292245E+03  0.41800000000E+01 0.  1.
        -11    1    3    3    0    0  0.98187288147E+01  0.49447055807E+02 -0.96949794853E+02  0.10927342534E+03  0.00000000000E+00 0.  1.
         11    1    3    3    0    0  0.35182226646E+02 -0.17554659697E+02 -0.88510175308E+01  0.40302551534E+02  0.00000000000E+00 0. -1.
</event>
<event>
 8    1  0.1790275E-005  0.1209060E+03  0.7561462E-02  0.1241610E+00
          1   -1    0    0  501    0  0.00000000000E+00  0.00000000000E+00  0.12524913057E+04  0.12524913057E+04  0.00000000000E+00 0. -1.
         -1   -1    0    0    0  501 -0.00000000000E+00 -0.00000000000E+00 -0.12944576339E+02  0.12944576339E+02  0.00000000000E+00 0.  1.
         23    2    1    2    0    0  0.64752292915E+02  0.75800011700E+01  0.47101133179E+03  0.48406002182E+03  0.90620716157E+02 0.  0.
         23    2    1    2    0    0 -0.64752292915E+02 -0.75800011700E+01  0.76853539755E+03  0.78137586019E+03  0.12510500291E+03 0.  0.
          5    1    4    4  502    0  0.15921101175E+02  0.40545097204E+02  0.32882219820E+03  0.33172111298E+03  0.41800000000E+01 0.  1.
         -5    1    4    4    0  502 -0.80673394090E+02 -0.48125098374E+02  0.43971319935E+03  0.44965474721E+03  0.41800000000E+01 0.  1.
        -11    1    3    3    0    0  0.75260719063E+02 -0.17117291280E+02  0.41287203846E+03  0.42002440124E+03  0.00000000000E+00 0. -1.
         11    1    3    3    0    0 -0.10508426147E+02  0.24697292450E+02  0.58139293322E+02  0.64035620576E+02  0.00000000000E+00 0.  1.
</event>
<event>
 8    1  0.1790275E-005  0.1218400E+03  0.7561462E-02  0.1240092E+00
          2   -1    0    0  501    0  0.00000000000E+00  0.00000000000E+00  0.20341255991E+03  0.20341255991E+03  0.00000000000E+00 0.  1.
         -2   -1    0    0    0  501 -0.00000000000E+00 -0.00000000000E+00 -0.90100081290E+02  0.90100081290E+02  0.00000000000E+00 0. -1.
         23    2    1    2    0    0  0.62499493319E+02 -0.64039862351E+02  0.69229824141E+02  0.13351791403E+03  0.70901157824E+02 0.  0.
         23    2    1    2    0    0 -0.62499493319E+02  0.64039862351E+02  0.44082654479E+02  0.15999472717E+03  0.12509093357E+03 0.  0.
          5    1    4    4  502    0  0.31233077986E+02  0.14120743508E+02  0.41091448328E+02  0.53673830526E+02  0.41800000000E+01 0. -1.
         -5    1    4    4    0  502 -0.93732571305E+02  0.49919118843E+02  0.29912061516E+01  0.10632089665E+03  0.41800000000E+01 0. -1.
        -11    1    3    3    0    0  0.52896566681E+02 -0.18054116863E+02  0.81840127308E+01  0.56488724244E+02  0.00000000000E+00 0.  1.
         11    1    3    3    0    0  0.96029266384E+01 -0.45985745488E+02  0.61045811410E+02  0.77029189785E+02  0.00000000000E+00 0. -1.
</event>
<event>
 8    1  0.1790275E-005  0.1367752E+03  0.7561462E-02  0.1217735E+00
         -1   -1    0    0    0  501 -0.00000000000E+00  0.00000000000E+00  0.41033303938E+02  0.41033303938E+02  0.00000000000E+00 0.  1.
          1   -1    0    0  501    0  0.00000000000E+00 -0.00000000000E+00 -0.51626027728E+03  0.51626027728E+03  0.00000000000E+00 0. -1.
         23    2    1    2    0    0  0.89586934609E+02 -0.23317479160E+02 -0.16801630131E+03  0.21291682265E+03  0.92382748252E+02 0.  0.
         23    2    1    2    0    0 -0.89586934609E+02  0.23317479160E+02 -0.30721067203E+03  0.34437675857E+03  0.12508969240E+03 0.  0.
          5    1    4    4  502    0 -0.38899353458E+02 -0.50101447985E+02 -0.96932078452E+02  0.11591641395E+03  0.41800000000E+01 0.  1.
         -5    1    4    4    0  502 -0.50687581151E+02  0.73418927145E+02 -0.21027859358E+03  0.22846034462E+03  0.41800000000E+01 0.  1.
        -11    1    3    3    0    0  0.95960214971E+02 -0.39121356981E+02 -0.10456231055E+03  0.14721453806E+03  0.00000000000E+00 0.  1.
         11    1    3    3    0    0 -0.63732803623E+01  0.15803877821E+02 -0.63453990758E+02  0.65702284586E+02  0.00000000000E+00 0. -1.
</event>
<event>
 8    1  0.1790275E-005  0.1351135E+03  0.7561462E-02  0.1220060E+00
          1   -1    0    0  501    0  0.00000000000E+00  0.00000000000E+00  0.93707802690E+03  0.93707802690E+03  0.00000000000E+00 0. -1.
         -1   -1    0    0    0  501 -0.00000000000E+00 -0.00000000000E+00 -0.30113622014E+02  0.30113622014E+02  0.00000000000E+00 0.  1.
         23    2    1    2    0    0  0.42160957644E+02 -0.85651855935E+02  0.17671622378E+03  0.22018139007E+03  0.90207726990E+02 0.  0.
         23    2    1    2    0    0 -0.42160957644E+02  0.85651855935E+02  0.73024818110E+03  0.74701025885E+03  0.12509250196E+03 0.  0.
          5    1    4    4  502    0 -0.72637103876E+02  0.79257543790E+02  0.67442376542E+03  0.68295153186E+03  0.41800000000E+01 0. -1.
         -5    1    4    4    0  502  0.30476146232E+02  0.63943121447E+01  0.55824415680E+02  0.64058726985E+02  0.41800000000E+01 0. -1.
        -11    1    3    3    0    0 -0.18403192988E+02 -0.64489793376E+02  0.85516797138E+02  0.10867719887E+03  0.00000000000E+00 0. -1.
         11    1    3    3    0    0  0.60564150632E+02 -0.21162062559E+02  0.91199426646E+02  0.11150419119E+03  0.00000000000E+00 0.  1.
</event>
<event>
 8    1  0.1790275E-005  0.8100804E+02  0.7561462E-02  0.1326215E+00
         -1   -1    0    0    0  501 -0.00000000000E+00  0.00000000000E+00  0.15343448469E+03  0.15343448469E+03  0.00000000000E+00 0.  1.
          1   -1    0    0  501    0  0.00000000000E+00 -0.00000000000E+00 -0.11601200085E+03  0.11601200085E+03  0.00000000000E+00 0. -1.
         23    2    1    2    0    0 -0.26692515411E+02  0.55374683935E+02  0.64116904334E+02  0.12753653707E+03  0.91519095640E+02 0.  0.
         23    2    1    2    0    0  0.26692515411E+02 -0.55374683935E+02 -0.26694420489E+02  0.14190994847E+03  0.12508795061E+03 0.  0.
          5    1    4    4  502    0  0.25379823293E+02  0.68212616679E+01 -0.63958025524E+02  0.69273129496E+02  0.41800000000E+01 0. -1.
         -5    1    4    4    0  502  0.13126921181E+01 -0.62195945603E+02  0.37263605035E+02  0.72636818971E+02  0.41800000000E+01 0. -1.
        -11    1    3    3    0    0 -0.28094759426E+02  0.13522881209E+02  0.77530536346E+02  0.83565351011E+02  0.00000000000E+00 0.  1.
         11    1    3    3    0    0  0.14022440154E+01  0.41851802726E+02 -0.13413632013E+02  0.43971186059E+02  0.00000000000E+00 0. -1.
</event>
<event>
 8    1  0.1790275E-005  0.1242307E+03  0.7561462E-02  0.1236277E+00
         -1   -1    0    0    0  501 -0.00000000000E+00  0.00000000000E+00  0.72895259087E+02  0.72895259087E+02  0.00000000000E+00 0.  1.
          1   -1    0    0  501    0  0.00000000000E+00 -0.00000000000E+00 -0.24713916615E+03  0.24713916615E+03  0.00000000000E+00 0. -1.
         23    2    1    2    0    0 -0.13283805848E+02 -0.60511142594E+02 -0.24416464228E+02  0.11526011521E+03  0.94078013142E+02 0.  0.
         23    2    1    2    0    0  0.13283805848E+02  0.60511142594E+02 -0.14982744283E+03  0.20477431002E+03  0.12508476144E+03 0.  0.
          5    1    4    4  502    0  0.61817443841E+02  0.36966980188E+01 -0.88068604481E+02  0.10774327559E+03  0.41800000000E+01 0. -1.
         -5    1    4    4    0  502 -0.48533637994E+02  0.56814444575E+02 -0.61758838349E+02  0.97031034435E+02  0.41800000000E+01 0. -1.
        -11    1    3    3    0    0  0.23733979433E+02  0.14565402633E+02  0.73437133062E+00  0.27856633588E+02  0.00000000000E+00 0. -1.
         11    1    3    3    0    0 -0.37017785280E+02 -0.75076545227E+02 -0.25150835559E+02  0.87403481622E+02  0.00000000000E+00 0.  1.
</event>
<event>
 8    1  0.1790275E-005  0.2300942E+03  0.7561462E-02  0.1126574E+00
          1   -1    0    0  501    0  0.00000000000E+00  0.00000000000E+00  0.44073128951E+03  0.44073128951E+03  0.00000000000E+00 0. -1.
         -1   -1    0    0    0  501 -0.00000000000E+00 -0.00000000000E+00 -0.13779740887E+03  0.13779740887E+03  0.00000000000E+00 0.  1.
         23    2    1    2    0    0  0.75601065076E+02  0.20753369543E+03  0.13775867424E+03  0.27568204223E+03  0.90760014864E+02 0.  0.
         23    2    1    2    0    0 -0.75601065076E+02 -0.20753369543E+03  0.16517520640E+03  0.30284665614E+03  0.12508993784E+03 0.  0.
          5    1    4    4  502    0 -0.39596177913E+02 -0.19330731530E+03  0.87364936655E+02  0.21583716086E+03  0.41800000000E+01 0.  1.
         -5    1    4    4    0  502 -0.36004887163E+02 -0.14226380137E+02  0.77810269745E+02  0.87009495282E+02  0.41800000000E+01 0.  1.
        -11    1    3    3    0    0  0.23653604652E+02  0.26388819109E+02 -0.93089812420E+01  0.36640413736E+02  0.00000000000E+00 0.  1.
         11    1    3    3    0    0  0.51947460424E+02  0.18114487632E+03  0.14706765548E+03  0.23904162849E+03  0.00000000000E+00 0. -1.
</event>
<event>
 8    1  0.1790275E-005  0.1138275E+03  0.7561462E-02  0.1253642E+00
         -1   -1    0    0    0  501 -0.00000000000E+00  0.00000000000E+00  0.55992973191E+02  0.55992973191E+02  0.00000000000E+00 0.  1.
          1   -1    0    0  501    0  0.00000000000E+00 -0.00000000000E+00 -0.59655061423E+03  0.59655061423E+03  0.00000000000E+00 0. -1.
         23    2    1    2    0    0  0.78776642294E+02  0.51190848755E+02 -0.57628503410E+02  0.14490743387E+03  0.94078996685E+02 0.  0.
         23    2    1    2    0    0 -0.78776642294E+02 -0.51190848755E+02 -0.48292913763E+03  0.50763615355E+03  0.12509056742E+03 0.  0.
          5    1    4    4  502    0 -0.68224782231E+02  0.14372512167E+01 -0.41676465292E+03  0.42233509791E+03  0.41800000000E+01 0.  1.
         -5    1    4    4    0  502 -0.10551860063E+02 -0.52628099971E+02 -0.66164484707E+02  0.85301055644E+02  0.41800000000E+01 0.  1.
        -11    1    3    3    0    0  0.33886342984E+02 -0.42071478229E+01 -0.64798632260E+02  0.73245116400E+02  0.00000000000E+00 0.  1.
         11    1    3    3    0    0  0.44890299310E+02  0.55397996578E+02  0.71701288508E+01  0.71662317467E+02  0.00000000000E+00 0. -1.
</event>
<event>
 8    1  0.1790275E-005  0.1143127E+03  0.7561462E-02  0.1252786E+00
         -2   -1    0    0    0  501 -0.00000000000E+00  0.00000000000E+00  0.11254958985E+02  0.11254958985E+02  0.00000000000E+00 0.  1.
          2   -1    0    0  501    0  0.00000000000E+00 -0.00000000000E+00 -0.14053612678E+04  0.14053612678E+04  0.00000000000E+00 0. -1.
         23    2    1    2    0    0 -0.34712800342E+02 -0.41744244848E+02 -0.43500929550E+03  0.44787357053E+03  0.91706529295E+02 0.  0.
         23    2    1    2    0    0  0.34712800342E+02  0.41744244848E+02 -0.95909701332E+03  0.96874265626E+03  0.12509073757E+03 0.  0.
          5    1    4    4  502    0  0.15081831589E+02  0.78717314012E+02 -0.80549947848E+03  0.80948796124E+03  0.41800000000E+01 0. -1.
         -5    1    4    4    0  502  0.19630968753E+02 -0.36973069164E+02 -0.15359753484E+03  0.15925469502E+03  0.41800000000E+01 0. -1.
        -11    1    3    3    0    0 -0.65409569357E+02 -0.37252855417E+02 -0.32219773376E+03  0.33087394373E+03  0.00000000000E+00 0.  1.
         11    1    3    3    0    0  0.30696769015E+02 -0.44913894317E+01 -0.11281156174E+03  0.11699962679E+03  0.00000000000E+00 0. -1.
</event>
<event>
 8    1  0.1790275E-005  0.1907450E+03  0.7561462E-02  0.1157791E+00
         -1   -1    0    0    0  501 -0.00000000000E+00  0.00000000000E+00  0.34504425910E+03  0.34504425910E+03  0.00000000000E+00 0.  1.
          1   -1    0    0  501    0  0.00000000000E+00 -0.00000000000E+00 -0.10812956010E+03  0.10812956010E+03  0.00000000000E+00 0. -1.
         23    2    1    2    0    0 -0.58373217427E+02  0.14669855998E+03  0.12943794849E+03  0.22486077836E+03  0.94235275377E+02 0.  0.
         23    2    1    2    0    0  0.58373217427E+02 -0.14669855998E+03  0.10747675051E+03  0.22831304084E+03  0.12509073789E+03 0.  0.
          5    1    4    4  502    0  0.96304666440E+02 -0.12389259690E+03  0.84114580064E+02  0.17809182835E+03  0.41800000000E+01 0.  1.
         -5    1    4    4    0  502 -0.37931449013E+02 -0.22805963071E+02  0.23362170450E+02  0.50221212490E+02  0.41800000000E+01 0.  1.
        -11    1    3    3    0    0 -0.81275236071E+02  0.10934745688E+03  0.76889604279E+02  0.15644341332E+03  0.00000000000E+00 0.  1.
         11    1    3    3    0    0  0.22902018644E+02  0.37351103094E+02  0.52548344209E+02  0.68417365043E+02  0.00000000000E+00 0. -1.
</event>
<event>
 7    1  0.1790275E-005  0.7989707E+02  0.7561462E-02  0.1329344E+00
         -1   -1    0    0    0  501 -0.00000000000E+00  0.00000000000E+00  0.37457577297E+03  0.37457577297E+03  0.00000000000E+00 0.  1.
          1   -1    0    0  501    0  0.00000000000E+00 -0.00000000000E+00 -0.77715494547E+02  0.77715494547E+02  0.00000000000E+00 0. -1.
         23    2    1    2    0    0  0.12838768233E+02  0.47102573575E+02  0.19084169441E+03  0.22103867541E+03  0.10026992218E+03 0.  0.
          5    1    1    2  502    0 -0.31375120752E+02 -0.25865782304E+02 -0.54554941170E+02  0.68170014687E+02  0.41800000000E+01 0. -1.
         -5    1    1    2    0  502  0.18536352519E+02 -0.21236791271E+02  0.16057352519E+03  0.16308257742E+03  0.41800000000E+01 0.  1.
        -11    1    3    3    0    0 -0.24267967663E+02  0.47468247690E+02  0.42654218889E+02  0.68275553329E+02  0.00000000000E+00 0.  1.
         11    1    3    3    0    0  0.37106735896E+02 -0.36567411525E+00  0.14818747552E+03  0.15276312208E+03  0.00000000000E+00 0. -1.
</event>
<event>
 8    1  0.1790275E-005  0.8192437E+02  0.7561462E-02  0.1323677E+00
          2   -1    0    0  501    0  0.00000000000E+00  0.00000000000E+00  0.18944113384E+03  0.18944113384E+03  0.00000000000E+00 0. -1.
         -2   -1    0    0    0  501 -0.00000000000E+00 -0.00000000000E+00 -0.64731964583E+02  0.64731964583E+02  0.00000000000E+00 0.  1.
         23    2    1    2    0    0 -0.21518808317E+02  0.17843630753E+01  0.51668122094E+02  0.10768558272E+03  0.91980143630E+02 0.  0.
         23    2    1    2    0    0  0.21518808317E+02 -0.17843630753E+01  0.73041047164E+02  0.14648751570E+03  0.12512935157E+03 0.  0.
          5    1    4    4  502    0 -0.69642637008E+01 -0.58933164919E+02  0.52325245063E+02  0.79227662891E+02  0.41800000000E+01 0. -1.
         -5    1    4    4    0  502  0.28483072018E+02  0.57148801844E+02  0.20715802101E+02  0.67259852813E+02  0.41800000000E+01 0. -1.
        -11    1    3    3    0    0 -0.22621739174E+02 -0.12632101956E+02 -0.21149934605E+02  0.33445968619E+02  0.00000000000E+00 0.  1.
         11    1    3    3    0    0  0.11029308573E+01  0.14416465031E+02  0.72818056699E+02  0.74239614101E+02  0.00000000000E+00 0. -1.
</event>
<event>
 8    1  0.1790275E-005  0.1201432E+03  0.7561462E-02  0.1242861E+00
          1   -1    0    0  501    0  0.00000000000E+00  0.00000000000E+00  0.35201551081E+03  0.35201551081E+03  0.00000000000E+00 0. -1.
         -1   -1    0    0    0  501 -0.00000000000E+00 -0.00000000000E+00 -0.60690687407E+02  0.60690687407E+02  0.00000000000E+00 0.  1.
         23    2    1    2    0    0  0.12324239919E+02  0.96944201720E+02  0.13841263868E+03  0.19229791778E+03  0.90941549905E+02 0.  0.
         23    2    1    2    0    0 -0.12324239919E+02 -0.96944201720E+02  0.15291218472E+03  0.22040828044E+03  0.12509040216E+03 0.  0.
          5    1    4    4  502    0  0.19836656701E+02 -0.15001698890E+02 -0.16015533942E+02  0.29874966881E+02  0.41800000000E+01 0. -1.
         -5    1    4    4    0  502 -0.32160896619E+02 -0.81942502829E+02  0.16892771866E+03  0.19053331356E+03  0.41800000000E+01 0. -1.
        -11    1    3    3    0    0  0.32384353714E+02  0.49215284588E+01  0.12506257867E+02  0.35062434223E+02  0.00000000000E+00 0.  1.
         11    1    3    3    0    0 -0.20060113795E+02  0.92022673261E+02  0.12590638081E+03  0.15723548355E+03  0.00000000000E+00 0. -1.
</event>
<event>
 8    1  0.1790275E-005  0.1056743E+03  0.7561462E-02  0.1268797E+00
         -2   -1    0    0    0  501 -0.00000000000E+00  0.00000000000E+00  0.21604974438E+03  0.21604974438E+03  0.00000000000E+00 0.  1.
          2   -1    0    0  501    0  0.00000000000E+00 -0.00000000000E+00 -0.83508516871E+02  0.83508516871E+02  0.00000000000E+00 0. -1.
         23    2    1    2    0    0  0.73705684345E+02 -0.67276797060E+01  0.94093986620E+02  0.14921473488E+03  0.89070585546E+02 0.  0.
         23    2    1    2    0    0 -0.73705684345E+02  0.67276797060E+01  0.38447240890E+02  0.15034352637E+03  0.12508875253E+03 0.  0.
          5    1    4    4  502    0 -0.31578633525E+02  0.48065198317E+02 -0.25651435667E+02  0.63110553289E+02  0.41800000000E+01 0.  1.
         -5    1    4    4    0  502 -0.42127050820E+02 -0.41337518611E+02  0.64098676557E+02  0.87232973079E+02  0.41800000000E+01 0.  1.
        -11    1    3    3    0    0 -0.10294322382E+01 -0.18787428413E+02  0.65735839318E+02  0.68375637240E+02  0.00000000000E+00 0. -1.
         11    1    3    3    0    0  0.74735116583E+02  0.12059748707E+02  0.28358147302E+02  0.80839097645E+02  0.00000000000E+00 0.  1.
</event>
<event>
 8    1  0.1790275E-005  0.1110136E+03  0.7561462E-02  0.1258704E+00
         -2   -1    0    0    0  501 -0.00000000000E+00  0.00000000000E+00  0.31514063381E+03  0.31514063381E+03  0.00000000000E+00 0.  1.
          2   -1    0    0  501    0  0.00000000000E+00 -0.00000000000E+00 -0.52250544205E+02  0.52250544205E+02  0.00000000000E+00 0. -1.
         23    2    1    2    0    0  0.35742201233E+02  0.53031382186E+02  0.15137724589E+03  0.18802393677E+03  0.91367925327E+02 0.  0.
         23    2    1    2    0    0 -0.35742201233E+02 -0.53031382186E+02  0.11151284372E+03  0.17936724125E+03  0.12509060906E+03 0.  0.
          5    1    4    4  502    0 -0.57725675490E+02 -0.67234506004E+02  0.12201587187E+03  0.15085780655E+03  0.41800000000E+01 0. -1.
         -5    1    4    4    0  502  0.21983474257E+02  0.14203123818E+02 -0.10503028153E+02  0.28509434702E+02  0.41800000000E+01 0. -1.
        -11    1    3    3    0    0  0.41233326358E+02  0.74228437101E+02  0.94326953967E+02  0.12691580801E+03  0.00000000000E+00 0. -1.
         11    1    3    3    0    0 -0.54911251258E+01 -0.21197054915E+02  0.57050291922E+02  0.61108128760E+02  0.00000000000E+00 0.  1.
</event>
<event>
 8    1  0.1790275E-005  0.9575528E+02  0.7561462E-02  0.1289484E+00
         -2   -1    0    0    0  501 -0.00000000000E+00  0.00000000000E+00  0.54028649181E+02  0.54028649181E+02  0.00000000000E+00 0. -1.
          2   -1    0    0  501    0  0.00000000000E+00 -0.00000000000E+00 -0.26259142324E+03  0.26259142324E+03  0.00000000000E+00 0.  1.
         23    2    1    2    0    0  0.11805180771E+02  0.37161961586E+02 -0.45002125832E+02  0.10704853480E+03  0.88959675090E+02 0.  0.
         23    2    1    2    0    0 -0.11805180771E+02 -0.37161961586E+02 -0.16356064823E+03  0.20957153762E+03  0.12509104704E+03 0.  0.
          5    1    4    4  502    0  0.29784509719E+02  0.33564295944E+02 -0.35263155725E+02  0.57224483686E+02  0.41800000000E+01 0. -1.
         -5    1    4    4    0  502 -0.41589690490E+02 -0.70726257530E+02 -0.12829749250E+03  0.15234705393E+03  0.41800000000E+01 0. -1.
        -11    1    3    3    0    0  0.31716281716E+02  0.28249037716E+02  0.13536162780E+02  0.44577554448E+02  0.00000000000E+00 0. -1.
         11    1    3    3    0    0 -0.19911100946E+02  0.89129238703E+01 -0.58538288612E+02  0.62470980354E+02  0.00000000000E+00 0.  1.
</event>
<event>
 7    1  0.1790275E-005  0.1054784E+03  0.7561462E-02  0.1269180E+00
          1   -1    0    0  501    0  0.00000000000E+00  0.00000000000E+00  0.26386079675E+03  0.26386079675E+03  0.00000000000E+00 0.  1.
         -1   -1    0    0    0  501 -0.00000000000E+00 -0.00000000000E+00 -0.50085757674E+02  0.50085757674E+02  0.00000000000E+00 0. -1.
         23    2    1    2    0    0  0.38420219931E+02 -0.49968789398E+02  0.18163432059E+03  0.22936899657E+03  0.12508443932E+03 0.  0.
          5    1    3    3  502    0  0.80643901664E+02 -0.49275246609E+02  0.14593741887E+03  0.17391575958E+03  0.41800000000E+01 0. -1.
         -5    1    3    3    0  502 -0.42223681733E+02 -0.69354278921E+00  0.35696901715E+02  0.55453236991E+02  0.41800000000E+01 0. -1.
        -11    1    1    2    0    0 -0.27127349336E+02  0.50345628989E+01  0.25873017014E+02  0.37823972755E+02  0.00000000000E+00 0. -1.
         11    1    1    2    0    0 -0.11292870595E+02  0.44934226499E+02  0.62677014731E+01  0.46753585094E+02  0.00000000000E+00 0.  1.
</event>
<event>
 8    1  0.1790275E-005  0.1854746E+03  0.7561462E-02  0.1162607E+00
          2   -1    0    0  501    0  0.00000000000E+00  0.00000000000E+00  0.12673306204E+03  0.12673306204E+03  0.00000000000E+00 0.  1.
         -2   -1    0    0    0  501 -0.00000000000E+00 -0.00000000000E+00 -0.31325131176E+03  0.31325131176E+03  0.00000000000E+00 0. -1.
         23    2    1    2    0    0  0.77705529399E+02 -0.13474706149E+03 -0.15716229951E+03  0.23823268455E+03  0.88656098045E+02 0.  0.
         23    2    1    2    0    0 -0.77705529399E+02  0.13474706149E+03 -0.29355950209E+02  0.20175168926E+03  0.12508817860E+03 0.  0.
          5    1    4    4  502    0 -0.35633244662E+02 -0.13062709184E+02 -0.29111688914E+02  0.48013803513E+02  0.41800000000E+01 0.  1.
         -5    1    4    4    0  502 -0.42072284737E+02  0.14780977067E+03 -0.24426129561E+00  0.15373788574E+03  0.41800000000E+01 0.  1.
        -11    1    3    3    0    0  0.51133901435E+02 -0.10793950446E+02 -0.44813642041E+02  0.68843647166E+02  0.00000000000E+00 0.  1.
         11    1    3    3    0    0  0.26571627964E+02 -0.12395311104E+03 -0.11234865747E+03  0.16938903738E+03  0.00000000000E+00 0. -1.
</event>
<event>
 8    1  0.1790275E-005  0.2074119E+03  0.7561462E-02  0.1143632E+00
          1   -1    0    0  501    0  0.00000000000E+00  0.00000000000E+00  0.74805946875E+02  0.74805946875E+02  0.00000000000E+00 0. -1.
         -1   -1    0    0    0  501 -0.00000000000E+00 -0.00000000000E+00 -0.64990451236E+03  0.64990451236E+03  0.00000000000E+00 0.  1.
         23    2    1    2    0    0 -0.16317907405E+03  0.88166307746E+02 -0.37090963443E+03  0.42482123137E+03  0.92186841132E+02 0.  0.
         23    2    1    2    0    0  0.16317907405E+03 -0.88166307746E+02 -0.20418893106E+03  0.29988922787E+03  0.11764234524E+03 0.  0.
          5    1    4    4  502    0  0.17647724378E+03 -0.73070608758E+02 -0.15311511533E+03  0.24483717524E+03  0.41800000000E+01 0. -1.
         -5    1    4    4    0  502 -0.13298169723E+02 -0.15095698988E+02 -0.51073815726E+02  0.55052052629E+02  0.41800000000E+01 0.  1.
        -11    1    3    3    0    0 -0.63485360336E+02  0.81498984975E+02 -0.22943860115E+03  0.25162382087E+03  0.00000000000E+00 0. -1.
         11    1    3    3    0    0 -0.99693713719E+02  0.66673227708E+01 -0.14147103328E+03  0.17319741050E+03  0.00000000000E+00 0.  1.
</event>
<event>
 8    1  0.1790275E-005  0.1183515E+03  0.7561462E-02  0.1245842E+00
         -2   -1    0    0    0  501 -0.00000000000E+00  0.00000000000E+00  0.17407497761E+03  0.17407497761E+03  0.00000000000E+00 0.  1.
          2   -1    0    0  501    0  0.00000000000E+00 -0.00000000000E+00 -0.12966203704E+03  0.12966203704E+03  0.00000000000E+00 0. -1.
         23    2    1    2    0    0  0.99251448217E+02  0.31314227423E+02  0.26815012113E+02  0.14006169993E+03  0.89815389001E+02 0.  0.
         23    2    1    2    0    0 -0.99251448217E+02 -0.31314227423E+02  0.17597928458E+02  0.16367531472E+03  0.12509392771E+03 0.  0.
          5    1    4    4  502    0 -0.18873250666E+02 -0.45147057664E+02 -0.40330902101E+02  0.63549275926E+02  0.41800000000E+01 0.  1.
         -5    1    4    4    0  502 -0.80378197551E+02  0.13832830242E+02  0.57928830559E+02  0.10012603879E+03  0.41800000000E+01 0.  1.
        -11    1    3    3    0    0  0.15361875031E+02 -0.23345849641E+01  0.45224659432E+02  0.47819528564E+02  0.00000000000E+00 0.  1.
         11    1    3    3    0    0  0.83889573187E+02  0.33648812387E+02 -0.18409647319E+02  0.92242171369E+02  0.00000000000E+00 0. -1.
</event>
<event>
 8    1  0.1790275E-005  0.1666735E+03  0.7561462E-02  0.1181362E+00
         -1   -1    0    0    0  501 -0.00000000000E+00  0.00000000000E+00  0.81661845821E+02  0.81661845821E+02  0.00000000000E+00 0.  1.
          1   -1    0    0  501    0  0.00000000000E+00 -0.00000000000E+00 -0.53136139582E+03  0.53136139582E+03  0.00000000000E+00 0. -1.
         23    2    1    2    0    0  0.15110540299E+03 -0.26242204065E+02 -0.81237816858E+02  0.19477236752E+03  0.88403598197E+02 0.  0.
         23    2    1    2    0    0 -0.15110540299E+03  0.26242204065E+02 -0.36846173314E+03  0.41825087412E+03  0.12509296073E+03 0.  0.
          5    1    4    4  502    0 -0.72982042596E+02  0.42043915910E+02 -0.70910910673E+02  0.11018121010E+03  0.41800000000E+01 0.  1.
         -5    1    4    4    0  502 -0.78123360398E+02 -0.15801711845E+02 -0.29755082247E+03  0.30806966402E+03  0.41800000000E+01 0.  1.
        -11    1    3    3    0    0  0.12855070332E+03  0.73271239181E+01 -0.84796560899E+02  0.15417336609E+03  0.00000000000E+00 0. -1.
         11    1    3    3    0    0  0.22554699670E+02 -0.33569327983E+02  0.35587440417E+01  0.40599001436E+02  0.00000000000E+00 0.  1.
</event>
<event>
 6    1  0.1790275E-005  0.1242647E+03  0.7561462E-02  0.1236223E+00
         -2   -1    0    0    0  501 -0.00000000000E+00  0.00000000000E+00  0.23687251537E+02  0.23687251537E+02  0.00000000000E+00 0.  1.
          2   -1    0    0  501    0  0.00000000000E+00 -0.00000000000E+00 -0.88550111702E+03  0.88550111702E+03  0.00000000000E+00 0. -1.
          5    1    1    2  502    0  0.87074819304E+02 -0.82616087337E+02 -0.61186043770E+03  0.62353677492E+03  0.41800000000E+01 0. -1.
         -5    1    1    2    0  502 -0.53885140378E+02  0.45883258639E+02 -0.18864115749E+03  0.20152379630E+03  0.41800000000E+01 0.  1.
        -11    1    1    2    0    0 -0.22534117057E+02  0.37200870825E+01 -0.22248109526E+02  0.31884225833E+02  0.00000000000E+00 0. -1.
         11    1    1    2    0    0 -0.10655561869E+02  0.33012741616E+02 -0.39064160757E+02  0.52243571503E+02  0.00000000000E+00 0.  1.
</event>
<event>
 8    1  0.1790275E-005  0.1743381E+03  0.7561462E-02  0.1173398E+00
          2   -1    0    0  501    0  0.00000000000E+00  0.00000000000E+00  0.28429497815E+03  0.28429497815E+03  0.00000000000E+00 0. -1.
         -2   -1    0    0    0  501 -0.00000000000E+00 -0.00000000000E+00 -0.13885938668E+03  0.13885938668E+03  0.00000000000E+00 0.  1.
         23    2    1    2    0    0 -0.10778688947E+03 -0.92932352275E+02 -0.25131148286E+02  0.16822855093E+03  0.86109436731E+02 0.  0.
         23    2    1    2    0    0  0.10778688947E+03  0.92932352275E+02  0.17056673975E+03  0.25492581390E+03  0.12505887510E+03 0.  0.
          5    1    4    4  502    0 -0.22144983243E+02 -0.17792805665E+01  0.32517407870E+01  0.22838834040E+02  0.41800000000E+01 0. -1.
         -5    1    4    4    0  502  0.12993187271E+03  0.94711632841E+02  0.16731499897E+03  0.23208697986E+03  0.41800000000E+01 0. -1.
        -11    1    3    3    0    0 -0.19183016926E+02  0.15881029586E+02  0.30885968746E+01  0.25094514734E+02  0.00000000000E+00 0.  1.
         11    1    3    3    0    0 -0.88603872543E+02 -0.10881338186E+03 -0.28219745161E+02  0.14313403620E+03  0.00000000000E+00 0. -1.
</event>
<event>
 8    1  0.1790275E-005  0.7904494E+02  0.7561462E-02  0.1331784E+00
         -1   -1    0    0    0  501 -0.00000000000E+00  0.00000000000E+00  0.83184053038E+02  0.83184053038E+02  0.00000000000E+00 0.  1.
          1   -1    0    0  501    0  0.00000000000E+00 -0.00000000000E+00 -0.16146863163E+03  0.16146863163E+03  0.00000000000E+00 0. -1.
         23    2    1    2    0    0 -0.28063136680E+02  0.29636215601E+02 -0.29442877206E+02  0.10430146511E+03  0.91356815240E+02 0.  0.
         23    2    1    2    0    0  0.28063136680E+02 -0.29636215601E+02 -0.48841701390E+02  0.14035121956E+03  0.12508840123E+03 0.  0.
          5    1    4    4  502    0  0.30973041956E+01  0.17275691060E+02 -0.77677982620E+02  0.79745747089E+02  0.41800000000E+01 0.  1.
         -5    1    4    4    0  502  0.24965832484E+02 -0.46911906661E+02  0.28836281230E+02  0.60605472471E+02  0.41800000000E+01 0.  1.
        -11    1    3    3    0    0  0.26423658754E+02  0.47754088368E+01 -0.35045196441E+02  0.44149519421E+02  0.00000000000E+00 0. -1.
         11    1    3    3    0    0 -0.54486795434E+02  0.24860806764E+02  0.56023192350E+01  0.60151945691E+02  0.00000000000E+00 0.  1.
</event>
<event>
 8    1  0.1790275E-005  0.4544760E+03  0.7561462E-02  0.1026396E+00
         -2   -1    0    0    0  501 -0.00000000000E+00  0.00000000000E+00  0.14164942864E+03  0.14164942864E+03  0.00000000000E+00 0.  1.
          2   -1    0    0  501    0  0.00000000000E+00 -0.00000000000E+00 -0.15115452189E+04  0.15115452189E+04  0.00000000000E+00 0. -1.
         23    2    1    2    0    0 -0.22284341994E+02 -0.44676092313E+03 -0.59819796389E+03  0.75249921805E+03  0.91226941313E+02 0.  0.
         23    2    1    2    0    0  0.22284341994E+02  0.44676092313E+03 -0.77169782634E+03  0.90069542946E+03  0.12507120824E+03 0.  0.
          5    1    4    4  502    0  0.11020559376E+01  0.42155979418E+03 -0.65153374561E+03  0.77603322653E+03  0.41800000000E+01 0. -1.
         -5    1    4    4    0  502  0.21182286056E+02  0.25201128950E+02 -0.12016408073E+03  0.12466220293E+03  0.41800000000E+01 0. -1.
        -11    1    3    3    0    0 -0.45806693407E+02 -0.15907710683E+03 -0.25549137313E+03  0.30443327811E+03  0.00000000000E+00 0. -1.
         11    1    3    3    0    0  0.23522351413E+02 -0.28768381630E+03 -0.34270659076E+03  0.44806593994E+03  0.00000000000E+00 0.  1.
</event>
<event>
 8    1  0.1790275E-005  0.1438071E+03  0.7561462E-02  0.1208296E+00
          2   -1    0    0  501    0  0.00000000000E+00  0.00000000000E+00  0.21590869628E+03  0.21590869628E+03  0.00000000000E+00 0. -1.
         -2   -1    0    0    0  501 -0.00000000000E+00 -0.00000000000E+00 -0.11269561626E+03  0.11269561626E+03  0.00000000000E+00 0.  1.
         23    2    1    2    0    0 -0.25634936303E+01  0.11134385160E+03  0.42770976265E+02  0.15053116073E+03  0.91794603073E+02 0.  0.
         23    2    1    2    0    0  0.25634936303E+01 -0.11134385160E+03  0.60442103758E+02  0.17807315180E+03  0.12511104947E+03 0.  0.
          5    1    4    4  502    0 -0.41046258178E+02 -0.10999033752E+02 -0.14832614863E+02  0.45202355221E+02  0.41800000000E+01 0.  1.
         -5    1    4    4    0  502  0.43609751808E+02 -0.10034481784E+03  0.75274718621E+02  0.13287079658E+03  0.41800000000E+01 0.  1.
        -11    1    3    3    0    0 -0.39200400196E+02  0.45368892062E+02 -0.66464116458E+01  0.60325637420E+02  0.00000000000E+00 0. -1.
         11    1    3    3    0    0  0.36636906565E+02  0.65974959535E+02  0.49417387911E+02  0.90205523313E+02  0.00000000000E+00 0.  1.
</event>
<event>
 8    1  0.1790275E-005  0.1296354E+03  0.7561462E-02  0.1227998E+00
         -2   -1    0    0    0  501 -0.00000000000E+00  0.00000000000E+00  0.54909193970E+02  0.54909193970E+02  0.00000000000E+00 0.  1.
          2   -1    0    0  501    0  0.00000000000E+00 -0.00000000000E+00 -0.37745697380E+03  0.37745697380E+03  0.00000000000E+00 0. -1.
         23    2    1    2    0    0 -0.70310747384E+02  0.32987507409E+02 -0.70679678323E+02  0.14061888767E+03  0.93521536553E+02 0.  0.
         23    2    1    2    0    0  0.70310747384E+02 -0.32987507409E+02 -0.25186810151E+03  0.29174728010E+03  0.12508860079E+03 0.  0.
          5    1    4    4  502    0  0.95656812027E+02 -0.51083517888E+02 -0.14998682966E+03  0.18513042148E+03  0.41800000000E+01 0.  1.
         -5    1    4    4    0  502 -0.25346064643E+02  0.18096010479E+02 -0.10188127185E+03  0.10661685862E+03  0.41800000000E+01 0.  1.
        -11    1    3    3    0    0 -0.26362487213E+02  0.61518005231E+02 -0.26149502303E+02  0.71855703812E+02  0.00000000000E+00 0.  1.
         11    1    3    3    0    0 -0.43948260170E+02 -0.28530497822E+02 -0.44530176020E+02  0.68763183858E+02  0.00000000000E+00 0. -1.
</event>
<event>
 8    1  0.1790275E-005  0.1165376E+03  0.7561462E-02  0.1248921E+00
          2   -1    0    0  501    0  0.00000000000E+00  0.00000000000E+00  0.67773832570E+02  0.67773832570E+02  0.00000000000E+00 0.  1.
         -2   -1    0    0    0  501 -0.00000000000E+00 -0.00000000000E+00 -0.22641429837E+03  0.22641429837E+03  0.00000000000E+00 0. -1.
         23    2    1    2    0    0 -0.60498216336E+02  0.16189763960E+01 -0.73734952633E+02  0.13134584776E+03  0.90289718233E+02 0.  0.
         23    2    1    2    0    0  0.60498216336E+02 -0.16189763960E+01 -0.84905513168E+02  0.16284228318E+03  0.12508400282E+03 0.  0.
          5    1    4    4  502    0  0.80574946751E+02  0.31889632814E+02 -0.23393758330E+02  0.89855500965E+02  0.41800000000E+01 0.  1.
         -5    1    4    4    0  502 -0.20076730414E+02 -0.33508609210E+02 -0.61511754838E+02  0.72986782219E+02  0.41800000000E+01 0.  1.
        -11    1    3    3    0    0  0.20290135113E+02  0.14882151701E+02 -0.27693024258E+02  0.37417530847E+02  0.00000000000E+00 0. -1.
         11    1    3    3    0    0 -0.80788351449E+02 -0.13263175305E+02 -0.46041928375E+02  0.93928316909E+02  0.00000000000E+00 0.  1.
</event>
<event>
 8    1  0.1790275E-005  0.1466972E+03  0.7561462E-02  0.1204591E+00
         -2   -1    0    0    0  501 -0.00000000000E+00  0.00000000000E+00  0.20004427010E+02  0.20004427010E+02  0.00000000000E+00 0.  1.
          2   -1    0    0  501    0  0.00000000000E+00 -0.00000000000E+00 -0.16111055193E+04  0.16111055193E+04  0.00000000000E+00 0. -1.
         23    2    1    2    0    0 -0.10396562343E+03  0.79093844180E+02 -0.49457290296E+03  0.51976522692E+03  0.92134943033E+02 0.  0.
         23    2    1    2    0    0  0.10396562343E+03 -0.79093844180E+02 -0.10965281893E+04  0.11113447194E+04  0.12509327834E+03 0.  0.
          5    1    4    4  502    0  0.67108292325E+02 -0.92319293913E+02 -0.10080380453E+04  0.10144873327E+04  0.41800000000E+01 0. -1.
         -5    1    4    4    0  502  0.36857331100E+02  0.13225449733E+02 -0.88490143998E+02  0.96857386715E+02  0.41800000000E+01 0. -1.
        -11    1    3    3    0    0 -0.51256201501E+02  0.69294797274E+02 -0.41473527236E+03  0.42359687589E+03  0.00000000000E+00 0. -1.
         11    1    3    3    0    0 -0.52709421925E+02  0.97990469055E+01 -0.79837630599E+02  0.96168351028E+02  0.00000000000E+00 0.  1.
</event>
<event>
 8    1  0.1790275E-005  0.1501304E+03  0.7561462E-02  0.1200313E+00
          2   -1    0    0  501    0  0.00000000000E+00  0.00000000000E+00  0.32977144984E+03  0.32977144984E+03  0.00000000000E+00 0. -1.
         -2   -1    0    0    0  501 -0.00000000000E+00 -0.00000000000E+00 -0.14860389902E+03  0.14860389902E+03  0.00000000000E+00 0.  1.
         23    2    1    2    0    0 -0.10583917233E+03  0.11837354762E+02 -0.86362376260E+02  0.16442994402E+03  0.90756228922E+02 0.  0.
         23    2    1    2    0    0  0.10583917233E+03 -0.11837354762E+02  0.26752992707E+03  0.31394540484E+03  0.12508957579E+03 0.  0.
          5    1    4    4  502    0  0.13079077606E+03 -0.28273578690E+02  0.21153449047E+03  0.25033964011E+03  0.41800000000E+01 0.  1.
         -5    1    4    4    0  502 -0.24951603726E+02  0.16436223928E+02  0.55995436607E+02  0.63605764726E+02  0.41800000000E+01 0.  1.
        -11    1    3    3    0    0 -0.40605473814E+02 -0.36834949189E+02 -0.16735508973E+02  0.57320984342E+02  0.00000000000E+00 0.  1.
         11    1    3    3    0    0 -0.65233698521E+02  0.48672303951E+02 -0.69626867288E+02  0.10710895968E+03  0.00000000000E+00 0. -1.
</event>
<event>
 8    1  0.1790275E-005  0.1110653E+03  0.7561462E-02  0.1258610E+00
         -1   -1    0    0    0  501 -0.00000000000E+00  0.00000000000E+00  0.86027025917E+01  0.86027025917E+01  0.00000000000E+00 0.  1.
          1   -1    0    0  501    0  0.00000000000E+00 -0.00000000000E+00 -0.15753131738E+04  0.15753131738E+04  0.00000000000E+00 0. -1.
         23    2    1    2    0    0 -0.55866608877E+01 -0.27601883181E+02 -0.44257228046E+03  0.45248822352E+03  0.89901580960E+02 0.  0.
         23    2    1    2    0    0  0.55866608877E+01  0.27601883181E+02 -0.11241381908E+04  0.11314276529E+04  0.12509511200E+03 0.  0.
          5    1    4    4  502    0  0.64699987174E+02  0.21857173608E+02 -0.56451112179E+03  0.56864233346E+03  0.41800000000E+01 0. -1.
         -5    1    4    4    0  502 -0.59113326286E+02  0.57447095724E+01 -0.55962706900E+03  0.56278531945E+03  0.41800000000E+01 0. -1.
        -11    1    3    3    0    0 -0.86835740244E+01  0.32678169237E+02 -0.15283917233E+03  0.15653459617E+03  0.00000000000E+00 0.  1.
         11    1    3    3    0    0  0.30969131367E+01 -0.60280052417E+02 -0.28973310813E+03  0.29595362734E+03  0.00000000000E+00 0. -1.
</event>
<event>
 8    1  0.1790275E-005  0.8942625E+02  0.7561462E-02  0.1304247E+00
         -1   -1    0    0    0  501 -0.00000000000E+00  0.00000000000E+00  0.24897270696E+02  0.24897270696E+02  0.00000000000E+00 0.  1.
          1   -1    0    0  501    0  0.00000000000E+00 -0.00000000000E+00 -0.64370884697E+03  0.64370884697E+03  0.00000000000E+00 0. -1.
         23    2    1    2    0    0 -0.50281546411E+02 -0.39993883739E+02 -0.26462885440E+03  0.28752758502E+03  0.92281834178E+02 0.  0.
         23    2    1    2    0    0  0.50281546411E+02  0.39993883739E+02 -0.35418272188E+03  0.38107853265E+03  0.12509077874E+03 0.  0.
          5    1    4    4  502    0  0.30264110458E+02  0.45290206191E+02 -0.43917940427E+02  0.70095485232E+02  0.41800000000E+01 0. -1.
         -5    1    4    4    0  502  0.20017435952E+02 -0.52963224515E+01 -0.31026478145E+03  0.31098304742E+03  0.41800000000E+01 0. -1.
        -11    1    3    3    0    0  0.86397268123E+01 -0.43232093460E+02 -0.59334374879E+02  0.73920408729E+02  0.00000000000E+00 0.  1.
         11    1    3    3    0    0 -0.58921273223E+02  0.32382097209E+01 -0.20529447952E+03  0.21360717629E+03  0.00000000000E+00 0. -1.
</event>
<event>
 8    1  0.1790275E-005  0.9150629E+02  0.7561462E-02  0.1299244E+00
         -2   -1    0    0    0  501 -0.00000000000E+00  0.00000000000E+00  0.24634777324E+02  0.24634777324E+02  0.00000000000E+00 0.  1.
          2   -1    0    0  501    0  0.00000000000E+00 -0.00000000000E+00 -0.49785801199E+03  0.49785801199E+03  0.00000000000E+00 0. -1.
         23    2    1    2    0    0  0.30324848385E+02  0.14603762895E+02 -0.17624781350E+03  0.19849532778E+03  0.84877777223E+02 0.  0.
         23    2    1    2    0    0 -0.30324848385E+02 -0.14603762895E+02 -0.29697542116E+03  0.32399746153E+03  0.12508832073E+03 0.  0.
          5    1    4    4  502    0 -0.46228854534E+02 -0.54638850385E+02 -0.10458649310E+03  0.12680030718E+03  0.41800000000E+01 0.  1.
         -5    1    4    4    0  502  0.15904006148E+02  0.40035087490E+02 -0.19238892806E+03  0.19719715435E+03  0.41800000000E+01 0.  1.
        -11    1    3    3    0    0  0.36493948194E+02 -0.13767097515E+02 -0.29502551732E+02  0.48905437198E+02  0.00000000000E+00 0.  1.
         11    1    3    3    0    0 -0.61690998089E+01  0.28370860410E+02 -0.14674526177E+03  0.14958989058E+03  0.00000000000E+00 0. -1.
</event>
<event>
 8    1  0.1790275E-005  0.1041612E+03  0.7561462E-02  0.1271781E+00
          2   -1    0    0  501    0  0.00000000000E+00  0.00000000000E+00  0.41915560727E+03  0.41915560727E+03  0.00000000000E+00 0. -1.
         -2   -1    0    0    0  501 -0.00000000000E+00 -0.00000000000E+00 -0.53816804298E+02  0.53816804298E+02  0.00000000000E+00 0.  1.
         23    2    1    2    0    0 -0.22745015562E+02 -0.29503561548E+02  0.17182487993E+02  0.10115623051E+03  0.92463772367E+02 0.  0.
         23    2    1    2    0    0  0.22745015562E+02  0.29503561548E+02  0.34815631498E+03  0.37181618106E+03  0.12508659784E+03 0.  0.
          5    1    4    4  502    0 -0.47662328670E+02  0.69712541503E+01  0.20523972680E+03  0.21085804185E+03  0.41800000000E+01 0. -1.
         -5    1    4    4    0  502  0.70407344233E+02  0.22532307398E+02  0.14291658818E+03  0.16095813921E+03  0.41800000000E+01 0. -1.
        -11    1    3    3    0    0  0.21502680461E+02 -0.35269167501E+02 -0.17279840159E+02  0.44775800597E+02  0.00000000000E+00 0.  1.
         11    1    3    3    0    0 -0.44247696023E+02  0.57656059527E+01  0.34462328152E+02  0.56380429912E+02  0.00000000000E+00 0. -1.
</event>
<event>
 8    1  0.1790275E-005  0.1363309E+03  0.7561462E-02  0.1218353E+00
          1   -1    0    0  501    0  0.00000000000E+00  0.00000000000E+00  0.20768316119E+03  0.20768316119E+03  0.00000000000E+00 0. -1.
         -1   -1    0    0    0  501 -0.00000000000E+00 -0.00000000000E+00 -0.11830974844E+03  0.11830974844E+03  0.00000000000E+00 0.  1.
         23    2    1    2    0    0 -0.65551484623E+02 -0.92372880357E+02  0.47895330176E+02  0.15220658290E+03  0.89683527268E+02 0.  0.
         23    2    1    2    0    0  0.65551484623E+02  0.92372880357E+02  0.41478082578E+02  0.17378632673E+03  0.12510599451E+03 0.  0.
          5    1    4    4  502    0  0.43376052704E+02  0.10181246380E+03  0.73924658235E+02  0.13315249614E+03  0.41800000000E+01 0. -1.
         -5    1    4    4    0  502  0.22175431919E+02 -0.94395834421E+01 -0.32446575657E+02  0.40633830588E+02  0.41800000000E+01 0. -1.
        -11    1    3    3    0    0  0.18792602070E+01 -0.64440280797E+02  0.45996893781E+02  0.79194669300E+02  0.00000000000E+00 0. -1.
         11    1    3    3    0    0 -0.67430744830E+02 -0.27932599561E+02  0.18984363946E+01  0.73011913598E+02  0.00000000000E+00 0.  1.
</event>
<event>
 8    1  0.1790275E-005  0.1375768E+03  0.7561462E-02  0.1216627E+00
         -2   -1    0    0    0  501 -0.00000000000E+00  0.00000000000E+00  0.62701037741E+02  0.62701037741E+02  0.00000000000E+00 0. -1.
          2   -1    0    0  501    0  0.00000000000E+00 -0.00000000000E+00 -0.31444140945E+03  0.31444140945E+03  0.00000000000E+00 0.  1.
         23    2    1    2    0    0  0.92204133297E+01  0.88704377714E+02 -0.13303798252E+03  0.18300243516E+03  0.88528548121E+02 0.  0.
         23    2    1    2    0    0 -0.92204133297E+01 -0.88704377714E+02 -0.11870238918E+03  0.19414001203E+03  0.12508638785E+03 0.  0.
          5    1    4    4  502    0  0.49354904590E+02 -0.73869069819E+02 -0.48083034323E+02  0.10110389049E+03  0.41800000000E+01 0.  1.
         -5    1    4    4    0  502 -0.58575317920E+02 -0.14835307896E+02 -0.70619354861E+02  0.93036121537E+02  0.41800000000E+01 0.  1.
        -11    1    3    3    0    0  0.15747313036E+02  0.10599826739E+03 -0.11244544327E+03  0.15533057738E+03  0.00000000000E+00 0. -1.
         11    1    3    3    0    0 -0.65268997067E+01 -0.17293889676E+02 -0.20592539252E+02  0.27671857776E+02  0.00000000000E+00 0.  1.
</event>
<event>
 8    1  0.1790275E-005  0.9101051E+02  0.7561462E-02  0.1300423E+00
         -1   -1    0    0    0  501 -0.00000000000E+00  0.00000000000E+00  0.72386840108E+02  0.72386840108E+02  0.00000000000E+00 0.  1.
          1   -1    0    0  501    0  0.00000000000E+00 -0.00000000000E+00 -0.27931005921E+03  0.27931005921E+03  0.00000000000E+00 0. -1.
         23    2    1    2    0    0 -0.55522996176E+02  0.33265335258E+02 -0.14456885819E+02  0.11319740985E+03  0.91734761215E+02 0.  0.
         23    2    1    2    0    0  0.55522996176E+02 -0.33265335258E+02 -0.19246633329E+03  0.23849948947E+03  0.12509728772E+03 0.  0.
          5    1    4    4  502    0  0.23736780642E+02 -0.29126735906E+02 -0.20143537426E+03  0.20495239424E+03  0.41800000000E+01 0.  1.
         -5    1    4    4    0  502  0.31786215534E+02 -0.41385993522E+01  0.89690409752E+01  0.33547095233E+02  0.41800000000E+01 0.  1.
        -11    1    3    3    0    0  0.35763944623E+01 -0.27144161676E+02 -0.75734415617E+01  0.28406920416E+02  0.00000000000E+00 0. -1.
         11    1    3    3    0    0 -0.59099390638E+02  0.60409496934E+02 -0.68834442575E+01  0.84790489435E+02  0.00000000000E+00 0.  1.
</event>
<event>
 8    1  0.1790275E-005  0.1311094E+03  0.7561462E-02  0.1225819E+00
         -2   -1    0    0    0  501 -0.00000000000E+00  0.00000000000E+00  0.15851915603E+02  0.15851915603E+02  0.00000000000E+00 0.  1.
          2   -1    0    0  501    0  0.00000000000E+00 -0.00000000000E+00 -0.17870064465E+04  0.17870064465E+04  0.00000000000E+00 0. -1.
         23    2    1    2    0    0  0.46606139234E+02  0.60424470408E+02 -0.28007323629E+03  0.30459402716E+03  0.92267301118E+02 0.  0.
         23    2    1    2    0    0 -0.46606139234E+02 -0.60424470408E+02 -0.14910812946E+04  0.14982643349E+04  0.12509732771E+03 0.  0.
          5    1    4    4  502    0 -0.26970993305E+01 -0.90555248793E+02 -0.80073985824E+03  0.80585936763E+03  0.41800000000E+01 0. -1.
         -5    1    4    4    0  502 -0.43909039904E+02  0.30130778385E+02 -0.69034143635E+03  0.69240496729E+03  0.41800000000E+01 0. -1.
        -11    1    3    3    0    0 -0.30346279415E+01  0.67849526846E+02 -0.13575605552E+03  0.15179747650E+03  0.00000000000E+00 0.  1.
         11    1    3    3    0    0  0.49640767176E+02 -0.74250564380E+01 -0.14431718077E+03  0.15279655066E+03  0.00000000000E+00 0. -1.
</event>
<event>
 8    1  0.1790275E-005  0.1207843E+03  0.7561462E-02  0.1241809E+00
         -1   -1    0    0    0  501 -0.00000000000E+00  0.00000000000E+00  0.16966293836E+02  0.16966293836E+02  0.00000000000E+00 0.  1.
          1   -1    0    0  501    0  0.00000000000E+00 -0.00000000000E+00 -0.90231951021E+03  0.90231951021E+03  0.00000000000E+00 0. -1.
         23    2    1    2    0    0  0.62421165906E+02 -0.66042521159E+01 -0.40055598145E+03  0.41468272491E+03  0.87043954216E+02 0.  0.
         23    2    1    2    0    0 -0.62421165906E+02  0.66042521159E+01 -0.48479723492E+03  0.50460307913E+03  0.12512350052E+03 0.  0.
          5    1    4    4  502    0 -0.90107087583E+02  0.38031672202E+02 -0.33836215721E+03  0.35223872183E+03  0.41800000000E+01 0.  1.
         -5    1    4    4    0  502  0.27685921676E+02 -0.31427420086E+02 -0.14643507771E+03  0.15236435730E+03  0.41800000000E+01 0.  1.
        -11    1    3    3    0    0  0.12267777868E+02 -0.39661876258E+02 -0.10165479618E+03  0.10980555719E+03  0.00000000000E+00 0.  1.
         11    1    3    3    0    0  0.50153388039E+02  0.33057624142E+02 -0.29890118526E+03  0.30487716772E+03  0.00000000000E+00 0. -1.
</event>
<event>
 8    1  0.1790275E-005  0.1554331E+03  0.7561462E-02  0.1193951E+00
         -2   -1    0    0    0  501 -0.00000000000E+00  0.00000000000E+00  0.24013395084E+03  0.24013395084E+03  0.00000000000E+00 0.  1.
          2   -1    0    0  501    0  0.00000000000E+00 -0.00000000000E+00 -0.32105253661E+03  0.32105253661E+03  0.00000000000E+00 0. -1.
         23    2    1    2    0    0 -0.10717371166E+03  0.89300292681E+02  0.17658021833E+03  0.24273229555E+03  0.90981575351E+02 0.  0.
         23    2    1    2    0    0  0.10717371166E+03 -0.89300292681E+02 -0.25749880410E+03  0.31845419190E+03  0.12508673585E+03 0.  0.
          5    1    4    4  502    0  0.90299518566E+02 -0.53116548443E+02 -0.68502118470E+02  0.12524130072E+03  0.41800000000E+01 0.  1.
         -5    1    4    4    0  502  0.16874193090E+02 -0.36183744238E+02 -0.18899668563E+03  0.19321289118E+03  0.41800000000E+01 0.  1.
        -11    1    3    3    0    0 -0.14559628998E+02  0.69708428202E+02  0.65124608814E+02  0.96501100679E+02  0.00000000000E+00 0.  1.
         11    1    3    3    0    0 -0.92614082658E+02  0.19591864479E+02  0.11145560952E+03  0.14623119487E+03  0.00000000000E+00 0. -1.
</event>
<event>
 8    1  0.1790275E-005  0.1026854E+03  0.7561462E-02  0.1274748E+00
         -3   -1    0    0    0  501 -0.00000000000E+00  0.00000000000E+00  0.37186622126E+02  0.37186622126E+02  0.00000000000E+00 0.  1.
          3   -1    0    0  501    0  0.00000000000E+00 -0.00000000000E+00 -0.38704920607E+03  0.38704920607E+03  0.00000000000E+00 0. -1.
         23    2    1    2    0    0 -0.12007061472E+02  0.47005283489E+02 -0.12929514167E+03  0.16607695289E+03  0.92253208186E+02 0.  0.
         23    2    1    2    0    0  0.12007061472E+02 -0.47005283489E+02 -0.22056744227E+03  0.25815887530E+03  0.12506934919E+03 0.  0.
          5    1    4    4  502    0 -0.11448523408E+02 -0.78849160986E+02 -0.83718871776E+02  0.11564852255E+03  0.41800000000E+01 0. -1.
         -5    1    4    4    0  502  0.23455584879E+02  0.31843877497E+02 -0.13684857049E+03  0.14251035275E+03  0.41800000000E+01 0. -1.
        -11    1    3    3    0    0 -0.34281695674E+02  0.52658386688E+02 -0.12854923935E+03  0.14308405671E+03  0.00000000000E+00 0. -1.
         11    1    3    3    0    0  0.22274634202E+02 -0.56531031993E+01 -0.74590232286E+00  0.22992896183E+02  0.00000000000E+00 0.  1.
</event>
<event>
 7    1  0.1790275E-005  0.1488944E+03  0.7561462E-02  0.1201838E+00
         -1   -1    0    0    0  501 -0.00000000000E+00  0.00000000000E+00  0.53728414200E+02  0.53728414200E+02  0.00000000000E+00 0.  1.
          1   -1    0    0  501    0  0.00000000000E+00 -0.00000000000E+00 -0.58101401434E+03  0.58101401434E+03  0.00000000000E+00 0. -1.
         23    2    1    2    0    0 -0.41132721108E+02 -0.48754334026E+02 -0.12394567379E+03  0.16686441089E+03  0.91718677145E+02 0.  0.
          5    1    1    2  502    0  0.67865592599E+02 -0.61173223024E+02 -0.30333635289E+03  0.31682537345E+03  0.41800000000E+01 0. -1.
         -5    1    1    2    0  502 -0.26732871491E+02  0.10992755705E+03 -0.10000357345E+03  0.15105264420E+03  0.41800000000E+01 0.  1.
        -11    1    3    3    0    0 -0.74399819220E+01  0.17374486484E+02  0.36539949856E+01  0.19250397163E+02  0.00000000000E+00 0.  1.
         11    1    3    3    0    0 -0.33692739186E+02 -0.66128820510E+02 -0.12759966878E+03  0.14761401373E+03  0.00000000000E+00 0. -1.
</event>
<event>
 8    1  0.1790275E-005  0.1616320E+03  0.7561462E-02  0.1186866E+00
         -1   -1    0    0    0  501 -0.00000000000E+00  0.00000000000E+00  0.28662662832E+03  0.28662662832E+03  0.00000000000E+00 0.  1.
          1   -1    0    0  501    0  0.00000000000E+00 -0.00000000000E+00 -0.15325107187E+03  0.15325107187E+03  0.00000000000E+00 0. -1.
         23    2    1    2    0    0 -0.13978297470E+03 -0.36131609732E+02  0.17456358175E+03  0.24445777198E+03  0.91882451919E+02 0.  0.
         23    2    1    2    0    0  0.13978297470E+03  0.36131609732E+02 -0.41188025305E+02  0.19541992821E+03  0.12509085369E+03 0.  0.
          5    1    4    4  502    0  0.75590731727E+02  0.54648072897E+02 -0.75613257967E+02  0.12014660950E+03  0.41800000000E+01 0.  1.
         -5    1    4    4    0  502  0.64192242971E+02 -0.18516463165E+02  0.34425232662E+02  0.75273318710E+02  0.41800000000E+01 0.  1.
        -11    1    3    3    0    0 -0.14319675287E+03 -0.47669064257E+02  0.13291832030E+03  0.20110924790E+03  0.00000000000E+00 0.  1.
         11    1    3    3    0    0  0.34137781751E+01  0.11537454526E+02  0.41645261452E+02  0.43348524078E+02  0.00000000000E+00 0. -1.
</event>
<event>
 8    1  0.1790275E-005  0.1078414E+03  0.7561462E-02  0.1264620E+00
         -1   -1    0    0    0  501 -0.00000000000E+00  0.00000000000E+00  0.38530904444E+03  0.38530904444E+03  0.00000000000E+00 0.  1.
          1   -1    0    0  501    0  0.00000000000E+00 -0.00000000000E+00 -0.44349327813E+02  0.44349327813E+02  0.00000000000E+00 0. -1.
         23    2    1    2    0    0  0.53942017692E+02 -0.22417193970E+02  0.21421327763E+03  0.24224290969E+03  0.96860864763E+02 0.  0.
         23    2    1    2    0    0 -0.53942017692E+02  0.22417193970E+02  0.12674643900E+03  0.18741546257E+03  0.12509046308E+03 0.  0.
          5    1    4    4  502    0 -0.10033410702E+02 -0.31631813479E+02 -0.91350138102E+01  0.34672205462E+02  0.41800000000E+01 0.  1.
         -5    1    4    4    0  502 -0.43908606991E+02  0.54049007448E+02  0.13588145281E+03  0.15274325710E+03  0.41800000000E+01 0.  1.
        -11    1    3    3    0    0  0.30761987150E+02 -0.60511072960E+02  0.11646077573E+03  0.13479985938E+03  0.00000000000E+00 0.  1.
         11    1    3    3    0    0  0.23180030543E+02  0.38093878990E+02  0.97752501902E+02  0.10744305031E+03  0.00000000000E+00 0. -1.
</event>
<event>
 8    1  0.1790275E-005  0.7115217E+02  0.7561462E-02  0.1356218E+00
         -1   -1    0    0    0  501 -0.00000000000E+00  0.00000000000E+00  0.42974171832E+02  0.42974171832E+02  0.00000000000E+00 0.  1.
          1   -1    0    0  501    0  0.00000000000E+00 -0.00000000000E+00 -0.56247169612E+03  0.56247169612E+03  0.00000000000E+00 0. -1.
         23    2    1    2    0    0  0.21264337451E+02 -0.29998866876E+02 -0.35248165011E+02  0.10395069818E+03  0.90615729623E+02 0.  0.
         23    2    1    2    0    0 -0.21264337451E+02  0.29998866876E+02 -0.48424935928E+03  0.50149516977E+03  0.12509140370E+03 0.  0.
          5    1    4    4  502    0 -0.41590712039E+02  0.21676296512E+02 -0.58212380462E+02  0.74871909268E+02  0.41800000000E+01 0.  1.
         -5    1    4    4    0  502  0.20326374587E+02  0.83225703642E+01 -0.42603697881E+03  0.42662326050E+03  0.41800000000E+01 0.  1.
        -11    1    3    3    0    0  0.11520017146E+02 -0.49626597138E+02  0.11582890534E+02  0.52246275386E+02  0.00000000000E+00 0.  1.
         11    1    3    3    0    0  0.97443203055E+01  0.19627730262E+02 -0.46831055545E+02  0.51704422798E+02  0.00000000000E+00 0. -1.
</event>
<event>
 7    1  0.1790275E-005  0.6477210E+03  0.7561462E-02  0.9811065E-01
         -2   -1    0    0    0  501 -0.00000000000E+00  0.00000000000E+00  0.18702805315E+03  0.18702805315E+03  0.00000000000E+00 0.  1.
          2   -1    0    0  501    0  0.00000000000E+00 -0.00000000000E+00 -0.22616889082E+04  0.22616889082E+04  0.00000000000E+00 0. -1.
         23    2    1    2    0    0  0.22915437139E+03  0.30370123396E+03 -0.60966084065E+03  0.72470404297E+03  0.93613267463E+02 0.  0.
          5    1    1    2  502    0 -0.35474213152E+03  0.18608455435E+03 -0.58352670193E+03  0.70780670067E+03  0.41800000000E+01 0. -1.
         -5    1    1    2    0  502  0.12558776013E+03 -0.48978578831E+03 -0.88147331242E+03  0.10162062177E+04  0.41800000000E+01 0.  1.
        -11    1    3    3    0    0 -0.21391571228E+01  0.33254637438E+02 -0.31826906562E+02  0.46080352490E+02  0.00000000000E+00 0. -1.
         11    1    3    3    0    0  0.23129352851E+03  0.27044659652E+03 -0.57783393409E+03  0.67862369048E+03  0.00000000000E+00 0.  1.
</event>
<event>
 8    1  0.1790275E-005  0.1114097E+03  0.7561462E-02  0.1257981E+00
          2   -1    0    0  501    0  0.00000000000E+00  0.00000000000E+00  0.19020296534E+03  0.19020296534E+03  0.00000000000E+00 0. -1.
         -2   -1    0    0    0  501 -0.00000000000E+00 -0.00000000000E+00 -0.74842007509E+02  0.74842007509E+02  0.00000000000E+00 0.  1.
         23    2    1    2    0    0  0.15559174851E+01  0.47705352733E+02  0.32550177170E+02  0.10762380845E+03  0.90802800353E+02 0.  0.
         23    2    1    2    0    0 -0.15559174851E+01 -0.47705352733E+02  0.82810780657E+02  0.15742116440E+03  0.12508227712E+03 0.  0.
          5    1    4    4  502    0 -0.14756860628E+02 -0.86116043753E+02  0.34153961097E+02  0.93902627151E+02  0.41800000000E+01 0. -1.
         -5    1    4    4    0  502  0.13200943143E+02  0.38410691020E+02  0.48656819561E+02  0.63518537249E+02  0.41800000000E+01 0. -1.
        -11    1    3    3    0    0  0.41024716365E+02  0.32040228365E+02 -0.31469412859E+01  0.52148890937E+02  0.00000000000E+00 0.  1.
         11    1    3    3    0    0 -0.39468798880E+02  0.15665124369E+02  0.35697118456E+02  0.55474917508E+02  0.00000000000E+00 0. -1.
</event>
<event>
 8    1  0.1790275E-005  0.3168499E+03  0.7561462E-02  0.1077108E+00
          2   -1    0    0  501    0  0.00000000000E+00  0.00000000000E+00  0.15944718593E+04  0.15944718593E+04  0.00000000000E+00 0.  1.
         -2   -1    0    0    0  501 -0.00000000000E+00 -0.00000000000E+00 -0.11491594547E+03  0.11491594547E+03  0.00000000000E+00 0. -1.
         23    2    1    2    0    0 -0.19370126999E+03 -0.22890993344E+03  0.16347444867E+03  0.35379297844E+03  0.92334373885E+02 0.  0.
         23    2    1    2    0    0  0.19370126999E+03  0.22890993344E+03  0.13160814652E+04  0.13555948264E+04  0.12508785170E+03 0.  0.
          5    1    4    4  502    0  0.17046506633E+01 -0.14021399626E+02  0.77560633699E+02  0.78947006157E+02  0.41800000000E+01 0. -1.
         -5    1    4    4    0  502  0.19199661933E+03  0.24293133307E+03  0.12385208315E+04  0.12766478202E+04  0.41800000000E+01 0. -1.
        -11    1    3    3    0    0 -0.46042528730E+01 -0.45947280505E+02  0.45506821634E+01  0.46401082298E+02  0.00000000000E+00 0. -1.
         11    1    3    3    0    0 -0.18909701712E+03 -0.18296265294E+03  0.15892376651E+03  0.30739189614E+03  0.00000000000E+00 0.  1.
</event>
<event>
 8    1  0.1790275E-005  0.1149174E+03  0.7561462E-02  0.1251725E+00
         -2   -1    0    0    0  501 -0.00000000000E+00  0.00000000000E+00  0.81855217889E+01  0.81855217889E+01  0.00000000000E+00 0.  1.
          2   -1    0    0  501    0  0.00000000000E+00 -0.00000000000E+00 -0.18927406093E+04  0.18927406093E+04  0.00000000000E+00 0. -1.
         23    2    1    2    0    0 -0.44604004149E+02 -0.12402844361E+02 -0.51643457919E+03  0.52631918755E+03  0.90354108173E+02 0.  0.
         23    2    1    2    0    0  0.44604004149E+02  0.12402844361E+02 -0.13681205083E+04  0.13746069436E+04  0.12508867338E+03 0.  0.
          5    1    4    4  502    0  0.85276421002E+02  0.18819379571E+02 -0.74477529224E+03  0.74988928874E+03  0.41800000000E+01 0.  1.
         -5    1    4    4    0  502 -0.40672416853E+02 -0.64165352097E+01 -0.62334521609E+03  0.62471765482E+03  0.41800000000E+01 0.  1.
        -11    1    3    3    0    0 -0.47757713950E+02 -0.46571169589E+02 -0.31534863380E+03  0.32232659512E+03  0.00000000000E+00 0. -1.
         11    1    3    3    0    0  0.31537098006E+01  0.34168325228E+02 -0.20108594539E+03  0.20399259243E+03  0.00000000000E+00 0.  1.
</event>
<event>
 8    1  0.1790275E-005  0.9976728E+02  0.7561462E-02  0.1280786E+00
          2   -1    0    0  501    0  0.00000000000E+00  0.00000000000E+00  0.78593780008E+03  0.78593780008E+03  0.00000000000E+00 0. -1.
         -2   -1    0    0    0  501 -0.00000000000E+00 -0.00000000000E+00 -0.20916826903E+02  0.20916826903E+02  0.00000000000E+00 0.  1.
         23    2    1    2    0    0  0.34269532259E+02 -0.45768884334E+02  0.22300781881E+03  0.24766287204E+03  0.91297422317E+02 0.  0.
         23    2    1    2    0    0 -0.34269532259E+02  0.45768884334E+02  0.54201315436E+03  0.55919175494E+03  0.12509183697E+03 0.  0.
          5    1    4    4  502    0 -0.51758071826E+02  0.54634510424E+02  0.53099020553E+03  0.53631324661E+03  0.41800000000E+01 0.  1.
         -5    1    4    4    0  502  0.17488539568E+02 -0.88656260905E+01  0.11022948837E+02  0.22878508326E+02  0.41800000000E+01 0.  1.
        -11    1    3    3    0    0  0.28245604894E+02  0.22169773889E+02  0.48860341132E+02  0.60635352770E+02  0.00000000000E+00 0.  1.
         11    1    3    3    0    0  0.60239273653E+01 -0.67938658222E+02  0.17414747768E+03  0.18702751927E+03  0.00000000000E+00 0. -1.
</event>
<event>
 8    1  0.1790275E-005  0.1012893E+03  0.7561462E-02  0.1277608E+00
         -2   -1    0    0    0  501 -0.00000000000E+00  0.00000000000E+00  0.46456213529E+02  0.46456213529E+02  0.00000000000E+00 0.  1.
          2   -1    0    0  501    0  0.00000000000E+00 -0.00000000000E+00 -0.38189020611E+03  0.38189020611E+03  0.00000000000E+00 0. -1.
         23    2    1    2    0    0  0.17546411192E+02 -0.68403160038E+02 -0.10974596643E+03  0.16082361048E+03  0.93985039719E+02 0.  0.
         23    2    1    2    0    0 -0.17546411192E+02  0.68403160038E+02 -0.22568802615E+03  0.26752280916E+03  0.12508596813E+03 0.  0.
          5    1    4    4  502    0 -0.62180331654E+02  0.23896518462E+02 -0.58336570027E+02  0.88645727713E+02  0.41800000000E+01 0.  1.
         -5    1    4    4    0  502  0.44633920463E+02  0.44506641576E+02 -0.16735145612E+03  0.17887708144E+03  0.41800000000E+01 0.  1.
        -11    1    3    3    0    0  0.20485311195E+02 -0.50114087656E+02 -0.49075653378E+01  0.54361327742E+02  0.00000000000E+00 0.  1.
         11    1    3    3    0    0 -0.29389000033E+01 -0.18289072382E+02 -0.10483840110E+03  0.10646228274E+03  0.00000000000E+00 0. -1.
</event>
<event>
 8    1  0.1918971E-005  0.2478121E+03  0.7561462E-02  0.1114695E+00
          1   -1    0    0  501    0  0.00000000000E+00  0.00000000000E+00  0.43464612148E+03  0.43464612148E+03  0.00000000000E+00 0.  1.
         -1   -1    0    0    0  501 -0.00000000000E+00 -0.00000000000E+00 -0.16071431720E+03  0.16071431720E+03  0.00000000000E+00 0. -1.
         23    2    1    2    0    0 -0.22032763914E+03  0.95086499006E+02  0.10828931582E+03  0.27807543017E+03  0.89519037528E+02 0.  0.
         23    2    1    2    0    0  0.22032763914E+03 -0.95086499006E+02  0.16564248846E+03  0.31728500851E+03  0.12508649718E+03 0.  0.
          5    1    4    4  502    0  0.17005429131E+03 -0.65667395589E+02  0.18097771702E+03  0.25690674435E+03  0.41800000000E+01 0.  1.
         -5    1    4    4    0  502  0.50273347832E+02 -0.29419103418E+02 -0.15335228554E+02  0.60378264159E+02  0.41800000000E+01 0.  1.
        -11    1    3    3    0    0 -0.10074433364E+03 -0.21362259537E+01  0.29563401664E+02  0.10501418447E+03  0.00000000000E+00 0. -1.
         11    1    3    3    0    0 -0.11958330550E+03  0.97222724960E+02  0.78725914152E+02  0.17306124570E+03  0.00000000000E+00 0.  1.
</event>
<event>
 8    1  0.1790275E-005  0.1551572E+03  0.7561462E-02  0.1194275E+00
          3   -1    0    0  501    0  0.00000000000E+00  0.00000000000E+00  0.20998599253E+03  0.20998599253E+03  0.00000000000E+00 0. -1.
         -3   -1    0    0    0  501 -0.00000000000E+00 -0.00000000000E+00 -0.11609455154E+03  0.11609455154E+03  0.00000000000E+00 0.  1.
         23    2    1    2    0    0  0.10368235106E+03  0.38299518282E+02  0.58405157823E+02  0.15542653335E+03  0.92354543945E+02 0.  0.
         23    2    1    2    0    0 -0.10368235106E+03 -0.38299518282E+02  0.35486283160E+02  0.17065401072E+03  0.12508649831E+03 0.  0.
          5    1    4    4  502    0  0.20481616129E+02 -0.37163475639E+02  0.10801574016E+02  0.43985985519E+02  0.41800000000E+01 0. -1.
         -5    1    4    4    0  502 -0.12416396719E+03 -0.11360426432E+01  0.24684709143E+02  0.12666802520E+03  0.41800000000E+01 0. -1.
        -11    1    3    3    0    0 -0.81002781520E+01  0.30303711727E+02  0.18776773283E+02  0.36558127215E+02  0.00000000000E+00 0.  1.
         11    1    3    3    0    0  0.11178262921E+03  0.79958065559E+01  0.39628384539E+02  0.11886840614E+03  0.00000000000E+00 0. -1.
</event>
<event>
 8    1  0.1790275E-005  0.1181263E+03  0.7561462E-02  0.1246221E+00
          1   -1    0    0  501    0  0.00000000000E+00  0.00000000000E+00  0.25888559853E+03  0.25888559853E+03  0.00000000000E+00 0. -1.
         -1   -1    0    0    0  501 -0.00000000000E+00 -0.00000000000E+00 -0.94918348832E+02  0.94918348832E+02  0.00000000000E+00 0.  1.
         23    2    1    2    0    0  0.64544872302E+02  0.67210418917E+00 -0.12694685567E+02  0.13010306840E+03  0.11224598478E+03 0.  0.
         23    2    1    2    0    0 -0.64544872302E+02 -0.67210418917E+00  0.17666193527E+03  0.22370087897E+03  0.12110388769E+03 0.  0.
          5    1    4    4  502    0 -0.74335244226E+02  0.32441606440E+02  0.16983558206E+03  0.18825457151E+03  0.41800000000E+01 0. -1.
         -5    1    4    4    0  502  0.97903719243E+01 -0.33113710629E+02  0.68263532080E+01  0.35446307455E+02  0.41800000000E+01 0.  1.
        -11    1    3    3    0    0  0.92240570227E+02  0.42027669543E+01 -0.30199714181E+02  0.97149414731E+02  0.00000000000E+00 0.  1.
         11    1    3    3    0    0 -0.27695697925E+02 -0.35306627651E+01  0.17505028614E+02  0.32953653665E+02  0.00000000000E+00 0. -1.
</event>
<event>
 8    1  0.1790275E-005  0.6930686E+02  0.7561462E-02  0.1362466E+00
         -2   -1    0    0    0  501 -0.00000000000E+00  0.00000000000E+00  0.21844407500E+02  0.21844407500E+02  0.00000000000E+00 0.  1.
          2   -1    0    0  501    0  0.00000000000E+00 -0.00000000000E+00 -0.67555697683E+03  0.67555697683E+03  0.00000000000E+00 0. -1.
         23    2    1    2    0    0 -0.68438536118E+01  0.18661332155E+02 -0.13750991956E+03  0.16588693944E+03  0.90633410224E+02 0.  0.
         23    2    1    2    0    0  0.68438536118E+01 -0.18661332155E+02 -0.51620264977E+03  0.53151444489E+03  0.12508935146E+03 0.  0.
          5    1    4    4  502    0  0.24064800870E+02 -0.10467506425E+02 -0.16182252849E+02  0.31113036479E+02  0.41800000000E+01 0. -1.
         -5    1    4    4    0  502 -0.17220947258E+02 -0.81938257298E+01 -0.50002039692E+03  0.50040140841E+03  0.41800000000E+01 0. -1.
        -11    1    3    3    0    0  0.41684822390E+02  0.42923685288E+01 -0.68628056066E+02  0.80410564758E+02  0.00000000000E+00 0.  1.
         11    1    3    3    0    0 -0.48528676002E+02  0.14368963626E+02 -0.68881863493E+02  0.85476374680E+02  0.00000000000E+00 0. -1.
</event>
<event>
 8    1  0.1790275E-005  0.1028614E+03  0.7561462E-02  0.1274391E+00
          1   -1    0    0  501    0  0.00000000000E+00  0.00000000000E+00  0.19856913175E+03  0.19856913175E+03  0.00000000000E+00 0. -1.
         -1   -1    0    0    0  501 -0.00000000000E+00 -0.00000000000E+00 -0.72462210355E+02  0.72462210355E+02  0.00000000000E+00 0.  1.
         23    2    1    2    0    0  0.32681196895E+02 -0.38794051484E+02  0.44151318363E+02  0.11311448289E+03  0.90953330148E+02 0.  0.
         23    2    1    2    0    0 -0.32681196895E+02  0.38794051484E+02  0.81955603030E+02  0.15791685921E+03  0.12509186422E+03 0.  0.
          5    1    4    4  502    0 -0.71724403736E+02 -0.16956569677E+01  0.21004123385E+02  0.74872631469E+02  0.41800000000E+01 0. -1.
         -5    1    4    4    0  502  0.39043206841E+02  0.40489708451E+02  0.60951479646E+02  0.83044227746E+02  0.41800000000E+01 0. -1.
        -11    1    3    3    0    0  0.49695079020E+02 -0.32155052482E+02  0.63293134801E+02  0.86657770522E+02  0.00000000000E+00 0. -1.
         11    1    3    3    0    0 -0.17013882125E+02 -0.66389990013E+01 -0.19141816438E+02  0.26456712366E+02  0.00000000000E+00 0.  1.
</event>
<event>
 8    1  0.1790275E-005  0.1188852E+03  0.7561462E-02  0.1244948E+00
         -4   -1    0    0    0  501 -0.00000000000E+00  0.00000000000E+00  0.95544427220E+02  0.95544427220E+02  0.00000000000E+00 0.  1.
          4   -1    0    0  501    0  0.00000000000E+00 -0.00000000000E+00 -0.28484509717E+03  0.28484509717E+03  0.00000000000E+00 0. -1.
         23    2    1    2    0    0  0.21047975360E+02  0.91145423756E+02  0.86328787376E+01  0.12824791679E+03  0.87306907104E+02 0.  0.
         23    2    1    2    0    0 -0.21047975360E+02 -0.91145423756E+02 -0.19793354869E+03  0.25214160759E+03  0.12508874868E+03 0.  0.
          5    1    4    4  502    0 -0.40581278548E+02 -0.86328735711E+02 -0.20828906732E+03  0.22913161882E+03  0.41800000000E+01 0. -1.
         -5    1    4    4    0  502  0.19533303188E+02 -0.48166880452E+01  0.10355518635E+02  0.23009988774E+02  0.41800000000E+01 0. -1.
        -11    1    3    3    0    0  0.49161593121E+02  0.73898344916E+02 -0.11664612987E+02  0.89520337442E+02  0.00000000000E+00 0. -1.
         11    1    3    3    0    0 -0.28113617761E+02  0.17247078840E+02  0.20297491725E+02  0.38727579352E+02  0.00000000000E+00 0.  1.
</event>
<event>
 8    1  0.1790275E-005  0.9332709E+02  0.7561462E-02  0.1294989E+00
          1   -1    0    0  501    0  0.00000000000E+00  0.00000000000E+00  0.76023349043E+03  0.76023349043E+03  0.00000000000E+00 0. -1.
         -1   -1    0    0    0  501 -0.00000000000E+00 -0.00000000000E+00 -0.18725987835E+03  0.18725987835E+03  0.00000000000E+00 0.  1.
         23    2    1    2    0    0  0.41636398468E+02 -0.78145993647E+02 -0.15886927332E+03  0.20192966157E+03  0.87725459352E+02 0.  0.
         23    2    1    2    0    0 -0.41636398468E+02  0.78145993647E+02  0.73184288540E+03  0.74556370720E+03  0.11149370646E+03 0.  0.
          5    1    4    4  502    0 -0.31080027027E+02  0.64874001551E+02  0.72185763284E+03  0.72544504867E+03  0.41800000000E+01 0. -1.
         -5    1    4    4    0  502 -0.10556371441E+02  0.13271992096E+02  0.99852525643E+01  0.20118658528E+02  0.41800000000E+01 0.  1.
        -11    1    3    3    0    0  0.33436079847E+02 -0.21181648087E+02 -0.13312132704E+03  0.13888096113E+03  0.00000000000E+00 0.  1.
         11    1    3    3    0    0  0.82003186215E+01 -0.56964345560E+02 -0.25747946281E+02  0.63048700449E+02  0.00000000000E+00 0. -1.
</event>
<event>
 8    1  0.1790275E-005  0.4069909E+03  0.7561462E-02  0.1041386E+00
         -1   -1    0    0    0  501 -0.00000000000E+00  0.00000000000E+00  0.39357495092E+03  0.39357495092E+03  0.00000000000E+00 0.  1.
          1   -1    0    0  501    0  0.00000000000E+00 -0.00000000000E+00 -0.48188531074E+03  0.48188531074E+03  0.00000000000E+00 0. -1.
         23    2    1    2    0    0  0.25769563202E+03  0.30833244526E+03  0.84258886010E+02  0.42059390438E+03  0.91234516350E+02 0.  0.
         23    2    1    2    0    0 -0.25769563202E+03 -0.30833244526E+03 -0.17256924584E+03  0.45486635727E+03  0.12508925937E+03 0.  0.
          5    1    4    4  502    0 -0.14513226821E+03 -0.16758334586E+03 -0.27418196335E+02  0.22342064134E+03  0.41800000000E+01 0. -1.
         -5    1    4    4    0  502 -0.11256336381E+03 -0.14074909940E+03 -0.14515104950E+03  0.23144571594E+03  0.41800000000E+01 0. -1.
        -11    1    3    3    0    0  0.16729253793E+03  0.26078791840E+03  0.67164886420E+02  0.31703036700E+03  0.00000000000E+00 0.  1.
         11    1    3    3    0    0  0.90403094083E+02  0.47544526863E+02  0.17093999590E+02  0.10356353739E+03  0.00000000000E+00 0. -1.
</event>
<event>
 8    1  0.1790275E-005  0.1131613E+03  0.7561462E-02  0.1254825E+00
         -1   -1    0    0    0  501 -0.00000000000E+00  0.00000000000E+00  0.24207395195E+03  0.24207395195E+03  0.00000000000E+00 0.  1.
          1   -1    0    0  501    0  0.00000000000E+00 -0.00000000000E+00 -0.69016865845E+02  0.69016865845E+02  0.00000000000E+00 0. -1.
         23    2    1    2    0    0 -0.43518600702E+02  0.52990423300E+02  0.84639365382E+02  0.14325879542E+03  0.93045186461E+02 0.  0.
         23    2    1    2    0    0  0.43518600702E+02 -0.52990423300E+02  0.88417720723E+02  0.16783202238E+03  0.12509212937E+03 0.  0.
          5    1    4    4  502    0 -0.33303194414E+02  0.22740850975E+01 -0.59021988463E+01  0.34155271517E+02  0.41800000000E+01 0. -1.
         -5    1    4    4    0  502  0.76821795116E+02 -0.55264508397E+02  0.94319919569E+02  0.13367675086E+03  0.41800000000E+01 0. -1.
        -11    1    3    3    0    0  0.18184330135E+02  0.23082396756E+02 -0.56100263799E+01  0.29915536072E+02  0.00000000000E+00 0. -1.
         11    1    3    3    0    0 -0.61702930837E+02  0.29908026543E+02  0.90249391762E+02  0.11334325935E+03  0.00000000000E+00 0.  1.
</event>
<event>
 7    1  0.1790275E-005  0.1028625E+03  0.7561462E-02  0.1274389E+00
          1   -1    0    0  501    0  0.00000000000E+00  0.00000000000E+00  0.31816177193E+02  0.31816177193E+02  0.00000000000E+00 0. -1.
         -1   -1    0    0    0  501 -0.00000000000E+00 -0.00000000000E+00 -0.59704525256E+03  0.59704525256E+03  0.00000000000E+00 0.  1.
         23    2    1    2    0    0 -0.29459696403E+02  0.19911173777E+02 -0.30863449968E+03  0.32225516567E+03  0.85608462537E+02 0.  0.
          5    1    1    2  502    0  0.47224544281E+02 -0.58033842263E+02 -0.38109809734E+02  0.84070889304E+02  0.41800000000E+01 0. -1.
         -5    1    1    2    0  502 -0.17764847878E+02  0.38122668486E+02 -0.21848476595E+03  0.22253537477E+03  0.41800000000E+01 0.  1.
        -11    1    3    3    0    0 -0.26082624826E+02 -0.29281526872E+02 -0.90731391836E+02  0.98842787285E+02  0.00000000000E+00 0. -1.
         11    1    3    3    0    0 -0.33770715766E+01  0.49192700649E+02 -0.21790310784E+03  0.22341237839E+03  0.00000000000E+00 0.  1.
</event>
<event>
 8    1  0.1790275E-005  0.1418033E+03  0.7561462E-02  0.1210923E+00
         -1   -1    0    0    0  501 -0.00000000000E+00  0.00000000000E+00  0.45155657529E+02  0.45155657529E+02  0.00000000000E+00 0.  1.
          1   -1    0    0  501    0  0.00000000000E+00 -0.00000000000E+00 -0.83489551098E+03  0.83489551098E+03  0.00000000000E+00 0. -1.
         23    2    1    2    0    0 -0.30667655690E+02  0.94900427194E+02 -0.90202763099E+02  0.16245278525E+03  0.91146984476E+02 0.  0.
         23    2    1    2    0    0  0.30667655690E+02 -0.94900427194E+02 -0.69953709035E+03  0.71759838325E+03  0.12509477482E+03 0.  0.
          5    1    4    4  502    0  0.46733261982E+02  0.58340354231E+01 -0.11716633775E+03  0.12634657434E+03  0.41800000000E+01 0. -1.
         -5    1    4    4    0  502 -0.16065606292E+02 -0.10073446262E+03 -0.58237075260E+03  0.59125180891E+03  0.41800000000E+01 0. -1.
        -11    1    3    3    0    0  0.21016181901E+02  0.76557792406E+02 -0.44159345738E+02  0.90845051026E+02  0.00000000000E+00 0. -1.
         11    1    3    3    0    0 -0.51683837591E+02  0.18342634787E+02 -0.46043417360E+02  0.71607734228E+02  0.00000000000E+00 0.  1.
</event>
<event>
 8    1  0.1790275E-005  0.7682453E+02  0.7561462E-02  0.1338312E+00
         -1   -1    0    0    0  501 -0.00000000000E+00  0.00000000000E+00  0.16705710584E+02  0.16705710584E+02  0.00000000000E+00 0.  1.
          1   -1    0    0  501    0  0.00000000000E+00 -0.00000000000E+00 -0.10608192641E+04  0.10608192641E+04  0.00000000000E+00 0. -1.
         23    2    1    2    0    0 -0.96236648150E+01 -0.43351245237E+02 -0.19803400853E+03  0.22109625697E+03  0.87716252330E+02 0.  0.
         23    2    1    2    0    0  0.96236648150E+01  0.43351245237E+02 -0.84607954500E+03  0.85642871773E+03  0.12509039410E+03 0.  0.
          5    1    4    4  502    0  0.34958614541E+02  0.88504700112E+01 -0.67337345108E+02  0.76499843112E+02  0.41800000000E+01 0. -1.
         -5    1    4    4    0  502 -0.25334949726E+02  0.34500775226E+02 -0.77874219990E+03  0.77992887462E+03  0.41800000000E+01 0. -1.
        -11    1    3    3    0    0 -0.15891852927E+01  0.15177783506E+02 -0.88562627919E+00  0.15286430452E+02  0.00000000000E+00 0.  1.
         11    1    3    3    0    0 -0.80344795223E+01 -0.58529028743E+02 -0.19714838225E+03  0.20580982651E+03  0.00000000000E+00 0. -1.
</event>
<event>
 8    1  0.1790275E-005  0.8875875E+02  0.7561462E-02  0.1305886E+00
          1   -1    0    0  501    0  0.00000000000E+00  0.00000000000E+00  0.87338376425E+02  0.87338376425E+02  0.00000000000E+00 0. -1.
         -1   -1    0    0    0  501 -0.00000000000E+00 -0.00000000000E+00 -0.17258709015E+03  0.17258709015E+03  0.00000000000E+00 0.  1.
         23    2    1    2    0    0  0.33342648828E+01 -0.60669358038E+01 -0.10994103170E+03  0.14478683449E+03  0.93958884398E+02 0.  0.
         23    2    1    2    0    0 -0.33342648828E+01  0.60669358038E+01  0.24692317974E+02  0.11513863209E+03  0.11224646542E+03 0.  0.
          5    1    4    4  502    0  0.36108985965E+02  0.23121691823E+02  0.49277758909E+02  0.65454116932E+02  0.41800000000E+01 0. -1.
         -5    1    4    4    0  502 -0.39443250848E+02 -0.17054756020E+02 -0.24585440935E+02  0.49684515156E+02  0.41800000000E+01 0.  1.
        -11    1    3    3    0    0 -0.17818142559E+02  0.38227226442E+02 -0.33133638477E+02  0.53634364399E+02  0.00000000000E+00 0.  1.
         11    1    3    3    0    0  0.21152407442E+02 -0.44294162246E+02 -0.76807393219E+02  0.91152470086E+02  0.00000000000E+00 0. -1.
</event>
<event>
 8    1  0.1790275E-005  0.1076397E+03  0.7561462E-02  0.1265004E+00
          1   -1    0    0  501    0  0.00000000000E+00  0.00000000000E+00  0.79700854908E+03  0.79700854908E+03  0.00000000000E+00 0. -1.
         -1   -1    0    0    0  501 -0.00000000000E+00 -0.00000000000E+00 -0.26932832492E+02  0.26932832492E+02  0.00000000000E+00 0.  1.
         23    2    1    2    0    0  0.99002571007E+02  0.30744683155E+01  0.28551426466E+03  0.31378550251E+03  0.84451079547E+02 0.  0.
         23    2    1    2    0    0 -0.99002571007E+02 -0.30744683155E+01  0.48456145193E+03  0.51015587907E+03  0.12509300073E+03 0.  0.
          5    1    4    4  502    0 -0.51549160211E+02 -0.81830118792E+01  0.48189239567E+02  0.71161455943E+02  0.41800000000E+01 0. -1.
         -5    1    4    4    0  502 -0.47453410795E+02  0.51085435637E+01  0.43637221236E+03  0.43899442312E+03  0.41800000000E+01 0. -1.
        -11    1    3    3    0    0  0.84743138072E+02  0.25443108919E+02  0.26741332537E+03  0.28167115192E+03  0.00000000000E+00 0. -1.
         11    1    3    3    0    0  0.14259432935E+02 -0.22368640603E+02  0.18100939295E+02  0.32114350584E+02  0.00000000000E+00 0.  1.
</event>
<event>
 8    1  0.1790275E-005  0.1018976E+03  0.7561462E-02  0.1276355E+00
          2   -1    0    0  501    0  0.00000000000E+00  0.00000000000E+00  0.60073739150E+02  0.60073739150E+02  0.00000000000E+00 0. -1.
         -2   -1    0    0    0  501 -0.00000000000E+00 -0.00000000000E+00 -0.23116759241E+03  0.23116759241E+03  0.00000000000E+00 0.  1.
         23    2    1    2    0    0 -0.34124484927E+02 -0.46691617003E+02 -0.98924474459E+02  0.13567153817E+03  0.72636953773E+02 0.  0.
         23    2    1    2    0    0  0.34124484927E+02  0.46691617003E+02 -0.72169378805E+02  0.15556979339E+03  0.12509577854E+03 0.  0.
          5    1    4    4  502    0  0.74909951100E+02  0.10265015150E+02 -0.16658846883E+02  0.77536190836E+02  0.41800000000E+01 0.  1.
         -5    1    4    4    0  502 -0.40785466173E+02  0.36426601853E+02 -0.55510531921E+02  0.78033602555E+02  0.41800000000E+01 0.  1.
        -11    1    3    3    0    0  0.37401250218E+01 -0.32616211809E+02 -0.87851434041E+02  0.93785288137E+02  0.00000000000E+00 0.  1.
         11    1    3    3    0    0 -0.37864609949E+02 -0.14075405194E+02 -0.11073040418E+02  0.41886250036E+02  0.00000000000E+00 0. -1.
</event>
<event>
 8    1  0.1790275E-005  0.6469413E+02  0.7561462E-02  0.1379126E+00
          1   -1    0    0  501    0  0.00000000000E+00  0.00000000000E+00  0.43243405605E+02  0.43243405605E+02  0.00000000000E+00 0. -1.
         -1   -1    0    0    0  501 -0.00000000000E+00 -0.00000000000E+00 -0.36336327035E+03  0.36336327035E+03  0.00000000000E+00 0.  1.
         23    2    1    2    0    0 -0.12140519941E+02 -0.21641764660E+02 -0.22869200058E+03  0.24968600490E+03  0.97094344374E+02 0.  0.
         23    2    1    2    0    0  0.12140519941E+02  0.21641764660E+02 -0.91427864162E+02  0.15692067106E+03  0.12509710012E+03 0.  0.
          5    1    4    4  502    0  0.10565653940E+02  0.51391217121E+01  0.30942930145E+02  0.33361368993E+02  0.41800000000E+01 0. -1.
         -5    1    4    4    0  502  0.15748660015E+01  0.16502642948E+02 -0.12237079431E+03  0.12355930206E+03  0.41800000000E+01 0. -1.
        -11    1    3    3    0    0 -0.30220434012E+02  0.31521401899E+02 -0.11112832690E+03  0.11940007725E+03  0.00000000000E+00 0.  1.
         11    1    3    3    0    0  0.18079914071E+02 -0.53163166559E+02 -0.11756367369E+03  0.13028592764E+03  0.00000000000E+00 0. -1.
</event>
<event>
 8    1  0.1790275E-005  0.7566679E+02  0.7561462E-02  0.1341819E+00
         -2   -1    0    0    0  501 -0.00000000000E+00  0.00000000000E+00  0.35989408546E+02  0.35989408546E+02  0.00000000000E+00 0.  1.
          2   -1    0    0  501    0  0.00000000000E+00 -0.00000000000E+00 -0.52772723826E+03  0.52772723826E+03  0.00000000000E+00 0. -1.
         23    2    1    2    0    0  0.47817235369E+02  0.26296990705E+02 -0.77007661991E+02  0.13043498746E+03  0.90028252405E+02 0.  0.
         23    2    1    2    0    0 -0.47817235369E+02 -0.26296990705E+02 -0.41473016772E+03  0.43328165934E+03  0.11293300927E+03 0.  0.
          5    1    4    4  502    0 -0.44545495876E+02 -0.43976857149E+02 -0.40924329975E+03  0.41402393162E+03  0.41800000000E+01 0. -1.
         -5    1    4    4    0  502 -0.32717394934E+01  0.17679866444E+02 -0.54868679778E+01  0.19257727722E+02  0.41800000000E+01 0.  1.
        -11    1    3    3    0    0  0.27451701993E+02 -0.94203680009E+01  0.12756327310E+02  0.31702731145E+02  0.00000000000E+00 0.  1.
         11    1    3    3    0    0  0.20365533376E+02  0.35717358706E+02 -0.89763989301E+02  0.98732256319E+02  0.00000000000E+00 0. -1.
</event>
<event>
 8    1  0.1790275E-005  0.9973268E+02  0.7561462E-02  0.1280859E+00
          1   -1    0    0  501    0  0.00000000000E+00  0.00000000000E+00  0.23944927898E+03  0.23944927898E+03  0.00000000000E+00 0. -1.
         -1   -1    0    0    0  501 -0.00000000000E+00 -0.00000000000E+00 -0.54206944590E+02  0.54206944590E+02  0.00000000000E+00 0.  1.
         23    2    1    2    0    0  0.91464483971E+01 -0.35301642401E+02  0.74793519609E+02  0.12284628829E+03  0.90372985437E+02 0.  0.
         23    2    1    2    0    0 -0.91464483971E+01  0.35301642401E+02  0.11044881478E+03  0.17080993528E+03  0.12508888771E+03 0.  0.
          5    1    4    4  502    0  0.12765890134E+02  0.66374666256E+02  0.11378609019E+03  0.13241340941E+03  0.41800000000E+01 0. -1.
         -5    1    4    4    0  502 -0.21912338531E+02 -0.31073023855E+02 -0.33372754084E+01  0.38396525866E+02  0.41800000000E+01 0. -1.
        -11    1    3    3    0    0 -0.28398035785E+02 -0.46349726726E+02  0.25882795354E+02  0.60205188309E+02  0.00000000000E+00 0.  1.
         11    1    3    3    0    0  0.37544484182E+02  0.11048084325E+02  0.48910724255E+02  0.62641099981E+02  0.00000000000E+00 0. -1.
</event>
<event>
 8    1  0.1790275E-005  0.1021622E+03  0.7561462E-02  0.1275814E+00
          3   -1    0    0  501    0  0.00000000000E+00  0.00000000000E+00  0.34980186053E+02  0.34980186053E+02  0.00000000000E+00 0. -1.
         -3   -1    0    0    0  501 -0.00000000000E+00 -0.00000000000E+00 -0.48673363666E+03  0.48673363666E+03  0.00000000000E+00 0.  1.
         23    2    1    2    0    0  0.42636661220E+02  0.58348780042E+02 -0.19615643279E+03  0.22811583210E+03  0.91307292794E+02 0.  0.
         23    2    1    2    0    0 -0.42636661220E+02 -0.58348780042E+02 -0.25559701781E+03  0.29359799061E+03  0.12508988593E+03 0.  0.
          5    1    4    4  502    0  0.10241886102E+02 -0.24578196682E+01 -0.19563170017E+03  0.19595961732E+03  0.41800000000E+01 0. -1.
         -5    1    4    4    0  502 -0.52878547322E+02 -0.55890960374E+02 -0.59965317639E+02  0.97638373286E+02  0.41800000000E+01 0. -1.
        -11    1    3    3    0    0  0.65783776012E+02  0.16039717192E+02 -0.10393341936E+03  0.12404407835E+03  0.00000000000E+00 0. -1.
         11    1    3    3    0    0 -0.23147114792E+02  0.42309062850E+02 -0.92223013433E+02  0.10407175375E+03  0.00000000000E+00 0.  1.
</event>
<event>
 8    1  0.1790275E-005  0.3814589E+03  0.7561462E-02  0.1050396E+00
         -1   -1    0    0    0  501 -0.00000000000E+00  0.00000000000E+00  0.22395351106E+03  0.22395351106E+03  0.00000000000E+00 0.  1.
          1   -1    0    0  501    0  0.00000000000E+00 -0.00000000000E+00 -0.76010691766E+03  0.76010691766E+03  0.00000000000E+00 0. -1.
         23    2    1    2    0    0  0.23327339585E+03 -0.28879871912E+03 -0.93793046723E+02  0.39317015054E+03  0.89243791325E+02 0.  0.
         23    2    1    2    0    0 -0.23327339585E+03  0.28879871912E+03 -0.44236035988E+03  0.59089027818E+03  0.12508978966E+03 0.  0.
          5    1    4    4  502    0  0.93439721911E+01  0.26997291003E+02 -0.10786425472E+02  0.30821792814E+02  0.41800000000E+01 0.  1.
         -5    1    4    4    0  502 -0.24261736804E+03  0.26180142811E+03 -0.43157393441E+03  0.56006848536E+03  0.41800000000E+01 0. -1.
        -11    1    3    3    0    0  0.16547293127E+03 -0.15330454228E+03 -0.25606253815E+02  0.22702258456E+03  0.00000000000E+00 0.  1.
         11    1    3    3    0    0  0.67800464574E+02 -0.13549417684E+03 -0.68186792907E+02  0.16614756598E+03  0.00000000000E+00 0. -1.
</event>
<event>
 8    1  0.1790275E-005  0.1613044E+03  0.7561462E-02  0.1187232E+00
         -2   -1    0    0    0  501 -0.00000000000E+00  0.00000000000E+00  0.10802357035E+03  0.10802357035E+03  0.00000000000E+00 0. -1.
          2   -1    0    0  501    0  0.00000000000E+00 -0.00000000000E+00 -0.26942635970E+03  0.26942635970E+03  0.00000000000E+00 0.  1.
         23    2    1    2    0    0  0.12217424191E+03  0.22958327699E+02 -0.29212327210E+02  0.15705245780E+03  0.91424746332E+02 0.  0.
         23    2    1    2    0    0 -0.12217424191E+03 -0.22958327699E+02 -0.13219046215E+03  0.22039747225E+03  0.12508835796E+03 0.  0.
          5    1    4    4  502    0 -0.38898601871E+02 -0.67581878355E+02 -0.82388021066E+02  0.11351506475E+03  0.41800000000E+01 0.  1.
         -5    1    4    4    0  502 -0.83275640038E+02  0.44623550657E+02 -0.49802441079E+02  0.10688240751E+03  0.41800000000E+01 0.  1.
        -11    1    3    3    0    0  0.81254757753E+02 -0.26768929010E+02  0.18128296851E+01  0.85569840302E+02  0.00000000000E+00 0. -1.
         11    1    3    3    0    0  0.40919484156E+02  0.49727256709E+02 -0.31025156895E+02  0.71482617493E+02  0.00000000000E+00 0.  1.
</event>
<event>
 8    1  0.1790275E-005  0.1021973E+03  0.7561462E-02  0.1275742E+00
         -1   -1    0    0    0  501 -0.00000000000E+00  0.00000000000E+00  0.19426239720E+03  0.19426239720E+03  0.00000000000E+00 0.  1.
          1   -1    0    0  501    0  0.00000000000E+00 -0.00000000000E+00 -0.68380356727E+02  0.68380356727E+02  0.00000000000E+00 0. -1.
         23    2    1    2    0    0  0.12595511208E+02 -0.32667601910E+02  0.61823238422E+02  0.11777267682E+03  0.93928012221E+02 0.  0.
         23    2    1    2    0    0 -0.12595511208E+02  0.32667601910E+02  0.64058802057E+02  0.14487007711E+03  0.12513189043E+03 0.  0.
          5    1    4    4  502    0  0.38541247558E+02 -0.21626915382E+02  0.53352012211E+02  0.69405049091E+02  0.41800000000E+01 0.  1.
         -5    1    4    4    0  502 -0.51136758766E+02  0.54294517292E+02  0.10706789845E+02  0.75465028019E+02  0.41800000000E+01 0.  1.
        -11    1    3    3    0    0  0.16306642914E+02  0.23723919382E+02  0.53358334138E+02  0.60628728965E+02  0.00000000000E+00 0.  1.
         11    1    3    3    0    0 -0.37111317052E+01 -0.56391521292E+02  0.84649042835E+01  0.57143947857E+02  0.00000000000E+00 0. -1.
</event>
<event>
 8    1  0.1790275E-005  0.1418299E+03  0.7561462E-02  0.1210888E+00
         -1   -1    0    0    0  501 -0.00000000000E+00  0.00000000000E+00  0.32623813394E+02  0.32623813394E+02  0.00000000000E+00 0.  1.
          1   -1    0    0  501    0  0.00000000000E+00 -0.00000000000E+00 -0.76583319709E+03  0.76583319709E+03  0.00000000000E+00 0. -1.
         23    2    1    2    0    0 -0.44883825434E+02 -0.10556379679E+03 -0.31088122840E+03  0.34330121292E+03  0.89723528952E+02 0.  0.
         23    2    1    2    0    0  0.44883825434E+02  0.10556379679E+03 -0.42232815530E+03  0.45515579756E+03  0.12508979302E+03 0.  0.
          5    1    4    4  502    0 -0.37427326213E+02  0.61087688217E+02 -0.23513992755E+03  0.24584704254E+03  0.41800000000E+01 0.  1.
         -5    1    4    4    0  502  0.82311151648E+02  0.44476108568E+02 -0.18718822776E+03  0.20930875502E+03  0.41800000000E+01 0.  1.
        -11    1    3    3    0    0 -0.42208705739E+02 -0.64436778535E+02 -0.28360189598E+03  0.29387702985E+03  0.00000000000E+00 0. -1.
         11    1    3    3    0    0 -0.26751196952E+01 -0.41127018250E+02 -0.27279332414E+02  0.49424183074E+02  0.00000000000E+00 0.  1.
</event>
<event>
 8    1  0.1790275E-005  0.1131448E+03  0.7561462E-02  0.1254855E+00
         -1   -1    0    0    0  501 -0.00000000000E+00  0.00000000000E+00  0.15080139098E+03  0.15080139098E+03  0.00000000000E+00 0.  1.
          1   -1    0    0  501    0  0.00000000000E+00 -0.00000000000E+00 -0.97540749894E+02  0.97540749894E+02  0.00000000000E+00 0. -1.
         23    2    1    2    0    0 -0.51090846285E+01 -0.34932905881E+02  0.62816247252E+02  0.11801284409E+03  0.93459829838E+02 0.  0.
         23    2    1    2    0    0  0.51090846285E+01  0.34932905881E+02 -0.95556061668E+01  0.13032929678E+03  0.12509198747E+03 0.  0.
          5    1    4    4  502    0 -0.34112897530E+02  0.67932219939E+02  0.66186250538E+01  0.76418288919E+02  0.41800000000E+01 0.  1.
         -5    1    4    4    0  502  0.39221982158E+02 -0.32999314058E+02 -0.16174231221E+02  0.53911007859E+02  0.41800000000E+01 0.  1.
        -11    1    3    3    0    0 -0.46929645372E+02 -0.32012776627E+02  0.44954572629E+02  0.72443930611E+02  0.00000000000E+00 0. -1.
         11    1    3    3    0    0  0.41820560743E+02 -0.29201292537E+01  0.17861674623E+02  0.45568913484E+02  0.00000000000E+00 0.  1.
</event>
<event>
 8    1  0.1790275E-005  0.1191799E+03  0.7561462E-02  0.1244456E+00
         -2   -1    0    0    0  501 -0.00000000000E+00  0.00000000000E+00  0.34613966718E+02  0.34613966718E+02  0.00000000000E+00 0. -1.
          2   -1    0    0  501    0  0.00000000000E+00 -0.00000000000E+00 -0.53842566631E+03  0.53842566631E+03  0.00000000000E+00 0.  1.
         23    2    1    2    0    0  0.46704435532E+02  0.65984929040E+02 -0.18681320332E+03  0.22279424119E+03  0.90569232141E+02 0.  0.
         23    2    1    2    0    0 -0.46704435532E+02 -0.65984929040E+02 -0.31699849627E+03  0.35024539185E+03  0.12509385561E+03 0.  0.
          5    1    4    4  502    0 -0.73940047846E+01 -0.89642676747E+02 -0.26919441618E+03  0.28385486944E+03  0.41800000000E+01 0. -1.
         -5    1    4    4    0  502 -0.39310430747E+02  0.23657747706E+02 -0.47804080088E+02  0.66390522405E+02  0.41800000000E+01 0. -1.
        -11    1    3    3    0    0  0.15443757620E+02 -0.11129096501E+02 -0.10280372589E+03  0.10455129121E+03  0.00000000000E+00 0.  1.
         11    1    3    3    0    0  0.31260677912E+02  0.77114025542E+02 -0.84009477437E+02  0.11824294997E+03  0.00000000000E+00 0. -1.
</event>
<event>
 7    1  0.1790275E-005  0.8610573E+02  0.7561462E-02  0.1312566E+00
          2   -1    0    0  501    0  0.00000000000E+00  0.00000000000E+00  0.48432428349E+03  0.48432428349E+03  0.00000000000E+00 0.  1.
         -2   -1    0    0    0  501 -0.00000000000E+00 -0.00000000000E+00 -0.27126678517E+02  0.27126678517E+02  0.00000000000E+00 0. -1.
         23    2    1    2    0    0  0.42589860184E+02  0.39454898498E+02  0.40077479192E+03  0.42384170338E+03  0.12510303943E+03 0.  0.
          5    1    3    3  502    0 -0.20514784147E+02  0.44231386602E+02  0.30545429078E+03  0.30934942716E+03  0.41800000000E+01 0. -1.
         -5    1    3    3    0  502  0.63104644331E+02 -0.47764881037E+01  0.95320501143E+02  0.11449227621E+03  0.41800000000E+01 0. -1.
        -11    1    1    2    0    0 -0.19106023360E+02 -0.27540602880E+02  0.50510525126E+02  0.60620442791E+02  0.00000000000E+00 0.  1.
         11    1    1    2    0    0 -0.23483836824E+02 -0.11914295618E+02  0.59122879268E+01  0.26988815842E+02  0.00000000000E+00 0. -1.
</event>
<event>
 8    1  0.1790275E-005  0.1029113E+03  0.7561462E-02  0.1274290E+00
         -4   -1    0    0    0  501 -0.00000000000E+00  0.00000000000E+00  0.22807815557E+03  0.22807815557E+03  0.00000000000E+00 0.  1.
          4   -1    0    0  501    0  0.00000000000E+00 -0.00000000000E+00 -0.12311705461E+03  0.12311705461E+03  0.00000000000E+00 0. -1.
         23    2    1    2    0    0  0.47050283341E+01 -0.41032350273E+02  0.17876937430E+03  0.20460626596E+03  0.90550780340E+02 0.  0.
         23    2    1    2    0    0 -0.47050283341E+01  0.41032350273E+02 -0.73808273338E+02  0.14658894422E+03  0.11972830197E+03 0.  0.
          5    1    4    4  502    0 -0.21284598285E+02  0.71931423474E+02 -0.81075559442E+02  0.11053453101E+03  0.41800000000E+01 0. -1.
         -5    1    4    4    0  502  0.16579569951E+02 -0.30899073201E+02  0.72672861040E+01  0.36054413208E+02  0.41800000000E+01 0.  1.
        -11    1    3    3    0    0 -0.55730909820E+01 -0.67113263720E+02  0.96369679351E+02  0.11756855280E+03  0.00000000000E+00 0.  1.
         11    1    3    3    0    0  0.10278119316E+02  0.26080913447E+02  0.82399694950E+02  0.87037713152E+02  0.00000000000E+00 0. -1.
</event>
<event>
 8    1  0.1790275E-005  0.1572954E+03  0.7561462E-02  0.1191784E+00
         -1   -1    0    0    0  501 -0.00000000000E+00  0.00000000000E+00  0.14427002538E+02  0.14427002538E+02  0.00000000000E+00 0.  1.
          1   -1    0    0  501    0  0.00000000000E+00 -0.00000000000E+00 -0.21019818182E+04  0.21019818182E+04  0.00000000000E+00 0. -1.
         23    2    1    2    0    0 -0.90423187890E+02 -0.96994728843E+02 -0.79870678672E+03  0.81473226414E+03  0.90949440670E+02 0.  0.
         23    2    1    2    0    0  0.90423187890E+02  0.96994728843E+02 -0.12888480290E+04  0.13016765566E+04  0.12509310908E+03 0.  0.
          5    1    4    4  502    0 -0.15382645016E+02  0.15746280212E+02 -0.41102744067E+02  0.46813236142E+02  0.41800000000E+01 0. -1.
         -5    1    4    4    0  502  0.10580583291E+03  0.81248448631E+02 -0.12477452849E+04  0.12548633205E+04  0.41800000000E+01 0. -1.
        -11    1    3    3    0    0 -0.85213969023E+02 -0.28249652758E+02 -0.38563525557E+03  0.39594698349E+03  0.00000000000E+00 0. -1.
         11    1    3    3    0    0 -0.52092188673E+01 -0.68745076085E+02 -0.41307153115E+03  0.41878528066E+03  0.00000000000E+00 0.  1.
</event>
<event>
 8    1  0.1790275E-005  0.1071670E+03  0.7561462E-02  0.1265908E+00
         -1   -1    0    0    0  501 -0.00000000000E+00  0.00000000000E+00  0.26327886152E+03  0.26327886152E+03  0.00000000000E+00 0.  1.
          1   -1    0    0  501    0  0.00000000000E+00 -0.00000000000E+00 -0.58916086987E+02  0.58916086987E+02  0.00000000000E+00 0. -1.
         23    2    1    2    0    0  0.31180898461E+02 -0.13730454437E+02  0.15308963118E+03  0.18278336066E+03  0.93875172171E+02 0.  0.
         23    2    1    2    0    0 -0.31180898461E+02  0.13730454437E+02  0.51273143353E+02  0.13941158785E+03  0.12508349927E+03 0.  0.
          5    1    4    4  502    0 -0.48564351353E+02 -0.36673594871E+02 -0.57055340891E+01  0.61265604562E+02  0.41800000000E+01 0.  1.
         -5    1    4    4    0  502  0.17383452892E+02  0.50404049308E+02  0.56978677442E+02  0.78145983289E+02  0.41800000000E+01 0.  1.
        -11    1    3    3    0    0 -0.27624049641E+02  0.18061805410E+02  0.51987540951E+02  0.61579390606E+02  0.00000000000E+00 0.  1.
         11    1    3    3    0    0  0.58804948102E+02 -0.31792259847E+02  0.10110209023E+03  0.12120397005E+03  0.00000000000E+00 0. -1.
</event>
<event>
 8    1  0.1790275E-005  0.1753413E+03  0.7561462E-02  0.1172389E+00
         -1   -1    0    0    0  501 -0.00000000000E+00  0.00000000000E+00  0.66438342280E+02  0.66438342280E+02  0.00000000000E+00 0.  1.
          1   -1    0    0  501    0  0.00000000000E+00 -0.00000000000E+00 -0.53807805834E+03  0.53807805834E+03  0.00000000000E+00 0. -1.
         23    2    1    2    0    0  0.11440922204E+03  0.96985003103E+02 -0.16930627122E+03  0.24458780506E+03  0.93075345788E+02 0.  0.
         23    2    1    2    0    0 -0.11440922204E+03 -0.96985003103E+02 -0.30233344484E+03  0.35992859556E+03  0.12509005204E+03 0.  0.
          5    1    4    4  502    0 -0.20858625628E+02 -0.79888923854E+02 -0.21652170916E+03  0.23176808528E+03  0.41800000000E+01 0.  1.
         -5    1    4    4    0  502 -0.93550596415E+02 -0.17096079249E+02 -0.85811735685E+02  0.12816051029E+03  0.41800000000E+01 0.  1.
        -11    1    3    3    0    0  0.98109875171E+02  0.11321902348E+03 -0.12686606684E+03  0.19631376365E+03  0.00000000000E+00 0.  1.
         11    1    3    3    0    0  0.16299346872E+02 -0.16234020375E+02 -0.42440204381E+02  0.48274041408E+02  0.00000000000E+00 0. -1.
</event>
<event>
 8    1  0.1790275E-005  0.2890538E+03  0.7561462E-02  0.1090844E+00
          2   -1    0    0  501    0  0.00000000000E+00  0.00000000000E+00  0.58579245628E+03  0.58579245628E+03  0.00000000000E+00 0. -1.
         -2   -1    0    0    0  501 -0.00000000000E+00 -0.00000000000E+00 -0.20202943398E+03  0.20202943398E+03  0.00000000000E+00 0.  1.
         23    2    1    2    0    0  0.24686033216E+03 -0.13021677642E+03 -0.17754349310E+01  0.29570307993E+03  0.97676644372E+02 0.  0.
         23    2    1    2    0    0 -0.24686033216E+03  0.13021677642E+03  0.38553845723E+03  0.49211881033E+03  0.12507833155E+03 0.  0.
          5    1    4    4  502    0 -0.74216413258E+02  0.76687078311E+01  0.34848997066E+02  0.82454897206E+02  0.41800000000E+01 0.  1.
         -5    1    4    4    0  502 -0.17264391890E+03  0.12254806859E+03  0.35068946016E+03  0.40966391312E+03  0.41800000000E+01 0.  1.
        -11    1    3    3    0    0  0.23505505781E+03 -0.93354949738E+02  0.15344062549E+02  0.25338008426E+03  0.00000000000E+00 0. -1.
         11    1    3    3    0    0  0.11805274349E+02 -0.36861826679E+02 -0.17119497480E+02  0.42322995671E+02  0.00000000000E+00 0.  1.
</event>
<event>
 8    1  0.1790275E-005  0.1079403E+03  0.7561462E-02  0.1264432E+00
         -2   -1    0    0    0  501 -0.00000000000E+00  0.00000000000E+00  0.20649704491E+03  0.20649704491E+03  0.00000000000E+00 0.  1.
          2   -1    0    0  501    0  0.00000000000E+00 -0.00000000000E+00 -0.95607728361E+02  0.95607728361E+02  0.00000000000E+00 0. -1.
         23    2    1    2    0    0 -0.31526190297E+01 -0.86629373000E+02  0.39457378336E+02  0.13398410189E+03  0.94235171683E+02 0.  0.
         23    2    1    2    0    0  0.31526190297E+01  0.86629373000E+02  0.71431938217E+02  0.16812067138E+03  0.12508977206E+03 0.  0.
          5    1    4    4  502    0  0.10260221472E+02  0.53236987220E+02  0.10613877002E+03  0.11925753584E+03  0.41800000000E+01 0. -1.
         -5    1    4    4    0  502 -0.71076024427E+01  0.33392385780E+02 -0.34706831807E+02  0.48863135539E+02  0.41800000000E+01 0. -1.
        -11    1    3    3    0    0 -0.47953479470E+02 -0.40030792621E+02  0.11317072852E+02  0.63482885009E+02  0.00000000000E+00 0. -1.
         11    1    3    3    0    0  0.44800860440E+02 -0.46598580380E+02  0.28140305484E+02  0.70501216885E+02  0.00000000000E+00 0.  1.
</event>
<event>
 8    1  0.1790275E-005  0.1140971E+03  0.7561462E-02  0.1253165E+00
          2   -1    0    0  501    0  0.00000000000E+00  0.00000000000E+00  0.50214708861E+03  0.50214708861E+03  0.00000000000E+00 0. -1.
         -2   -1    0    0    0  501 -0.00000000000E+00 -0.00000000000E+00 -0.39378130732E+02  0.39378130732E+02  0.00000000000E+00 0.  1.
         23    2    1    2    0    0  0.82190568674E+01  0.82187421909E+02  0.19376961415E+03  0.23358280759E+03  0.10095513566E+03 0.  0.
         23    2    1    2    0    0 -0.82190568674E+01 -0.82187421909E+02  0.26899934373E+03  0.30794241176E+03  0.12508220024E+03 0.  0.
          5    1    4    4  502    0  0.14439107276E+02  0.23423579485E+02  0.12400010748E+03  0.12708521138E+03  0.41800000000E+01 0. -1.
         -5    1    4    4    0  502 -0.22658164143E+02 -0.10561100139E+03  0.14499923625E+03  0.18085720038E+03  0.41800000000E+01 0. -1.
        -11    1    3    3    0    0 -0.16347749152E+02  0.43147620760E+02  0.17944692859E+03  0.18528401512E+03  0.00000000000E+00 0. -1.
         11    1    3    3    0    0  0.24566806020E+02  0.39039801149E+02  0.14322685563E+02  0.48298792465E+02  0.00000000000E+00 0.  1.
</event>
<event>
 8    1  0.1790275E-005  0.1053417E+03  0.7561462E-02  0.1269448E+00
         -2   -1    0    0    0  501 -0.00000000000E+00  0.00000000000E+00  0.38977732175E+02  0.38977732175E+02  0.00000000000E+00 0.  1.
          2   -1    0    0  501    0  0.00000000000E+00 -0.00000000000E+00 -0.73687179459E+03  0.73687179459E+03  0.00000000000E+00 0. -1.
         23    2    1    2    0    0  0.68197539951E+02 -0.16957044932E+02 -0.75647544091E+02  0.13727419030E+03  0.90461077635E+02 0.  0.
         23    2    1    2    0    0 -0.68197539951E+02  0.16957044932E+02 -0.62224651832E+03  0.63857533646E+03  0.12509710209E+03 0.  0.
          5    1    4    4  502    0 -0.44061667080E+02 -0.49007590709E+02 -0.40123107861E+03  0.40662885448E+03  0.41800000000E+01 0. -1.
         -5    1    4    4    0  502 -0.24135872871E+02  0.65964635641E+02 -0.22101543971E+03  0.23194648198E+03  0.41800000000E+01 0. -1.
        -11    1    3    3    0    0  0.26431448751E+02 -0.18864138411E+02 -0.87899880638E+02  0.93706276296E+02  0.00000000000E+00 0. -1.
         11    1    3    3    0    0  0.41766091200E+02  0.19070934793E+01  0.12252336547E+02  0.43567914002E+02  0.00000000000E+00 0.  1.
</event>
<event>
 8    1  0.1790275E-005  0.1831994E+03  0.7561462E-02  0.1164742E+00
          1   -1    0    0  501    0  0.00000000000E+00  0.00000000000E+00  0.11281355029E+04  0.11281355029E+04  0.00000000000E+00 0. -1.
         -1   -1    0    0    0  501 -0.00000000000E+00 -0.00000000000E+00 -0.48311487877E+02  0.48311487877E+02  0.00000000000E+00 0.  1.
         23    2    1    2    0    0  0.15375046717E+03 -0.24233943581E+02  0.18026208935E+03  0.25498858948E+03  0.91094839203E+02 0.  0.
         23    2    1    2    0    0 -0.15375046717E+03  0.24233943581E+02  0.89956192569E+03  0.92145840131E+03  0.12508971591E+03 0.  0.
          5    1    4    4  502    0 -0.64058729326E+02 -0.51382039122E+02  0.38270050250E+03  0.39143426237E+03  0.41800000000E+01 0.  1.
         -5    1    4    4    0  502 -0.89691737848E+02  0.75615982703E+02  0.51686142319E+03  0.53002413894E+03  0.41800000000E+01 0.  1.
        -11    1    3    3    0    0  0.12159493939E+03 -0.43685322937E+02  0.90700210115E+02  0.15786153692E+03  0.00000000000E+00 0.  1.
         11    1    3    3    0    0  0.32155527789E+02  0.19451379356E+02  0.89561879237E+02  0.97127052559E+02  0.00000000000E+00 0. -1.
</event>
<event>
 8    1  0.1790275E-005  0.1147696E+03  0.7561462E-02  0.1251984E+00
         -2   -1    0    0    0  501 -0.00000000000E+00  0.00000000000E+00  0.50802440415E+02  0.50802440415E+02  0.00000000000E+00 0. -1.
          2   -1    0    0  501    0  0.00000000000E+00 -0.00000000000E+00 -0.29346383240E+03  0.29346383240E+03  0.00000000000E+00 0.  1.
         23    2    1    2    0    0  0.56178936874E+02 -0.25569821723E+01 -0.11590312635E+03  0.15751166272E+03  0.90629896222E+02 0.  0.
         23    2    1    2    0    0 -0.56178936874E+02  0.25569821723E+01 -0.12675826563E+03  0.18675461009E+03  0.12508803052E+03 0.  0.
          5    1    4    4  502    0 -0.61654013670E+01 -0.53073782065E+02 -0.86346599293E+02  0.10162699507E+03  0.41800000000E+01 0. -1.
         -5    1    4    4    0  502 -0.50013535507E+02  0.55630764237E+02 -0.40411666337E+02  0.85127615024E+02  0.41800000000E+01 0. -1.
        -11    1    3    3    0    0  0.55741977922E+02 -0.36788117108E+02 -0.50640710317E+02  0.83815363773E+02  0.00000000000E+00 0. -1.
         11    1    3    3    0    0  0.43695895240E+00  0.34231134936E+02 -0.65262416032E+02  0.73696298947E+02  0.00000000000E+00 0.  1.
</event>
<event>
 8    1  0.1790275E-005  0.8731812E+02  0.7561462E-02  0.1309479E+00
         -2   -1    0    0    0  501 -0.00000000000E+00  0.00000000000E+00  0.15831834045E+03  0.15831834045E+03  0.00000000000E+00 0.  1.
          2   -1    0    0  501    0  0.00000000000E+00 -0.00000000000E+00 -0.11221812113E+03  0.11221812113E+03  0.00000000000E+00 0. -1.
         23    2    1    2    0    0 -0.10005205454E+02 -0.56913591768E+01  0.97937426056E+02  0.13464142190E+03  0.91673755039E+02 0.  0.
         23    2    1    2    0    0  0.10005205454E+02  0.56913591768E+01 -0.51837206735E+02  0.13589503967E+03  0.12509144695E+03 0.  0.
          5    1    4    4  502    0  0.65902896647E+02 -0.11229860144E+02 -0.30141887608E+02  0.73452755796E+02  0.41800000000E+01 0. -1.
         -5    1    4    4    0  502 -0.55897691193E+02  0.16921219321E+02 -0.21695319127E+02  0.62442283879E+02  0.41800000000E+01 0. -1.
        -11    1    3    3    0    0  0.18490635059E+02 -0.87214417278E+01  0.10345746787E+03  0.10545811865E+03  0.00000000000E+00 0.  1.
         11    1    3    3    0    0 -0.28495840513E+02  0.30300825510E+01 -0.55200418165E+01  0.29183303248E+02  0.00000000000E+00 0. -1.
</event>
<event>
 8    1  0.1790275E-005  0.1821038E+03  0.7561462E-02  0.1165782E+00
         -1   -1    0    0    0  501 -0.00000000000E+00  0.00000000000E+00  0.86606573435E+02  0.86606573435E+02  0.00000000000E+00 0.  1.
          1   -1    0    0  501    0  0.00000000000E+00 -0.00000000000E+00 -0.44849188442E+03  0.44849188442E+03  0.00000000000E+00 0. -1.
         23    2    1    2    0    0 -0.11072776890E+03 -0.11212533831E+03 -0.10732295353E+03  0.21062406370E+03  0.89507259804E+02 0.  0.
         23    2    1    2    0    0  0.11072776890E+03  0.11212533831E+03 -0.25456235746E+03  0.32447439416E+03  0.12509559679E+03 0.  0.
          5    1    4    4  502    0  0.47739107955E+02 -0.18680603915E+02 -0.99537869704E+02  0.11204127497E+03  0.41800000000E+01 0. -1.
         -5    1    4    4    0  502  0.62988660944E+02  0.13080594222E+03 -0.15502448775E+03  0.21243311920E+03  0.41800000000E+01 0. -1.
        -11    1    3    3    0    0 -0.11012747068E+03 -0.81758384924E+02 -0.11534231842E+03  0.17921033375E+03  0.00000000000E+00 0. -1.
         11    1    3    3    0    0 -0.60029821786E+00 -0.30366953382E+02  0.80193648943E+01  0.31413729943E+02  0.00000000000E+00 0.  1.
</event>
<event>
 8    1  0.1790275E-005  0.1047672E+03  0.7561462E-02  0.1270579E+00
         -1   -1    0    0    0  501 -0.00000000000E+00  0.00000000000E+00  0.48830127651E+02  0.48830127651E+02  0.00000000000E+00 0.  1.
          1   -1    0    0  501    0  0.00000000000E+00 -0.00000000000E+00 -0.45306161155E+03  0.45306161155E+03  0.00000000000E+00 0. -1.
         23    2    1    2    0    0 -0.65254673860E+02  0.37097524731E+02 -0.71503567938E+02  0.13858723853E+03  0.91974255389E+02 0.  0.
         23    2    1    2    0    0  0.65254673860E+02 -0.37097524731E+02 -0.33272791596E+03  0.36330450067E+03  0.12509154786E+03 0.  0.
          5    1    4    4  502    0  0.70840422937E+02  0.20692951464E+02 -0.10603517628E+03  0.12925747472E+03  0.41800000000E+01 0.  1.
         -5    1    4    4    0  502 -0.55857490776E+01 -0.57790476195E+02 -0.22669273968E+03  0.23404702595E+03  0.41800000000E+01 0.  1.
        -11    1    3    3    0    0 -0.35069992061E+02  0.90913522182E+01  0.17712694669E+02  0.40327367640E+02  0.00000000000E+00 0.  1.
         11    1    3    3    0    0 -0.30184681799E+02  0.28006172513E+02 -0.89216262607E+02  0.98259870892E+02  0.00000000000E+00 0. -1.
</event>
<event>
 8    1  0.1790275E-005  0.1187431E+03  0.7561462E-02  0.1245185E+00
          1   -1    0    0  501    0  0.00000000000E+00  0.00000000000E+00  0.43517197795E+03  0.43517197795E+03  0.00000000000E+00 0. -1.
         -1   -1    0    0    0  501 -0.00000000000E+00 -0.00000000000E+00 -0.48924729378E+02  0.48924729378E+02  0.00000000000E+00 0.  1.
         23    2    1    2    0    0  0.51894547126E+02 -0.36850383859E+02  0.57271112717E+02  0.12643140740E+03  0.93026478022E+02 0.  0.
         23    2    1    2    0    0 -0.51894547126E+02  0.36850383859E+02  0.32897613585E+03  0.35766529993E+03  0.12509266165E+03 0.  0.
          5    1    4    4  502    0 -0.80341761075E+02  0.58093803030E+02  0.19233785057E+03  0.21642783944E+03  0.41800000000E+01 0.  1.
         -5    1    4    4    0  502  0.28447213949E+02 -0.21243419171E+02  0.13663828528E+03  0.14123746048E+03  0.41800000000E+01 0.  1.
        -11    1    3    3    0    0  0.31309833925E+02 -0.62327870317E+02  0.62018922609E+02  0.93334966011E+02  0.00000000000E+00 0. -1.
         11    1    3    3    0    0  0.20584713201E+02  0.25477486458E+02 -0.47478098925E+01  0.33096441388E+02  0.00000000000E+00 0.  1.
</event>
<event>
 8    1  0.1790275E-005  0.1209723E+03  0.7561462E-02  0.1241502E+00
         -1   -1    0    0    0  501 -0.00000000000E+00  0.00000000000E+00  0.14112534443E+03  0.14112534443E+03  0.00000000000E+00 0.  1.
          1   -1    0    0  501    0  0.00000000000E+00 -0.00000000000E+00 -0.11762434475E+03  0.11762434475E+03  0.00000000000E+00 0. -1.
         23    2    1    2    0    0  0.26121623806E+02 -0.50730259716E+02  0.50472591572E+02  0.11864320195E+03  0.90955089946E+02 0.  0.
         23    2    1    2    0    0 -0.26121623806E+02  0.50730259716E+02 -0.26971591895E+02  0.14010648724E+03  0.12508582060E+03 0.  0.
          5    1    4    4  502    0  0.34967388793E+02 -0.22640373201E+02 -0.10046167316E+02  0.43054647315E+02  0.41800000000E+01 0. -1.
         -5    1    4    4    0  502 -0.61089012599E+02  0.73370632916E+02 -0.16925424579E+02  0.97051839921E+02  0.41800000000E+01 0. -1.
        -11    1    3    3    0    0 -0.27453373922E+02 -0.42082207502E+02  0.10729607330E+02  0.51378248330E+02  0.00000000000E+00 0.  1.
         11    1    3    3    0    0  0.53574997728E+02 -0.86480522137E+01  0.39742984242E+02  0.67264953617E+02  0.00000000000E+00 0. -1.
</event>
<event>
 8    1  0.1790275E-005  0.1361798E+03  0.7561462E-02  0.1218564E+00
         -1   -1    0    0    0  501 -0.00000000000E+00  0.00000000000E+00  0.60450410413E+02  0.60450410413E+02  0.00000000000E+00 0.  1.
          1   -1    0    0  501    0  0.00000000000E+00 -0.00000000000E+00 -0.79047713461E+03  0.79047713461E+03  0.00000000000E+00 0. -1.
         23    2    1    2    0    0  0.16288118937E+02 -0.11239971060E+03 -0.53622542580E+02  0.15374519621E+03  0.88674745688E+02 0.  0.
         23    2    1    2    0    0 -0.16288118937E+02  0.11239971060E+03 -0.67640418162E+03  0.69718234881E+03  0.12506643366E+03 0.  0.
          5    1    4    4  502    0  0.21542435986E+02  0.25913109060E+02 -0.45745689076E+03  0.45871542929E+03  0.41800000000E+01 0.  1.
         -5    1    4    4    0  502 -0.37830554922E+02  0.86486601540E+02 -0.21894729086E+03  0.23846691952E+03  0.41800000000E+01 0.  1.
        -11    1    3    3    0    0  0.53065677276E+02 -0.64583206602E+02 -0.27356754454E+02  0.87950831116E+02  0.00000000000E+00 0.  1.
         11    1    3    3    0    0 -0.36777558339E+02 -0.47816503998E+02 -0.26265788126E+02  0.65794365092E+02  0.00000000000E+00 0. -1.
</event>
<event>
 8    1  0.1790275E-005  0.1093882E+03  0.7561462E-02  0.1261707E+00
          2   -1    0    0  501    0  0.00000000000E+00  0.00000000000E+00  0.59774927576E+02  0.59774927576E+02  0.00000000000E+00 0. -1.
         -2   -1    0    0    0  501 -0.00000000000E+00 -0.00000000000E+00 -0.24630472103E+03  0.24630472103E+03  0.00000000000E+00 0.  1.
         23    2    1    2    0    0  0.24504877004E+01 -0.44058085813E+02 -0.12226787383E+03  0.15868977126E+03  0.91026868088E+02 0.  0.
         23    2    1    2    0    0 -0.24504877004E+01  0.44058085813E+02 -0.64261919623E+02  0.14738987735E+03  0.12508821614E+03 0.  0.
          5    1    4    4  502    0 -0.51131062044E+02  0.46066456860E+02 -0.30138231127E+01  0.69014922178E+02  0.41800000000E+01 0. -1.
         -5    1    4    4    0  502  0.48680574344E+02 -0.20083710472E+01 -0.61248096511E+02  0.78374955176E+02  0.41800000000E+01 0. -1.
        -11    1    3    3    0    0  0.44218420149E+02 -0.63822149332E+01 -0.48820629199E+02  0.66177452228E+02  0.00000000000E+00 0. -1.
         11    1    3    3    0    0 -0.41767932449E+02 -0.37675870880E+02 -0.73447244636E+02  0.92512319029E+02  0.00000000000E+00 0.  1.
</event>
<event>
 8    1  0.1790275E-005  0.1732682E+03  0.7561462E-02  0.1174482E+00
          2   -1    0    0  501    0  0.00000000000E+00  0.00000000000E+00  0.45406940222E+03  0.45406940222E+03  0.00000000000E+00 0. -1.
         -2   -1    0    0    0  501 -0.00000000000E+00 -0.00000000000E+00 -0.14248043661E+03  0.14248043661E+03  0.00000000000E+00 0.  1.
         23    2    1    2    0    0  0.10099599170E+03  0.12662222120E+03 -0.44002145725E+02  0.19021103873E+03  0.89502364134E+02 0.  0.
         23    2    1    2    0    0 -0.10099599170E+03 -0.12662222120E+03  0.35559111133E+03  0.40633880011E+03  0.11150248775E+03 0.  0.
          5    1    4    4  502    0 -0.91827768372E+02 -0.13576605320E+03  0.24429898824E+03  0.29421799452E+03  0.41800000000E+01 0. -1.
         -5    1    4    4    0  502 -0.91682233250E+01  0.91438320042E+01  0.11129212309E+03  0.11212080559E+03  0.41800000000E+01 0.  1.
        -11    1    3    3    0    0  0.66588781465E+02  0.44929285734E+02  0.17638804658E+02  0.82242531353E+02  0.00000000000E+00 0. -1.
         11    1    3    3    0    0  0.34407210232E+02  0.81692935463E+02 -0.61640950383E+02  0.10796850737E+03  0.00000000000E+00 0.  1.
</event>
<event>
 8    1  0.1790275E-005  0.1006070E+03  0.7561462E-02  0.1279025E+00
          1   -1    0    0  501    0  0.00000000000E+00  0.00000000000E+00  0.71199564087E+03  0.71199564087E+03  0.00000000000E+00 0. -1.
         -1   -1    0    0    0  501 -0.00000000000E+00 -0.00000000000E+00 -0.26702993077E+02  0.26702993077E+02  0.00000000000E+00 0.  1.
         23    2    1    2    0    0  0.56879692810E+02 -0.41080295715E+02  0.17471205501E+03  0.20835661304E+03  0.89248450302E+02 0.  0.
         23    2    1    2    0    0 -0.56879692810E+02  0.41080295715E+02  0.51058059278E+03  0.53034202090E+03  0.12508887745E+03 0.  0.
          5    1    4    4  502    0 -0.57263840017E+02  0.57995192652E+02  0.50570125654E+03  0.51224390969E+03  0.41800000000E+01 0. -1.
         -5    1    4    4    0  502  0.38414720754E+00 -0.16914896937E+02  0.48793362385E+01  0.18098111216E+02  0.41800000000E+01 0. -1.
        -11    1    3    3    0    0  0.23311745342E+01  0.20085762173E+02  0.64971185277E+01  0.21238756224E+02  0.00000000000E+00 0.  1.
         11    1    3    3    0    0  0.54548518276E+02 -0.61166057888E+02  0.16821493648E+03  0.18711785682E+03  0.00000000000E+00 0. -1.
</event>
<event>
 6    1  0.1790275E-005  0.1145515E+03  0.7561462E-02  0.1252366E+00
          1   -1    0    0  501    0  0.00000000000E+00  0.00000000000E+00  0.50495744754E+03  0.50495744754E+03  0.00000000000E+00 0. -1.
         -1   -1    0    0    0  501 -0.00000000000E+00 -0.00000000000E+00 -0.11282425473E+03  0.11282425473E+03  0.00000000000E+00 0.  1.
          5    1    1    2  502    0 -0.68450571314E+02 -0.70268491358E+02  0.45606228433E+03  0.46651197324E+03  0.41800000000E+01 0. -1.
         -5    1    1    2    0  502 -0.17144733289E+02  0.16149085214E+01 -0.32337427639E+01  0.18013309006E+02  0.41800000000E+01 0.  1.
        -11    1    1    2    0    0  0.77869880817E+02  0.48813882358E+02 -0.31563863879E+02  0.97174024061E+02  0.00000000000E+00 0. -1.
         11    1    1    2    0    0  0.77254237862E+01  0.19839700479E+02 -0.29131484877E+02  0.36082395969E+02  0.00000000000E+00 0.  1.
</event>
<event>
 8    1  0.1790275E-005  0.1045853E+03  0.7561462E-02  0.1270939E+00
         -2   -1    0    0    0  501 -0.00000000000E+00  0.00000000000E+00  0.71683845561E+02  0.71683845561E+02  0.00000000000E+00 0.  1.
          2   -1    0    0  501    0  0.00000000000E+00 -0.00000000000E+00 -0.25374365359E+03  0.25374365359E+03  0.00000000000E+00 0. -1.
         23    2    1    2    0    0 -0.72468856944E+02  0.31493376610E+01 -0.42789646031E+02  0.12466591750E+03  0.91918353031E+02 0.  0.
         23    2    1    2    0    0  0.72468856944E+02 -0.31493376610E+01 -0.13927016200E+03  0.20076158166E+03  0.12508949233E+03 0.  0.
          5    1    4    4  502    0 -0.10195133659E+02 -0.67874305010E+01  0.18490432342E+02  0.22569414067E+02  0.41800000000E+01 0. -1.
         -5    1    4    4    0  502  0.82663990603E+02  0.36380928400E+01 -0.15776059434E+03  0.17819216759E+03  0.41800000000E+01 0. -1.
        -11    1    3    3    0    0 -0.46066630054E+02 -0.41176117476E+02 -0.38711363097E+02  0.72912116194E+02  0.00000000000E+00 0.  1.
         11    1    3    3    0    0 -0.26402226890E+02  0.44325455137E+02 -0.40782829340E+01  0.51753801306E+02  0.00000000000E+00 0. -1.
</event>
<event>
 8    1  0.1790275E-005  0.8493186E+02  0.7561462E-02  0.1315611E+00
          1   -1    0    0  501    0  0.00000000000E+00  0.00000000000E+00  0.19666299403E+03  0.19666299403E+03  0.00000000000E+00 0. -1.
         -1   -1    0    0    0  501 -0.00000000000E+00 -0.00000000000E+00 -0.73049108268E+02  0.73049108268E+02  0.00000000000E+00 0.  1.
         23    2    1    2    0    0  0.12315947236E+02 -0.18589569890E+01  0.18858580130E+01  0.94725878947E+02  0.93884489690E+02 0.  0.
         23    2    1    2    0    0 -0.12315947236E+02  0.18589569890E+01  0.12172802775E+03  0.17498622335E+03  0.12508927750E+03 0.  0.
          5    1    4    4  502    0 -0.38895097740E+02 -0.21647580656E+02 -0.34183708737E+01  0.44839759543E+02  0.41800000000E+01 0. -1.
         -5    1    4    4    0  502  0.26579150503E+02  0.23506537645E+02  0.12514639862E+03  0.13014646381E+03  0.41800000000E+01 0. -1.
        -11    1    3    3    0    0 -0.27575689982E+02 -0.29893003942E+02 -0.14670270532E+02  0.43234560252E+02  0.00000000000E+00 0.  1.
         11    1    3    3    0    0  0.39891637219E+02  0.28034046953E+02  0.16556128545E+02  0.51491318695E+02  0.00000000000E+00 0. -1.
</event>
<event>
 8    1  0.1790275E-005  0.8627209E+02  0.7561462E-02  0.1312139E+00
         -2   -1    0    0    0  501 -0.00000000000E+00  0.00000000000E+00  0.20936749672E+02  0.20936749672E+02  0.00000000000E+00 0.  1.
          2   -1    0    0  501    0  0.00000000000E+00 -0.00000000000E+00 -0.56998623990E+03  0.56998623990E+03  0.00000000000E+00 0. -1.
         23    2    1    2    0    0  0.30872485759E+02  0.16361743820E+02 -0.19896377104E+03  0.21752155509E+03  0.80673587426E+02 0.  0.
         23    2    1    2    0    0 -0.30872485759E+02 -0.16361743820E+02 -0.35008571919E+03  0.37340143448E+03  0.12509118054E+03 0.  0.
          5    1    4    4  502    0  0.43826530877E+02  0.88955960861E+00 -0.67675987565E+02  0.80740744472E+02  0.41800000000E+01 0. -1.
         -5    1    4    4    0  502 -0.74699016636E+02 -0.17251303428E+02 -0.28240973163E+03  0.29266069001E+03  0.41800000000E+01 0. -1.
        -11    1    3    3    0    0 -0.51157659645E+01  0.14854698714E+02 -0.39876109527E+00  0.15715983765E+02  0.00000000000E+00 0.  1.
         11    1    3    3    0    0  0.35988251723E+02  0.15070451059E+01 -0.19856500994E+03  0.20180557133E+03  0.00000000000E+00 0. -1.
</event>
<event>
 8    1  0.1790275E-005  0.1422343E+03  0.7561462E-02  0.1210354E+00
         -1   -1    0    0    0  501 -0.00000000000E+00  0.00000000000E+00  0.42355584306E+02  0.42355584306E+02  0.00000000000E+00 0.  1.
          1   -1    0    0  501    0  0.00000000000E+00 -0.00000000000E+00 -0.58038910775E+03  0.58038910775E+03  0.00000000000E+00 0. -1.
         23    2    1    2    0    0 -0.73731646989E+02 -0.66672454246E+02 -0.21821791753E+03  0.26523637038E+03  0.11335652039E+03 0.  0.
         23    2    1    2    0    0  0.73731646989E+02  0.66672454246E+02 -0.31981560591E+03  0.35750832168E+03  0.12509438981E+03 0.  0.
          5    1    4    4  502    0 -0.22251607101E+02  0.58598842821E+02 -0.14086794437E+03  0.15424074867E+03  0.41800000000E+01 0.  1.
         -5    1    4    4    0  502  0.95983254090E+02  0.80736114250E+01 -0.17894766155E+03  0.20326757302E+03  0.41800000000E+01 0.  1.
        -11    1    3    3    0    0 -0.37642868837E+02 -0.78663635817E+02 -0.68866788550E+02  0.11111970005E+03  0.00000000000E+00 0.  1.
         11    1    3    3    0    0 -0.36088778152E+02  0.11991181571E+02 -0.14935112898E+03  0.15411667032E+03  0.00000000000E+00 0. -1.
</event>
<event>
 8    1  0.1790275E-005  0.1027659E+03  0.7561462E-02  0.1274585E+00
          2   -1    0    0  501    0  0.00000000000E+00  0.00000000000E+00  0.11444190100E+04  0.11444190100E+04  0.00000000000E+00 0. -1.
         -2   -1    0    0    0  501 -0.00000000000E+00 -0.00000000000E+00 -0.16027341480E+02  0.16027341480E+02  0.00000000000E+00 0.  1.
         23    2    1    2    0    0 -0.18936492572E+02 -0.24646969928E+02  0.18346788077E+03  0.20677338268E+03  0.90159329138E+02 0.  0.
         23    2    1    2    0    0  0.18936492572E+02  0.24646969928E+02  0.94492378774E+03  0.95367296879E+03  0.12508038575E+03 0.  0.
          5    1    4    4  502    0  0.54726902363E+02  0.57504480410E+02  0.63012097940E+03  0.63511551720E+03  0.41800000000E+01 0. -1.
         -5    1    4    4    0  502 -0.35790409791E+02 -0.32857510482E+02  0.31480280834E+03  0.31855745159E+03  0.41800000000E+01 0. -1.
        -11    1    3    3    0    0 -0.30769595251E+02  0.16180783242E+02  0.14608908581E+03  0.15016859435E+03  0.00000000000E+00 0. -1.
         11    1    3    3    0    0  0.11833102679E+02 -0.40827753170E+02  0.37378794965E+02  0.56604788321E+02  0.00000000000E+00 0.  1.
</event>
<event>
 8    1  0.1790275E-005  0.1173929E+03  0.7561462E-02  0.1247461E+00
         -2   -1    0    0    0  501 -0.00000000000E+00  0.00000000000E+00  0.57387822967E+02  0.57387822967E+02  0.00000000000E+00 0.  1.
          2   -1    0    0  501    0  0.00000000000E+00 -0.00000000000E+00 -0.29997611041E+03  0.29997611041E+03  0.00000000000E+00 0. -1.
         23    2    1    2    0    0 -0.44786237969E+02 -0.42992154583E+02 -0.76352222691E+02  0.14025627160E+03  0.99940118804E+02 0.  0.
         23    2    1    2    0    0  0.44786237969E+02  0.42992154583E+02 -0.16623606476E+03  0.21710766178E+03  0.12508866899E+03 0.  0.
          5    1    4    4  502    0  0.83950517723E+02  0.42577733487E+02 -0.85313244101E+02  0.12710772925E+03  0.41800000000E+01 0.  1.
         -5    1    4    4    0  502 -0.39164279754E+02  0.41442109595E+00 -0.80922820655E+02  0.89999932535E+02  0.41800000000E+01 0.  1.
        -11    1    3    3    0    0  0.23395536573E+02 -0.11553139175E+02  0.80364747631E+01  0.27302217546E+02  0.00000000000E+00 0.  1.
         11    1    3    3    0    0 -0.68181774542E+02 -0.31439015408E+02 -0.84388697455E+02  0.11295405406E+03  0.00000000000E+00 0. -1.
</event>
<event>
 8    1  0.1790275E-005  0.1082194E+03  0.7561462E-02  0.1263903E+00
          2   -1    0    0  501    0  0.00000000000E+00  0.00000000000E+00  0.10600406055E+04  0.10600406055E+04  0.00000000000E+00 0.  1.
         -2   -1    0    0    0  501 -0.00000000000E+00 -0.00000000000E+00 -0.14947497670E+02  0.14947497670E+02  0.00000000000E+00 0. -1.
         23    2    1    2    0    0  0.50934156269E+01  0.40026484141E+02  0.26029986663E+03  0.27926486617E+03  0.92761967370E+02 0.  0.
         23    2    1    2    0    0 -0.50934156269E+01 -0.40026484141E+02  0.78479324119E+03  0.79572323699E+03  0.12508787377E+03 0.  0.
          5    1    4    4  502    0 -0.32218627486E+02 -0.77263726732E+02  0.55806093855E+03  0.56432012808E+03  0.41800000000E+01 0. -1.
         -5    1    4    4    0  502  0.27125211859E+02  0.37237242591E+02  0.22673230264E+03  0.23140310891E+03  0.41800000000E+01 0. -1.
        -11    1    3    3    0    0 -0.13574513577E+02  0.58527523103E+02  0.23580058621E+03  0.24333445057E+03  0.00000000000E+00 0.  1.
         11    1    3    3    0    0  0.18667929204E+02 -0.18501038962E+02  0.24499280426E+02  0.35930415595E+02  0.00000000000E+00 0. -1.
</event>
<event>
 8    1  0.1790275E-005  0.1167555E+03  0.7561462E-02  0.1248547E+00
         -1   -1    0    0    0  501 -0.00000000000E+00  0.00000000000E+00  0.56589343829E+02  0.56589343829E+02  0.00000000000E+00 0.  1.
          1   -1    0    0  501    0  0.00000000000E+00 -0.00000000000E+00 -0.45626502351E+03  0.45626502351E+03  0.00000000000E+00 0. -1.
         23    2    1    2    0    0 -0.71757078411E+02 -0.33478062122E+02 -0.48371036879E+02  0.13163021691E+03  0.93364328577E+02 0.  0.
         23    2    1    2    0    0  0.71757078411E+02  0.33478062122E+02 -0.35130464280E+03  0.38122415042E+03  0.12508813639E+03 0.  0.
          5    1    4    4  502    0  0.42938642784E+02 -0.24683475878E+02 -0.28133339984E+03  0.28569031361E+03  0.41800000000E+01 0. -1.
         -5    1    4    4    0  502  0.28818435628E+02  0.58161537999E+02 -0.69971242960E+02  0.95533836811E+02  0.41800000000E+01 0. -1.
        -11    1    3    3    0    0 -0.54851425275E+02  0.23245522781E+02 -0.82919703616E+01  0.60148066939E+02  0.00000000000E+00 0.  1.
         11    1    3    3    0    0 -0.16905653136E+02 -0.56723584902E+02 -0.40079066517E+02  0.71482149975E+02  0.00000000000E+00 0. -1.
</event>
<event>
 7    1  0.1790275E-005  0.2362888E+03  0.7561462E-02  0.1122290E+00
          2   -1    0    0  501    0  0.00000000000E+00  0.00000000000E+00  0.12435993625E+04  0.12435993625E+04  0.00000000000E+00 0. -1.
         -2   -1    0    0    0  501 -0.00000000000E+00 -0.00000000000E+00 -0.62616196160E+02  0.62616196160E+02  0.00000000000E+00 0.  1.
         23    2    1    2    0    0 -0.21624896502E+03  0.43885543214E+02  0.65806021380E+03  0.69994372376E+03  0.90489864999E+02 0.  0.
          5    1    1    2  502    0  0.14227966324E+03  0.14418103157E+02  0.48325603327E+03  0.50398933556E+03  0.41800000000E+01 0. -1.
         -5    1    1    2    0  502  0.73969301778E+02 -0.58303646371E+02  0.39666919266E+02  0.10228249933E+03  0.41800000000E+01 0.  1.
        -11    1    3    3    0    0 -0.92185136151E+01 -0.17081210620E+02  0.94472852948E+02  0.96446195849E+02  0.00000000000E+00 0.  1.
         11    1    3    3    0    0 -0.20703045140E+03  0.60966753834E+02  0.56358736085E+03  0.60349752791E+03  0.00000000000E+00 0. -1.
</event>
<event>
 8    1  0.1790275E-005  0.7503141E+02  0.7561462E-02  0.1343774E+00
         -2   -1    0    0    0  501 -0.00000000000E+00  0.00000000000E+00  0.12773602361E+02  0.12773602361E+02  0.00000000000E+00 0.  1.
          2   -1    0    0  501    0  0.00000000000E+00 -0.00000000000E+00 -0.98724519557E+03  0.98724519557E+03  0.00000000000E+00 0. -1.
         23    2    1    2    0    0 -0.34681635087E+02  0.18210535618E+02 -0.31026000755E+03  0.32546022191E+03  0.90158994784E+02 0.  0.
         23    2    1    2    0    0  0.34681635087E+02 -0.18210535618E+02 -0.66421158565E+03  0.67455857602E+03  0.11098559610E+03 0.  0.
          5    1    4    4  502    0  0.39240504066E+01  0.10452447340E+02 -0.58203388704E+03  0.58215596698E+03  0.41800000000E+01 0. -1.
         -5    1    4    4    0  502  0.30757584681E+02 -0.28662982959E+02 -0.82177698608E+02  0.92402609032E+02  0.41800000000E+01 0.  1.
        -11    1    3    3    0    0 -0.86192314592E+01 -0.35318263531E+02 -0.84642619458E+02  0.92119726001E+02  0.00000000000E+00 0.  1.
         11    1    3    3    0    0 -0.26062403628E+02  0.53528799149E+02 -0.22561738810E+03  0.23334049591E+03  0.00000000000E+00 0. -1.
</event>
<event>
 8    1  0.1790275E-005  0.1423142E+03  0.7561462E-02  0.1210249E+00
          2   -1    0    0  501    0  0.00000000000E+00  0.00000000000E+00  0.47630038044E+03  0.47630038044E+03  0.00000000000E+00 0. -1.
         -2   -1    0    0    0  501 -0.00000000000E+00 -0.00000000000E+00 -0.48243974432E+02  0.48243974432E+02  0.00000000000E+00 0.  1.
         23    2    1    2    0    0 -0.71901439080E+02 -0.74647321688E+02  0.23118073712E+03  0.26929683958E+03  0.91291921953E+02 0.  0.
         23    2    1    2    0    0  0.71901439080E+02  0.74647321688E+02  0.19687566889E+03  0.25524751529E+03  0.12509686442E+03 0.  0.
          5    1    4    4  502    0  0.55938585772E+02  0.10967745098E+03  0.15834750554E+03  0.20062321287E+03  0.41800000000E+01 0.  1.
         -5    1    4    4    0  502  0.15962853308E+02 -0.35030129295E+02  0.38528163350E+02  0.54624302424E+02  0.41800000000E+01 0.  1.
        -11    1    3    3    0    0  0.10495869109E+01 -0.43304660093E+02  0.29118529594E+02  0.52194673906E+02  0.00000000000E+00 0.  1.
         11    1    3    3    0    0 -0.72951025990E+02 -0.31342661595E+02  0.20206220752E+03  0.21710216567E+03  0.00000000000E+00 0. -1.
</event>
<event>
 7    1  0.1790275E-005  0.2450767E+03  0.7561462E-02  0.1116456E+00
          1   -1    0    0  501    0  0.00000000000E+00  0.00000000000E+00  0.31241442720E+03  0.31241442720E+03  0.00000000000E+00 0. -1.
         -1   -1    0    0    0  501 -0.00000000000E+00 -0.00000000000E+00 -0.67029044176E+03  0.67029044176E+03  0.00000000000E+00 0.  1.
         23    2    1    2    0    0 -0.37469103127E+02 -0.56179662999E+02 -0.47684510071E+03  0.49054632307E+03  0.93243534851E+02 0.  0.
          5    1    1    2  502    0  0.15129541590E+03  0.16949643104E+03  0.20835427837E+03  0.30829907675E+03  0.41800000000E+01 0. -1.
         -5    1    1    2    0  502 -0.11382631277E+03 -0.11331676804E+03 -0.89385192236E+02  0.18385946913E+03  0.41800000000E+01 0.  1.
        -11    1    3    3    0    0 -0.32197108139E+02 -0.75575119281E+02 -0.44750269436E+03  0.45498012472E+03  0.00000000000E+00 0.  1.
         11    1    3    3    0    0 -0.52719949875E+01  0.19395456282E+02 -0.29342406342E+02  0.35566198356E+02  0.00000000000E+00 0. -1.
</event>
<event>
 7    1  0.1790275E-005  0.2057335E+03  0.7561462E-02  0.1144990E+00
         -2   -1    0    0    0  501 -0.00000000000E+00  0.00000000000E+00  0.15224462726E+03  0.15224462726E+03  0.00000000000E+00 0.  1.
          2   -1    0    0  501    0  0.00000000000E+00 -0.00000000000E+00 -0.77552494504E+03  0.77552494504E+03  0.00000000000E+00 0. -1.
         23    2    1    2    0    0 -0.14289120576E+02 -0.59614572173E+02  0.95652033624E+02  0.14621445908E+03  0.92039558486E+02 0.  0.
          5    1    1    2  502    0  0.71171356281E+02  0.16630885617E+03 -0.36252686642E+03  0.40517551613E+03  0.41800000000E+01 0. -1.
         -5    1    1    2    0  502 -0.56882235705E+02 -0.10669428400E+03 -0.35640548498E+03  0.37637959708E+03  0.41800000000E+01 0.  1.
        -11    1    3    3    0    0  0.19911076841E+02 -0.70807157224E+02  0.73362812910E+02  0.10388554670E+03  0.00000000000E+00 0. -1.
         11    1    3    3    0    0 -0.34200197417E+02  0.11192585051E+02  0.22289220715E+02  0.42328912383E+02  0.00000000000E+00 0.  1.
</event>
<event>
 8    1  0.1790275E-005  0.9278626E+02  0.7561462E-02  0.1296241E+00
         -2   -1    0    0    0  501 -0.00000000000E+00  0.00000000000E+00  0.22833962046E+02  0.22833962046E+02  0.00000000000E+00 0.  1.
          2   -1    0    0  501    0  0.00000000000E+00 -0.00000000000E+00 -0.11560692143E+04  0.11560692143E+04  0.00000000000E+00 0. -1.
         23    2    1    2    0    0  0.31359797519E+02  0.29666590158E+02 -0.10779629764E+03  0.14496098748E+03  0.86776163979E+02 0.  0.
         23    2    1    2    0    0 -0.31359797519E+02 -0.29666590158E+02 -0.10254389547E+04  0.10339421889E+04  0.12509139379E+03 0.  0.
          5    1    4    4  502    0  0.29365747069E+02 -0.13768154280E+02 -0.77611376526E+03  0.77680239328E+03  0.41800000000E+01 0.  1.
         -5    1    4    4    0  502 -0.60725544588E+02 -0.15898435877E+02 -0.24932518941E+03  0.25713979564E+03  0.41800000000E+01 0.  1.
        -11    1    3    3    0    0  0.26387735081E+01  0.52932201075E+02 -0.88776047899E+02  0.10339230008E+03  0.00000000000E+00 0. -1.
         11    1    3    3    0    0  0.28721024011E+02 -0.23265610918E+02 -0.19020249736E+02  0.41568687394E+02  0.00000000000E+00 0.  1.
</event>
<event>
 8    1  0.1790275E-005  0.1100920E+03  0.7561462E-02  0.1260400E+00
         -2   -1    0    0    0  501 -0.00000000000E+00  0.00000000000E+00  0.23433724205E+03  0.23433724205E+03  0.00000000000E+00 0.  1.
          2   -1    0    0  501    0  0.00000000000E+00 -0.00000000000E+00 -0.84920770958E+02  0.84920770958E+02  0.00000000000E+00 0. -1.
         23    2    1    2    0    0 -0.57121715815E+02  0.67627622408E+02  0.57701057157E+02  0.14066691814E+03  0.92851408891E+02 0.  0.
         23    2    1    2    0    0  0.57121715815E+02 -0.67627622408E+02  0.91715413934E+02  0.17859109486E+03  0.12508667507E+03 0.  0.
          5    1    4    4  502    0  0.52332197036E+02  0.38706929831E+01  0.92925980333E+02  0.10680052121E+03  0.41800000000E+01 0. -1.
         -5    1    4    4    0  502  0.47895187791E+01 -0.71498315391E+02 -0.12105663983E+01  0.71790573650E+02  0.41800000000E+01 0. -1.
        -11    1    3    3    0    0 -0.25989441985E+02  0.59335936549E+01  0.65890824511E+02  0.71079247204E+02  0.00000000000E+00 0.  1.
         11    1    3    3    0    0 -0.31132273830E+02  0.61694028753E+02 -0.81897673539E+01  0.69587670941E+02  0.00000000000E+00 0. -1.
</event>
<event>
 7    1  0.1790275E-005  0.8390557E+02  0.7561462E-02  0.1318320E+00
         -1   -1    0    0    0  501 -0.00000000000E+00  0.00000000000E+00  0.13652639326E+02  0.13652639326E+02  0.00000000000E+00 0.  1.
          1   -1    0    0  501    0  0.00000000000E+00 -0.00000000000E+00 -0.21031396800E+04  0.21031396800E+04  0.00000000000E+00 0. -1.
         23    2    1    2    0    0 -0.92291571041E+00 -0.36788853118E+02 -0.20765498059E+03  0.23013096948E+03  0.92116234514E+02 0.  0.
          5    1    1    2  502    0 -0.23676056610E+02  0.48770644114E+02 -0.17881311019E+04  0.17889576410E+04  0.41800000000E+01 0. -1.
         -5    1    1    2    0  502  0.24598972321E+02 -0.11981790996E+02 -0.93700958198E+02  0.97703708845E+02  0.41800000000E+01 0.  1.
        -11    1    3    3    0    0 -0.64266692812E+01 -0.60792174438E+02 -0.83089313036E+02  0.10315437214E+03  0.00000000000E+00 0.  1.
         11    1    3    3    0    0  0.55037535708E+01  0.24003321319E+02 -0.12456566755E+03  0.12697659733E+03  0.00000000000E+00 0. -1.
</event>
<event>
 8    1  0.1790275E-005  0.1058187E+03  0.7561462E-02  0.1268515E+00
          1   -1    0    0  501    0  0.00000000000E+00  0.00000000000E+00  0.52536716254E+02  0.52536716254E+02  0.00000000000E+00 0. -1.
         -1   -1    0    0    0  501 -0.00000000000E+00 -0.00000000000E+00 -0.36378137537E+03  0.36378137537E+03  0.00000000000E+00 0.  1.
         23    2    1    2    0    0  0.37573890063E+01  0.42296219641E+02 -0.25308554758E+03  0.27197161947E+03  0.90073188235E+02 0.  0.
         23    2    1    2    0    0 -0.37573890063E+01 -0.42296219641E+02 -0.58159111538E+02  0.14434647215E+03  0.12510129335E+03 0.  0.
          5    1    4    4  502    0 -0.34779659856E+02 -0.76567393499E+02 -0.47680931764E+02  0.96763289220E+02  0.41800000000E+01 0.  1.
         -5    1    4    4    0  502  0.31022270849E+02  0.34271173858E+02 -0.10478179774E+02  0.47583182928E+02  0.41800000000E+01 0.  1.
        -11    1    3    3    0    0  0.34984355555E+02  0.33834086349E+02 -0.22140273814E+03  0.22668882414E+03  0.00000000000E+00 0.  1.
         11    1    3    3    0    0 -0.31226966549E+02  0.84621332923E+01 -0.31682809436E+02  0.45282795336E+02  0.00000000000E+00 0. -1.
</event>
<event>
 8    1  0.1790275E-005  0.7660466E+02  0.7561462E-02  0.1338973E+00
          2   -1    0    0  501    0  0.00000000000E+00  0.00000000000E+00  0.88770857234E+03  0.88770857234E+03  0.00000000000E+00 0. -1.
         -2   -1    0    0    0  501 -0.00000000000E+00 -0.00000000000E+00 -0.23324472908E+02  0.23324472908E+02  0.00000000000E+00 0.  1.
         23    2    1    2    0    0 -0.32062962804E+02 -0.31898738594E+02  0.12555706111E+03  0.16032916804E+03  0.88855519925E+02 0.  0.
         23    2    1    2    0    0  0.32062962804E+02  0.31898738594E+02  0.73882703833E+03  0.75070387722E+03  0.12508139588E+03 0.  0.
          5    1    4    4  502    0  0.32437263093E+02 -0.29951237187E+01  0.43582277671E+02  0.54571367309E+02  0.41800000000E+01 0.  1.
         -5    1    4    4    0  502 -0.37430028889E+00  0.34893862313E+02  0.69524476066E+03  0.69613250991E+03  0.41800000000E+01 0.  1.
        -11    1    3    3    0    0  0.17043299125E+02 -0.31840920758E+02  0.14532654979E+02  0.38929633193E+02  0.00000000000E+00 0.  1.
         11    1    3    3    0    0 -0.49106261929E+02 -0.57817835743E-01  0.11102440613E+03  0.12139953484E+03  0.00000000000E+00 0. -1.
</event>
<event>
 8    1  0.1790275E-005  0.1443660E+03  0.7561462E-02  0.1207572E+00
         -1   -1    0    0    0  501 -0.00000000000E+00  0.00000000000E+00  0.56243230485E+02  0.56243230485E+02  0.00000000000E+00 0.  1.
          1   -1    0    0  501    0  0.00000000000E+00 -0.00000000000E+00 -0.54551846589E+03  0.54551846589E+03  0.00000000000E+00 0. -1.
         23    2    1    2    0    0 -0.38561230691E+02 -0.11296566610E+03 -0.11750491688E+03  0.19175024639E+03  0.93340994585E+02 0.  0.
         23    2    1    2    0    0  0.38561230691E+02  0.11296566610E+03 -0.37177031852E+03  0.41001144998E+03  0.12509200274E+03 0.  0.
          5    1    4    4  502    0  0.76866913679E+02  0.42611022290E+02 -0.14657391373E+03  0.17095498304E+03  0.41800000000E+01 0. -1.
         -5    1    4    4    0  502 -0.38305682989E+02  0.70354643813E+02 -0.22519640479E+03  0.23905646694E+03  0.41800000000E+01 0. -1.
        -11    1    3    3    0    0 -0.21971290169E+02 -0.39359310820E+02 -0.10630976079E+03  0.11547146045E+03  0.00000000000E+00 0. -1.
         11    1    3    3    0    0 -0.16589940521E+02 -0.73606355283E+02 -0.11195156090E+02  0.76278785940E+02  0.00000000000E+00 0.  1.
</event>
<event>
 8    1  0.1790275E-005  0.1622507E+03  0.7561462E-02  0.1186179E+00
         -4   -1    0    0    0  501 -0.00000000000E+00  0.00000000000E+00  0.45962463201E+02  0.45962463201E+02  0.00000000000E+00 0.  1.
          4   -1    0    0  501    0  0.00000000000E+00 -0.00000000000E+00 -0.71217853217E+03  0.71217853217E+03  0.00000000000E+00 0. -1.
         23    2    1    2    0    0  0.11680042321E+03  0.80826534216E+02 -0.25903824337E+03  0.30912516522E+03  0.91007080768E+02 0.  0.
         23    2    1    2    0    0 -0.11680042321E+03 -0.80826534216E+02 -0.40717782560E+03  0.44901583015E+03  0.12508463763E+03 0.  0.
          5    1    4    4  502    0 -0.89292025933E+02 -0.94066390152E+02 -0.39519469216E+03  0.41595416666E+03  0.41800000000E+01 0.  1.
         -5    1    4    4    0  502 -0.27508397275E+02  0.13239855936E+02 -0.11983133443E+02  0.33061663493E+02  0.41800000000E+01 0.  1.
        -11    1    3    3    0    0  0.11605539811E+03  0.39505884840E+02 -0.15816486700E+03  0.20011420619E+03  0.00000000000E+00 0.  1.
         11    1    3    3    0    0  0.74502509380E+00  0.41320649376E+02 -0.10087337637E+03  0.10901095903E+03  0.00000000000E+00 0. -1.
</event>
<event>
 8    1  0.1790275E-005  0.6788344E+02  0.7561462E-02  0.1367442E+00
          2   -1    0    0  501    0  0.00000000000E+00  0.00000000000E+00  0.28321492482E+02  0.28321492482E+02  0.00000000000E+00 0.  1.
         -2   -1    0    0    0  501 -0.00000000000E+00 -0.00000000000E+00 -0.59643869555E+03  0.59643869555E+03  0.00000000000E+00 0. -1.
         23    2    1    2    0    0 -0.72538486517E+01  0.26449390264E+02 -0.41987134487E+03  0.42886389499E+03  0.82946402081E+02 0.  0.
         23    2    1    2    0    0  0.72538486517E+01 -0.26449390264E+02 -0.14824585820E+03  0.19589629304E+03  0.12508530924E+03 0.  0.
          5    1    4    4  502    0  0.17828323253E+02 -0.31233771245E+02  0.96893416563E+01  0.37480038927E+02  0.41800000000E+01 0. -1.
         -5    1    4    4    0  502 -0.10574474601E+02  0.47843809806E+01 -0.15793519985E+03  0.15841625411E+03  0.41800000000E+01 0. -1.
        -11    1    3    3    0    0  0.35787005473E+02  0.25907592147E+02 -0.22472057809E+03  0.22902238168E+03  0.00000000000E+00 0. -1.
         11    1    3    3    0    0 -0.43040854125E+02  0.54179811699E+00 -0.19515076678E+03  0.19984151331E+03  0.00000000000E+00 0.  1.
</event>
<event>
 8    1  0.1790275E-005  0.1178622E+03  0.7561462E-02  0.1246666E+00
          3   -1    0    0  501    0  0.00000000000E+00  0.00000000000E+00  0.40714534895E+03  0.40714534895E+03  0.00000000000E+00 0. -1.
         -3   -1    0    0    0  501 -0.00000000000E+00 -0.00000000000E+00 -0.54731751211E+02  0.54731751211E+02  0.00000000000E+00 0.  1.
         23    2    1    2    0    0  0.17207803414E+01 -0.84732470812E+02  0.71322360183E+02  0.14274864910E+03  0.90043017844E+02 0.  0.
         23    2    1    2    0    0 -0.17207803414E+01  0.84732470812E+02  0.28109123755E+03  0.31912845106E+03  0.12509249279E+03 0.  0.
          5    1    4    4  502    0  0.37737229814E+02  0.99721204881E+02  0.22285136435E+03  0.24708018984E+03  0.41800000000E+01 0.  1.
         -5    1    4    4    0  502 -0.39458010156E+02 -0.14988734070E+02  0.58239873201E+02  0.72048261220E+02  0.41800000000E+01 0.  1.
        -11    1    3    3    0    0  0.98141292089E+01 -0.46744611955E+02 -0.13348803370E+02  0.49594016075E+02  0.00000000000E+00 0.  1.
         11    1    3    3    0    0 -0.80933488674E+01 -0.37987858856E+02  0.84671163553E+02  0.93154633024E+02  0.00000000000E+00 0. -1.
</event>
<event>
 8    1  0.1790275E-005  0.1174302E+03  0.7561462E-02  0.1247398E+00
         -2   -1    0    0    0  501 -0.00000000000E+00  0.00000000000E+00  0.40553599264E+02  0.40553599264E+02  0.00000000000E+00 0.  1.
          2   -1    0    0  501    0  0.00000000000E+00 -0.00000000000E+00 -0.36827823705E+03  0.36827823705E+03  0.00000000000E+00 0. -1.
         23    2    1    2    0    0 -0.35452090313E+02  0.20348075290E+02 -0.13535757795E+03  0.17574972864E+03  0.10438102477E+03 0.  0.
         23    2    1    2    0    0  0.35452090313E+02 -0.20348075290E+02 -0.19236705983E+03  0.23308210768E+03  0.12510510914E+03 0.  0.
          5    1    4    4  502    0  0.78375887092E+02 -0.10344780780E+02 -0.81112010347E+02  0.11334206981E+03  0.41800000000E+01 0.  1.
         -5    1    4    4    0  502 -0.42923796779E+02 -0.10003294510E+02 -0.11125504949E+03  0.11974003786E+03  0.41800000000E+01 0.  1.
        -11    1    3    3    0    0 -0.72370451057E+02  0.17088492497E+02 -0.99154409952E+02  0.12393988775E+03  0.00000000000E+00 0. -1.
         11    1    3    3    0    0  0.36918360744E+02  0.32595827931E+01 -0.36203167999E+02  0.51809840891E+02  0.00000000000E+00 0.  1.
</event>
<event>
 8    1  0.1790275E-005  0.9738826E+02  0.7561462E-02  0.1285886E+00
          2   -1    0    0  501    0  0.00000000000E+00  0.00000000000E+00  0.14034445080E+04  0.14034445080E+04  0.00000000000E+00 0. -1.
         -2   -1    0    0    0  501 -0.00000000000E+00 -0.00000000000E+00 -0.14679975451E+02  0.14679975451E+02  0.00000000000E+00 0.  1.
         23    2    1    2    0    0  0.73367058402E+02  0.21616840885E+02  0.36257371050E+03  0.38151194507E+03  0.90783564677E+02 0.  0.
         23    2    1    2    0    0 -0.73367058402E+02 -0.21616840885E+02  0.10261908220E+04  0.10366125384E+04  0.12509171997E+03 0.  0.
          5    1    4    4  502    0 -0.50103613390E+02  0.23987492781E+02  0.87812433496E+03  0.87988953394E+03  0.41800000000E+01 0.  1.
         -5    1    4    4    0  502 -0.23263445011E+02 -0.45604333666E+02  0.14806648706E+03  0.15672300442E+03  0.41800000000E+01 0.  1.
        -11    1    3    3    0    0  0.28489054793E+02 -0.12717406805E+02  0.27137564115E+02  0.41349801269E+02  0.00000000000E+00 0.  1.
         11    1    3    3    0    0  0.44878003608E+02  0.34334247690E+02  0.33543614639E+03  0.34016214380E+03  0.00000000000E+00 0. -1.
</event>
<event>
 8    1  0.1790275E-005  0.9364427E+02  0.7561462E-02  0.1294259E+00
         -1   -1    0    0    0  501 -0.00000000000E+00  0.00000000000E+00  0.40127000708E+02  0.40127000708E+02  0.00000000000E+00 0.  1.
          1   -1    0    0  501    0  0.00000000000E+00 -0.00000000000E+00 -0.44663408677E+03  0.44663408677E+03  0.00000000000E+00 0. -1.
         23    2    1    2    0    0 -0.27841070510E+02 -0.10592572662E+01 -0.56202174508E+02  0.11375004762E+03  0.94890155874E+02 0.  0.
         23    2    1    2    0    0  0.27841070510E+02  0.10592572662E+01 -0.35030491155E+03  0.37301103985E+03  0.12508979799E+03 0.  0.
          5    1    4    4  502    0  0.43517290557E+02 -0.50706007169E+02 -0.25188477118E+03  0.26063051259E+03  0.41800000000E+01 0.  1.
         -5    1    4    4    0  502 -0.15676220046E+02  0.51765264435E+02 -0.98420140372E+02  0.11238052726E+03  0.41800000000E+01 0.  1.
        -11    1    3    3    0    0  0.89561238731E+01 -0.21999005463E+02  0.16984131923E+02  0.29199813927E+02  0.00000000000E+00 0.  1.
         11    1    3    3    0    0 -0.36797194384E+02  0.20939748197E+02 -0.73186306432E+02  0.84550233697E+02  0.00000000000E+00 0. -1.
</event>
<event>
 8    1  0.1790275E-005  0.1459335E+03  0.7561462E-02  0.1205561E+00
          1   -1    0    0  501    0  0.00000000000E+00  0.00000000000E+00  0.80310271595E+02  0.80310271595E+02  0.00000000000E+00 0. -1.
         -1   -1    0    0    0  501 -0.00000000000E+00 -0.00000000000E+00 -0.34437490717E+03  0.34437490717E+03  0.00000000000E+00 0.  1.
         23    2    1    2    0    0 -0.15986357399E+02 -0.11277473498E+03 -0.19164760461E+03  0.24058210629E+03  0.90428098726E+02 0.  0.
         23    2    1    2    0    0  0.15986357399E+02  0.11277473498E+03 -0.72417030959E+02  0.18410307248E+03  0.12520387554E+03 0.  0.
          5    1    4    4  502    0  0.14319017434E+02 -0.24653980462E+02 -0.26467984424E+02  0.39126456680E+02  0.41800000000E+01 0. -1.
         -5    1    4    4    0  502  0.16673399647E+01  0.13742871544E+03 -0.45949046535E+02  0.14497661580E+03  0.41800000000E+01 0. -1.
        -11    1    3    3    0    0  0.17104823248E+02 -0.16578805813E+02 -0.24165390264E+00  0.23822052328E+02  0.00000000000E+00 0. -1.
         11    1    3    3    0    0 -0.33091180647E+02 -0.96195929166E+02 -0.19140595071E+03  0.21676005396E+03  0.00000000000E+00 0.  1.
</event>
<event>
 8    1  0.1790275E-005  0.7432374E+02  0.7561462E-02  0.1345978E+00
          4   -1    0    0  501    0  0.00000000000E+00  0.00000000000E+00  0.48202940863E+02  0.48202940863E+02  0.00000000000E+00 0. -1.
         -4   -1    0    0    0  501 -0.00000000000E+00 -0.00000000000E+00 -0.27952500861E+03  0.27952500861E+03  0.00000000000E+00 0.  1.
         23    2    1    2    0    0  0.85524558214E+01 -0.43022053533E+02 -0.10202766614E+03  0.14255744897E+03  0.89380870482E+02 0.  0.
         23    2    1    2    0    0 -0.85524558214E+01  0.43022053533E+02 -0.12929440161E+03  0.18517050051E+03  0.12508809048E+03 0.  0.
          5    1    4    4  502    0  0.47710427354E+01  0.27437387609E+02 -0.15182903868E+03  0.15441859498E+03  0.41800000000E+01 0.  1.
         -5    1    4    4    0  502 -0.13323498557E+02  0.15584665924E+02  0.22534637071E+02  0.30751905529E+02  0.41800000000E+01 0.  1.
        -11    1    3    3    0    0 -0.39022026874E+02 -0.32625284559E+02 -0.52664984704E+02  0.73216995211E+02  0.00000000000E+00 0.  1.
         11    1    3    3    0    0  0.47574482696E+02 -0.10396768974E+02 -0.49362681432E+02  0.69340453755E+02  0.00000000000E+00 0. -1.
</event>
<event>
 8    1  0.1790275E-005  0.1124236E+03  0.7561462E-02  0.1256146E+00
          2   -1    0    0  501    0  0.00000000000E+00  0.00000000000E+00  0.24791064066E+03  0.24791064066E+03  0.00000000000E+00 0. -1.
         -2   -1    0    0    0  501 -0.00000000000E+00 -0.00000000000E+00 -0.81616711125E+02  0.81616711125E+02  0.00000000000E+00 0.  1.
         23    2    1    2    0    0 -0.26581729157E+02 -0.73869153403E+02  0.21305702499E+02  0.12256667405E+03  0.91681058449E+02 0.  0.
         23    2    1    2    0    0  0.26581729157E+02  0.73869153403E+02  0.14498822703E+03  0.20696067774E+03  0.12509155048E+03 0.  0.
          5    1    4    4  502    0 -0.12355910502E+02  0.63585849339E+02  0.95608618122E+01  0.65610298270E+02  0.41800000000E+01 0. -1.
         -5    1    4    4    0  502  0.38937639659E+02  0.10283304064E+02  0.13542736522E+03  0.14135037947E+03  0.41800000000E+01 0. -1.
        -11    1    3    3    0    0  0.24924310124E+02  0.48347545638E+01 -0.25862451047E+01  0.25520281162E+02  0.00000000000E+00 0.  1.
         11    1    3    3    0    0 -0.51506039280E+02 -0.78703907966E+02  0.23891947603E+02  0.97046392884E+02  0.00000000000E+00 0. -1.
</event>
<event>
 8    1  0.1790275E-005  0.1789180E+03  0.7561462E-02  0.1168854E+00
          2   -1    0    0  501    0  0.00000000000E+00  0.00000000000E+00  0.86692758103E+03  0.86692758103E+03  0.00000000000E+00 0. -1.
         -2   -1    0    0    0  501 -0.00000000000E+00 -0.00000000000E+00 -0.14643938790E+03  0.14643938790E+03  0.00000000000E+00 0.  1.
         23    2    1    2    0    0 -0.14767181130E+03  0.68704638248E+02 -0.68699514643E+02  0.19951248431E+03  0.92511171840E+02 0.  0.
         23    2    1    2    0    0  0.14767181130E+03 -0.68704638248E+02  0.78918770778E+03  0.81385448462E+03  0.11408151846E+03 0.  0.
          5    1    4    4  502    0  0.75611463091E+02 -0.68068196471E+01  0.56838558947E+03  0.57344840820E+03  0.41800000000E+01 0. -1.
         -5    1    4    4    0  502  0.72060348207E+02 -0.61897818601E+02  0.22080211830E+03  0.24040607642E+03  0.41800000000E+01 0.  1.
        -11    1    3    3    0    0  0.93223968366E+01 -0.77247033067E+01 -0.85942487552E+01  0.14847196221E+02  0.00000000000E+00 0. -1.
         11    1    3    3    0    0 -0.15699420813E+03  0.76429341554E+02 -0.60105265888E+02  0.18466528809E+03  0.00000000000E+00 0.  1.
</event>
<event>
 8    1  0.1790275E-005  0.2595037E+03  0.7561462E-02  0.1107442E+00
          2   -1    0    0  501    0  0.00000000000E+00  0.00000000000E+00  0.10605144024E+04  0.10605144024E+04  0.00000000000E+00 0.  1.
         -2   -1    0    0    0  501 -0.00000000000E+00 -0.00000000000E+00 -0.72706233040E+02  0.72706233040E+02  0.00000000000E+00 0. -1.
         23    2    1    2    0    0  0.63645851027E+01 -0.24111584045E+03  0.31426821862E+03  0.40694229487E+03  0.93059989592E+02 0.  0.
         23    2    1    2    0    0 -0.63645851027E+01  0.24111584045E+03  0.67353995079E+03  0.72627834061E+03  0.12508719472E+03 0.  0.
          5    1    4    4  502    0  0.54192368125E+02  0.11666858206E+03  0.25885012996E+03  0.28908343602E+03  0.41800000000E+01 0. -1.
         -5    1    4    4    0  502 -0.60556953227E+02  0.12444725839E+03  0.41468982083E+03  0.43719490459E+03  0.41800000000E+01 0. -1.
        -11    1    3    3    0    0 -0.30017406054E+02 -0.16199014532E+03  0.15924049460E+03  0.22912744700E+03  0.00000000000E+00 0. -1.
         11    1    3    3    0    0  0.36381991157E+02 -0.79125695128E+02  0.15502772402E+03  0.17781484788E+03  0.00000000000E+00 0.  1.
</event>
<event>
 8    1  0.1790275E-005  0.9295800E+02  0.7561462E-02  0.1295843E+00
          1   -1    0    0  501    0  0.00000000000E+00  0.00000000000E+00  0.10208613368E+03  0.10208613368E+03  0.00000000000E+00 0. -1.
         -1   -1    0    0    0  501 -0.00000000000E+00 -0.00000000000E+00 -0.26151603762E+03  0.26151603762E+03  0.00000000000E+00 0.  1.
         23    2    1    2    0    0  0.17192785257E+01 -0.71111718629E+02 -0.18183884581E+03  0.21797234528E+03  0.96885215665E+02 0.  0.
         23    2    1    2    0    0 -0.17192785257E+01  0.71111718629E+02  0.22408941875E+02  0.14562982602E+03  0.12508418407E+03 0.  0.
          5    1    4    4  502    0 -0.26511590903E+02  0.82782373168E+02 -0.25147298412E+02  0.90585014086E+02  0.41800000000E+01 0. -1.
         -5    1    4    4    0  502  0.24792312378E+02 -0.11670654539E+02  0.47556240287E+02  0.55044811932E+02  0.41800000000E+01 0. -1.
        -11    1    3    3    0    0  0.22804271583E+01 -0.48000553489E+02 -0.18800243500E+03  0.19404682180E+03  0.00000000000E+00 0.  1.
         11    1    3    3    0    0 -0.56114863262E+00 -0.23111165141E+02  0.61635891919E+01  0.23925523478E+02  0.00000000000E+00 0. -1.
</event>
<event>
 8    1  0.1790275E-005  0.9847622E+02  0.7561462E-02  0.1283533E+00
         -2   -1    0    0    0  501 -0.00000000000E+00  0.00000000000E+00  0.20531202369E+02  0.20531202369E+02  0.00000000000E+00 0.  1.
          2   -1    0    0  501    0  0.00000000000E+00 -0.00000000000E+00 -0.72058244580E+03  0.72058244580E+03  0.00000000000E+00 0. -1.
         23    2    1    2    0    0  0.29864186125E+02  0.20859789283E+01 -0.16481556290E+03  0.19064107392E+03  0.91014440444E+02 0.  0.
         23    2    1    2    0    0 -0.29864186125E+02 -0.20859789283E+01 -0.53523568053E+03  0.55047257425E+03  0.12508637164E+03 0.  0.
          5    1    4    4  502    0 -0.16562048164E+02  0.61341785692E+02 -0.26391795001E+03  0.27149083382E+03  0.41800000000E+01 0.  1.
         -5    1    4    4    0  502 -0.13302137960E+02 -0.63427764620E+02 -0.27131773052E+03  0.27898174043E+03  0.41800000000E+01 0.  1.
        -11    1    3    3    0    0 -0.16663400813E+02 -0.11042546091E+02 -0.11927497692E+01  0.20025718535E+02  0.00000000000E+00 0.  1.
         11    1    3    3    0    0  0.46527586937E+02  0.13128525020E+02 -0.16362281314E+03  0.17061535539E+03  0.00000000000E+00 0. -1.
</event>
<event>
 8    1  0.2385960E-005  0.1949630E+03  0.7561462E-02  0.1154060E+00
          2   -1    0    0  501    0  0.00000000000E+00  0.00000000000E+00  0.64800529365E+03  0.64800529365E+03  0.00000000000E+00 0. -1.
         -2   -1    0    0    0  501 -0.00000000000E+00 -0.00000000000E+00 -0.68377862116E+02  0.68377862116E+02  0.00000000000E+00 0.  1.
         23    2    1    2    0    0 -0.15071673899E+03 -0.95937049526E+02  0.22696775037E+03  0.30173143915E+03  0.87224129572E+02 0.  0.
         23    2    1    2    0    0  0.15071673899E+03  0.95937049526E+02  0.35265968116E+03  0.41465171662E+03  0.12509093687E+03 0.  0.
          5    1    4    4  502    0  0.59181984618E+02  0.92683347214E+02  0.11154401769E+03  0.15669157743E+03  0.41800000000E+01 0.  1.
         -5    1    4    4    0  502  0.91534754376E+02  0.32537023119E+01  0.24111566347E+03  0.25796013919E+03  0.41800000000E+01 0.  1.
        -11    1    3    3    0    0 -0.91708583146E+02 -0.23328604458E+02  0.16271522491E+03  0.18823106127E+03  0.00000000000E+00 0. -1.
         11    1    3    3    0    0 -0.59008155847E+02 -0.72608445068E+02  0.64252525464E+02  0.11350037789E+03  0.00000000000E+00 0.  1.
</event>
<event>
 8    1  0.1790275E-005  0.1081145E+03  0.7561462E-02  0.1264102E+00
         -1   -1    0    0    0  501 -0.00000000000E+00  0.00000000000E+00  0.29624975805E+02  0.29624975805E+02  0.00000000000E+00 0.  1.
          1   -1    0    0  501    0  0.00000000000E+00 -0.00000000000E+00 -0.73418695613E+03  0.73418695613E+03  0.00000000000E+00 0. -1.
         23    2    1    2    0    0  0.18575111204E+01 -0.78724408422E+02 -0.16188200258E+03  0.20136255724E+03  0.90222579608E+02 0.  0.
         23    2    1    2    0    0 -0.18575111204E+01  0.78724408422E+02 -0.54267997774E+03  0.56244937469E+03  0.12508700179E+03 0.  0.
          5    1    4    4  502    0 -0.20426703585E+02  0.89884800427E+02 -0.52787368145E+03  0.53587743332E+03  0.41800000000E+01 0.  1.
         -5    1    4    4    0  502  0.18569192464E+02 -0.11160392005E+02 -0.14806296288E+02  0.26571941371E+02  0.41800000000E+01 0.  1.
        -11    1    3    3    0    0  0.31920130194E+02 -0.25869361030E+02 -0.17424039930E+02  0.44628642363E+02  0.00000000000E+00 0.  1.
         11    1    3    3    0    0 -0.30062619074E+02 -0.52855047392E+02 -0.14445796265E+03  0.15673391488E+03  0.00000000000E+00 0. -1.
</event>
<event>
 8    1  0.1790275E-005  0.8772991E+02  0.7561462E-02  0.1308444E+00
         -2   -1    0    0    0  501 -0.00000000000E+00  0.00000000000E+00  0.14781342517E+02  0.14781342517E+02  0.00000000000E+00 0.  1.
          2   -1    0    0  501    0  0.00000000000E+00 -0.00000000000E+00 -0.89885360822E+03  0.89885360822E+03  0.00000000000E+00 0. -1.
         23    2    1    2    0    0 -0.16067574581E+02 -0.13153442887E+02 -0.36820048578E+03  0.38240521550E+03  0.10114826295E+03 0.  0.
         23    2    1    2    0    0  0.16067574581E+02  0.13153442887E+02 -0.51587177992E+03  0.53122973524E+03  0.12510059260E+03 0.  0.
          5    1    4    4  502    0  0.20381981514E+01  0.46585840673E+02 -0.47131016117E+03  0.47362974487E+03  0.41800000000E+01 0. -1.
         -5    1    4    4    0  502  0.14029376430E+02 -0.33432397786E+02 -0.44561618748E+02  0.57599990366E+02  0.41800000000E+01 0. -1.
        -11    1    3    3    0    0 -0.42575037041E+02 -0.37063558280E+02 -0.30163919855E+03  0.30687545883E+03  0.00000000000E+00 0.  1.
         11    1    3    3    0    0  0.26507462459E+02  0.23910115393E+02 -0.66561287231E+02  0.75529756666E+02  0.00000000000E+00 0. -1.
</event>
<event>
 8    1  0.1790275E-005  0.1969262E+03  0.7561462E-02  0.1152359E+00
         -2   -1    0    0    0  501 -0.00000000000E+00  0.00000000000E+00  0.47428626741E+02  0.47428626741E+02  0.00000000000E+00 0. -1.
          2   -1    0    0  501    0  0.00000000000E+00 -0.00000000000E+00 -0.11299751452E+04  0.11299751452E+04  0.00000000000E+00 0.  1.
         23    2    1    2    0    0  0.17866024396E+03  0.42011330559E+01 -0.27118511454E+03  0.33722987691E+03  0.90804687332E+02 0.  0.
         23    2    1    2    0    0 -0.17866024396E+03 -0.42011330559E+01 -0.81136140389E+03  0.84017389501E+03  0.12509082234E+03 0.  0.
          5    1    4    4  502    0 -0.16727138940E+03  0.32229747958E+02 -0.54382678778E+03  0.56989781705E+03  0.41800000000E+01 0.  1.
         -5    1    4    4    0  502 -0.11388854556E+02 -0.36430881014E+02 -0.26753461611E+03  0.27027607796E+03  0.41800000000E+01 0.  1.
        -11    1    3    3    0    0  0.15241022503E+03  0.21059181709E+02 -0.26345137715E+03  0.30508850183E+03  0.00000000000E+00 0. -1.
         11    1    3    3    0    0  0.26250018926E+02 -0.16858048654E+02 -0.77337373984E+01  0.32141375082E+02  0.00000000000E+00 0.  1.
</event>
<event>
 8    1  0.1790275E-005  0.1855084E+03  0.7561462E-02  0.1162576E+00
         -2   -1    0    0    0  501 -0.00000000000E+00  0.00000000000E+00  0.13586169747E+03  0.13586169747E+03  0.00000000000E+00 0.  1.
          2   -1    0    0  501    0  0.00000000000E+00 -0.00000000000E+00 -0.29872555185E+03  0.29872555185E+03  0.00000000000E+00 0. -1.
         23    2    1    2    0    0  0.13749852906E+03 -0.90506717044E+02 -0.34116146423E+02  0.19102733109E+03  0.90720551429E+02 0.  0.
         23    2    1    2    0    0 -0.13749852906E+03  0.90506717044E+02 -0.12874770795E+03  0.24355991823E+03  0.12509256630E+03 0.  0.
          5    1    4    4  502    0 -0.19328689682E+02 -0.30860221760E+02 -0.15749450647E+02  0.39893221575E+02  0.41800000000E+01 0.  1.
         -5    1    4    4    0  502 -0.11816983938E+03  0.12136693880E+03 -0.11299825730E+03  0.20366669666E+03  0.41800000000E+01 0.  1.
        -11    1    3    3    0    0  0.93980603435E+02 -0.67369354315E+02 -0.65209465982E+02  0.13275262023E+03  0.00000000000E+00 0. -1.
         11    1    3    3    0    0  0.43517925629E+02 -0.23137362728E+02  0.31093319560E+02  0.58274710864E+02  0.00000000000E+00 0.  1.
</event>
<event>
 8    1  0.1790275E-005  0.9514791E+02  0.7561462E-02  0.1290843E+00
         -3   -1    0    0    0  501 -0.00000000000E+00  0.00000000000E+00  0.56817261424E+02  0.56817261424E+02  0.00000000000E+00 0.  1.
          3   -1    0    0  501    0  0.00000000000E+00 -0.00000000000E+00 -0.28232752010E+03  0.28232752010E+03  0.00000000000E+00 0. -1.
         23    2    1    2    0    0 -0.58566473850E+02 -0.17876216598E+02 -0.67141253907E+02  0.12824663035E+03  0.90496736080E+02 0.  0.
         23    2    1    2    0    0  0.58566473850E+02  0.17876216598E+02 -0.15836900477E+03  0.21089815117E+03  0.12509075712E+03 0.  0.
          5    1    4    4  502    0  0.85082739578E+02 -0.29213831281E+01 -0.15485001509E+03  0.17675861118E+03  0.41800000000E+01 0. -1.
         -5    1    4    4    0  502 -0.26516265728E+02  0.20797599726E+02 -0.35189896798E+01  0.34139539993E+02  0.41800000000E+01 0. -1.
        -11    1    3    3    0    0 -0.47209361678E+02  0.30345599023E+01  0.92781710834E+01  0.48208057859E+02  0.00000000000E+00 0.  1.
         11    1    3    3    0    0 -0.11357112171E+02 -0.20910776500E+02 -0.76419424991E+02  0.80038572493E+02  0.00000000000E+00 0. -1.
</event>
<event>
 8    1  0.2079136E-005  0.1505965E+03  0.7561462E-02  0.1199742E+00
         -2   -1    0    0    0  501 -0.00000000000E+00  0.00000000000E+00  0.56676494099E+02  0.56676494099E+02  0.00000000000E+00 0.  1.
          2   -1    0    0  501    0  0.00000000000E+00 -0.00000000000E+00 -0.51004467244E+03  0.51004467244E+03  0.00000000000E+00 0. -1.
         23    2    1    2    0    0 -0.10457323729E+01  0.13023584413E+03 -0.20464693476E+03  0.25935787257E+03  0.91780550797E+02 0.  0.
         23    2    1    2    0    0  0.10457323729E+01 -0.13023584413E+03 -0.24872124358E+03  0.30736329397E+03  0.12508984298E+03 0.  0.
          5    1    4    4  502    0  0.27516523429E+02 -0.13127828815E+03 -0.24623559652E+03  0.28042929482E+03  0.41800000000E+01 0. -1.
         -5    1    4    4    0  502 -0.26470791057E+02  0.10424440126E+01 -0.24856470597E+01  0.26933999146E+02  0.41800000000E+01 0. -1.
        -11    1    3    3    0    0  0.12879934011E+02  0.44554567863E+01 -0.82011435400E+02  0.83136149367E+02  0.00000000000E+00 0. -1.
         11    1    3    3    0    0 -0.13925666384E+02  0.12578038735E+03 -0.12263549936E+03  0.17622172320E+03  0.00000000000E+00 0.  1.
</event>
<event>
 6    1  0.1790275E-005  0.1130640E+03  0.7561462E-02  0.1254999E+00
         -2   -1    0    0    0  501 -0.00000000000E+00  0.00000000000E+00  0.13630956629E+02  0.13630956629E+02  0.00000000000E+00 0.  1.
          2   -1    0    0  501    0  0.00000000000E+00 -0.00000000000E+00 -0.13233790558E+04  0.13233790558E+04  0.00000000000E+00 0. -1.
          5    1    1    2  502    0  0.10245862804E+03 -0.27572677650E+02 -0.90586191793E+03  0.91206431230E+03  0.41800000000E+01 0. -1.
         -5    1    1    2    0  502 -0.17601485216E+02 -0.16126802732E+02 -0.30173655833E+02  0.38701523930E+02  0.41800000000E+01 0.  1.
        -11    1    1    2    0    0 -0.76952251524E+02  0.37198141697E+02 -0.35217578780E+03  0.36239913945E+03  0.00000000000E+00 0.  1.
         11    1    1    2    0    0 -0.79048912964E+01  0.65013386856E+01 -0.21536737643E+02  0.23845036788E+02  0.00000000000E+00 0. -1.
</event>
<event>
 8    1  0.1790275E-005  0.9522859E+02  0.7561462E-02  0.1290662E+00
          3   -1    0    0  501    0  0.00000000000E+00  0.00000000000E+00  0.38247264761E+02  0.38247264761E+02  0.00000000000E+00 0. -1.
         -3   -1    0    0    0  501 -0.00000000000E+00 -0.00000000000E+00 -0.33076765647E+03  0.33076765647E+03  0.00000000000E+00 0.  1.
         23    2    1    2    0    0  0.18414893286E+02  0.22436092043E+02 -0.12465950320E+03  0.15766591278E+03  0.92065529893E+02 0.  0.
         23    2    1    2    0    0 -0.18414893286E+02 -0.22436092043E+02 -0.16786088851E+03  0.21134900845E+03  0.12509452010E+03 0.  0.
          5    1    4    4  502    0 -0.42322910760E+02  0.41710300287E+02 -0.71288449829E+02  0.92900448892E+02  0.41800000000E+01 0. -1.
         -5    1    4    4    0  502  0.23908017474E+02 -0.64146392330E+02 -0.96572438682E+02  0.11844855956E+03  0.41800000000E+01 0. -1.
        -11    1    3    3    0    0 -0.19752338024E+02  0.52007908911E+01 -0.11209879099E+03  0.11394446904E+03  0.00000000000E+00 0.  1.
         11    1    3    3    0    0  0.38167231311E+02  0.17235301152E+02 -0.12560712210E+02  0.43721443742E+02  0.00000000000E+00 0. -1.
</event>
<event>
 8    1  0.1790275E-005  0.1165689E+03  0.7561462E-02  0.1248867E+00
          1   -1    0    0  501    0  0.00000000000E+00  0.00000000000E+00  0.96453804937E+03  0.96453804937E+03  0.00000000000E+00 0. -1.
         -1   -1    0    0    0  501 -0.00000000000E+00 -0.00000000000E+00 -0.15996330796E+02  0.15996330796E+02  0.00000000000E+00 0.  1.
         23    2    1    2    0    0  0.10980280024E+00 -0.53532399213E+02  0.34996859197E+03  0.36669166883E+03  0.95493637513E+02 0.  0.
         23    2    1    2    0    0 -0.10980280024E+00  0.53532399213E+02  0.59857312660E+03  0.61384271133E+03  0.12508939420E+03 0.  0.
          5    1    4    4  502    0 -0.47406443399E+02 -0.91617977671E+01  0.13049806828E+03  0.13920678015E+03  0.41800000000E+01 0.  1.
         -5    1    4    4    0  502  0.47296640599E+02  0.62694196980E+02  0.46807505832E+03  0.47463593118E+03  0.41800000000E+01 0.  1.
        -11    1    3    3    0    0 -0.43564549731E+02 -0.42764818432E+02  0.24500000310E+03  0.25249099233E+03  0.00000000000E+00 0.  1.
         11    1    3    3    0    0  0.43674352531E+02 -0.10767580781E+02  0.10496858887E+03  0.11420067650E+03  0.00000000000E+00 0. -1.
</event>
<event>
 8    1  0.1790275E-005  0.2094998E+03  0.7561462E-02  0.1141963E+00
         -2   -1    0    0    0  501 -0.00000000000E+00  0.00000000000E+00  0.57262406631E+03  0.57262406631E+03  0.00000000000E+00 0. -1.
          2   -1    0    0  501    0  0.00000000000E+00 -0.00000000000E+00 -0.90420214464E+02  0.90420214464E+02  0.00000000000E+00 0.  1.
         23    2    1    2    0    0 -0.43524736276E+02  0.19095985083E+03  0.28381753503E+03  0.35748870768E+03  0.94264073927E+02 0.  0.
         23    2    1    2    0    0  0.43524736276E+02 -0.19095985083E+03  0.19838631681E+03  0.30555557309E+03  0.12508801002E+03 0.  0.
          5    1    4    4  502    0  0.59492886768E+02 -0.19645517886E+03  0.15037064798E+03  0.25448545155E+03  0.41800000000E+01 0.  1.
         -5    1    4    4    0  502 -0.15968150491E+02  0.54953280325E+01  0.48015668834E+02  0.51070121537E+02  0.41800000000E+01 0.  1.
        -11    1    3    3    0    0 -0.25289665902E+02  0.13759921096E+03  0.26202143473E+03  0.29703256104E+03  0.00000000000E+00 0. -1.
         11    1    3    3    0    0 -0.18235070374E+02  0.53360639870E+02  0.21796100299E+02  0.60456146645E+02  0.00000000000E+00 0.  1.
</event>
<event>
 8    1  0.1790275E-005  0.9482415E+02  0.7561462E-02  0.1291573E+00
          2   -1    0    0  501    0  0.00000000000E+00  0.00000000000E+00  0.28884940401E+02  0.28884940401E+02  0.00000000000E+00 0.  1.
         -2   -1    0    0    0  501 -0.00000000000E+00 -0.00000000000E+00 -0.42216250293E+03  0.42216250293E+03  0.00000000000E+00 0. -1.
         23    2    1    2    0    0  0.87343283867E+01  0.12749721442E+02 -0.13105799885E+03  0.16010808927E+03  0.90661774180E+02 0.  0.
         23    2    1    2    0    0 -0.87343283867E+01 -0.12749721442E+02 -0.26221956368E+03  0.29093935406E+03  0.12509102396E+03 0.  0.
          5    1    4    4  502    0  0.44911079452E+02  0.27510365359E+02 -0.16095802216E+03  0.16940715025E+03  0.41800000000E+01 0.  1.
         -5    1    4    4    0  502 -0.53645407839E+02 -0.40260086801E+02 -0.10126154153E+03  0.12153220381E+03  0.41800000000E+01 0.  1.
        -11    1    3    3    0    0  0.38130210091E+02  0.12786967584E+02 -0.19411902192E+02  0.44656930126E+02  0.00000000000E+00 0.  1.
         11    1    3    3    0    0 -0.29395881705E+02 -0.37246142530E-01 -0.11164609665E+03  0.11545115914E+03  0.00000000000E+00 0. -1.
</event>
<event>
 7    1  0.1790275E-005  0.1035112E+03  0.7561462E-02  0.1273081E+00
         -2   -1    0    0    0  501 -0.00000000000E+00  0.00000000000E+00  0.19865080210E+02  0.19865080210E+02  0.00000000000E+00 0.  1.
          2   -1    0    0  501    0  0.00000000000E+00 -0.00000000000E+00 -0.89965926763E+03  0.89965926763E+03  0.00000000000E+00 0. -1.
         23    2    1    2    0    0 -0.11455700748E+02 -0.15917420496E+02 -0.18703014495E+03  0.20880964896E+03  0.90755699676E+02 0.  0.
          5    1    1    2  502    0  0.14543426973E+02 -0.47853917014E+02 -0.57065842006E+03  0.57286125146E+03  0.41800000000E+01 0. -1.
         -5    1    1    2    0  502 -0.30877262250E+01  0.63771337510E+02 -0.12210562241E+03  0.13785344742E+03  0.41800000000E+01 0.  1.
        -11    1    3    3    0    0 -0.49388381760E+02  0.48131348063E+01 -0.99733625999E+02  0.11139647514E+03  0.00000000000E+00 0.  1.
         11    1    3    3    0    0  0.37932681012E+02 -0.20730555303E+02 -0.87296518954E+02  0.97413173819E+02  0.00000000000E+00 0. -1.
</event>
<event>
 7    1  0.1790275E-005  0.1240590E+03  0.7561462E-02  0.1236547E+00
         -2   -1    0    0    0  501 -0.00000000000E+00  0.00000000000E+00  0.18960734647E+03  0.18960734647E+03  0.00000000000E+00 0.  1.
          2   -1    0    0  501    0  0.00000000000E+00 -0.00000000000E+00 -0.11124226400E+03  0.11124226400E+03  0.00000000000E+00 0. -1.
         23    2    1    2    0    0  0.12985085886E+02  0.56958012378E+02  0.35047069445E+02  0.10177804255E+03  0.75615112504E+02 0.  0.
          5    1    1    2  502    0 -0.55219373449E+02 -0.87118037356E+02 -0.31492997118E+02  0.10792596029E+03  0.41800000000E+01 0. -1.
         -5    1    1    2    0  502  0.42234287563E+02  0.30160024978E+02  0.74811010138E+02  0.91145607631E+02  0.41800000000E+01 0.  1.
        -11    1    3    3    0    0 -0.21090701280E+02 -0.53921867449E+01  0.19090598008E+02  0.28954175704E+02  0.00000000000E+00 0. -1.
         11    1    3    3    0    0  0.34075787166E+02  0.62350199123E+02  0.15956471437E+02  0.72823866846E+02  0.00000000000E+00 0.  1.
</event>
<event>
 8    1  0.1799651E-005  0.1024379E+03  0.7561462E-02  0.1275251E+00
          2   -1    0    0  501    0  0.00000000000E+00  0.00000000000E+00  0.81583869054E+03  0.81583869054E+03  0.00000000000E+00 0. -1.
         -2   -1    0    0    0  501 -0.00000000000E+00 -0.00000000000E+00 -0.18835961703E+02  0.18835961703E+02  0.00000000000E+00 0.  1.
         23    2    1    2    0    0  0.29066889571E+02  0.64460238335E+02  0.29543965964E+03  0.31293385813E+03  0.75119908675E+02 0.  0.
         23    2    1    2    0    0 -0.29066889571E+02 -0.64460238335E+02  0.50156306920E+03  0.52174079412E+03  0.12509171621E+03 0.  0.
          5    1    4    4  502    0 -0.39697759387E+02  0.11266181763E+02  0.56237922119E+02  0.69878574944E+02  0.41800000000E+01 0.  1.
         -5    1    4    4    0  502  0.10630869816E+02 -0.75726420098E+02  0.44532514708E+03  0.45186221917E+03  0.41800000000E+01 0.  1.
        -11    1    3    3    0    0 -0.73236649352E+01  0.44916211720E+02  0.23723967084E+03  0.24156523667E+03  0.00000000000E+00 0. -1.
         11    1    3    3    0    0  0.36390554506E+02  0.19544026615E+02  0.58199988796E+02  0.71368621462E+02  0.00000000000E+00 0.  1.
</event>
<event>
 8    1  0.1790275E-005  0.1175088E+03  0.7561462E-02  0.1247264E+00
         -2   -1    0    0    0  501 -0.00000000000E+00  0.00000000000E+00  0.42975831119E+02  0.42975831119E+02  0.00000000000E+00 0.  1.
          2   -1    0    0  501    0  0.00000000000E+00 -0.00000000000E+00 -0.38485284022E+03  0.38485284022E+03  0.00000000000E+00 0. -1.
         23    2    1    2    0    0 -0.14059838751E+02 -0.48896027007E+02 -0.65868113384E+02  0.12055615661E+03  0.87216271493E+02 0.  0.
         23    2    1    2    0    0  0.14059838751E+02  0.48896027007E+02 -0.27600889571E+03  0.30727251473E+03  0.12508791816E+03 0.  0.
          5    1    4    4  502    0  0.58499629564E+02 -0.11633892048E+02 -0.11856985708E+03  0.13279246030E+03  0.41800000000E+01 0.  1.
         -5    1    4    4    0  502 -0.44439790813E+02  0.60529919056E+02 -0.15743903863E+03  0.17448005443E+03  0.41800000000E+01 0.  1.
        -11    1    3    3    0    0 -0.47984199364E+02 -0.11140553750E+02 -0.40711838379E+02  0.63906565473E+02  0.00000000000E+00 0. -1.
         11    1    3    3    0    0  0.33924360612E+02 -0.37755473257E+02 -0.25156275005E+02  0.56649591137E+02  0.00000000000E+00 0.  1.
</event>
<event>
 8    1  0.1790275E-005  0.1366490E+03  0.7561462E-02  0.1217910E+00
          2   -1    0    0  501    0  0.00000000000E+00  0.00000000000E+00  0.23641920784E+03  0.23641920784E+03  0.00000000000E+00 0. -1.
         -2   -1    0    0    0  501 -0.00000000000E+00 -0.00000000000E+00 -0.81526903307E+02  0.81526903307E+02  0.00000000000E+00 0.  1.
         23    2    1    2    0    0 -0.57883254987E+02 -0.59453293774E+02  0.43427041665E+02  0.13097583905E+03  0.91561985116E+02 0.  0.
         23    2    1    2    0    0  0.57883254987E+02  0.59453293774E+02  0.11146526286E+03  0.18697027210E+03  0.12509281544E+03 0.  0.
          5    1    4    4  502    0  0.77957404814E+02 -0.89195999294E+01  0.62610896844E+02  0.10047145382E+03  0.41800000000E+01 0.  1.
         -5    1    4    4    0  502 -0.20074149827E+02  0.68372893703E+02  0.48854366021E+02  0.86498818280E+02  0.41800000000E+01 0.  1.
        -11    1    3    3    0    0 -0.38229734329E+02  0.18837919274E+02  0.18808893665E+02  0.46584914622E+02  0.00000000000E+00 0. -1.
         11    1    3    3    0    0 -0.19653520658E+02 -0.78291213047E+02  0.24618148000E+02  0.84390924427E+02  0.00000000000E+00 0.  1.
</event>
<event>
 8    1  0.1790275E-005  0.1139451E+03  0.7561462E-02  0.1253434E+00
          4   -1    0    0  501    0  0.00000000000E+00  0.00000000000E+00  0.13500397090E+03  0.13500397090E+03  0.00000000000E+00 0. -1.
         -4   -1    0    0    0  501 -0.00000000000E+00 -0.00000000000E+00 -0.98065236994E+02  0.98065236994E+02  0.00000000000E+00 0.  1.
         23    2    1    2    0    0 -0.38870406517E+02 -0.55020266332E+01  0.19818360746E+02  0.10085275188E+03  0.90759734128E+02 0.  0.
         23    2    1    2    0    0  0.38870406517E+02  0.55020266332E+01  0.17120373156E+02  0.13221645601E+03  0.12508758237E+03 0.  0.
          5    1    4    4  502    0  0.91921971215E+01  0.63879213168E+02  0.15833585269E+02  0.66582469055E+02  0.41800000000E+01 0.  1.
         -5    1    4    4    0  502  0.29678209395E+02 -0.58377186535E+02  0.12867878863E+01  0.65633986956E+02  0.41800000000E+01 0.  1.
        -11    1    3    3    0    0 -0.35180515396E+02 -0.45451933005E+02  0.36335121550E+01  0.57591225790E+02  0.00000000000E+00 0.  1.
         11    1    3    3    0    0 -0.36898911205E+01  0.39949906372E+02  0.16184848591E+02  0.43261526089E+02  0.00000000000E+00 0. -1.
</event>
<event>
 8    1  0.2304748E-005  0.4678595E+03  0.7561462E-02  0.1022526E+00
         -2   -1    0    0    0  501 -0.00000000000E+00  0.00000000000E+00  0.11743768556E+03  0.11743768556E+03  0.00000000000E+00 0.  1.
          2   -1    0    0  501    0  0.00000000000E+00 -0.00000000000E+00 -0.20422364351E+04  0.20422364351E+04  0.00000000000E+00 0. -1.
         23    2    1    2    0    0 -0.42290002029E+03  0.16899909823E+03 -0.63985210202E+03  0.79068166454E+03  0.91442111859E+02 0.  0.
         23    2    1    2    0    0  0.42290002029E+03 -0.16899909823E+03 -0.12849466475E+04  0.13689924561E+04  0.12508931039E+03 0.  0.
          5    1    4    4  502    0  0.35872008567E+03 -0.89984062891E+02 -0.10336587061E+04  0.10978365199E+04  0.41800000000E+01 0.  1.
         -5    1    4    4    0  502  0.64179934622E+02 -0.79015035338E+02 -0.25128794147E+03  0.27115593622E+03  0.41800000000E+01 0.  1.
        -11    1    3    3    0    0 -0.16036193454E+03  0.18661442869E+02 -0.24080714158E+03  0.28991771063E+03  0.00000000000E+00 0. -1.
         11    1    3    3    0    0 -0.26253808575E+03  0.15033765536E+03 -0.39904496043E+03  0.50076395391E+03  0.00000000000E+00 0.  1.
</event>
<event>
 8    1  0.1790275E-005  0.1369873E+03  0.7561462E-02  0.1217441E+00
         -2   -1    0    0    0  501 -0.00000000000E+00  0.00000000000E+00  0.14566301856E+03  0.14566301856E+03  0.00000000000E+00 0.  1.
          2   -1    0    0  501    0  0.00000000000E+00 -0.00000000000E+00 -0.15560807317E+03  0.15560807317E+03  0.00000000000E+00 0. -1.
         23    2    1    2    0    0 -0.18821472532E+02 -0.10162350760E+03  0.51012312124E+01  0.13830700549E+03  0.91767205913E+02 0.  0.
         23    2    1    2    0    0  0.18821472532E+02  0.10162350760E+03 -0.15046285826E+02  0.16296408624E+03  0.12509723243E+03 0.  0.
          5    1    4    4  502    0  0.33877117855E+02 -0.58845365069E+01  0.29549423917E+02  0.45529416182E+02  0.41800000000E+01 0.  1.
         -5    1    4    4    0  502 -0.15055645323E+02  0.10750804411E+03 -0.44595709744E+02  0.11743467006E+03  0.41800000000E+01 0.  1.
        -11    1    3    3    0    0  0.44787784333E+01 -0.10674843406E+03  0.21983704991E+02  0.10908057075E+03  0.00000000000E+00 0.  1.
         11    1    3    3    0    0 -0.23300250966E+02  0.51249264596E+01 -0.16882473779E+02  0.29226434732E+02  0.00000000000E+00 0. -1.
</event>
<event>
 8    1  0.1790275E-005  0.1473982E+03  0.7561462E-02  0.1203707E+00
         -2   -1    0    0    0  501 -0.00000000000E+00  0.00000000000E+00  0.35563353497E+02  0.35563353497E+02  0.00000000000E+00 0.  1.
          2   -1    0    0  501    0  0.00000000000E+00 -0.00000000000E+00 -0.16471115503E+04  0.16471115503E+04  0.00000000000E+00 0. -1.
         23    2    1    2    0    0 -0.35445083379E+02  0.13195319455E+03 -0.19965106892E+03  0.25867747090E+03  0.91572294635E+02 0.  0.
         23    2    1    2    0    0  0.35445083379E+02 -0.13195319455E+03 -0.14118971279E+04  0.14239974329E+04  0.12508872719E+03 0.  0.
          5    1    4    4  502    0  0.29710098423E+02 -0.71953318787E+02 -0.28464883043E+03  0.29513115576E+03  0.41800000000E+01 0.  1.
         -5    1    4    4    0  502  0.57349849563E+01 -0.59999875763E+02 -0.11272482974E+04  0.11288662771E+04  0.41800000000E+01 0.  1.
        -11    1    3    3    0    0 -0.56508882104E+02  0.64489336614E+02 -0.68701562254E+02  0.10987280350E+03  0.00000000000E+00 0.  1.
         11    1    3    3    0    0  0.21063798724E+02  0.67463857936E+02 -0.13094950666E+03  0.14880466740E+03  0.00000000000E+00 0. -1.
</event>
<event>
 8    1  0.1790275E-005  0.9702007E+02  0.7561462E-02  0.1286690E+00
         -1   -1    0    0    0  501 -0.00000000000E+00  0.00000000000E+00  0.67435422937E+02  0.67435422937E+02  0.00000000000E+00 0.  1.
          1   -1    0    0  501    0  0.00000000000E+00 -0.00000000000E+00 -0.34995763733E+03  0.34995763733E+03  0.00000000000E+00 0. -1.
         23    2    1    2    0    0  0.10940969137E+02 -0.61722297555E+02 -0.32502989048E+01  0.10503169173E+03  0.84212499099E+02 0.  0.
         23    2    1    2    0    0 -0.10940969137E+02  0.61722297555E+02 -0.27927191549E+03  0.31236136853E+03  0.12508986750E+03 0.  0.
          5    1    4    4  502    0 -0.25159488965E+02  0.76776449198E+02 -0.27976798783E+03  0.29123053146E+03  0.41800000000E+01 0. -1.
         -5    1    4    4    0  502  0.14218519827E+02 -0.15054151643E+02  0.49607234398E+00  0.21130837076E+02  0.41800000000E+01 0. -1.
        -11    1    3    3    0    0 -0.26641993475E+02 -0.41552899946E+02  0.23515987758E+02  0.54675780658E+02  0.00000000000E+00 0.  1.
         11    1    3    3    0    0  0.37582962613E+02 -0.20169397608E+02 -0.26766286663E+02  0.50355911077E+02  0.00000000000E+00 0. -1.
</event>
<event>
 8    1  0.1790275E-005  0.7903026E+02  0.7561462E-02  0.1331826E+00
         -2   -1    0    0    0  501 -0.00000000000E+00  0.00000000000E+00  0.28773215253E+02  0.28773215253E+02  0.00000000000E+00 0.  1.
          2   -1    0    0  501    0  0.00000000000E+00 -0.00000000000E+00 -0.47499893082E+03  0.47499893082E+03  0.00000000000E+00 0. -1.
         23    2    1    2    0    0 -0.29260197322E+02 -0.99455167867E+01 -0.12358090597E+03  0.15634960086E+03  0.90652550527E+02 0.  0.
         23    2    1    2    0    0  0.29260197322E+02  0.99455167867E+01 -0.32264480959E+03  0.34742254521E+03  0.12509068435E+03 0.  0.
          5    1    4    4  502    0 -0.28004918529E+02 -0.16959867589E+02 -0.20853161855E+02  0.39041507780E+02  0.41800000000E+01 0. -1.
         -5    1    4    4    0  502  0.57265115851E+02  0.26905384375E+02 -0.30179164774E+03  0.30838103743E+03  0.41800000000E+01 0. -1.
        -11    1    3    3    0    0  0.87416536260E+01 -0.20432264934E+02  0.42075500479E+01  0.22618519754E+02  0.00000000000E+00 0.  1.
         11    1    3    3    0    0 -0.38001850948E+02  0.10486748147E+02 -0.12778845602E+03  0.13373108111E+03  0.00000000000E+00 0. -1.
</event>
<event>
 7    1  0.1790275E-005  0.1060539E+03  0.7561462E-02  0.1268057E+00
          2   -1    0    0  501    0  0.00000000000E+00  0.00000000000E+00  0.13965171544E+03  0.13965171544E+03  0.00000000000E+00 0. -1.
         -2   -1    0    0    0  501 -0.00000000000E+00 -0.00000000000E+00 -0.85820683643E+02  0.85820683643E+02  0.00000000000E+00 0.  1.
         23    2    1    2    0    0  0.43824411260E+02  0.41558276513E+02  0.50970127725E+02  0.14796394584E+03  0.12509079094E+03 0.  0.
          5    1    3    3  502    0  0.27694361171E+02 -0.41575589168E+02  0.22597055900E+01  0.50180533323E+02  0.41800000000E+01 0. -1.
         -5    1    3    3    0  502  0.16130050090E+02  0.83133865680E+02  0.48710422135E+02  0.97783412517E+02  0.41800000000E+01 0. -1.
        -11    1    1    2    0    0 -0.38661730950E+02 -0.35397050436E+01  0.46400096774E+01  0.39099726875E+02  0.00000000000E+00 0.  1.
         11    1    1    2    0    0 -0.51626803100E+01 -0.38018571469E+02 -0.17791056050E+01  0.38408726369E+02  0.00000000000E+00 0. -1.
</event>
<event>
 8    1  0.1790275E-005  0.1265397E+03  0.7561462E-02  0.1232682E+00
          1   -1    0    0  501    0  0.00000000000E+00  0.00000000000E+00  0.86025134113E+02  0.86025134113E+02  0.00000000000E+00 0. -1.
         -1   -1    0    0    0  501 -0.00000000000E+00 -0.00000000000E+00 -0.36126985695E+03  0.36126985695E+03  0.00000000000E+00 0.  1.
         23    2    1    2    0    0 -0.11092263139E+03  0.19158550035E+02 -0.23212232463E+03  0.27356957578E+03  0.91042072729E+02 0.  0.
         23    2    1    2    0    0  0.11092263139E+03 -0.19158550035E+02 -0.43122398209E+02  0.17372541528E+03  0.12510035369E+03 0.  0.
          5    1    4    4  502    0  0.76353785936E+02 -0.34578945433E+01  0.36958452769E+02  0.85001513472E+02  0.41800000000E+01 0.  1.
         -5    1    4    4    0  502  0.34568845458E+02 -0.15700655491E+02 -0.80080850978E+02  0.88723901811E+02  0.41800000000E+01 0.  1.
        -11    1    3    3    0    0  0.12542253767E+02  0.67667774598E+01 -0.58204142178E+02  0.59923447610E+02  0.00000000000E+00 0.  1.
         11    1    3    3    0    0 -0.12346488516E+03  0.12391772575E+02 -0.17391818245E+03  0.21364612817E+03  0.00000000000E+00 0. -1.
</event>
<event>
 7    1  0.1790275E-005  0.1111725E+03  0.7561462E-02  0.1258414E+00
          2   -1    0    0  501    0  0.00000000000E+00  0.00000000000E+00  0.14957442906E+04  0.14957442906E+04  0.00000000000E+00 0. -1.
         -2   -1    0    0    0  501 -0.00000000000E+00 -0.00000000000E+00 -0.13127224280E+02  0.13127224280E+02  0.00000000000E+00 0.  1.
         23    2    1    2    0    0  0.15481764188E+02 -0.58947175099E+02  0.52096162748E+03  0.53224074111E+03  0.90358921638E+02 0.  0.
          5    1    1    2  502    0  0.38889128485E+02  0.10112333472E+02  0.77620788357E+03  0.77725849916E+03  0.41800000000E+01 0. -1.
         -5    1    1    2    0  502 -0.54370892672E+02  0.48834841627E+02  0.18544755530E+03  0.19937227463E+03  0.41800000000E+01 0.  1.
        -11    1    3    3    0    0  0.50366040153E+02 -0.14835472032E+02  0.26950430151E+03  0.27457129814E+03  0.00000000000E+00 0. -1.
         11    1    3    3    0    0 -0.34884275965E+02 -0.44111703067E+02  0.25145732597E+03  0.25766944297E+03  0.00000000000E+00 0.  1.
</event>
<event>
 7    1  0.1790275E-005  0.1987395E+03  0.7561462E-02  0.1150807E+00
          1   -1    0    0  501    0  0.00000000000E+00  0.00000000000E+00  0.22684080373E+04  0.22684080373E+04  0.00000000000E+00 0. -1.
         -1   -1    0    0    0  501 -0.00000000000E+00 -0.00000000000E+00 -0.35432869246E+02  0.35432869246E+02  0.00000000000E+00 0.  1.
         23    2    1    2    0    0 -0.11942593874E+03 -0.96798801669E+02  0.19256299574E+04  0.19358023952E+04  0.12509043790E+03 0.  0.
          5    1    3    3  502    0 -0.88325992337E+02  0.78163913202E+01  0.82004927441E+03  0.82483990068E+03  0.41800000000E+01 0.  1.
         -5    1    3    3    0  502 -0.31099946400E+02 -0.10461519299E+03  0.11055806830E+04  0.11109624946E+04  0.41800000000E+01 0.  1.
        -11    1    1    2    0    0  0.15573250332E+02  0.94330402523E+02  0.17888140057E+03  0.20282826834E+03  0.00000000000E+00 0.  1.
         11    1    1    2    0    0  0.10385268841E+03  0.24683991456E+01  0.12846381002E+03  0.16521024293E+03  0.00000000000E+00 0. -1.
</event>
<event>
 7    1  0.1790275E-005  0.1079558E+03  0.7561462E-02  0.1264403E+00
          1   -1    0    0  501    0  0.00000000000E+00  0.00000000000E+00  0.12259408629E+04  0.12259408629E+04  0.00000000000E+00 0. -1.
         -1   -1    0    0    0  501 -0.00000000000E+00 -0.00000000000E+00 -0.14962987343E+02  0.14962987343E+02  0.00000000000E+00 0.  1.
         23    2    1    2    0    0 -0.20323808008E+02  0.26754690120E+02  0.20460819869E+03  0.22566251377E+03  0.89051583564E+02 0.  0.
          5    1    1    2  502    0  0.61732069591E+02 -0.50652380607E+02  0.76346511305E+03  0.76764116833E+03  0.41800000000E+01 0. -1.
         -5    1    1    2    0  502 -0.41408261583E+02  0.23897690487E+02  0.24290456377E+03  0.24760016809E+03  0.41800000000E+01 0.  1.
        -11    1    3    3    0    0 -0.20105660251E+02  0.55593632824E+02  0.91507021875E+02  0.10894229958E+03  0.00000000000E+00 0.  1.
         11    1    3    3    0    0 -0.21814775677E+00 -0.28838942704E+02  0.11310117681E+03  0.11672021419E+03  0.00000000000E+00 0. -1.
</event>
<event>
 8    1  0.1790275E-005  0.1780894E+03  0.7561462E-02  0.1169665E+00
          2   -1    0    0  501    0  0.00000000000E+00  0.00000000000E+00  0.18253057034E+03  0.18253057034E+03  0.00000000000E+00 0. -1.
         -2   -1    0    0    0  501 -0.00000000000E+00 -0.00000000000E+00 -0.17575858765E+03  0.17575858765E+03  0.00000000000E+00 0.  1.
         23    2    1    2    0    0  0.13995024495E+03  0.22796566119E+02 -0.14732358937E+02  0.16798464775E+03  0.88859692738E+02 0.  0.
         23    2    1    2    0    0 -0.13995024495E+03 -0.22796566119E+02  0.21504341623E+02  0.19030451024E+03  0.12509042897E+03 0.  0.
          5    1    4    4  502    0 -0.76534209690E+02  0.50559749124E+02  0.60159962410E+01  0.92018683402E+02  0.41800000000E+01 0.  1.
         -5    1    4    4    0  502 -0.63416035257E+02 -0.73356315243E+02  0.15488345382E+02  0.98285826833E+02  0.41800000000E+01 0.  1.
        -11    1    3    3    0    0  0.14213931122E+03 -0.22499595694E+01 -0.11232150752E+02  0.14260016593E+03  0.00000000000E+00 0.  1.
         11    1    3    3    0    0 -0.21890662733E+01  0.25046525688E+02 -0.35002081856E+01  0.25384481826E+02  0.00000000000E+00 0. -1.
</event>
<event>
 8    1  0.1790275E-005  0.1188763E+03  0.7561462E-02  0.1244962E+00
         -2   -1    0    0    0  501 -0.00000000000E+00  0.00000000000E+00  0.26495252231E+03  0.26495252231E+03  0.00000000000E+00 0.  1.
          2   -1    0    0  501    0  0.00000000000E+00 -0.00000000000E+00 -0.58357248161E+02  0.58357248161E+02  0.00000000000E+00 0. -1.
         23    2    1    2    0    0 -0.48412526781E+02  0.98169970138E+01  0.13287964536E+03  0.16994696384E+03  0.93727392943E+02 0.  0.
         23    2    1    2    0    0  0.48412526781E+02 -0.98169970138E+01  0.73715628790E+02  0.15336280663E+03  0.12508401317E+03 0.  0.
          5    1    4    4  502    0  0.80332781262E+02  0.25160656634E+02  0.32123827350E+02  0.90198819677E+02  0.41800000000E+01 0. -1.
         -5    1    4    4    0  502 -0.31920254481E+02 -0.34977653648E+02  0.41591801440E+02  0.63163986954E+02  0.41800000000E+01 0. -1.
        -11    1    3    3    0    0  0.11461957996E+02 -0.31276574678E+02  0.40359404701E+02  0.52330508812E+02  0.00000000000E+00 0.  1.
         11    1    3    3    0    0 -0.59874484777E+02  0.41093571692E+02  0.92520240660E+02  0.11761645503E+03  0.00000000000E+00 0. -1.
</event>
<event>
 8    1  0.1790275E-005  0.9318187E+02  0.7561462E-02  0.1295324E+00
          1   -1    0    0  501    0  0.00000000000E+00  0.00000000000E+00  0.10414985165E+03  0.10414985165E+03  0.00000000000E+00 0. -1.
         -1   -1    0    0    0  501 -0.00000000000E+00 -0.00000000000E+00 -0.11447355658E+03  0.11447355658E+03  0.00000000000E+00 0.  1.
         23    2    1    2    0    0  0.83621679260E+01 -0.21203684283E+02 -0.24341021289E+01  0.91228995987E+02  0.88302224072E+02 0.  0.
         23    2    1    2    0    0 -0.83621679260E+01  0.21203684283E+02 -0.78896027954E+01  0.12739441225E+03  0.12509024087E+03 0.  0.
          5    1    4    4  502    0 -0.51873343759E+02 -0.28955685754E+01  0.34000383039E+02  0.62231234577E+02  0.41800000000E+01 0. -1.
         -5    1    4    4    0  502  0.43511175833E+02  0.24099252859E+02 -0.41889985835E+02  0.65163177670E+02  0.41800000000E+01 0. -1.
        -11    1    3    3    0    0 -0.33033404044E+02 -0.26822777684E+02 -0.18594062828E+02  0.46437122627E+02  0.00000000000E+00 0.  1.
         11    1    3    3    0    0  0.41395571970E+02  0.56190934002E+01  0.16159960699E+02  0.44791873361E+02  0.00000000000E+00 0. -1.
</event>
<event>
 8    1  0.1790275E-005  0.1482627E+03  0.7561462E-02  0.1202624E+00
          1   -1    0    0  501    0  0.00000000000E+00  0.00000000000E+00  0.34820250483E+02  0.34820250483E+02  0.00000000000E+00 0. -1.
         -1   -1    0    0    0  501 -0.00000000000E+00 -0.00000000000E+00 -0.73738152947E+03  0.73738152947E+03  0.00000000000E+00 0.  1.
         23    2    1    2    0    0  0.96524195113E+02  0.70772386075E+02 -0.35028005353E+03  0.37967748893E+03  0.84458444355E+02 0.  0.
         23    2    1    2    0    0 -0.96524195113E+02 -0.70772386075E+02 -0.35228122546E+03  0.39252429103E+03  0.12509039277E+03 0.  0.
          5    1    4    4  502    0 -0.64930667797E+02 -0.10245673616E+03 -0.20190648318E+03  0.23557817122E+03  0.41800000000E+01 0. -1.
         -5    1    4    4    0  502 -0.31593527317E+02  0.31684350080E+02 -0.15037474228E+03  0.15694611981E+03  0.41800000000E+01 0. -1.
        -11    1    3    3    0    0  0.29033324783E+02 -0.42052157562E+01 -0.17498943840E+03  0.17743145532E+03  0.00000000000E+00 0.  1.
         11    1    3    3    0    0  0.67490870330E+02  0.74977601832E+02 -0.17529061513E+03  0.20224603360E+03  0.00000000000E+00 0. -1.
</event>
<event>
 8    1  0.1790275E-005  0.1050941E+03  0.7561462E-02  0.1269934E+00
          2   -1    0    0  501    0  0.00000000000E+00  0.00000000000E+00  0.51543659082E+03  0.51543659082E+03  0.00000000000E+00 0. -1.
         -2   -1    0    0    0  501 -0.00000000000E+00 -0.00000000000E+00 -0.32400350777E+02  0.32400350777E+02  0.00000000000E+00 0.  1.
         23    2    1    2    0    0  0.67230132250E+02 -0.22811745466E+02  0.23969106348E+03  0.26515755548E+03  0.88410728439E+02 0.  0.
         23    2    1    2    0    0 -0.67230132250E+02  0.22811745466E+02  0.24334517656E+03  0.28267938611E+03  0.12510193430E+03 0.  0.
          5    1    4    4  502    0 -0.27498851547E+02 -0.48938679791E+02  0.13848610297E+03  0.14948931176E+03  0.41800000000E+01 0.  1.
         -5    1    4    4    0  502 -0.39731280704E+02  0.71750425257E+02  0.10485907359E+03  0.13319007435E+03  0.41800000000E+01 0.  1.
        -11    1    3    3    0    0  0.25831998912E+02 -0.14244779504E+02  0.93154078132E+01  0.30935137524E+02  0.00000000000E+00 0.  1.
         11    1    3    3    0    0  0.41398133338E+02 -0.85669659623E+01  0.23037565567E+03  0.23422241796E+03  0.00000000000E+00 0. -1.
</event>
<event>
 8    1  0.1790275E-005  0.2913809E+03  0.7561462E-02  0.1089630E+00
         -2   -1    0    0    0  501 -0.00000000000E+00  0.00000000000E+00  0.14312529191E+03  0.14312529191E+03  0.00000000000E+00 0.  1.
          2   -1    0    0  501    0  0.00000000000E+00 -0.00000000000E+00 -0.77060458103E+03  0.77060458103E+03  0.00000000000E+00 0. -1.
         23    2    1    2    0    0  0.25828584791E+03 -0.11339454739E+03 -0.12021995589E+03  0.31998786406E+03  0.91484931776E+02 0.  0.
         23    2    1    2    0    0 -0.25828584791E+03  0.11339454739E+03 -0.50725933323E+03  0.59374200889E+03  0.12509052466E+03 0.  0.
          5    1    4    4  502    0 -0.23510215347E+03  0.63598355632E+02 -0.46264898163E+03  0.52285688865E+03  0.41800000000E+01 0.  1.
         -5    1    4    4    0  502 -0.23183694437E+02  0.49796191756E+02 -0.44610351605E+02  0.70885120240E+02  0.41800000000E+01 0.  1.
        -11    1    3    3    0    0  0.18390850552E+03 -0.97007357910E+02 -0.44585414374E+02  0.21265141680E+03  0.00000000000E+00 0.  1.
         11    1    3    3    0    0  0.74377342391E+02 -0.16387189477E+02 -0.75634541516E+02  0.10733644726E+03  0.00000000000E+00 0. -1.
</event>
<event>
 8    1  0.1790275E-005  0.1300459E+03  0.7561462E-02  0.1227388E+00
          2   -1    0    0  501    0  0.00000000000E+00  0.00000000000E+00  0.96153286369E+03  0.96153286369E+03  0.00000000000E+00 0. -1.
         -2   -1    0    0    0  501 -0.00000000000E+00 -0.00000000000E+00 -0.21314380090E+02  0.21314380090E+02  0.00000000000E+00 0.  1.
         23    2    1    2    0    0 -0.22405369167E+02 -0.81437566750E+02  0.28292668358E+03  0.30844785944E+03  0.89210402222E+02 0.  0.
         23    2    1    2    0    0  0.22405369167E+02  0.81437566750E+02  0.65729180002E+03  0.67439938435E+03  0.12509173187E+03 0.  0.
          5    1    4    4  502    0 -0.15954706747E+02 -0.22382559382E+02  0.27453951413E+03  0.27594374219E+03  0.41800000000E+01 0.  1.
         -5    1    4    4    0  502  0.38360075914E+02  0.10382012613E+03  0.38275228589E+03  0.39845564216E+03  0.41800000000E+01 0.  1.
        -11    1    3    3    0    0  0.30427159108E+02 -0.87317983605E+01  0.95016740982E+02  0.10015107279E+03  0.00000000000E+00 0. -1.
         11    1    3    3    0    0 -0.52832528275E+02 -0.72705768389E+02  0.18790994260E+03  0.20829678665E+03  0.00000000000E+00 0.  1.
</event>
<event>
 8    1  0.1790275E-005  0.9321215E+02  0.7561462E-02  0.1295254E+00
          1   -1    0    0  501    0  0.00000000000E+00  0.00000000000E+00  0.62658023658E+02  0.62658023658E+02  0.00000000000E+00 0. -1.
         -1   -1    0    0    0  501 -0.00000000000E+00 -0.00000000000E+00 -0.25341786316E+03  0.25341786316E+03  0.00000000000E+00 0.  1.
         23    2    1    2    0    0  0.13154941971E+02 -0.14760281141E+02 -0.16146954087E+03  0.18613020679E+03  0.90449559714E+02 0.  0.
         23    2    1    2    0    0 -0.13154941971E+02  0.14760281141E+02 -0.29290298628E+02  0.12994568003E+03  0.12504814979E+03 0.  0.
          5    1    4    4  502    0  0.23227269707E+02  0.61141209785E+02 -0.39829228321E+01  0.65658888707E+02  0.41800000000E+01 0.  1.
         -5    1    4    4    0  502 -0.36382211678E+02 -0.46380928643E+02 -0.25307375796E+02  0.64286791319E+02  0.41800000000E+01 0.  1.
        -11    1    3    3    0    0  0.36304953949E+02 -0.49239384364E+01 -0.15618944917E+03  0.16042892159E+03  0.00000000000E+00 0.  1.
         11    1    3    3    0    0 -0.23150011977E+02 -0.98363427050E+01 -0.52800916998E+01  0.25701285196E+02  0.00000000000E+00 0. -1.
</event>
<event>
 8    1  0.1790275E-005  0.1062295E+03  0.7561462E-02  0.1267716E+00
          2   -1    0    0  501    0  0.00000000000E+00  0.00000000000E+00  0.73052465868E+03  0.73052465868E+03  0.00000000000E+00 0. -1.
         -2   -1    0    0    0  501 -0.00000000000E+00 -0.00000000000E+00 -0.37458025179E+02  0.37458025179E+02  0.00000000000E+00 0.  1.
         23    2    1    2    0    0  0.21934912854E+02  0.78219420595E+02  0.95553657064E+02  0.15213369243E+03  0.86108889403E+02 0.  0.
         23    2    1    2    0    0 -0.21934912854E+02 -0.78219420595E+02  0.59751297644E+03  0.61584899143E+03  0.12509518405E+03 0.  0.
          5    1    4    4  502    0  0.11022063800E+02 -0.77852177213E+02  0.56093816750E+03  0.56643759369E+03  0.41800000000E+01 0.  1.
         -5    1    4    4    0  502 -0.32956976654E+02 -0.36724338130E+00  0.36574808945E+02  0.49411397746E+02  0.41800000000E+01 0.  1.
        -11    1    3    3    0    0  0.21963914705E+02 -0.31091444394E+00 -0.69193294028E+01  0.23030139738E+02  0.00000000000E+00 0.  1.
         11    1    3    3    0    0 -0.29001851449E-01  0.78530335039E+02  0.10247298647E+03  0.12910355269E+03  0.00000000000E+00 0. -1.
</event>
<event>
 8    1  0.1790275E-005  0.1177852E+03  0.7561462E-02  0.1246796E+00
         -2   -1    0    0    0  501 -0.00000000000E+00  0.00000000000E+00  0.23529284194E+03  0.23529284194E+03  0.00000000000E+00 0.  1.
          2   -1    0    0  501    0  0.00000000000E+00 -0.00000000000E+00 -0.84193268493E+02  0.84193268493E+02  0.00000000000E+00 0. -1.
         23    2    1    2    0    0 -0.89081343967E+02  0.16171222020E+02  0.70427480286E+02  0.14526374082E+03  0.89132093843E+02 0.  0.
         23    2    1    2    0    0  0.89081343967E+02 -0.16171222020E+02  0.80672093160E+02  0.17422236961E+03  0.12509377760E+03 0.  0.
          5    1    4    4  502    0  0.77256772235E+02 -0.60869492982E+02  0.81482079910E+02  0.12779086735E+03  0.41800000000E+01 0.  1.
         -5    1    4    4    0  502  0.11824571732E+02  0.44698270962E+02 -0.80998674939E+00  0.46431502260E+02  0.41800000000E+01 0.  1.
        -11    1    3    3    0    0 -0.69581414474E+02  0.10315296571E+02  0.91862083260E+02  0.11570056579E+03  0.00000000000E+00 0.  1.
         11    1    3    3    0    0 -0.19499929493E+02  0.58559254497E+01 -0.21434602974E+02  0.29563175028E+02  0.00000000000E+00 0. -1.
</event>
<event>
 8    1  0.1790275E-005  0.1311888E+03  0.7561462E-02  0.1225702E+00
         -1   -1    0    0    0  501 -0.00000000000E+00  0.00000000000E+00  0.18203900862E+02  0.18203900862E+02  0.00000000000E+00 0.  1.
          1   -1    0    0  501    0  0.00000000000E+00 -0.00000000000E+00 -0.13628807719E+04  0.13628807719E+04  0.00000000000E+00 0. -1.
         23    2    1    2    0    0  0.92742959858E+02 -0.63146709047E+01 -0.33139718256E+03  0.35589061753E+03  0.90514680366E+02 0.  0.
         23    2    1    2    0    0 -0.92742959858E+02  0.63146709047E+01 -0.10132796885E+04  0.10251940552E+04  0.12508394038E+03 0.  0.
          5    1    4    4  502    0 -0.91344162199E+02 -0.36548042610E+02 -0.87055995701E+03  0.87611165186E+03  0.41800000000E+01 0.  1.
         -5    1    4    4    0  502 -0.13987976588E+01  0.42862713515E+02 -0.14271973146E+03  0.14908240337E+03  0.41800000000E+01 0.  1.
        -11    1    3    3    0    0  0.61666549780E+02  0.33602804386E+02 -0.12492503534E+03  0.14331146597E+03  0.00000000000E+00 0. -1.
         11    1    3    3    0    0  0.31076410077E+02 -0.39917475291E+02 -0.20647214723E+03  0.21257915156E+03  0.00000000000E+00 0.  1.
</event>
<event>
 8    1  0.1790275E-005  0.1004811E+03  0.7561462E-02  0.1279288E+00
         -1   -1    0    0    0  501 -0.00000000000E+00  0.00000000000E+00  0.37391132795E+02  0.37391132795E+02  0.00000000000E+00 0.  1.
          1   -1    0    0  501    0  0.00000000000E+00 -0.00000000000E+00 -0.39114073477E+03  0.39114073477E+03  0.00000000000E+00 0. -1.
         23    2    1    2    0    0  0.70326874454E+00  0.18025360065E+02 -0.74782330510E+02  0.12227186978E+03  0.95040017843E+02 0.  0.
         23    2    1    2    0    0 -0.70326874454E+00 -0.18025360065E+02 -0.27896727146E+03  0.30625999778E+03  0.12508812693E+03 0.  0.
          5    1    4    4  502    0  0.22630120147E+02 -0.60154386349E+02 -0.22392870501E+03  0.23300688801E+03  0.41800000000E+01 0. -1.
         -5    1    4    4    0  502 -0.23333388891E+02  0.42129026285E+02 -0.55038566455E+02  0.73253109766E+02  0.41800000000E+01 0. -1.
        -11    1    3    3    0    0 -0.32872421880E+02  0.37125799689E+02 -0.66181188924E+02  0.82697466045E+02  0.00000000000E+00 0. -1.
         11    1    3    3    0    0  0.33575690624E+02 -0.19100439624E+02 -0.86011415851E+01  0.39574403739E+02  0.00000000000E+00 0.  1.
</event>
<event>
 8    1  0.1790275E-005  0.1023883E+03  0.7561462E-02  0.1275352E+00
          1   -1    0    0  501    0  0.00000000000E+00  0.00000000000E+00  0.17610712790E+03  0.17610712790E+03  0.00000000000E+00 0. -1.
         -1   -1    0    0    0  501 -0.00000000000E+00 -0.00000000000E+00 -0.10289570886E+03  0.10289570886E+03  0.00000000000E+00 0.  1.
         23    2    1    2    0    0 -0.11866238863E+02 -0.45004074572E+02 -0.29987199601E+02  0.11028997250E+03  0.95385908503E+02 0.  0.
         23    2    1    2    0    0  0.11866238863E+02  0.45004074572E+02  0.10319861864E+03  0.16871286425E+03  0.12509157175E+03 0.  0.
          5    1    4    4  502    0  0.58575624803E+02  0.54260172621E+02  0.39798835307E+02  0.89312316316E+02  0.41800000000E+01 0.  1.
         -5    1    4    4    0  502 -0.46709385939E+02 -0.92560980494E+01  0.63399783336E+02  0.79400547939E+02  0.41800000000E+01 0.  1.
        -11    1    3    3    0    0 -0.17603010966E+02 -0.59172568507E+02 -0.53869965586E+02  0.81934315467E+02  0.00000000000E+00 0.  1.
         11    1    3    3    0    0  0.57367721028E+01  0.14168493935E+02  0.23882765985E+02  0.28355657031E+02  0.00000000000E+00 0. -1.
</event>
<event>
 8    1  0.1790275E-005  0.1072510E+03  0.7561462E-02  0.1265747E+00
          1   -1    0    0  501    0  0.00000000000E+00  0.00000000000E+00  0.51747626307E+02  0.51747626307E+02  0.00000000000E+00 0. -1.
         -1   -1    0    0    0  501 -0.00000000000E+00 -0.00000000000E+00 -0.28005871577E+03  0.28005871577E+03  0.00000000000E+00 0.  1.
         23    2    1    2    0    0  0.40187223032E+02 -0.61655841993E+01 -0.14870551233E+03  0.17806159281E+03  0.89104287859E+02 0.  0.
         23    2    1    2    0    0 -0.40187223032E+02  0.61655841993E+01 -0.79605577132E+02  0.15374474926E+03  0.12508945875E+03 0.  0.
          5    1    4    4  502    0 -0.77033442255E+02 -0.16129201589E+02 -0.22243262237E+02  0.81893452025E+02  0.41800000000E+01 0.  1.
         -5    1    4    4    0  502  0.36846219223E+02  0.22294785789E+02 -0.57362314895E+02  0.71851297236E+02  0.41800000000E+01 0.  1.
        -11    1    3    3    0    0  0.60652145589E+02 -0.24044019751E+02 -0.12878107724E+03  0.14436538195E+03  0.00000000000E+00 0.  1.
         11    1    3    3    0    0 -0.20464922557E+02  0.17878435552E+02 -0.19924435090E+02  0.33696210866E+02  0.00000000000E+00 0. -1.
</event>
<event>
 8    1  0.1790275E-005  0.1250742E+03  0.7561462E-02  0.1234953E+00
         -2   -1    0    0    0  501 -0.00000000000E+00  0.00000000000E+00  0.72782282561E+02  0.72782282561E+02  0.00000000000E+00 0.  1.
          2   -1    0    0  501    0  0.00000000000E+00 -0.00000000000E+00 -0.21902811067E+03  0.21902811067E+03  0.00000000000E+00 0. -1.
         23    2    1    2    0    0 -0.65168401547E+02 -0.78269930901E+01 -0.58427343449E+02  0.12547401201E+03  0.89564450796E+02 0.  0.
         23    2    1    2    0    0  0.65168401547E+02  0.78269930901E+01 -0.87818484663E+02  0.16633638122E+03  0.12509005991E+03 0.  0.
          5    1    4    4  502    0 -0.27582699151E+02  0.34388791169E+02 -0.21800584342E+02  0.49357189225E+02  0.41800000000E+01 0. -1.
         -5    1    4    4    0  502  0.92751100698E+02 -0.26561798079E+02 -0.66017900321E+02  0.11697919200E+03  0.41800000000E+01 0. -1.
        -11    1    3    3    0    0  0.21615504758E+02 -0.62404466261E+01 -0.21591369420E+02  0.31182694776E+02  0.00000000000E+00 0.  1.
         11    1    3    3    0    0 -0.86783906305E+02 -0.15865464640E+01 -0.36835974029E+02  0.94291317235E+02  0.00000000000E+00 0. -1.
</event>
<event>
 8    1  0.1790275E-005  0.1026710E+03  0.7561462E-02  0.1274777E+00
         -2   -1    0    0    0  501 -0.00000000000E+00  0.00000000000E+00  0.13611729285E+02  0.13611729285E+02  0.00000000000E+00 0.  1.
          2   -1    0    0  501    0  0.00000000000E+00 -0.00000000000E+00 -0.94076597411E+03  0.94076597411E+03  0.00000000000E+00 0. -1.
         23    2    1    2    0    0  0.18489100836E+02 -0.10820876527E+02 -0.29424684170E+03  0.30887153185E+03  0.91441134718E+02 0.  0.
         23    2    1    2    0    0 -0.18489100836E+02  0.10820876527E+02 -0.63290740313E+03  0.64550617155E+03  0.12508996104E+03 0.  0.
          5    1    4    4  502    0 -0.71808674774E+01 -0.51105478080E+02 -0.42762066184E+03  0.43074381896E+03  0.41800000000E+01 0.  1.
         -5    1    4    4    0  502 -0.11308233358E+02  0.61926354606E+02 -0.20528674129E+03  0.21476235258E+03  0.41800000000E+01 0.  1.
        -11    1    3    3    0    0 -0.72642070431E+01 -0.46171717403E+02 -0.19305190551E+03  0.19862938960E+03  0.00000000000E+00 0. -1.
         11    1    3    3    0    0  0.25753307879E+02  0.35350840876E+02 -0.10119493619E+03  0.11024214225E+03  0.00000000000E+00 0.  1.
</event>
<event>
 8    1  0.1790275E-005  0.9185555E+02  0.7561462E-02  0.1298419E+00
         -3   -1    0    0    0  501 -0.00000000000E+00  0.00000000000E+00  0.11050470741E+02  0.11050470741E+02  0.00000000000E+00 0.  1.
          3   -1    0    0  501    0  0.00000000000E+00 -0.00000000000E+00 -0.12429027100E+04  0.12429027100E+04  0.00000000000E+00 0. -1.
         23    2    1    2    0    0 -0.29584906580E+00  0.24310365187E+02 -0.32806466510E+03  0.34122568186E+03  0.90650207339E+02 0.  0.
         23    2    1    2    0    0  0.29584906580E+00 -0.24310365187E+02 -0.90378757416E+03  0.91272749888E+03  0.12509367141E+03 0.  0.
          5    1    4    4  502    0  0.45429261478E+02 -0.37320297260E+01 -0.13944263125E+03  0.14676329805E+03  0.41800000000E+01 0. -1.
         -5    1    4    4    0  502 -0.45133412412E+02 -0.20578335461E+02 -0.76434494291E+03  0.76596420083E+03  0.41800000000E+01 0. -1.
        -11    1    3    3    0    0 -0.38402186192E+02 -0.67575966837E+01 -0.20551446017E+03  0.20918075044E+03  0.00000000000E+00 0. -1.
         11    1    3    3    0    0  0.38106337126E+02  0.31067961871E+02 -0.12255020493E+03  0.13204493141E+03  0.00000000000E+00 0.  1.
</event>
<event>
 8    1  0.1790275E-005  0.1014835E+03  0.7561462E-02  0.1277207E+00
         -2   -1    0    0    0  501 -0.00000000000E+00  0.00000000000E+00  0.10447444655E+03  0.10447444655E+03  0.00000000000E+00 0.  1.
          2   -1    0    0  501    0  0.00000000000E+00 -0.00000000000E+00 -0.11006672867E+04  0.11006672867E+04  0.00000000000E+00 0. -1.
         23    2    1    2    0    0 -0.24091675961E+02  0.28042434145E+02  0.77332730333E+02  0.12520525537E+03  0.91264548587E+02 0.  0.
         23    2    1    2    0    0  0.24091675961E+02 -0.28042434145E+02 -0.10735255705E+04  0.10799364779E+04  0.11152963206E+03 0.  0.
          5    1    4    4  502    0  0.27612241452E+02  0.35283494681E+02 -0.66238780719E+03  0.66391448274E+03  0.41800000000E+01 0. -1.
         -5    1    4    4    0  502 -0.35205654910E+01 -0.63325928826E+02 -0.41113776332E+03  0.41602199518E+03  0.41800000000E+01 0.  1.
        -11    1    3    3    0    0 -0.49069237102E+02  0.43042417473E+02  0.68822287016E+02  0.94852237305E+02  0.00000000000E+00 0.  1.
         11    1    3    3    0    0  0.24977561140E+02 -0.14999983328E+02  0.85104433166E+01  0.30353018067E+02  0.00000000000E+00 0. -1.
</event>
<event>
 8    1  0.1790275E-005  0.1139223E+03  0.7561462E-02  0.1253474E+00
         -1   -1    0    0    0  501 -0.00000000000E+00  0.00000000000E+00  0.70081036282E+02  0.70081036282E+02  0.00000000000E+00 0.  1.
          1   -1    0    0  501    0  0.00000000000E+00 -0.00000000000E+00 -0.83160508930E+03  0.83160508930E+03  0.00000000000E+00 0. -1.
         23    2    1    2    0    0 -0.97094313934E+02  0.46990856507E+02 -0.23814920763E+02  0.14606246121E+03  0.95559644879E+02 0.  0.
         23    2    1    2    0    0  0.97094313934E+02 -0.46990856507E+02 -0.73770913225E+03  0.75562366437E+03  0.12295085179E+03 0.  0.
          5    1    4    4  502    0  0.94119416126E+02 -0.29104059510E+02 -0.72797613657E+03  0.73462387559E+03  0.41800000000E+01 0. -1.
         -5    1    4    4    0  502  0.29748978078E+01 -0.17886796998E+02 -0.97329956772E+01  0.20999788777E+02  0.41800000000E+01 0.  1.
        -11    1    3    3    0    0 -0.13072467445E+02  0.16939276322E+02 -0.48893996837E+02  0.53370885453E+02  0.00000000000E+00 0. -1.
         11    1    3    3    0    0 -0.84021846489E+02  0.30051580186E+02  0.25079076073E+02  0.92691575754E+02  0.00000000000E+00 0.  1.
</event>
<event>
 8    1  0.1790275E-005  0.8718667E+02  0.7561462E-02  0.1309811E+00
          2   -1    0    0  501    0  0.00000000000E+00  0.00000000000E+00  0.63842376060E+03  0.63842376060E+03  0.00000000000E+00 0. -1.
         -2   -1    0    0    0  501 -0.00000000000E+00 -0.00000000000E+00 -0.22079373571E+02  0.22079373571E+02  0.00000000000E+00 0.  1.
         23    2    1    2    0    0  0.25566790783E+02  0.16921746363E+02  0.15391617946E+03  0.18047422187E+03  0.89110875719E+02 0.  0.
         23    2    1    2    0    0 -0.25566790783E+02 -0.16921746363E+02  0.46242820758E+03  0.48002891230E+03  0.12509157922E+03 0.  0.
          5    1    4    4  502    0 -0.58828895879E+02  0.22143264440E+02  0.14004694578E+03  0.15356361084E+03  0.41800000000E+01 0.  1.
         -5    1    4    4    0  502  0.33262105096E+02 -0.39065010803E+02  0.32238126180E+03  0.32646530147E+03  0.41800000000E+01 0.  1.
        -11    1    3    3    0    0  0.33821506407E+01 -0.18115671742E+02 -0.25512197347E+01  0.18604441076E+02  0.00000000000E+00 0.  1.
         11    1    3    3    0    0  0.22184640143E+02  0.35037418105E+02  0.15646739919E+03  0.16186978080E+03  0.00000000000E+00 0. -1.
</event>
<event>
 8    1  0.1790275E-005  0.8089209E+02  0.7561462E-02  0.1326539E+00
          2   -1    0    0  501    0  0.00000000000E+00  0.00000000000E+00  0.59390981750E+03  0.59390981750E+03  0.00000000000E+00 0. -1.
         -2   -1    0    0    0  501 -0.00000000000E+00 -0.00000000000E+00 -0.29575473723E+02  0.29575473723E+02  0.00000000000E+00 0.  1.
         23    2    1    2    0    0 -0.63251196984E+02  0.10907868821E+02  0.15613387907E+03  0.19175234927E+03  0.90947675809E+02 0.  0.
         23    2    1    2    0    0  0.63251196984E+02 -0.10907868821E+02  0.40820046471E+03  0.43173294195E+03  0.12508404478E+03 0.  0.
          5    1    4    4  502    0  0.25812187245E+02 -0.29563719101E+02  0.26079076866E+02  0.47306163950E+02  0.41800000000E+01 0. -1.
         -5    1    4    4    0  502  0.37439009739E+02  0.18655850280E+02  0.38212138784E+03  0.38442677800E+03  0.41800000000E+01 0. -1.
        -11    1    3    3    0    0 -0.27188511163E+02  0.29151939271E+02  0.11369826708E+02  0.41452667729E+02  0.00000000000E+00 0.  1.
         11    1    3    3    0    0 -0.36062685821E+02 -0.18244070449E+02  0.14476405236E+03  0.15029968154E+03  0.00000000000E+00 0. -1.
</event>
<event>
 8    1  0.1790275E-005  0.1916011E+03  0.7561462E-02  0.1157025E+00
         -2   -1    0    0    0  501 -0.00000000000E+00  0.00000000000E+00  0.23924675471E+02  0.23924675471E+02  0.00000000000E+00 0.  1.
          2   -1    0    0  501    0  0.00000000000E+00 -0.00000000000E+00 -0.18531541777E+04  0.18531541777E+04  0.00000000000E+00 0. -1.
         23    2    1    2    0    0 -0.20305116437E+02 -0.17492556351E+03 -0.73571694687E+03  0.76243593976E+03  0.94962549507E+02 0.  0.
         23    2    1    2    0    0  0.20305116437E+02  0.17492556351E+03 -0.10935125553E+04  0.11146429134E+04  0.12509142720E+03 0.  0.
          5    1    4    4  502    0  0.37834432741E+02  0.14106498793E+03 -0.52836170257E+03  0.54819187906E+03  0.41800000000E+01 0. -1.
         -5    1    4    4    0  502 -0.17529316304E+02  0.33860575575E+02 -0.56515085275E+03  0.56645103431E+03  0.41800000000E+01 0. -1.
        -11    1    3    3    0    0 -0.56216027377E+02 -0.85045718031E+02 -0.42128399492E+03  0.43344344529E+03  0.00000000000E+00 0. -1.
         11    1    3    3    0    0  0.35910910940E+02 -0.89879845478E+02 -0.31443295195E+03  0.32899249447E+03  0.00000000000E+00 0.  1.
</event>
<event>
 8    1  0.1790275E-005  0.1123400E+03  0.7561462E-02  0.1256297E+00
         -1   -1    0    0    0  501 -0.00000000000E+00  0.00000000000E+00  0.24507074062E+03  0.24507074062E+03  0.00000000000E+00 0.  1.
          1   -1    0    0  501    0  0.00000000000E+00 -0.00000000000E+00 -0.11986501878E+03  0.11986501878E+03  0.00000000000E+00 0. -1.
         23    2    1    2    0    0 -0.58671577474E+02  0.25379259234E+01  0.18520669328E+03  0.21429044699E+03  0.90388502383E+02 0.  0.
         23    2    1    2    0    0  0.58671577474E+02 -0.25379259234E+01 -0.60000971443E+02  0.15064531241E+03  0.12508036819E+03 0.  0.
          5    1    4    4  502    0 -0.12645550938E+02 -0.50201461760E+02 -0.17366921203E+02  0.54764761238E+02  0.41800000000E+01 0. -1.
         -5    1    4    4    0  502  0.71317128413E+02  0.47663535837E+02 -0.42634050240E+02  0.95880551174E+02  0.41800000000E+01 0. -1.
        -11    1    3    3    0    0 -0.51610235151E+01 -0.25799678333E+02  0.12905829506E+03  0.13171295718E+03  0.00000000000E+00 0.  1.
         11    1    3    3    0    0 -0.53510553959E+02  0.28337604256E+02  0.56148398222E+02  0.82577489807E+02  0.00000000000E+00 0. -1.
</event>
<event>
 8    1  0.1790275E-005  0.1613597E+03  0.7561462E-02  0.1187170E+00
          2   -1    0    0  501    0  0.00000000000E+00  0.00000000000E+00  0.32994892525E+03  0.32994892525E+03  0.00000000000E+00 0. -1.
         -2   -1    0    0    0  501 -0.00000000000E+00 -0.00000000000E+00 -0.87695699623E+02  0.87695699623E+02  0.00000000000E+00 0.  1.
         23    2    1    2    0    0 -0.12667873846E+03  0.27901351622E+02  0.96517363328E+02  0.18588425801E+03  0.91713509099E+02 0.  0.
         23    2    1    2    0    0  0.12667873846E+03 -0.27901351622E+02  0.14573586230E+03  0.23176036687E+03  0.12509171791E+03 0.  0.
          5    1    4    4  502    0  0.69285208094E+02  0.46002446674E+02  0.90673476241E+02  0.12310896334E+03  0.41800000000E+01 0.  1.
         -5    1    4    4    0  502  0.57393530362E+02 -0.73903798296E+02  0.55062386056E+02  0.10865140353E+03  0.41800000000E+01 0.  1.
        -11    1    3    3    0    0 -0.98683327115E+02 -0.94156055593E+01  0.28030227290E+02  0.10301818442E+03  0.00000000000E+00 0. -1.
         11    1    3    3    0    0 -0.27995411341E+02  0.37316957181E+02  0.68487136038E+02  0.82866073589E+02  0.00000000000E+00 0.  1.
</event>
<event>
 8    1  0.1790275E-005  0.1049173E+03  0.7561462E-02  0.1270283E+00
         -2   -1    0    0    0  501 -0.00000000000E+00  0.00000000000E+00  0.26324485766E+02  0.26324485766E+02  0.00000000000E+00 0.  1.
          2   -1    0    0  501    0  0.00000000000E+00 -0.00000000000E+00 -0.10586675632E+04  0.10586675632E+04  0.00000000000E+00 0. -1.
         23    2    1    2    0    0 -0.14493034683E+01 -0.10000737992E+03 -0.26569298274E+03  0.30179084897E+03  0.10237860581E+03 0.  0.
         23    2    1    2    0    0  0.14493034683E+01  0.10000737992E+03 -0.76665009470E+03  0.78320119999E+03  0.12509266748E+03 0.  0.
          5    1    4    4  502    0  0.18761457182E+02  0.20000399575E+02 -0.25967700605E+02  0.37997396404E+02  0.41800000000E+01 0. -1.
         -5    1    4    4    0  502 -0.17312153714E+02  0.80006980343E+02 -0.74068239409E+03  0.74520380359E+03  0.41800000000E+01 0. -1.
        -11    1    3    3    0    0 -0.26368630910E+01 -0.30919931445E+02 -0.41909718521E+01  0.31313885938E+02  0.00000000000E+00 0.  1.
         11    1    3    3    0    0  0.11875596228E+01 -0.69087448473E+02 -0.26150201088E+03  0.27047696303E+03  0.00000000000E+00 0. -1.
</event>
<event>
 8    1  0.1790275E-005  0.1236465E+03  0.7561462E-02  0.1237200E+00
         -4   -1    0    0    0  501 -0.00000000000E+00  0.00000000000E+00  0.22993827826E+02  0.22993827826E+02  0.00000000000E+00 0.  1.
          4   -1    0    0  501    0  0.00000000000E+00 -0.00000000000E+00 -0.13117686574E+04  0.13117686574E+04  0.00000000000E+00 0. -1.
         23    2    1    2    0    0 -0.51400295721E+02 -0.10976790836E+03 -0.37689858474E+03  0.40640015201E+03  0.91747241219E+02 0.  0.
         23    2    1    2    0    0  0.51400295721E+02  0.10976790836E+03 -0.91187624480E+03  0.92836233317E+03  0.12508937495E+03 0.  0.
          5    1    4    4  502    0  0.74468393769E+01  0.47615349509E+02 -0.83619273109E+02  0.96603996609E+02  0.41800000000E+01 0. -1.
         -5    1    4    4    0  502  0.43953456344E+02  0.62152558854E+02 -0.82825697169E+03  0.83175833657E+03  0.41800000000E+01 0. -1.
        -11    1    3    3    0    0 -0.24444192944E+02 -0.31322843455E+02 -0.30171726840E+02  0.49889600031E+02  0.00000000000E+00 0.  1.
         11    1    3    3    0    0 -0.26956102777E+02 -0.78445064908E+02 -0.34672685790E+03  0.35651055198E+03  0.00000000000E+00 0. -1.
</event>
<event>
 7    1  0.1790275E-005  0.1061421E+03  0.7561462E-02  0.1267886E+00
         -3   -1    0    0    0  501 -0.00000000000E+00  0.00000000000E+00  0.30130910442E+03  0.30130910442E+03  0.00000000000E+00 0.  1.
          3   -1    0    0  501    0  0.00000000000E+00 -0.00000000000E+00 -0.10968986384E+03  0.10968986384E+03  0.00000000000E+00 0. -1.
         23    2    1    2    0    0  0.25312227043E+02  0.67068925358E+02  0.16518412456E+03  0.20188172634E+03  0.91276978696E+02 0.  0.
          5    1    1    2  502    0  0.27190504754E+02  0.51158669537E+01 -0.71357830059E+02  0.76647948141E+02  0.41800000000E+01 0. -1.
         -5    1    1    2    0  502 -0.52502731797E+02 -0.72184792312E+02  0.97792946083E+02  0.13246929377E+03  0.41800000000E+01 0.  1.
        -11    1    3    3    0    0  0.45784740602E+02  0.38629219777E+02  0.40358281204E+02  0.72230533394E+02  0.00000000000E+00 0.  1.
         11    1    3    3    0    0 -0.20472513559E+02  0.28439705581E+02  0.12482584335E+03  0.12965119295E+03  0.00000000000E+00 0. -1.
</event>
<event>
 8    1  0.1790275E-005  0.1089181E+03  0.7561462E-02  0.1262587E+00
          1   -1    0    0  501    0  0.00000000000E+00  0.00000000000E+00  0.73827490235E+02  0.73827490235E+02  0.00000000000E+00 0. -1.
         -1   -1    0    0    0  501 -0.00000000000E+00 -0.00000000000E+00 -0.26853449328E+03  0.26853449328E+03  0.00000000000E+00 0.  1.
         23    2    1    2    0    0  0.78726104031E+02 -0.20984614706E+02 -0.13507423932E+03  0.18161796101E+03  0.90010444523E+02 0.  0.
         23    2    1    2    0    0 -0.78726104031E+02  0.20984614706E+02 -0.59632763727E+02  0.16074402251E+03  0.12507765888E+03 0.  0.
          5    1    4    4  502    0 -0.70505504166E+00  0.22840101716E+02  0.32486584107E+02  0.39937675145E+02  0.41800000000E+01 0. -1.
         -5    1    4    4    0  502 -0.78021048990E+02 -0.18554870108E+01 -0.92119347834E+02  0.12080634736E+03  0.41800000000E+01 0. -1.
        -11    1    3    3    0    0  0.75272673789E+02  0.17933969700E+02 -0.63604725416E+02  0.10016568167E+03  0.00000000000E+00 0.  1.
         11    1    3    3    0    0  0.34534302423E+01 -0.38918584405E+02 -0.71469513903E+02  0.81452279342E+02  0.00000000000E+00 0. -1.
</event>
<event>
 8    1  0.1790275E-005  0.1093264E+03  0.7561462E-02  0.1261822E+00
          2   -1    0    0  501    0  0.00000000000E+00  0.00000000000E+00  0.10647247365E+04  0.10647247365E+04  0.00000000000E+00 0. -1.
         -2   -1    0    0    0  501 -0.00000000000E+00 -0.00000000000E+00 -0.12438627728E+02  0.12438627728E+02  0.00000000000E+00 0.  1.
         23    2    1    2    0    0  0.39122968097E+01 -0.26585927384E+02  0.32057099081E+03  0.33434694306E+03  0.91104339003E+02 0.  0.
         23    2    1    2    0    0 -0.39122968097E+01  0.26585927384E+02  0.73171511793E+03  0.74281642113E+03  0.12508838514E+03 0.  0.
          5    1    4    4  502    0  0.51093061351E+02  0.45176537544E+02  0.44910594632E+03  0.45427419461E+03  0.41800000000E+01 0.  1.
         -5    1    4    4    0  502 -0.55005358161E+02 -0.18590610160E+02  0.28260917161E+03  0.28854222653E+03  0.41800000000E+01 0.  1.
        -11    1    3    3    0    0  0.43776037556E+02 -0.28441809445E+02  0.22087575334E+03  0.22696117819E+03  0.00000000000E+00 0. -1.
         11    1    3    3    0    0 -0.39863740747E+02  0.18558820616E+01  0.99695237465E+02  0.10738576488E+03  0.00000000000E+00 0.  1.
</event>
<event>
 8    1  0.1790275E-005  0.1427329E+03  0.7561462E-02  0.1209698E+00
         -1   -1    0    0    0  501 -0.00000000000E+00  0.00000000000E+00  0.57351466933E+02  0.57351466933E+02  0.00000000000E+00 0.  1.
          1   -1    0    0  501    0  0.00000000000E+00 -0.00000000000E+00 -0.37923059600E+03  0.37923059600E+03  0.00000000000E+00 0. -1.
         23    2    1    2    0    0 -0.78656746356E+02  0.58021998054E+02 -0.11769364609E+03  0.17794688119E+03  0.90883783988E+02 0.  0.
         23    2    1    2    0    0  0.78656746356E+02 -0.58021998054E+02 -0.20418548298E+03  0.25863518174E+03  0.12508800809E+03 0.  0.
          5    1    4    4  502    0  0.78420559122E+02  0.16554253863E+02 -0.13367565360E+03  0.15591818425E+03  0.41800000000E+01 0.  1.
         -5    1    4    4    0  502  0.23618723466E+00 -0.74576251917E+02 -0.70509829379E+02  0.10271699749E+03  0.41800000000E+01 0.  1.
        -11    1    3    3    0    0 -0.16143932948E+02  0.65587773922E+02 -0.42221290304E+02  0.79655633913E+02  0.00000000000E+00 0.  1.
         11    1    3    3    0    0 -0.62512813408E+02 -0.75657758689E+01 -0.75472355783E+02  0.98291247281E+02  0.00000000000E+00 0. -1.
</event>
<event>
 8    1  0.1790275E-005  0.9978293E+02  0.7561462E-02  0.1280753E+00
         -2   -1    0    0    0  501 -0.00000000000E+00  0.00000000000E+00  0.47642043904E+02  0.47642043904E+02  0.00000000000E+00 0.  1.
          2   -1    0    0  501    0  0.00000000000E+00 -0.00000000000E+00 -0.44122017610E+03  0.44122017610E+03  0.00000000000E+00 0. -1.
         23    2    1    2    0    0 -0.82330164615E+02  0.41876930017E+02 -0.22019065839E+03  0.25596198653E+03  0.92199128142E+02 0.  0.
         23    2    1    2    0    0  0.82330164615E+02 -0.41876930017E+02 -0.17338747380E+03  0.23290023347E+03  0.12508944563E+03 0.  0.
          5    1    4    4  502    0  0.41395783830E+02 -0.28943578689E+02  0.35248802792E+01  0.50805893824E+02  0.41800000000E+01 0.  1.
         -5    1    4    4    0  502  0.40934380785E+02 -0.12933351328E+02 -0.17691235408E+03  0.18209433965E+03  0.41800000000E+01 0.  1.
        -11    1    3    3    0    0 -0.70873400351E+02  0.53976749581E+02 -0.22199294212E+03  0.23920157760E+03  0.00000000000E+00 0. -1.
         11    1    3    3    0    0 -0.11456764265E+02 -0.12099819564E+02  0.18022837285E+01  0.16760408931E+02  0.00000000000E+00 0.  1.
</event>
<event>
 8    1  0.1790275E-005  0.1081326E+03  0.7561462E-02  0.1264068E+00
         -1   -1    0    0    0  501 -0.00000000000E+00  0.00000000000E+00  0.15895402851E+03  0.15895402851E+03  0.00000000000E+00 0.  1.
          1   -1    0    0  501    0  0.00000000000E+00 -0.00000000000E+00 -0.98008107792E+02  0.98008107792E+02  0.00000000000E+00 0. -1.
         23    2    1    2    0    0 -0.37894964047E+01 -0.59027293927E+02  0.44627332299E+02  0.11763494367E+03  0.91366292874E+02 0.  0.
         23    2    1    2    0    0  0.37894964047E+01  0.59027293927E+02  0.16318588414E+02  0.13932719262E+03  0.12508872277E+03 0.  0.
          5    1    4    4  502    0 -0.80784438955E+01 -0.31427917238E+02 -0.22900580532E+02  0.39936001633E+02  0.41800000000E+01 0. -1.
         -5    1    4    4    0  502  0.11867940300E+02  0.90455211165E+02  0.39219168946E+02  0.99391190992E+02  0.41800000000E+01 0. -1.
        -11    1    3    3    0    0  0.24901952177E+02 -0.58439440495E+02 -0.12330460211E+01  0.63535783855E+02  0.00000000000E+00 0. -1.
         11    1    3    3    0    0 -0.28691448582E+02 -0.58785343273E+00  0.45860378320E+02  0.54099159818E+02  0.00000000000E+00 0.  1.
</event>
<event>
 8    1  0.1790275E-005  0.1096152E+03  0.7561462E-02  0.1261284E+00
         -1   -1    0    0    0  501 -0.00000000000E+00  0.00000000000E+00  0.41561970000E+03  0.41561970000E+03  0.00000000000E+00 0.  1.
          1   -1    0    0  501    0  0.00000000000E+00 -0.00000000000E+00 -0.46957326330E+02  0.46957326330E+02  0.00000000000E+00 0. -1.
         23    2    1    2    0    0  0.62647687570E+02  0.33913366230E+02  0.25037219178E+03  0.27625787104E+03  0.92505825378E+02 0.  0.
         23    2    1    2    0    0 -0.62647687570E+02 -0.33913366230E+02  0.11829018189E+03  0.18631915529E+03  0.12508961319E+03 0.  0.
          5    1    4    4  502    0 -0.53331516694E+02 -0.69178061058E+02  0.12124029025E+03  0.14948757535E+03  0.41800000000E+01 0. -1.
         -5    1    4    4    0  502 -0.93161708758E+01  0.35264694828E+02 -0.29501083617E+01  0.36831579935E+02  0.41800000000E+01 0. -1.
        -11    1    3    3    0    0  0.60844568231E+02 -0.26220848273E+00  0.22650310398E+03  0.23453312420E+03  0.00000000000E+00 0.  1.
         11    1    3    3    0    0  0.18031193391E+01  0.34175574713E+02  0.23869087801E+02  0.41724746839E+02  0.00000000000E+00 0. -1.
</event>
<event>
 8    1  0.1790275E-005  0.1045764E+03  0.7561462E-02  0.1270957E+00
          2   -1    0    0  501    0  0.00000000000E+00  0.00000000000E+00  0.50176612429E+03  0.50176612429E+03  0.00000000000E+00 0.  1.
         -2   -1    0    0    0  501 -0.00000000000E+00 -0.00000000000E+00 -0.30075239491E+02  0.30075239491E+02  0.00000000000E+00 0. -1.
         23    2    1    2    0    0  0.44661729661E+02  0.17983031719E+02  0.14379973834E+03  0.17761172517E+03  0.92463509810E+02 0.  0.
         23    2    1    2    0    0 -0.44661729661E+02 -0.17983031719E+02  0.32789114646E+03  0.35422963861E+03  0.12509185991E+03 0.  0.
          5    1    4    4  502    0 -0.84338260540E+02 -0.33957182204E+02  0.21823828178E+03  0.23645602646E+03  0.41800000000E+01 0.  1.
         -5    1    4    4    0  502  0.39676530879E+02  0.15974150485E+02  0.10965286468E+03  0.11777361215E+03  0.41800000000E+01 0.  1.
        -11    1    3    3    0    0  0.12369367913E+02  0.36083333106E+02  0.13399156112E+03  0.13931527785E+03  0.00000000000E+00 0.  1.
         11    1    3    3    0    0  0.32292361748E+02 -0.18100301387E+02  0.98081772238E+01  0.38296447328E+02  0.00000000000E+00 0. -1.
</event>
<event>
 8    1  0.1790275E-005  0.3129436E+03  0.7561462E-02  0.1078943E+00
          1   -1    0    0  501    0  0.00000000000E+00  0.00000000000E+00  0.15484008562E+03  0.15484008562E+03  0.00000000000E+00 0. -1.
         -1   -1    0    0    0  501 -0.00000000000E+00 -0.00000000000E+00 -0.71073851840E+03  0.71073851840E+03  0.00000000000E+00 0.  1.
         23    2    1    2    0    0  0.11216166690E+03  0.28255089873E+03 -0.37160442283E+03  0.48871386121E+03  0.91302470809E+02 0.  0.
         23    2    1    2    0    0 -0.11216166690E+03 -0.28255089873E+03 -0.18429400996E+03  0.37686474281E+03  0.12508997710E+03 0.  0.
          5    1    4    4  502    0 -0.57770203759E+01 -0.15113604511E+03 -0.45275840251E+02  0.15793306242E+03  0.41800000000E+01 0. -1.
         -5    1    4    4    0  502 -0.10638464652E+03 -0.13141485363E+03 -0.13901816971E+03  0.21893168039E+03  0.41800000000E+01 0. -1.
        -11    1    3    3    0    0  0.35755968947E+02  0.13014073963E+03 -0.23181955130E+03  0.26824504803E+03  0.00000000000E+00 0.  1.
         11    1    3    3    0    0  0.76405697951E+02  0.15241015910E+03 -0.13978487153E+03  0.22046881318E+03  0.00000000000E+00 0. -1.
</event>
<event>
 7    1  0.1790275E-005  0.2719222E+03  0.7561462E-02  0.1100184E+00
         -1   -1    0    0    0  501 -0.00000000000E+00  0.00000000000E+00  0.10595507692E+04  0.10595507692E+04  0.00000000000E+00 0.  1.
          1   -1    0    0  501    0  0.00000000000E+00 -0.00000000000E+00 -0.13681085693E+03  0.13681085693E+03  0.00000000000E+00 0. -1.
         23    2    1    2    0    0  0.25373795572E+02  0.26089665418E+03  0.79190779011E+03  0.83912794645E+03  0.91142025503E+02 0.  0.
          5    1    1    2  502    0 -0.61482787219E+02 -0.10663667530E+03  0.15386115040E+03  0.19708434653E+03  0.41800000000E+01 0. -1.
         -5    1    1    2    0  502  0.36108991647E+02 -0.15425997888E+03 -0.23029028262E+02  0.16014933314E+03  0.41800000000E+01 0.  1.
        -11    1    3    3    0    0  0.16690753452E+02  0.19828400140E+03  0.69888384276E+03  0.72665930954E+03  0.00000000000E+00 0.  1.
         11    1    3    3    0    0  0.86830421207E+01  0.62612652786E+02  0.93023947344E+02  0.11246863691E+03  0.00000000000E+00 0. -1.
</event>
<event>
 8    1  0.1790275E-005  0.1353660E+03  0.7561462E-02  0.1219704E+00
          2   -1    0    0  501    0  0.00000000000E+00  0.00000000000E+00  0.10931969086E+04  0.10931969086E+04  0.00000000000E+00 0. -1.
         -2   -1    0    0    0  501 -0.00000000000E+00 -0.00000000000E+00 -0.40791367150E+02  0.40791367150E+02  0.00000000000E+00 0.  1.
         23    2    1    2    0    0 -0.34378825371E+02  0.10445701325E+03  0.12177170311E+03  0.18856866461E+03  0.92933429627E+02 0.  0.
         23    2    1    2    0    0  0.34378825371E+02 -0.10445701325E+03  0.93063383835E+03  0.94541961115E+03  0.12508288778E+03 0.  0.
          5    1    4    4  502    0  0.20121150854E+02 -0.10924101236E+03  0.91962596465E+03  0.92631951656E+03  0.41800000000E+01 0. -1.
         -5    1    4    4    0  502  0.14257674517E+02  0.47839991081E+01  0.11007873696E+02  0.19100094592E+02  0.41800000000E+01 0. -1.
        -11    1    3    3    0    0  0.27978839491E+02  0.79871020823E+01  0.25625001911E+02  0.38771767846E+02  0.00000000000E+00 0.  1.
         11    1    3    3    0    0 -0.62357664862E+02  0.96469911172E+02  0.96146701201E+02  0.14979689676E+03  0.00000000000E+00 0. -1.
</event>
<event>
 8    1  0.1790275E-005  0.4322080E+02  0.7561462E-02  0.1485765E+00
         -2   -1    0    0    0  501 -0.00000000000E+00  0.00000000000E+00  0.28959752485E+02  0.28959752485E+02  0.00000000000E+00 0.  1.
          2   -1    0    0  501    0  0.00000000000E+00 -0.00000000000E+00 -0.45116110954E+03  0.45116110954E+03  0.00000000000E+00 0. -1.
         23    2    1    2    0    0 -0.90412756513E+01  0.24362792084E+02 -0.12608652228E+03  0.15762104447E+03  0.90946645109E+02 0.  0.
         23    2    1    2    0    0  0.90412756513E+01 -0.24362792084E+02 -0.29611483478E+03  0.32249981755E+03  0.12508735605E+03 0.  0.
          5    1    4    4  502    0 -0.11960139689E+02 -0.17809875540E+02  0.34256900331E+01  0.22123389441E+02  0.41800000000E+01 0.  1.
         -5    1    4    4    0  502  0.21001415340E+02 -0.65529165439E+01 -0.29954052481E+03  0.30037642811E+03  0.41800000000E+01 0.  1.
        -11    1    3    3    0    0 -0.18624432625E+02  0.31157772335E+01  0.87306278529E+01  0.20803879953E+02  0.00000000000E+00 0.  1.
         11    1    3    3    0    0  0.95831569740E+01  0.21247014851E+02 -0.13481715013E+03  0.13681716452E+03  0.00000000000E+00 0. -1.
</event>
<event>
 8    1  0.1790275E-005  0.9443785E+02  0.7561462E-02  0.1292447E+00
          1   -1    0    0  501    0  0.00000000000E+00  0.00000000000E+00  0.18325912966E+03  0.18325912966E+03  0.00000000000E+00 0. -1.
         -1   -1    0    0    0  501 -0.00000000000E+00 -0.00000000000E+00 -0.11884299075E+03  0.11884299075E+03  0.00000000000E+00 0.  1.
         23    2    1    2    0    0 -0.17470294121E+01 -0.77808274760E+02 -0.33761517511E+02  0.12506527567E+03  0.91892890805E+02 0.  0.
         23    2    1    2    0    0  0.17470294121E+01  0.77808274760E+02  0.98177656418E+02  0.17703684474E+03  0.12508402153E+03 0.  0.
          5    1    4    4  502    0  0.30159403766E+02  0.21390889432E+02 -0.20533896269E+02  0.42500271554E+02  0.41800000000E+01 0. -1.
         -5    1    4    4    0  502 -0.28412374354E+02  0.56417385328E+02  0.11871155269E+03  0.13453657319E+03  0.41800000000E+01 0. -1.
        -11    1    3    3    0    0 -0.20071869478E+02 -0.22787674645E+02  0.27313909778E+02  0.40843698748E+02  0.00000000000E+00 0.  1.
         11    1    3    3    0    0  0.18324840066E+02 -0.55020600115E+02 -0.61075427289E+02  0.84221576921E+02  0.00000000000E+00 0. -1.
</event>
<event>
 8    1  0.1790275E-005  0.2794902E+03  0.7561462E-02  0.1095968E+00
          1   -1    0    0  501    0  0.00000000000E+00  0.00000000000E+00  0.17099756178E+04  0.17099756178E+04  0.00000000000E+00 0. -1.
         -1   -1    0    0    0  501 -0.00000000000E+00 -0.00000000000E+00 -0.52354993973E+02  0.52354993973E+02  0.00000000000E+00 0.  1.
         23    2    1    2    0    0  0.26027278812E+03  0.48780562624E+02  0.56231089363E+03  0.62854323199E+03  0.93549911057E+02 0.  0.
         23    2    1    2    0    0 -0.26027278812E+03 -0.48780562624E+02  0.10953097302E+04  0.11337873798E+04  0.12509576316E+03 0.  0.
          5    1    4    4  502    0 -0.17879997575E+03 -0.84637904084E+02  0.85195135613E+03  0.87462654416E+03  0.41800000000E+01 0. -1.
         -5    1    4    4    0  502 -0.81472812370E+02  0.35857341460E+02  0.24335837408E+03  0.25916083564E+03  0.41800000000E+01 0. -1.
        -11    1    3    3    0    0  0.13973318564E+03  0.57604258881E+02  0.23273921553E+03  0.27750883996E+03  0.00000000000E+00 0.  1.
         11    1    3    3    0    0  0.12053960248E+03 -0.88236962562E+01  0.32957167811E+03  0.35103439204E+03  0.00000000000E+00 0. -1.
</event>
<event>
 8    1  0.1790275E-005  0.1069298E+03  0.7561462E-02  0.1266363E+00
          1   -1    0    0  501    0  0.00000000000E+00  0.00000000000E+00  0.91069888438E+03  0.91069888438E+03  0.00000000000E+00 0. -1.
         -1   -1    0    0    0  501 -0.00000000000E+00 -0.00000000000E+00 -0.16213425290E+02  0.16213425290E+02  0.00000000000E+00 0.  1.
         23    2    1    2    0    0  0.26321337337E+02  0.81773764678E+01  0.17298765190E+03  0.19413597944E+03  0.83692105480E+02 0.  0.
         23    2    1    2    0    0 -0.26321337337E+02 -0.81773764678E+01  0.72149780720E+03  0.73277633023E+03  0.12506950897E+03 0.  0.
          5    1    4    4  502    0  0.23401422397E+02  0.47484400879E+02  0.32077109301E+03  0.32513683490E+03  0.41800000000E+01 0.  1.
         -5    1    4    4    0  502 -0.49722759734E+02 -0.55661777347E+02  0.40072671419E+03  0.40763949533E+03  0.41800000000E+01 0.  1.
        -11    1    3    3    0    0 -0.78039444546E+01 -0.32202958724E+02  0.47007845845E+02  0.57512343636E+02  0.00000000000E+00 0.  1.
         11    1    3    3    0    0  0.34125281792E+02  0.40380335191E+02  0.12597980605E+03  0.13662363580E+03  0.00000000000E+00 0. -1.
</event>
<event>
 8    1  0.1790275E-005  0.7346339E+02  0.7561462E-02  0.1348697E+00
          1   -1    0    0  501    0  0.00000000000E+00  0.00000000000E+00  0.11569811334E+03  0.11569811334E+03  0.00000000000E+00 0. -1.
         -1   -1    0    0    0  501 -0.00000000000E+00 -0.00000000000E+00 -0.15153588593E+03  0.15153588593E+03  0.00000000000E+00 0.  1.
         23    2    1    2    0    0 -0.12308720775E+02 -0.13189890703E+02 -0.90053600630E+02  0.12972963954E+03  0.91622325686E+02 0.  0.
         23    2    1    2    0    0  0.12308720775E+02  0.13189890703E+02  0.54215828038E+02  0.13750435973E+03  0.12507044060E+03 0.  0.
          5    1    4    4  502    0 -0.17019994414E+02  0.16195704581E+02 -0.35612936065E+02  0.42868807680E+02  0.41800000000E+01 0. -1.
         -5    1    4    4    0  502  0.29328715189E+02 -0.30058138777E+01  0.89828764103E+02  0.94635552051E+02  0.41800000000E+01 0. -1.
        -11    1    3    3    0    0 -0.17757972266E+02  0.37927739568E+02 -0.37523249559E+02  0.56230358928E+02  0.00000000000E+00 0. -1.
         11    1    3    3    0    0  0.54492514908E+01 -0.51117630271E+02 -0.52530351071E+02  0.73499280609E+02  0.00000000000E+00 0.  1.
</event>
<event>
 8    1  0.1790275E-005  0.1007601E+03  0.7561462E-02  0.1278706E+00
         -2   -1    0    0    0  501 -0.00000000000E+00  0.00000000000E+00  0.44517232718E+02  0.44517232718E+02  0.00000000000E+00 0.  1.
          2   -1    0    0  501    0  0.00000000000E+00 -0.00000000000E+00 -0.50114132881E+03  0.50114132881E+03  0.00000000000E+00 0. -1.
         23    2    1    2    0    0 -0.92279620453E+02  0.16668370005E+02 -0.13864775292E+03  0.19132981930E+03  0.92685152291E+02 0.  0.
         23    2    1    2    0    0  0.92279620453E+02 -0.16668370005E+02 -0.31797634318E+03  0.35432874223E+03  0.12508612969E+03 0.  0.
          5    1    4    4  502    0  0.60012538949E+02 -0.33702577209E+02 -0.53397634010E+02  0.87213234429E+02  0.41800000000E+01 0.  1.
         -5    1    4    4    0  502  0.32267081504E+02  0.17034207203E+02 -0.26457870917E+03  0.26711550780E+03  0.41800000000E+01 0.  1.
        -11    1    3    3    0    0 -0.44021174332E+02 -0.20707104915E+01 -0.79509329355E+00  0.44077021279E+02  0.00000000000E+00 0.  1.
         11    1    3    3    0    0 -0.48258446121E+02  0.18739080497E+02 -0.13785265963E+03  0.14725279802E+03  0.00000000000E+00 0. -1.
</event>
<event>
 8    1  0.2354099E-005  0.3072617E+03  0.7561462E-02  0.1081666E+00
         -2   -1    0    0    0  501 -0.00000000000E+00  0.00000000000E+00  0.27146088148E+03  0.27146088148E+03  0.00000000000E+00 0.  1.
          2   -1    0    0  501    0  0.00000000000E+00 -0.00000000000E+00 -0.46270282897E+03  0.46270282897E+03  0.00000000000E+00 0. -1.
         23    2    1    2    0    0 -0.14567657628E+03  0.26339292487E+03  0.63132946373E+02  0.32070109264E+03  0.90917127929E+02 0.  0.
         23    2    1    2    0    0  0.14567657628E+03 -0.26339292487E+03 -0.25437489387E+03  0.41346261781E+03  0.12508897612E+03 0.  0.
          5    1    4    4  502    0  0.89253239741E+02 -0.15488328058E+03 -0.69680406542E+02  0.19190571347E+03  0.41800000000E+01 0.  1.
         -5    1    4    4    0  502  0.56423336542E+02 -0.10850964429E+03 -0.18469448733E+03  0.22155690434E+03  0.41800000000E+01 0.  1.
        -11    1    3    3    0    0 -0.10938214232E+03  0.10781499191E+03  0.17644531269E+02  0.15459577945E+03  0.00000000000E+00 0. -1.
         11    1    3    3    0    0 -0.36294433963E+02  0.15557793296E+03  0.45488415104E+02  0.16610531319E+03  0.00000000000E+00 0.  1.
</event>
<event>
 8    1  0.1790275E-005  0.1304775E+03  0.7561462E-02  0.1226749E+00
         -2   -1    0    0    0  501 -0.00000000000E+00  0.00000000000E+00  0.11391098808E+02  0.11391098808E+02  0.00000000000E+00 0.  1.
          2   -1    0    0  501    0  0.00000000000E+00 -0.00000000000E+00 -0.20562375014E+04  0.20562375014E+04  0.00000000000E+00 0. -1.
         23    2    1    2    0    0  0.70062630363E+02  0.57932116942E+02 -0.56205994428E+03  0.57680050010E+03  0.92317569305E+02 0.  0.
         23    2    1    2    0    0 -0.70062630363E+02 -0.57932116942E+02 -0.14827864583E+04  0.14908281001E+04  0.12509132974E+03 0.  0.
          5    1    4    4  502    0  0.26260283025E+02  0.98769827231E+01 -0.53319659811E+03  0.53395059874E+03  0.41800000000E+01 0. -1.
         -5    1    4    4    0  502 -0.96322913388E+02 -0.67809099665E+02 -0.94958986020E+03  0.95687750138E+03  0.41800000000E+01 0. -1.
        -11    1    3    3    0    0  0.22867440820E+02 -0.15358172647E+02 -0.47503795497E+02  0.54912693463E+02  0.00000000000E+00 0.  1.
         11    1    3    3    0    0  0.47195189543E+02  0.73290289589E+02 -0.51455614879E+03  0.52188780664E+03  0.00000000000E+00 0. -1.
</event>
<event>
 8    1  0.1790275E-005  0.1167615E+03  0.7561462E-02  0.1248537E+00
          3   -1    0    0  501    0  0.00000000000E+00  0.00000000000E+00  0.10792283738E+04  0.10792283738E+04  0.00000000000E+00 0. -1.
         -3   -1    0    0    0  501 -0.00000000000E+00 -0.00000000000E+00 -0.20234383295E+02  0.20234383295E+02  0.00000000000E+00 0.  1.
         23    2    1    2    0    0 -0.47363628505E+02 -0.20331486705E+02  0.16871838957E+03  0.19896585557E+03  0.92004532747E+02 0.  0.
         23    2    1    2    0    0  0.47363628505E+02  0.20331486705E+02  0.89027560095E+03  0.90049690154E+03  0.12508933362E+03 0.  0.
          5    1    4    4  502    0  0.25125492865E+02 -0.49675320644E+02  0.25896681298E+03  0.26491547802E+03  0.41800000000E+01 0. -1.
         -5    1    4    4    0  502  0.22238135639E+02  0.70006807349E+02  0.63130878797E+03  0.63558142352E+03  0.41800000000E+01 0. -1.
        -11    1    3    3    0    0  0.48226938663E+01 -0.45801908974E+02  0.59203331629E+02  0.75007384421E+02  0.00000000000E+00 0.  1.
         11    1    3    3    0    0 -0.52186322371E+02  0.25470422268E+02  0.10951505794E+03  0.12395847115E+03  0.00000000000E+00 0. -1.
</event>
<event>
 7    1  0.1790275E-005  0.2341708E+03  0.7561462E-02  0.1123738E+00
          2   -1    0    0  501    0  0.00000000000E+00  0.00000000000E+00  0.22940486715E+03  0.22940486715E+03  0.00000000000E+00 0. -1.
         -2   -1    0    0    0  501 -0.00000000000E+00 -0.00000000000E+00 -0.36273347754E+03  0.36273347754E+03  0.00000000000E+00 0.  1.
         23    2    1    2    0    0  0.33897733217E+02  0.13067746753E+03 -0.19072037153E+03  0.25156217722E+03  0.93185900517E+02 0.  0.
          5    1    1    2  502    0  0.32061959539E+02 -0.21496624290E+03  0.79024757863E+02  0.23130248505E+03  0.41800000000E+01 0. -1.
         -5    1    1    2    0  502 -0.65959692756E+02  0.84288775369E+02 -0.21632996714E+02  0.10927368241E+03  0.41800000000E+01 0.  1.
        -11    1    3    3    0    0  0.37423648230E+02  0.46929670163E+02 -0.23408188586E+02  0.64427220035E+02  0.00000000000E+00 0.  1.
         11    1    3    3    0    0 -0.35259150133E+01  0.83747797367E+02 -0.16731218294E+03  0.18713495719E+03  0.00000000000E+00 0. -1.
</event>
<event>
 8    1  0.1790275E-005  0.1362990E+03  0.7561462E-02  0.1218397E+00
          1   -1    0    0  501    0  0.00000000000E+00  0.00000000000E+00  0.21643045162E+03  0.21643045162E+03  0.00000000000E+00 0. -1.
         -1   -1    0    0    0  501 -0.00000000000E+00 -0.00000000000E+00 -0.11578746508E+03  0.11578746508E+03  0.00000000000E+00 0.  1.
         23    2    1    2    0    0 -0.16001368759E+02 -0.90473110790E+02 -0.25712404479E+02  0.13207749178E+03  0.91334049025E+02 0.  0.
         23    2    1    2    0    0  0.16001368759E+02  0.90473110790E+02  0.12635539102E+03  0.20014042492E+03  0.12509627200E+03 0.  0.
          5    1    4    4  502    0  0.50376492760E+02 -0.76472821411E+01  0.43630454247E+02  0.67211315154E+02  0.41800000000E+01 0. -1.
         -5    1    4    4    0  502 -0.34375124001E+02  0.98120392931E+02  0.82724936776E+02  0.13292910977E+03  0.41800000000E+01 0. -1.
        -11    1    3    3    0    0  0.27139169321E+02 -0.55889827721E+02 -0.41331750099E+02  0.74622522876E+02  0.00000000000E+00 0.  1.
         11    1    3    3    0    0 -0.43140538080E+02 -0.34583283069E+02  0.15619345620E+02  0.57454968899E+02  0.00000000000E+00 0. -1.
</event>
<event>
 8    1  0.1790275E-005  0.1811490E+03  0.7561462E-02  0.1166696E+00
         -2   -1    0    0    0  501 -0.00000000000E+00  0.00000000000E+00  0.57908255489E+03  0.57908255489E+03  0.00000000000E+00 0.  1.
          2   -1    0    0  501    0  0.00000000000E+00 -0.00000000000E+00 -0.70888003373E+02  0.70888003373E+02  0.00000000000E+00 0. -1.
         23    2    1    2    0    0 -0.99742601622E+02  0.12620588560E+03  0.33262595061E+03  0.38099457046E+03  0.92953362306E+02 0.  0.
         23    2    1    2    0    0  0.99742601622E+02 -0.12620588560E+03  0.17556860090E+03  0.26897598780E+03  0.12508891338E+03 0.  0.
          5    1    4    4  502    0 -0.19555158256E+02  0.82528626484E+01  0.76173303953E+01  0.22934909606E+02  0.41800000000E+01 0. -1.
         -5    1    4    4    0  502  0.11929775988E+03 -0.13445874825E+03  0.16795127051E+03  0.24604107819E+03  0.41800000000E+01 0. -1.
        -11    1    3    3    0    0 -0.71945059728E+02  0.91554253821E+02  0.13427681330E+03  0.17773163928E+03  0.00000000000E+00 0.  1.
         11    1    3    3    0    0 -0.27797541894E+02  0.34651631778E+02  0.19834913731E+03  0.20326293118E+03  0.00000000000E+00 0. -1.
</event>
<event>
 8    1  0.1790275E-005  0.7724913E+02  0.7561462E-02  0.1337044E+00
          2   -1    0    0  501    0  0.00000000000E+00  0.00000000000E+00  0.54647412240E+03  0.54647412240E+03  0.00000000000E+00 0. -1.
         -2   -1    0    0    0  501 -0.00000000000E+00 -0.00000000000E+00 -0.21139431037E+02  0.21139431037E+02  0.00000000000E+00 0.  1.
         23    2    1    2    0    0 -0.31763408730E+01 -0.11280930867E+02  0.19722979245E+03  0.21626813355E+03  0.87948655571E+02 0.  0.
         23    2    1    2    0    0  0.31763408730E+01  0.11280930867E+02  0.32810489891E+03  0.35134541988E+03  0.12511367168E+03 0.  0.
          5    1    4    4  502    0 -0.34982166862E+02  0.16011661930E+02  0.25650003473E+02  0.46427582258E+02  0.41800000000E+01 0. -1.
         -5    1    4    4    0  502  0.38158507735E+02 -0.47307310635E+01  0.30245489544E+03  0.30491783763E+03  0.41800000000E+01 0. -1.
        -11    1    3    3    0    0 -0.46161037265E+01  0.32747032186E+02  0.34952850507E+02  0.48118377873E+02  0.00000000000E+00 0.  1.
         11    1    3    3    0    0  0.14397628535E+01 -0.44027963053E+02  0.16227694194E+03  0.16814975568E+03  0.00000000000E+00 0. -1.
</event>
<event>
 8    1  0.1790275E-005  0.1184626E+03  0.7561462E-02  0.1245655E+00
          2   -1    0    0  501    0  0.00000000000E+00  0.00000000000E+00  0.38165859784E+03  0.38165859784E+03  0.00000000000E+00 0. -1.
         -2   -1    0    0    0  501 -0.00000000000E+00 -0.00000000000E+00 -0.54794023498E+02  0.54794023498E+02  0.00000000000E+00 0.  1.
         23    2    1    2    0    0  0.24764473551E+02  0.37603202000E+02  0.25700490038E+02  0.10725077875E+03  0.93887882091E+02 0.  0.
         23    2    1    2    0    0 -0.24764473551E+02 -0.37603202000E+02  0.30116408430E+03  0.32920184259E+03  0.12508703985E+03 0.  0.
          5    1    4    4  502    0  0.21654230360E+02  0.38061445368E+02  0.94155154803E+02  0.10392422668E+03  0.41800000000E+01 0.  1.
         -5    1    4    4    0  502 -0.46418703910E+02 -0.75664647368E+02  0.20700892950E+03  0.22527761590E+03  0.41800000000E+01 0.  1.
        -11    1    3    3    0    0 -0.79669381278E+01 -0.28883622160E+02  0.58020868436E+01  0.30518845718E+02  0.00000000000E+00 0. -1.
         11    1    3    3    0    0  0.32731411679E+02  0.66486824159E+02  0.19898403194E+02  0.76731933033E+02  0.00000000000E+00 0.  1.
</event>
<event>
 8    1  0.1790275E-005  0.8925772E+02  0.7561462E-02  0.1304659E+00
         -1   -1    0    0    0  501 -0.00000000000E+00  0.00000000000E+00  0.22332555109E+02  0.22332555109E+02  0.00000000000E+00 0.  1.
          1   -1    0    0  501    0  0.00000000000E+00 -0.00000000000E+00 -0.10523462239E+04  0.10523462239E+04  0.00000000000E+00 0. -1.
         23    2    1    2    0    0 -0.22207769513E+02 -0.81950336397E+02 -0.24300778013E+03  0.27328335268E+03  0.91771275382E+02 0.  0.
         23    2    1    2    0    0  0.22207769513E+02  0.81950336397E+02 -0.78700588865E+03  0.80139542631E+03  0.12508923972E+03 0.  0.
          5    1    4    4  502    0 -0.33610449873E+01  0.12380546144E+02 -0.60058672631E+03  0.60073826478E+03  0.41800000000E+01 0.  1.
         -5    1    4    4    0  502  0.25568814500E+02  0.69569790253E+02 -0.18641916233E+03  0.20065716154E+03  0.41800000000E+01 0.  1.
        -11    1    3    3    0    0 -0.29645307943E+02 -0.74833344613E+02 -0.24878283862E+03  0.26147996967E+03  0.00000000000E+00 0. -1.
         11    1    3    3    0    0  0.74375384300E+01 -0.71169917839E+01  0.57750584852E+01  0.11803383009E+02  0.00000000000E+00 0.  1.
</event>
<event>
 8    1  0.1790275E-005  0.1697232E+03  0.7561462E-02  0.1178137E+00
          1   -1    0    0  501    0  0.00000000000E+00  0.00000000000E+00  0.77947815859E+03  0.77947815859E+03  0.00000000000E+00 0. -1.
         -1   -1    0    0    0  501 -0.00000000000E+00 -0.00000000000E+00 -0.49591359260E+02  0.49591359260E+02  0.00000000000E+00 0.  1.
         23    2    1    2    0    0 -0.32586547298E+02  0.14285459724E+03  0.19345107864E+03  0.25908659960E+03  0.90737132685E+02 0.  0.
         23    2    1    2    0    0  0.32586547298E+02 -0.14285459724E+03  0.53643572069E+03  0.56998291825E+03  0.12509166897E+03 0.  0.
          5    1    4    4  502    0  0.74162430094E+02 -0.89908359631E+02  0.41497223011E+03  0.43104872501E+03  0.41800000000E+01 0. -1.
         -5    1    4    4    0  502 -0.41575882795E+02 -0.52946237611E+02  0.12146349058E+03  0.13893419324E+03  0.41800000000E+01 0. -1.
        -11    1    3    3    0    0 -0.37786726324E+02  0.51520189388E+02  0.27433949089E+02  0.69532640993E+02  0.00000000000E+00 0.  1.
         11    1    3    3    0    0  0.52001790256E+01  0.91334407854E+02  0.16601712955E+03  0.18955395860E+03  0.00000000000E+00 0. -1.
</event>
<event>
 8    1  0.1805045E-005  0.4371087E+03  0.7561462E-02  0.1031638E+00
         -2   -1    0    0    0  501 -0.00000000000E+00  0.00000000000E+00  0.14757665765E+03  0.14757665765E+03  0.00000000000E+00 0. -1.
          2   -1    0    0  501    0  0.00000000000E+00 -0.00000000000E+00 -0.13283757057E+04  0.13283757057E+04  0.00000000000E+00 0.  1.
         23    2    1    2    0    0 -0.76804583557E+02  0.42121986890E+03 -0.53253555798E+03  0.68904832426E+03  0.88703723932E+02 0.  0.
         23    2    1    2    0    0  0.76804583557E+02 -0.42121986890E+03 -0.64826349003E+03  0.78690403905E+03  0.12508913682E+03 0.  0.
          5    1    4    4  502    0  0.10632131692E+03 -0.24189051392E+03 -0.38098150133E+03  0.46365894784E+03  0.41800000000E+01 0.  1.
         -5    1    4    4    0  502 -0.29516733364E+02 -0.17932935498E+03 -0.26728198870E+03  0.32324509120E+03  0.41800000000E+01 0.  1.
        -11    1    3    3    0    0 -0.13310886148E+02  0.69465594559E+02 -0.42544978463E+02  0.82539225280E+02  0.00000000000E+00 0. -1.
         11    1    3    3    0    0 -0.63493697409E+02  0.35175427434E+03 -0.48999057952E+03  0.60650909898E+03  0.00000000000E+00 0.  1.
</event>
<event>
 8    1  0.1790275E-005  0.1291877E+03  0.7561462E-02  0.1228666E+00
          1   -1    0    0  501    0  0.00000000000E+00  0.00000000000E+00  0.55124866577E+03  0.55124866577E+03  0.00000000000E+00 0. -1.
         -1   -1    0    0    0  501 -0.00000000000E+00 -0.00000000000E+00 -0.58347654642E+02  0.58347654642E+02  0.00000000000E+00 0.  1.
         23    2    1    2    0    0 -0.79112257895E+02 -0.21301579919E+02  0.33297677458E+02  0.12627938348E+03  0.90140117105E+02 0.  0.
         23    2    1    2    0    0  0.79112257895E+02  0.21301579919E+02  0.45960333367E+03  0.48331693694E+03  0.12509008973E+03 0.  0.
          5    1    4    4  502    0  0.92460491135E+02 -0.28307031740E+02  0.26961511785E+03  0.28646119220E+03  0.41800000000E+01 0. -1.
         -5    1    4    4    0  502 -0.13348233240E+02  0.49608611658E+02  0.18998821583E+03  0.19685574473E+03  0.41800000000E+01 0. -1.
        -11    1    3    3    0    0 -0.43359173795E+02 -0.48549722358E+02  0.45834898978E+02  0.79611126468E+02  0.00000000000E+00 0. -1.
         11    1    3    3    0    0 -0.35753084101E+02  0.27248142439E+02 -0.12537221520E+02  0.46668257012E+02  0.00000000000E+00 0.  1.
</event>
<event>
 8    1  0.1790275E-005  0.9404921E+02  0.7561462E-02  0.1293332E+00
          2   -1    0    0  501    0  0.00000000000E+00  0.00000000000E+00  0.21408014468E+03  0.21408014468E+03  0.00000000000E+00 0. -1.
         -2   -1    0    0    0  501 -0.00000000000E+00 -0.00000000000E+00 -0.80513829691E+02  0.80513829691E+02  0.00000000000E+00 0.  1.
         23    2    1    2    0    0  0.53408604383E+02 -0.44360140602E+02  0.32023201591E+02  0.11915772712E+03  0.91393530381E+02 0.  0.
         23    2    1    2    0    0 -0.53408604383E+02  0.44360140602E+02  0.10154311340E+03  0.17543624726E+03  0.12508625774E+03 0.  0.
          5    1    4    4  502    0 -0.20140136203E+02 -0.11852965204E+02  0.10714482775E+03  0.10974335690E+03  0.41800000000E+01 0.  1.
         -5    1    4    4    0  502 -0.33268468181E+02  0.56213105806E+02 -0.56017143496E+01  0.65692890354E+02  0.41800000000E+01 0.  1.
        -11    1    3    3    0    0  0.17367098428E+02  0.19167597866E+02  0.37897052117E+02  0.45882452800E+02  0.00000000000E+00 0. -1.
         11    1    3    3    0    0  0.36041505955E+02 -0.63527738468E+02 -0.58738505260E+01  0.73275274318E+02  0.00000000000E+00 0.  1.
</event>
<event>
 8    1  0.1790275E-005  0.9312317E+02  0.7561462E-02  0.1295460E+00
          2   -1    0    0  501    0  0.00000000000E+00  0.00000000000E+00  0.14824594120E+03  0.14824594120E+03  0.00000000000E+00 0. -1.
         -2   -1    0    0    0  501 -0.00000000000E+00 -0.00000000000E+00 -0.18963060355E+03  0.18963060355E+03  0.00000000000E+00 0.  1.
         23    2    1    2    0    0  0.10868327570E+02 -0.10981808868E+02 -0.14617625202E+03  0.17224927965E+03  0.89797533452E+02 0.  0.
         23    2    1    2    0    0 -0.10868327570E+02  0.10981808868E+02  0.10479158967E+03  0.16562726511E+03  0.12732789565E+03 0.  0.
          5    1    4    4  502    0 -0.67279092870E+02  0.90567063817E+01  0.76462484054E+02  0.10233515591E+03  0.41800000000E+01 0. -1.
         -5    1    4    4    0  502  0.56410765300E+02  0.19251024862E+01  0.28329105614E+02  0.63292109194E+02  0.41800000000E+01 0.  1.
        -11    1    3    3    0    0 -0.20620526246E+02  0.10865500660E+02 -0.12750433899E+03  0.12961721209E+03  0.00000000000E+00 0.  1.
         11    1    3    3    0    0  0.31488853817E+02 -0.21847309528E+02 -0.18671913028E+02  0.42632067560E+02  0.00000000000E+00 0. -1.
</event>
<event>
 8    1  0.1790275E-005  0.1603958E+03  0.7561462E-02  0.1188251E+00
         -1   -1    0    0    0  501 -0.00000000000E+00  0.00000000000E+00  0.61880624497E+02  0.61880624497E+02  0.00000000000E+00 0.  1.
          1   -1    0    0  501    0  0.00000000000E+00 -0.00000000000E+00 -0.82765032283E+03  0.82765032283E+03  0.00000000000E+00 0. -1.
         23    2    1    2    0    0  0.68060873367E+02 -0.14037214626E+03 -0.13004839704E+03  0.22310191973E+03  0.92332329593E+02 0.  0.
         23    2    1    2    0    0 -0.68060873367E+02  0.14037214626E+03 -0.63572130130E+03  0.66642902760E+03  0.12509777764E+03 0.  0.
          5    1    4    4  502    0 -0.49378647469E+02  0.95747505829E+02 -0.19314923349E+03  0.22120111776E+03  0.41800000000E+01 0. -1.
         -5    1    4    4    0  502 -0.18682225898E+02  0.44624640430E+02 -0.44257206780E+03  0.44522790984E+03  0.41800000000E+01 0. -1.
        -11    1    3    3    0    0  0.67839814443E+02 -0.83656165632E+02 -0.36536230493E+02  0.11373429830E+03  0.00000000000E+00 0.  1.
         11    1    3    3    0    0  0.22105892393E+00 -0.56715980627E+02 -0.93512166544E+02  0.10936762143E+03  0.00000000000E+00 0. -1.
</event>
<event>
 8    1  0.1790275E-005  0.1580255E+03  0.7561462E-02  0.1190944E+00
         -2   -1    0    0    0  501 -0.00000000000E+00  0.00000000000E+00  0.36759024123E+02  0.36759024123E+02  0.00000000000E+00 0.  1.
          2   -1    0    0  501    0  0.00000000000E+00 -0.00000000000E+00 -0.78559394498E+03  0.78559394498E+03  0.00000000000E+00 0. -1.
         23    2    1    2    0    0 -0.97447848517E+02  0.71352669331E+02 -0.47659401574E+03  0.49932280316E+03  0.87144244299E+02 0.  0.
         23    2    1    2    0    0  0.97447848517E+02 -0.71352669331E+02 -0.27224090513E+03  0.32303016595E+03  0.12508433591E+03 0.  0.
          5    1    4    4  502    0  0.36415213009E+02 -0.99042705022E+02 -0.18387606865E+03  0.21204576435E+03  0.41800000000E+01 0. -1.
         -5    1    4    4    0  502  0.61032635508E+02  0.27690035691E+02 -0.88364836471E+02  0.11098440160E+03  0.41800000000E+01 0. -1.
        -11    1    3    3    0    0 -0.90024011340E+02  0.21059445323E+02 -0.23700840868E+03  0.25440284716E+03  0.00000000000E+00 0.  1.
         11    1    3    3    0    0 -0.74238371778E+01  0.50293224008E+02 -0.23958560705E+03  0.24491995600E+03  0.00000000000E+00 0. -1.
</event>
<event>
 8    1  0.1790275E-005  0.1048042E+03  0.7561462E-02  0.1270506E+00
         -1   -1    0    0    0  501 -0.00000000000E+00  0.00000000000E+00  0.11801569382E+03  0.11801569382E+03  0.00000000000E+00 0.  1.
          1   -1    0    0  501    0  0.00000000000E+00 -0.00000000000E+00 -0.11797156411E+03  0.11797156411E+03  0.00000000000E+00 0. -1.
         23    2    1    2    0    0  0.24497370712E+02 -0.37095558305E+02  0.23074414394E+00  0.10323573635E+03  0.93173828942E+02 0.  0.
         23    2    1    2    0    0 -0.24497370712E+02  0.37095558305E+02 -0.18661443549E+00  0.13275152158E+03  0.12508688995E+03 0.  0.
          5    1    4    4  502    0  0.39388993451E+02  0.17101545693E+02  0.36312114570E+02  0.56391468635E+02  0.41800000000E+01 0.  1.
         -5    1    4    4    0  502 -0.63886364163E+02  0.19994012611E+02 -0.36498729006E+02  0.76360052942E+02  0.41800000000E+01 0.  1.
        -11    1    3    3    0    0  0.55620948666E+02 -0.69341878123E+01  0.13976593630E+02  0.57767794320E+02  0.00000000000E+00 0.  1.
         11    1    3    3    0    0 -0.31123577954E+02 -0.30161370492E+02 -0.13745849486E+02  0.45467942033E+02  0.00000000000E+00 0. -1.
</event>
<event>
 7    1  0.1790275E-005  0.1200145E+03  0.7561462E-02  0.1243073E+00
         -2   -1    0    0    0  501 -0.00000000000E+00  0.00000000000E+00  0.45760548348E+02  0.45760548348E+02  0.00000000000E+00 0.  1.
          2   -1    0    0  501    0  0.00000000000E+00 -0.00000000000E+00 -0.13810285543E+04  0.13810285543E+04  0.00000000000E+00 0. -1.
         23    2    1    2    0    0  0.61413837527E+02  0.97472501841E+02 -0.32101229797E+03  0.35285756127E+03  0.90482125537E+02 0.  0.
          5    1    1    2  502    0 -0.15660845096E+02 -0.62698935595E+02 -0.10142466282E+04  0.10163120159E+04  0.41800000000E+01 0. -1.
         -5    1    1    2    0  502 -0.45752992431E+02 -0.34773566245E+02 -0.90797833278E-02  0.57619525408E+02  0.41800000000E+01 0.  1.
        -11    1    3    3    0    0  0.25964962481E+02  0.21123385626E+02 -0.17265773019E+02  0.37662761647E+02  0.00000000000E+00 0. -1.
         11    1    3    3    0    0  0.35448875046E+02  0.76349116214E+02 -0.30374652495E+03  0.31519479962E+03  0.00000000000E+00 0.  1.
</event>
<event>
 8    1  0.1790275E-005  0.1020231E+03  0.7561462E-02  0.1276098E+00
         -2   -1    0    0    0  501 -0.00000000000E+00  0.00000000000E+00  0.71598114941E+02  0.71598114941E+02  0.00000000000E+00 0.  1.
          2   -1    0    0  501    0  0.00000000000E+00 -0.00000000000E+00 -0.18224094546E+03  0.18224094546E+03  0.00000000000E+00 0. -1.
         23    2    1    2    0    0 -0.31957767898E+01 -0.16569524402E+02 -0.11661495070E+02  0.93432413171E+02  0.91152966137E+02 0.  0.
         23    2    1    2    0    0  0.31957767898E+01  0.16569524402E+02 -0.98981335445E+02  0.16040664722E+03  0.12509286782E+03 0.  0.
          5    1    4    4  502    0 -0.10068509177E+01 -0.47158522123E+02 -0.81166808924E+02  0.93970544473E+02  0.41800000000E+01 0.  1.
         -5    1    4    4    0  502  0.42026277076E+01  0.63728046526E+02 -0.17814526521E+02  0.66436102751E+02  0.41800000000E+01 0.  1.
        -11    1    3    3    0    0 -0.47148986121E+02 -0.10674438596E+02 -0.68578545643E+01  0.48826229639E+02  0.00000000000E+00 0.  1.
         11    1    3    3    0    0  0.43953209331E+02 -0.58950858058E+01 -0.48036405053E+01  0.44606183532E+02  0.00000000000E+00 0. -1.
</event>
<event>
 7    1  0.1790275E-005  0.2602066E+03  0.7561462E-02  0.1107019E+00
         -1   -1    0    0    0  501 -0.00000000000E+00  0.00000000000E+00  0.10012916070E+03  0.10012916070E+03  0.00000000000E+00 0.  1.
          1   -1    0    0  501    0  0.00000000000E+00 -0.00000000000E+00 -0.74707283995E+03  0.74707283995E+03  0.00000000000E+00 0. -1.
         23    2    1    2    0    0 -0.76522448768E+02  0.18751245669E+03 -0.20380164682E+03  0.30217501570E+03  0.93584305782E+02 0.  0.
          5    1    1    2  502    0  0.14105674047E+03 -0.20629316371E+03 -0.35133708452E+03  0.43117176715E+03  0.41800000000E+01 0. -1.
         -5    1    1    2    0  502 -0.64534291700E+02  0.18780707027E+02 -0.91804947904E+02  0.11385521780E+03  0.41800000000E+01 0.  1.
        -11    1    3    3    0    0 -0.42921819632E+02  0.84515259096E+02 -0.15863493564E+03  0.18479760395E+03  0.00000000000E+00 0. -1.
         11    1    3    3    0    0 -0.33600629137E+02  0.10299719759E+03 -0.45166711179E+02  0.11737741175E+03  0.00000000000E+00 0.  1.
</event>
<event>
 8    1  0.1790275E-005  0.8290197E+02  0.7561462E-02  0.1321012E+00
          2   -1    0    0  501    0  0.00000000000E+00  0.00000000000E+00  0.29122642847E+04  0.29122642847E+04  0.00000000000E+00 0. -1.
         -2   -1    0    0    0  501 -0.00000000000E+00 -0.00000000000E+00 -0.16429469458E+02  0.16429469458E+02  0.00000000000E+00 0.  1.
         23    2    1    2    0    0 -0.97317389794E+00 -0.34328364951E+02  0.13071995219E+03  0.16058268405E+03  0.86716254567E+02 0.  0.
         23    2    1    2    0    0  0.97317389794E+00  0.34328364951E+02  0.27651148631E+04  0.27681110701E+04  0.12409394392E+03 0.  0.
          5    1    4    4  502    0 -0.13008801013E+02 -0.16094811798E+02  0.22913106041E+04  0.22914078705E+04  0.41800000000E+01 0. -1.
         -5    1    4    4    0  502  0.13981974911E+02  0.50423176749E+02  0.47380425891E+03  0.47670319963E+03  0.41800000000E+01 0.  1.
        -11    1    3    3    0    0  0.37681377590E+02 -0.37819014473E+02  0.87435567766E+02  0.10244580315E+03  0.00000000000E+00 0.  1.
         11    1    3    3    0    0 -0.38654551488E+02  0.34906495217E+01  0.43284384428E+02  0.58136880895E+02  0.00000000000E+00 0. -1.
</event>
<event>
 8    1  0.1790275E-005  0.9433252E+02  0.7561462E-02  0.1292687E+00
         -1   -1    0    0    0  501 -0.00000000000E+00  0.00000000000E+00  0.48694368605E+02  0.48694368605E+02  0.00000000000E+00 0.  1.
          1   -1    0    0  501    0  0.00000000000E+00 -0.00000000000E+00 -0.29149504632E+03  0.29149504632E+03  0.00000000000E+00 0. -1.
         23    2    1    2    0    0  0.39783249491E+02 -0.14328182326E+02 -0.50444552634E+02  0.11303528349E+03  0.91892974016E+02 0.  0.
         23    2    1    2    0    0 -0.39783249491E+02  0.14328182326E+02 -0.19235612509E+03  0.22715413144E+03  0.11318178663E+03 0.  0.
          5    1    4    4  502    0 -0.67892164573E+02  0.36649099817E+02 -0.16375830549E+03  0.18107113945E+03  0.41800000000E+01 0. -1.
         -5    1    4    4    0  502  0.28108915082E+02 -0.22320917491E+02 -0.28597819599E+02  0.46082991988E+02  0.41800000000E+01 0.  1.
        -11    1    3    3    0    0  0.39603909775E+02 -0.36041951874E+02 -0.66970845279E+02  0.85747222006E+02  0.00000000000E+00 0. -1.
         11    1    3    3    0    0  0.17933971584E+00  0.21713769548E+02  0.16526292645E+02  0.27288061480E+02  0.00000000000E+00 0.  1.
</event>
<event>
 8    1  0.1790275E-005  0.1256969E+03  0.7561462E-02  0.1233984E+00
          2   -1    0    0  501    0  0.00000000000E+00  0.00000000000E+00  0.17600373644E+03  0.17600373644E+03  0.00000000000E+00 0. -1.
         -2   -1    0    0    0  501 -0.00000000000E+00 -0.00000000000E+00 -0.12013650836E+03  0.12013650836E+03  0.00000000000E+00 0.  1.
         23    2    1    2    0    0 -0.35053562340E+02  0.70732554628E+02 -0.32241478038E+02  0.12397203315E+03  0.89987252317E+02 0.  0.
         23    2    1    2    0    0  0.35053562340E+02 -0.70732554628E+02  0.88108706126E+02  0.17216821165E+03  0.12508757929E+03 0.  0.
          5    1    4    4  502    0 -0.20890736150E+02 -0.86531266611E+02  0.46173100632E+02  0.10036687990E+03  0.41800000000E+01 0. -1.
         -5    1    4    4    0  502  0.55944298490E+02  0.15798711984E+02  0.41935605494E+02  0.71801331757E+02  0.41800000000E+01 0. -1.
        -11    1    3    3    0    0  0.13012933967E+02  0.49970620771E+02 -0.46733176358E+02  0.69644735359E+02  0.00000000000E+00 0.  1.
         11    1    3    3    0    0 -0.48066496307E+02  0.20761933857E+02  0.14491698320E+02  0.54327297788E+02  0.00000000000E+00 0. -1.
</event>
<event>
 8    1  0.1790275E-005  0.1617614E+03  0.7561462E-02  0.1186722E+00
          1   -1    0    0  501    0  0.00000000000E+00  0.00000000000E+00  0.20922127776E+03  0.20922127776E+03  0.00000000000E+00 0. -1.
         -1   -1    0    0    0  501 -0.00000000000E+00 -0.00000000000E+00 -0.12868697088E+03  0.12868697088E+03  0.00000000000E+00 0.  1.
         23    2    1    2    0    0  0.82431357354E+02  0.90647657296E+02  0.45541538162E+02  0.15934678403E+03  0.91134183672E+02 0.  0.
         23    2    1    2    0    0 -0.82431357354E+02 -0.90647657296E+02  0.34992768717E+02  0.17856146462E+03  0.12509107217E+03 0.  0.
          5    1    4    4  502    0  0.12261914975E+02 -0.76028701007E+02  0.20384061637E+01  0.77151444804E+02  0.41800000000E+01 0.  1.
         -5    1    4    4    0  502 -0.94693272328E+02 -0.14618956289E+02  0.32954362553E+02  0.10141001981E+03  0.41800000000E+01 0.  1.
        -11    1    3    3    0    0 -0.17021788242E+02  0.28565355453E+02  0.21702698091E+02  0.39708033337E+02  0.00000000000E+00 0. -1.
         11    1    3    3    0    0  0.99453145595E+02  0.62082301843E+02  0.23838840072E+02  0.11963875069E+03  0.00000000000E+00 0.  1.
</event>
<event>
 8    1  0.1790275E-005  0.9727678E+02  0.7561462E-02  0.1286129E+00
          2   -1    0    0  501    0  0.00000000000E+00  0.00000000000E+00  0.12296577225E+03  0.12296577225E+03  0.00000000000E+00 0.  1.
         -2   -1    0    0    0  501 -0.00000000000E+00 -0.00000000000E+00 -0.13075515705E+03  0.13075515705E+03  0.00000000000E+00 0. -1.
         23    2    1    2    0    0 -0.55358216508E+02  0.23308467741E+02 -0.26578460216E+02  0.11367937639E+03  0.92783453622E+02 0.  0.
         23    2    1    2    0    0  0.55358216508E+02 -0.23308467741E+02  0.18789075424E+02  0.14004155291E+03  0.12510311899E+03 0.  0.
          5    1    4    4  502    0 -0.97779331185E+01  0.66740861203E+01  0.57218796048E+02  0.58579983124E+02  0.41800000000E+01 0.  1.
         -5    1    4    4    0  502  0.65136149627E+02 -0.29982553861E+02 -0.38429720624E+02  0.81461569783E+02  0.41800000000E+01 0.  1.
        -11    1    3    3    0    0 -0.81414259227E+02  0.20565261196E+02 -0.16320627796E+02  0.85542822406E+02  0.00000000000E+00 0.  1.
         11    1    3    3    0    0  0.26056042718E+02  0.27432065450E+01 -0.10257832419E+02  0.28136553986E+02  0.00000000000E+00 0. -1.
</event>
<event>
 8    1  0.1790275E-005  0.9420931E+02  0.7561462E-02  0.1292967E+00
          4   -1    0    0  501    0  0.00000000000E+00  0.00000000000E+00  0.46823751398E+03  0.46823751398E+03  0.00000000000E+00 0. -1.
         -4   -1    0    0    0  501 -0.00000000000E+00 -0.00000000000E+00 -0.35549437287E+02  0.35549437287E+02  0.00000000000E+00 0.  1.
         23    2    1    2    0    0  0.21069825915E+02  0.58335035377E+02  0.13019723463E+03  0.17062716486E+03  0.91188790788E+02 0.  0.
         23    2    1    2    0    0 -0.21069825915E+02 -0.58335035377E+02  0.30249084206E+03  0.33315978641E+03  0.12509124602E+03 0.  0.
          5    1    4    4  502    0  0.93977810708E+01 -0.48907402676E+02  0.29619756565E+03  0.30038429157E+03  0.41800000000E+01 0. -1.
         -5    1    4    4    0  502 -0.30467606986E+02 -0.94276327016E+01  0.62932764109E+01  0.32775494836E+02  0.41800000000E+01 0. -1.
        -11    1    3    3    0    0  0.53427511619E+02  0.22439158446E+02  0.93272961373E+02  0.10980828818E+03  0.00000000000E+00 0. -1.
         11    1    3    3    0    0 -0.32357685705E+02  0.35895876931E+02  0.36924273259E+02  0.60818876679E+02  0.00000000000E+00 0.  1.
</event>
<event>
 8    1  0.1790275E-005  0.1014576E+03  0.7561462E-02  0.1277260E+00
          1   -1    0    0  501    0  0.00000000000E+00  0.00000000000E+00  0.25089846034E+03  0.25089846034E+03  0.00000000000E+00 0. -1.
         -1   -1    0    0    0  501 -0.00000000000E+00 -0.00000000000E+00 -0.59629933828E+02  0.59629933828E+02  0.00000000000E+00 0.  1.
         23    2    1    2    0    0  0.34546146402E+02 -0.25261317189E+02  0.40262309376E+02  0.10982343706E+03  0.92782344196E+02 0.  0.
         23    2    1    2    0    0 -0.34546146402E+02  0.25261317189E+02  0.15100621714E+03  0.20070495711E+03  0.12509209334E+03 0.  0.
          5    1    4    4  502    0 -0.78727707263E+02  0.82352017269E+01  0.65301959576E+02  0.10270194138E+03  0.41800000000E+01 0. -1.
         -5    1    4    4    0  502  0.44181560861E+02  0.17026115462E+02  0.85704257563E+02  0.98003015730E+02  0.41800000000E+01 0. -1.
        -11    1    3    3    0    0  0.48357080612E+02 -0.34584541218E+02 -0.68558029033E+01  0.59845632840E+02  0.00000000000E+00 0.  1.
         11    1    3    3    0    0 -0.13810934210E+02  0.93232240294E+01  0.47118112279E+02  0.49977804221E+02  0.00000000000E+00 0. -1.
</event>
<event>
 8    1  0.1790275E-005  0.1791662E+03  0.7561462E-02  0.1168612E+00
          2   -1    0    0  501    0  0.00000000000E+00  0.00000000000E+00  0.21501975142E+03  0.21501975142E+03  0.00000000000E+00 0. -1.
         -2   -1    0    0    0  501 -0.00000000000E+00 -0.00000000000E+00 -0.15701370782E+03  0.15701370782E+03  0.00000000000E+00 0.  1.
         23    2    1    2    0    0 -0.10096543262E+03  0.10729505022E+03  0.39504770054E+02  0.17787100116E+03  0.91494370372E+02 0.  0.
         23    2    1    2    0    0  0.10096543262E+03 -0.10729505022E+03  0.18501273549E+02  0.19416245808E+03  0.12510202484E+03 0.  0.
          5    1    4    4  502    0  0.11914494596E+03 -0.56115200475E+02  0.36613487238E+02  0.13675691471E+03  0.41800000000E+01 0.  1.
         -5    1    4    4    0  502 -0.18179513337E+02 -0.51179849750E+02 -0.18112213690E+02  0.57405543376E+02  0.41800000000E+01 0.  1.
        -11    1    3    3    0    0 -0.50131871631E+02  0.11031449952E+03  0.37757875964E+02  0.12691788903E+03  0.00000000000E+00 0. -1.
         11    1    3    3    0    0 -0.50833560992E+02 -0.30194492970E+01  0.17468940899E+01  0.50953112134E+02  0.00000000000E+00 0.  1.
</event>
<event>
 8    1  0.1790275E-005  0.1432123E+03  0.7561462E-02  0.1209071E+00
          1   -1    0    0  501    0  0.00000000000E+00  0.00000000000E+00  0.50587789361E+02  0.50587789361E+02  0.00000000000E+00 0. -1.
         -1   -1    0    0    0  501 -0.00000000000E+00 -0.00000000000E+00 -0.50407637570E+03  0.50407637570E+03  0.00000000000E+00 0.  1.
         23    2    1    2    0    0 -0.11655050217E+03  0.15134170579E+02 -0.22009457548E+03  0.26494814718E+03  0.89122588973E+02 0.  0.
         23    2    1    2    0    0  0.11655050217E+03 -0.15134170579E+02 -0.23339401086E+03  0.28971601788E+03  0.12509813761E+03 0.  0.
          5    1    4    4  502    0  0.28100555124E+02  0.28473002505E+02 -0.16450103976E+03  0.16934703290E+03  0.41800000000E+01 0.  1.
         -5    1    4    4    0  502  0.88449947047E+02 -0.43607173083E+02 -0.68892971097E+02  0.12036898497E+03  0.41800000000E+01 0.  1.
        -11    1    3    3    0    0 -0.10042019348E+03  0.47687631758E+02 -0.16570789188E+03  0.19954305529E+03  0.00000000000E+00 0. -1.
         11    1    3    3    0    0 -0.16130308689E+02 -0.32553461180E+02 -0.54386683598E+02  0.65405091896E+02  0.00000000000E+00 0.  1.
</event>
<event>
 8    1  0.1790275E-005  0.1491728E+03  0.7561462E-02  0.1201493E+00
          1   -1    0    0  501    0  0.00000000000E+00  0.00000000000E+00  0.13767747820E+03  0.13767747820E+03  0.00000000000E+00 0. -1.
         -1   -1    0    0    0  501 -0.00000000000E+00 -0.00000000000E+00 -0.17183624850E+03  0.17183624850E+03  0.00000000000E+00 0.  1.
         23    2    1    2    0    0  0.10175629363E+03  0.33455439686E+02 -0.31749513609E+02  0.14480930629E+03  0.92130851702E+02 0.  0.
         23    2    1    2    0    0 -0.10175629363E+03 -0.33455439686E+02 -0.24092566906E+01  0.16470442042E+03  0.12509249318E+03 0.  0.
          5    1    4    4  502    0 -0.28199825286E+02 -0.74171978821E+02  0.80988860798E+01  0.79873505896E+02  0.41800000000E+01 0.  1.
         -5    1    4    4    0  502 -0.73556468344E+02  0.40716539135E+02 -0.10508142770E+02  0.84830914523E+02  0.41800000000E+01 0.  1.
        -11    1    3    3    0    0  0.50356724759E+02  0.58784746617E+02 -0.39644445772E+02  0.86966247728E+02  0.00000000000E+00 0.  1.
         11    1    3    3    0    0  0.51399568870E+02 -0.25329306931E+02  0.78949321636E+01  0.57843058560E+02  0.00000000000E+00 0. -1.
</event>
<event>
 8    1  0.1790275E-005  0.1573185E+03  0.7561462E-02  0.1191758E+00
         -2   -1    0    0    0  501 -0.00000000000E+00  0.00000000000E+00  0.26897549666E+02  0.26897549666E+02  0.00000000000E+00 0.  1.
          2   -1    0    0  501    0  0.00000000000E+00 -0.00000000000E+00 -0.10100745603E+04  0.10100745603E+04  0.00000000000E+00 0. -1.
         23    2    1    2    0    0  0.20182221393E+02 -0.11944607249E+03 -0.38538770332E+03  0.41433740931E+03  0.92071279931E+02 0.  0.
         23    2    1    2    0    0 -0.20182221393E+02  0.11944607249E+03 -0.59778930736E+03  0.62263470070E+03  0.12508888132E+03 0.  0.
          5    1    4    4  502    0  0.42839780805E+02  0.94868951861E+02 -0.31256243623E+03  0.32946640768E+03  0.41800000000E+01 0. -1.
         -5    1    4    4    0  502 -0.63022002198E+02  0.24577120634E+02 -0.28522687113E+03  0.29316829302E+03  0.41800000000E+01 0. -1.
        -11    1    3    3    0    0  0.37366485728E+02 -0.21225973078E+02 -0.19207207718E+03  0.19682093136E+03  0.00000000000E+00 0. -1.
         11    1    3    3    0    0 -0.17184264335E+02 -0.98220099416E+02 -0.19331562614E+03  0.21751647795E+03  0.00000000000E+00 0.  1.
</event>
<event>
 8    1  0.1790275E-005  0.1055500E+03  0.7561462E-02  0.1269040E+00
         -2   -1    0    0    0  501 -0.00000000000E+00  0.00000000000E+00  0.12076500778E+02  0.12076500778E+02  0.00000000000E+00 0. -1.
          2   -1    0    0  501    0  0.00000000000E+00 -0.00000000000E+00 -0.14427501690E+04  0.14427501690E+04  0.00000000000E+00 0.  1.
         23    2    1    2    0    0 -0.35415007913E+02  0.35434910944E+01 -0.28436475867E+03  0.30116347791E+03  0.92570758557E+02 0.  0.
         23    2    1    2    0    0  0.35415007913E+02 -0.35434910944E+01 -0.11463089095E+04  0.11536631918E+04  0.12509142670E+03 0.  0.
          5    1    4    4  502    0 -0.39437269907E+02 -0.99444957017E+01 -0.18747235086E+03  0.19187898788E+03  0.41800000000E+01 0. -1.
         -5    1    4    4    0  502  0.74852277820E+02  0.64010046073E+01 -0.95883655865E+03  0.96178420394E+03  0.41800000000E+01 0. -1.
        -11    1    3    3    0    0 -0.17936275945E+01  0.43054886889E+02 -0.86907094367E+02  0.97004038247E+02  0.00000000000E+00 0. -1.
         11    1    3    3    0    0 -0.33621380318E+02 -0.39511395795E+02 -0.19745766430E+03  0.20415943966E+03  0.00000000000E+00 0.  1.
</event>
<event>
 8    1  0.1790275E-005  0.1102857E+03  0.7561462E-02  0.1260042E+00
         -2   -1    0    0    0  501 -0.00000000000E+00  0.00000000000E+00  0.20654638398E+02  0.20654638398E+02  0.00000000000E+00 0. -1.
          2   -1    0    0  501    0  0.00000000000E+00 -0.00000000000E+00 -0.63410093954E+03  0.63410093954E+03  0.00000000000E+00 0.  1.
         23    2    1    2    0    0  0.35708415041E+02  0.86391210908E+01 -0.22298055605E+03  0.24309898402E+03  0.89593874440E+02 0.  0.
         23    2    1    2    0    0 -0.35708415041E+02 -0.86391210908E+01 -0.39046574510E+03  0.41165659392E+03  0.12509167801E+03 0.  0.
          5    1    4    4  502    0  0.13439432607E+02  0.47279031369E+02 -0.22220109301E+03  0.22761090328E+03  0.41800000000E+01 0.  1.
         -5    1    4    4    0  502 -0.49147847648E+02 -0.55918152460E+02 -0.16826465208E+03  0.18404569064E+03  0.41800000000E+01 0.  1.
        -11    1    3    3    0    0 -0.28443309676E+02 -0.95390293440E+01 -0.62945527309E+02  0.69729149961E+02  0.00000000000E+00 0.  1.
         11    1    3    3    0    0  0.64151724716E+02  0.18178150435E+02 -0.16003502874E+03  0.17336983406E+03  0.00000000000E+00 0. -1.
</event>
<event>
 8    1  0.1790275E-005  0.1100006E+03  0.7561462E-02  0.1260569E+00
         -2   -1    0    0    0  501 -0.00000000000E+00  0.00000000000E+00  0.60242728052E+02  0.60242728052E+02  0.00000000000E+00 0.  1.
          2   -1    0    0  501    0  0.00000000000E+00 -0.00000000000E+00 -0.34690099293E+03  0.34690099293E+03  0.00000000000E+00 0. -1.
         23    2    1    2    0    0  0.83938715391E+02  0.35522070136E+02 -0.92695012985E+02  0.15899755763E+03  0.91544155961E+02 0.  0.
         23    2    1    2    0    0 -0.83938715391E+02 -0.35522070136E+02 -0.19396325190E+03  0.24814616336E+03  0.12508896792E+03 0.  0.
          5    1    4    4  502    0 -0.44595583026E+02  0.11565755880E+01 -0.18869176571E+03  0.19393854320E+03  0.41800000000E+01 0.  1.
         -5    1    4    4    0  502 -0.39343132365E+02 -0.36678645724E+02 -0.52714861847E+01  0.54207620156E+02  0.41800000000E+01 0.  1.
        -11    1    3    3    0    0  0.16293068262E+02  0.49549737476E+02 -0.13448405962E+02  0.53865575094E+02  0.00000000000E+00 0. -1.
         11    1    3    3    0    0  0.67645647128E+02 -0.14027667340E+02 -0.79246607023E+02  0.10513198253E+03  0.00000000000E+00 0.  1.
</event>
<event>
 8    1  0.1790275E-005  0.1084053E+03  0.7561462E-02  0.1263552E+00
         -1   -1    0    0    0  501 -0.00000000000E+00  0.00000000000E+00  0.64220699578E+02  0.64220699578E+02  0.00000000000E+00 0.  1.
          1   -1    0    0  501    0  0.00000000000E+00 -0.00000000000E+00 -0.29184456570E+03  0.29184456570E+03  0.00000000000E+00 0. -1.
         23    2    1    2    0    0  0.69031950032E+02  0.15622761590E+02 -0.45884867984E+02  0.12437426555E+03  0.91400525247E+02 0.  0.
         23    2    1    2    0    0 -0.69031950032E+02 -0.15622761590E+02 -0.18173899814E+03  0.23169099974E+03  0.12506868156E+03 0.  0.
          5    1    4    4  502    0 -0.42170441476E+02  0.34361865390E+02 -0.16604230681E+02  0.57028561299E+02  0.41800000000E+01 0. -1.
         -5    1    4    4    0  502 -0.26861508556E+02 -0.49984626980E+02 -0.16513476746E+03  0.17466243844E+03  0.41800000000E+01 0. -1.
        -11    1    3    3    0    0  0.84937466857E+02  0.29016036454E+01 -0.13406192942E+02  0.86037890426E+02  0.00000000000E+00 0.  1.
         11    1    3    3    0    0 -0.15905516825E+02  0.12721157945E+02 -0.32478675042E+02  0.38336375121E+02  0.00000000000E+00 0. -1.
</event>
<event>
 8    1  0.1790275E-005  0.2104050E+03  0.7561462E-02  0.1141246E+00
         -2   -1    0    0    0  501 -0.00000000000E+00  0.00000000000E+00  0.95166422503E+02  0.95166422503E+02  0.00000000000E+00 0. -1.
          2   -1    0    0  501    0  0.00000000000E+00 -0.00000000000E+00 -0.51308670071E+03  0.51308670071E+03  0.00000000000E+00 0.  1.
         23    2    1    2    0    0 -0.19198887390E+03 -0.42994625605E+01 -0.19868882729E+03  0.29109711689E+03  0.91553636150E+02 0.  0.
         23    2    1    2    0    0  0.19198887390E+03  0.42994625605E+01 -0.21923145092E+03  0.31715600633E+03  0.12508912902E+03 0.  0.
          5    1    4    4  502    0  0.19410362990E+03 -0.27491339259E+02 -0.17754360078E+03  0.26452069003E+03  0.41800000000E+01 0.  1.
         -5    1    4    4    0  502 -0.21147559994E+01  0.31790801819E+02 -0.41687850141E+02  0.52635316306E+02  0.41800000000E+01 0.  1.
        -11    1    3    3    0    0 -0.88993392086E+02 -0.92725677364E+01 -0.31870098203E+02  0.94981616678E+02  0.00000000000E+00 0. -1.
         11    1    3    3    0    0 -0.10299548181E+03  0.49731051760E+01 -0.16681872908E+03  0.19611550021E+03  0.00000000000E+00 0.  1.
</event>
<event>
 8    1  0.1790275E-005  0.9419929E+02  0.7561462E-02  0.1292990E+00
         -1   -1    0    0    0  501 -0.00000000000E+00  0.00000000000E+00  0.24916489527E+03  0.24916489527E+03  0.00000000000E+00 0.  1.
          1   -1    0    0  501    0  0.00000000000E+00 -0.00000000000E+00 -0.57004688248E+02  0.57004688248E+02  0.00000000000E+00 0. -1.
         23    2    1    2    0    0 -0.61340246561E+01 -0.46856907703E+02  0.10201021854E+03  0.14489804308E+03  0.91412045940E+02 0.  0.
         23    2    1    2    0    0  0.61340246561E+01  0.46856907703E+02  0.90149988485E+02  0.16127154044E+03  0.12509313840E+03 0.  0.
          5    1    4    4  502    0 -0.58803420995E+02  0.15676296796E+02  0.48706551591E+02  0.78060163783E+02  0.41800000000E+01 0. -1.
         -5    1    4    4    0  502  0.64937445652E+02  0.31180610907E+02  0.41443436894E+02  0.83211376661E+02  0.41800000000E+01 0. -1.
        -11    1    3    3    0    0  0.89244482965E+01 -0.34871886810E+02 -0.48477935832E+01  0.36320729201E+02  0.00000000000E+00 0. -1.
         11    1    3    3    0    0 -0.15058472953E+02 -0.11985020893E+02  0.10685801212E+03  0.10857731388E+03  0.00000000000E+00 0.  1.
</event>
<event>
 8    1  0.1790275E-005  0.1000862E+03  0.7561462E-02  0.1280115E+00
          2   -1    0    0  501    0  0.00000000000E+00  0.00000000000E+00  0.41889754790E+03  0.41889754790E+03  0.00000000000E+00 0. -1.
         -2   -1    0    0    0  501 -0.00000000000E+00 -0.00000000000E+00 -0.33710115649E+02  0.33710115649E+02  0.00000000000E+00 0.  1.
         23    2    1    2    0    0 -0.52051791616E+02 -0.19351300683E+01  0.11483848039E+03  0.15020211636E+03  0.81606773260E+02 0.  0.
         23    2    1    2    0    0  0.52051791616E+02  0.19351300683E+01  0.27034895186E+03  0.30240554719E+03  0.12508966967E+03 0.  0.
          5    1    4    4  502    0 -0.24684335397E+02  0.31318226612E+02  0.35467559139E+02  0.53530999275E+02  0.41800000000E+01 0.  1.
         -5    1    4    4    0  502  0.76736127014E+02 -0.29383096544E+02  0.23488139272E+03  0.24887454791E+03  0.41800000000E+01 0.  1.
        -11    1    3    3    0    0  0.10292407448E+02  0.99715499689E+01  0.72507369813E+02  0.73909973190E+02  0.00000000000E+00 0. -1.
         11    1    3    3    0    0 -0.62344199065E+02 -0.11906680037E+02  0.42331110573E+02  0.76292143166E+02  0.00000000000E+00 0.  1.
</event>
<event>
 8    1  0.1790275E-005  0.8450846E+02  0.7561462E-02  0.1316723E+00
         -1   -1    0    0    0  501 -0.00000000000E+00  0.00000000000E+00  0.32528473571E+02  0.32528473571E+02  0.00000000000E+00 0.  1.
          1   -1    0    0  501    0  0.00000000000E+00 -0.00000000000E+00 -0.40127009824E+03  0.40127009824E+03  0.00000000000E+00 0. -1.
         23    2    1    2    0    0  0.25257110035E+00 -0.49048271839E+02 -0.97754951617E+02  0.13140212682E+03  0.72833313833E+02 0.  0.
         23    2    1    2    0    0 -0.25257110035E+00  0.49048271839E+02 -0.27098667306E+03  0.30239644500E+03  0.12491611670E+03 0.  0.
          5    1    4    4  502    0  0.19339454896E+02 -0.23105724368E+02 -0.18870406279E+03  0.19114022269E+03  0.41800000000E+01 0. -1.
         -5    1    4    4    0  502 -0.19592025996E+02  0.72153996207E+02 -0.82282610263E+02  0.11125622231E+03  0.41800000000E+01 0. -1.
        -11    1    3    3    0    0  0.13503128733E+02 -0.63292047398E+00 -0.75141370871E+02  0.76347630548E+02  0.00000000000E+00 0. -1.
         11    1    3    3    0    0 -0.13250557632E+02 -0.48415351365E+02 -0.22613580746E+02  0.55054496269E+02  0.00000000000E+00 0.  1.
</event>
<event>
 8    1  0.1790275E-005  0.1248912E+03  0.7561462E-02  0.1235239E+00
         -1   -1    0    0    0  501 -0.00000000000E+00  0.00000000000E+00  0.95605835967E+02  0.95605835967E+02  0.00000000000E+00 0.  1.
          1   -1    0    0  501    0  0.00000000000E+00 -0.00000000000E+00 -0.18907049072E+03  0.18907049072E+03  0.00000000000E+00 0. -1.
         23    2    1    2    0    0  0.92574319533E+01 -0.67141836736E+02  0.75685643015E+00  0.11403703428E+03  0.91706848545E+02 0.  0.
         23    2    1    2    0    0 -0.92574319533E+01  0.67141836736E+02 -0.94221511186E+02  0.17063929241E+03  0.12508536548E+03 0.  0.
          5    1    4    4  502    0  0.48510549759E+02  0.67763069291E+02 -0.46064738245E+02  0.95312850694E+02  0.41800000000E+01 0. -1.
         -5    1    4    4    0  502 -0.57767981713E+02 -0.62123255508E+00 -0.48156772940E+02  0.75326441713E+02  0.41800000000E+01 0. -1.
        -11    1    3    3    0    0  0.47161445904E+02 -0.35187709335E+02  0.18023146025E+02  0.61540317359E+02  0.00000000000E+00 0.  1.
         11    1    3    3    0    0 -0.37904013950E+02 -0.31954127401E+02 -0.17266289595E+02  0.52496716925E+02  0.00000000000E+00 0. -1.
</event>
<event>
 8    1  0.1790275E-005  0.1370646E+03  0.7561462E-02  0.1217334E+00
          2   -1    0    0  501    0  0.00000000000E+00  0.00000000000E+00  0.37035712763E+03  0.37035712763E+03  0.00000000000E+00 0. -1.
         -2   -1    0    0    0  501 -0.00000000000E+00 -0.00000000000E+00 -0.69045713825E+02  0.69045713825E+02  0.00000000000E+00 0.  1.
         23    2    1    2    0    0  0.89784739580E+02  0.16063926110E+02  0.39815942259E+02  0.13551733761E+03  0.91979836660E+02 0.  0.
         23    2    1    2    0    0 -0.89784739580E+02 -0.16063926110E+02  0.26149547155E+03  0.30388550384E+03  0.12508864306E+03 0.  0.
          5    1    4    4  502    0 -0.84231112552E+02 -0.63045278212E+02  0.20164199962E+03  0.22747869315E+03  0.41800000000E+01 0.  1.
         -5    1    4    4    0  502 -0.55536270287E+01  0.46981352102E+02  0.59853471923E+02  0.76406810690E+02  0.41800000000E+01 0.  1.
        -11    1    3    3    0    0  0.70861792002E+02  0.47032105368E+02  0.48900808181E+02  0.98105563256E+02  0.00000000000E+00 0. -1.
         11    1    3    3    0    0  0.18922947579E+02 -0.30968179259E+02 -0.90848659222E+01  0.37411774356E+02  0.00000000000E+00 0.  1.
</event>
<event>
 8    1  0.1790275E-005  0.1259002E+03  0.7561462E-02  0.1233669E+00
          2   -1    0    0  501    0  0.00000000000E+00  0.00000000000E+00  0.14740474551E+03  0.14740474551E+03  0.00000000000E+00 0. -1.
         -2   -1    0    0    0  501 -0.00000000000E+00 -0.00000000000E+00 -0.14383448871E+03  0.14383448871E+03  0.00000000000E+00 0.  1.
         23    2    1    2    0    0  0.80458235097E+02  0.16237270887E+02 -0.52363100805E+02  0.13150995236E+03  0.88406994532E+02 0.  0.
         23    2    1    2    0    0 -0.80458235097E+02 -0.16237270887E+02  0.55933357606E+02  0.15972928187E+03  0.12509087270E+03 0.  0.
          5    1    4    4  502    0 -0.10944461787E+03 -0.33446284157E+02  0.51166537103E+02  0.12542832704E+03  0.41800000000E+01 0.  1.
         -5    1    4    4    0  502  0.28986382778E+02  0.17209013270E+02  0.47668205027E+01  0.34300954826E+02  0.41800000000E+01 0.  1.
        -11    1    3    3    0    0  0.80811024683E+02 -0.60384478184E+01 -0.66751717459E+02  0.10498893440E+03  0.00000000000E+00 0. -1.
         11    1    3    3    0    0 -0.35278958536E+00  0.22275718706E+02  0.14388616654E+02  0.26521017959E+02  0.00000000000E+00 0.  1.
</event>
<event>
 8    1  0.1790275E-005  0.8200344E+02  0.7561462E-02  0.1323460E+00
          1   -1    0    0  501    0  0.00000000000E+00  0.00000000000E+00  0.24901609925E+02  0.24901609925E+02  0.00000000000E+00 0. -1.
         -1   -1    0    0    0  501 -0.00000000000E+00 -0.00000000000E+00 -0.60862089073E+03  0.60862089073E+03  0.00000000000E+00 0.  1.
         23    2    1    2    0    0  0.20792949698E+01 -0.52493783116E+02 -0.32885624570E+03  0.34479737425E+03  0.89324566724E+02 0.  0.
         23    2    1    2    0    0 -0.20792949698E+01  0.52493783116E+02 -0.25486303510E+03  0.28872512640E+03  0.12508841362E+03 0.  0.
          5    1    4    4  502    0 -0.91321021698E+01  0.29840867505E+01 -0.23423149644E+03  0.23446570407E+03  0.41800000000E+01 0. -1.
         -5    1    4    4    0  502  0.70528072000E+01  0.49509696365E+02 -0.20631538662E+02  0.54259422326E+02  0.41800000000E+01 0. -1.
        -11    1    3    3    0    0  0.27079901663E+02  0.15290090412E+02 -0.11098828776E+03  0.11526277785E+03  0.00000000000E+00 0.  1.
         11    1    3    3    0    0 -0.25000606693E+02 -0.67783873528E+02 -0.21786795795E+03  0.22953459640E+03  0.00000000000E+00 0. -1.
</event>
<event>
 8    1  0.1790275E-005  0.1005143E+03  0.7561462E-02  0.1279218E+00
         -3   -1    0    0    0  501 -0.00000000000E+00  0.00000000000E+00  0.10328101489E+03  0.10328101489E+03  0.00000000000E+00 0.  1.
          3   -1    0    0  501    0  0.00000000000E+00 -0.00000000000E+00 -0.14515606692E+03  0.14515606692E+03  0.00000000000E+00 0. -1.
         23    2    1    2    0    0  0.64574619408E+01  0.27755029254E+02  0.28809545520E+02  0.10195544250E+03  0.93556837691E+02 0.  0.
         23    2    1    2    0    0 -0.64574619408E+01 -0.27755029254E+02 -0.70684597546E+02  0.14648163931E+03  0.12509403607E+03 0.  0.
          5    1    4    4  502    0 -0.49832766923E+02  0.13810656686E+02  0.22125635240E+01  0.51926936503E+02  0.41800000000E+01 0. -1.
         -5    1    4    4    0  502  0.43375304982E+02 -0.41565685940E+02 -0.72897161070E+02  0.94554702802E+02  0.41800000000E+01 0. -1.
        -11    1    3    3    0    0 -0.36597378332E+02  0.27657344251E+02 -0.64256797325E+01  0.46320472275E+02  0.00000000000E+00 0. -1.
         11    1    3    3    0    0  0.43054840273E+02  0.97685003136E-01  0.35235225252E+02  0.55634970224E+02  0.00000000000E+00 0.  1.
</event>
<event>
 8    1  0.1790275E-005  0.1642522E+03  0.7561462E-02  0.1183978E+00
          1   -1    0    0  501    0  0.00000000000E+00  0.00000000000E+00  0.13325462695E+04  0.13325462695E+04  0.00000000000E+00 0. -1.
         -1   -1    0    0    0  501 -0.00000000000E+00 -0.00000000000E+00 -0.32034756412E+02  0.32034756412E+02  0.00000000000E+00 0.  1.
         23    2    1    2    0    0  0.93430941110E+02 -0.88242391879E+02  0.23601025624E+03  0.28507797763E+03  0.95144898962E+02 0.  0.
         23    2    1    2    0    0 -0.93430941110E+02  0.88242391879E+02  0.10645012568E+04  0.10795030483E+04  0.12509134636E+03 0.  0.
          5    1    4    4  502    0  0.15983425880E+02 -0.13066061262E+02  0.52518922127E+02  0.56585346523E+02  0.41800000000E+01 0.  1.
         -5    1    4    4    0  502 -0.10941436699E+03  0.10130845314E+03  0.10119823347E+04  0.10229177017E+04  0.41800000000E+01 0.  1.
        -11    1    3    3    0    0 -0.27638687771E+01 -0.57087846813E+02  0.10543212475E+03  0.11992745371E+03  0.00000000000E+00 0.  1.
         11    1    3    3    0    0  0.96194809887E+02 -0.31154545066E+02  0.13057813149E+03  0.16515052392E+03  0.00000000000E+00 0. -1.
</event>
<event>
 8    1  0.1790275E-005  0.1122047E+03  0.7561462E-02  0.1256541E+00
         -4   -1    0    0    0  501 -0.00000000000E+00  0.00000000000E+00  0.14334781253E+03  0.14334781253E+03  0.00000000000E+00 0. -1.
          4   -1    0    0  501    0  0.00000000000E+00 -0.00000000000E+00 -0.14652930201E+03  0.14652930201E+03  0.00000000000E+00 0.  1.
         23    2    1    2    0    0  0.75006150011E+02  0.53942495636E+02  0.24140179875E+02  0.13198296170E+03  0.91110035232E+02 0.  0.
         23    2    1    2    0    0 -0.75006150011E+02 -0.53942495636E+02 -0.27321669346E+02  0.15789415284E+03  0.12509346310E+03 0.  0.
          5    1    4    4  502    0 -0.20945734780E+02 -0.26214918215E+02  0.49446774111E+02  0.59903268797E+02  0.41800000000E+01 0.  1.
         -5    1    4    4    0  502 -0.54060415231E+02 -0.27727577421E+02 -0.76768443457E+02  0.97990884043E+02  0.41800000000E+01 0.  1.
        -11    1    3    3    0    0  0.17279447236E+02 -0.25921123894E+02  0.40654999564E+01  0.31416751115E+02  0.00000000000E+00 0.  1.
         11    1    3    3    0    0  0.57726702775E+02  0.79863619530E+02  0.20074679919E+02  0.10056621059E+03  0.00000000000E+00 0. -1.
</event>
<event>
 8    1  0.1790275E-005  0.1347773E+03  0.7561462E-02  0.1220534E+00
         -1   -1    0    0    0  501 -0.00000000000E+00  0.00000000000E+00  0.67347405140E+03  0.67347405140E+03  0.00000000000E+00 0.  1.
          1   -1    0    0  501    0  0.00000000000E+00 -0.00000000000E+00 -0.52765133317E+02  0.52765133317E+02  0.00000000000E+00 0. -1.
         23    2    1    2    0    0  0.85998636934E+02 -0.90441077426E+02  0.46974570014E+03  0.49383578486E+03  0.87392251213E+02 0.  0.
         23    2    1    2    0    0 -0.85998636934E+02  0.90441077426E+02  0.15096321795E+03  0.23240339985E+03  0.12508434375E+03 0.  0.
          5    1    4    4  502    0 -0.39953311159E+02  0.70487054903E+02  0.16170269589E+03  0.18091414052E+03  0.41800000000E+01 0. -1.
         -5    1    4    4    0  502 -0.46045325775E+02  0.19954022523E+02 -0.10739477943E+02  0.51489259337E+02  0.41800000000E+01 0. -1.
        -11    1    3    3    0    0  0.57841286500E+02 -0.93289900538E+02  0.43690675785E+03  0.45048433382E+03  0.00000000000E+00 0.  1.
         11    1    3    3    0    0  0.28157350433E+02  0.28488231122E+01  0.32838942292E+02  0.43351451041E+02  0.00000000000E+00 0. -1.
</event>
<event>
 8    1  0.1790275E-005  0.1442604E+03  0.7561462E-02  0.1207709E+00
         -3   -1    0    0    0  501 -0.00000000000E+00  0.00000000000E+00  0.27168842153E+03  0.27168842153E+03  0.00000000000E+00 0.  1.
          3   -1    0    0  501    0  0.00000000000E+00 -0.00000000000E+00 -0.96662909785E+02  0.96662909785E+02  0.00000000000E+00 0. -1.
         23    2    1    2    0    0  0.11990775039E+02 -0.11004783167E+03  0.13347984025E+03  0.19622496305E+03  0.91831717997E+02 0.  0.
         23    2    1    2    0    0 -0.11990775039E+02  0.11004783167E+03  0.41545671496E+02  0.17212636826E+03  0.12508852822E+03 0.  0.
          5    1    4    4  502    0  0.37733918147E+02  0.10864544635E+03  0.41095007296E+02  0.12220455645E+03  0.41800000000E+01 0.  1.
         -5    1    4    4    0  502 -0.49724693186E+02  0.14023853166E+01  0.45066419997E+00  0.49921811819E+02  0.41800000000E+01 0.  1.
        -11    1    3    3    0    0  0.33802957148E+02 -0.58934351492E+02  0.12175578811E+03  0.13942872600E+03  0.00000000000E+00 0.  1.
         11    1    3    3    0    0 -0.21812182109E+02 -0.51113480176E+02  0.11724052144E+02  0.56796237047E+02  0.00000000000E+00 0. -1.
</event>
<event>
 8    1  0.1790275E-005  0.1409647E+03  0.7561462E-02  0.1212037E+00
          1   -1    0    0  501    0  0.00000000000E+00  0.00000000000E+00  0.12162289829E+03  0.12162289829E+03  0.00000000000E+00 0. -1.
         -1   -1    0    0    0  501 -0.00000000000E+00 -0.00000000000E+00 -0.16456968223E+03  0.16456968223E+03  0.00000000000E+00 0.  1.
         23    2    1    2    0    0  0.71586593917E+02 -0.53966123864E+02 -0.29169598792E+02  0.13168484642E+03  0.91940471667E+02 0.  0.
         23    2    1    2    0    0 -0.71586593917E+02  0.53966123864E+02 -0.13777185150E+02  0.15450773410E+03  0.12508335666E+03 0.  0.
          5    1    4    4  502    0 -0.91732607995E+02  0.79246491456E+02 -0.10476090953E+02  0.12174604166E+03  0.41800000000E+01 0. -1.
         -5    1    4    4    0  502  0.20146014077E+02 -0.25280367592E+02 -0.33010941974E+01  0.32761692442E+02  0.41800000000E+01 0. -1.
        -11    1    3    3    0    0  0.52694868148E+02 -0.80047688479E+02 -0.17431324044E+02  0.97407559347E+02  0.00000000000E+00 0. -1.
         11    1    3    3    0    0  0.18891725769E+02  0.26081564615E+02 -0.11738274747E+02  0.34277287077E+02  0.00000000000E+00 0.  1.
</event>
<event>
 8    1  0.1790275E-005  0.1467616E+03  0.7561462E-02  0.1204510E+00
          1   -1    0    0  501    0  0.00000000000E+00  0.00000000000E+00  0.18269293620E+03  0.18269293620E+03  0.00000000000E+00 0. -1.
         -1   -1    0    0    0  501 -0.00000000000E+00 -0.00000000000E+00 -0.14422733890E+03  0.14422733890E+03  0.00000000000E+00 0.  1.
         23    2    1    2    0    0 -0.27863886168E+02 -0.11631050847E+03  0.40465440863E+01  0.15046587562E+03  0.91208961587E+02 0.  0.
         23    2    1    2    0    0  0.27863886168E+02  0.11631050847E+03  0.34419053207E+02  0.17645439948E+03  0.12508778254E+03 0.  0.
          5    1    4    4  502    0 -0.12152083730E+02  0.12773538320E+03  0.39507356036E+02  0.13432164696E+03  0.41800000000E+01 0. -1.
         -5    1    4    4    0  502  0.40015969898E+02 -0.11424874734E+02 -0.50883028286E+01  0.42132752524E+02  0.41800000000E+01 0. -1.
        -11    1    3    3    0    0 -0.13235236314E+01 -0.69463045597E+02  0.45036373275E+02  0.82795780908E+02  0.00000000000E+00 0. -1.
         11    1    3    3    0    0 -0.26540362536E+02 -0.46847462869E+02 -0.40989829189E+02  0.67670094708E+02  0.00000000000E+00 0.  1.
</event>
<event>
 8    1  0.1790275E-005  0.8926013E+02  0.7561462E-02  0.1304653E+00
         -2   -1    0    0    0  501 -0.00000000000E+00  0.00000000000E+00  0.93293461845E+02  0.93293461845E+02  0.00000000000E+00 0.  1.
          2   -1    0    0  501    0  0.00000000000E+00 -0.00000000000E+00 -0.13360658502E+03  0.13360658502E+03  0.00000000000E+00 0. -1.
         23    2    1    2    0    0 -0.21411295996E+02 -0.95095645472E+01 -0.32089556525E+02  0.99366755624E+02  0.91077643092E+02 0.  0.
         23    2    1    2    0    0  0.21411295996E+02  0.95095645472E+01 -0.82235666471E+01  0.12753329124E+03  0.12509291711E+03 0.  0.
          5    1    4    4  502    0  0.35092763036E+02  0.61501252708E+02 -0.16895161485E+02  0.72916561793E+02  0.41800000000E+01 0. -1.
         -5    1    4    4    0  502 -0.13681467040E+02 -0.51991688160E+02  0.86715948380E+01  0.54616729444E+02  0.41800000000E+01 0. -1.
        -11    1    3    3    0    0  0.15195606539E+02  0.19152439459E+01 -0.53359948243E+02  0.55514490846E+02  0.00000000000E+00 0. -1.
         11    1    3    3    0    0 -0.36606902535E+02 -0.11424808493E+02  0.21270391718E+02  0.43852264778E+02  0.00000000000E+00 0.  1.
</event>
<event>
 8    1  0.1790275E-005  0.1675113E+03  0.7561462E-02  0.1180468E+00
          1   -1    0    0  501    0  0.00000000000E+00  0.00000000000E+00  0.15260215082E+04  0.15260215082E+04  0.00000000000E+00 0. -1.
         -1   -1    0    0    0  501 -0.00000000000E+00 -0.00000000000E+00 -0.19698636036E+02  0.19698636036E+02  0.00000000000E+00 0.  1.
         23    2    1    2    0    0  0.12716795598E+03 -0.20904908865E+02  0.53111846384E+03  0.55411571013E+03  0.91371184378E+02 0.  0.
         23    2    1    2    0    0 -0.12716795598E+03  0.20904908865E+02  0.97520440834E+03  0.99160443413E+03  0.12508801496E+03 0.  0.
          5    1    4    4  502    0 -0.81451174389E+01  0.54034173536E+02  0.35432850312E+03  0.35854176238E+03  0.41800000000E+01 0.  1.
         -5    1    4    4    0  502 -0.11902283854E+03 -0.33129264671E+02  0.62087590522E+03  0.63306267174E+03  0.41800000000E+01 0.  1.
        -11    1    3    3    0    0  0.53399425593E+02  0.35167963724E+02  0.25361950818E+03  0.26155523175E+03  0.00000000000E+00 0. -1.
         11    1    3    3    0    0  0.73768530389E+02 -0.56072872589E+02  0.27749895566E+03  0.29256047838E+03  0.00000000000E+00 0.  1.
</event>
<event>
 8    1  0.1790275E-005  0.5759112E+02  0.7561462E-02  0.1408228E+00
         -2   -1    0    0    0  501 -0.00000000000E+00  0.00000000000E+00  0.12272220777E+03  0.12272220777E+03  0.00000000000E+00 0.  1.
          2   -1    0    0  501    0  0.00000000000E+00 -0.00000000000E+00 -0.11251187339E+03  0.11251187339E+03  0.00000000000E+00 0. -1.
         23    2    1    2    0    0  0.25241694454E+02 -0.28190882842E+02  0.30232355429E+02  0.10302023161E+03  0.90924714963E+02 0.  0.
         23    2    1    2    0    0 -0.25241694454E+02  0.28190882842E+02 -0.20022021047E+02  0.13221384956E+03  0.12509097359E+03 0.  0.
          5    1    4    4  502    0 -0.63292431157E+01  0.95765317790E+01  0.53009177354E+02  0.54398663247E+02  0.41800000000E+01 0.  1.
         -5    1    4    4    0  502 -0.18912451338E+02  0.18614351063E+02 -0.73031198400E+02  0.77815186313E+02  0.41800000000E+01 0.  1.
        -11    1    3    3    0    0 -0.17026757225E+02  0.94758986569E+01  0.40994590297E+02  0.45390082073E+02  0.00000000000E+00 0.  1.
         11    1    3    3    0    0  0.42268451678E+02 -0.37666781499E+02 -0.10762234869E+02  0.57630149533E+02  0.00000000000E+00 0. -1.
</event>
<event>
 8    1  0.1790275E-005  0.1179362E+03  0.7561462E-02  0.1246541E+00
         -1   -1    0    0    0  501 -0.00000000000E+00  0.00000000000E+00  0.82778927566E+01  0.82778927566E+01  0.00000000000E+00 0.  1.
          1   -1    0    0  501    0  0.00000000000E+00 -0.00000000000E+00 -0.18364183924E+04  0.18364183924E+04  0.00000000000E+00 0. -1.
         23    2    1    2    0    0  0.88726037606E+01  0.47482121267E+02 -0.55641474587E+03  0.56592057661E+03  0.91298711241E+02 0.  0.
         23    2    1    2    0    0 -0.88726037606E+01 -0.47482121267E+02 -0.12717257538E+04  0.12787757086E+04  0.12509054727E+03 0.  0.
          5    1    4    4  502    0  0.39861234909E+02 -0.69380720146E+02 -0.80826485161E+03  0.81222665871E+03  0.41800000000E+01 0. -1.
         -5    1    4    4    0  502 -0.48733838669E+02  0.21898598878E+02 -0.46346090222E+03  0.46654904988E+03  0.41800000000E+01 0. -1.
        -11    1    3    3    0    0 -0.22474415476E+02 -0.18497922130E+02 -0.12331900890E+03  0.12670773627E+03  0.00000000000E+00 0. -1.
         11    1    3    3    0    0  0.31347019237E+02  0.65980043397E+02 -0.43309573697E+03  0.43921284034E+03  0.00000000000E+00 0.  1.
</event>
<event>
 7    1  0.1790275E-005  0.1010134E+03  0.7561462E-02  0.1278179E+00
          1   -1    0    0  501    0  0.00000000000E+00  0.00000000000E+00  0.34509213489E+02  0.34509213489E+02  0.00000000000E+00 0. -1.
         -1   -1    0    0    0  501 -0.00000000000E+00 -0.00000000000E+00 -0.49949336195E+03  0.49949336195E+03  0.00000000000E+00 0.  1.
         23    2    1    2    0    0  0.13308963059E+02 -0.45075412274E+02 -0.15821220328E+03  0.18862985179E+03  0.91330161673E+02 0.  0.
          5    1    1    2  502    0 -0.27163271086E+02  0.82951842876E+02 -0.28748440492E+03  0.30047230655E+03  0.41800000000E+01 0. -1.
         -5    1    1    2    0  502  0.13854308027E+02 -0.37876430601E+02 -0.19287540262E+02  0.44900417095E+02  0.41800000000E+01 0.  1.
        -11    1    3    3    0    0 -0.17043371101E+01 -0.55684417027E+02 -0.16069637462E+03  0.17007934584E+03  0.00000000000E+00 0.  1.
         11    1    3    3    0    0  0.15013300169E+02  0.10609004752E+02  0.24841713437E+01  0.18550505952E+02  0.00000000000E+00 0. -1.
</event>
<event>
 8    1  0.1790275E-005  0.1166663E+03  0.7561462E-02  0.1248700E+00
         -2   -1    0    0    0  501 -0.00000000000E+00  0.00000000000E+00  0.57874332303E+02  0.57874332303E+02  0.00000000000E+00 0.  1.
          2   -1    0    0  501    0  0.00000000000E+00 -0.00000000000E+00 -0.28226444972E+03  0.28226444972E+03  0.00000000000E+00 0. -1.
         23    2    1    2    0    0 -0.23743139263E+02 -0.47074207904E+02 -0.45455604113E+02  0.11553997954E+03  0.92214734267E+02 0.  0.
         23    2    1    2    0    0  0.23743139263E+02  0.47074207904E+02 -0.17893451330E+03  0.22459880248E+03  0.12508934531E+03 0.  0.
          5    1    4    4  502    0 -0.49956083624E+02  0.64497041466E+01 -0.80211871603E+02  0.94808363137E+02  0.41800000000E+01 0. -1.
         -5    1    4    4    0  502  0.73699222888E+02  0.40624503757E+02 -0.98722641700E+02  0.12979043934E+03  0.41800000000E+01 0. -1.
        -11    1    3    3    0    0  0.38254555302E+01  0.22954437571E+02  0.64119553214E+01  0.24138216281E+02  0.00000000000E+00 0. -1.
         11    1    3    3    0    0 -0.27568594794E+02 -0.70028645475E+02 -0.51867559435E+02  0.91401763263E+02  0.00000000000E+00 0.  1.
</event>
<event>
 8    1  0.1790275E-005  0.1155300E+03  0.7561462E-02  0.1250659E+00
          3   -1    0    0  501    0  0.00000000000E+00  0.00000000000E+00  0.37167352673E+02  0.37167352673E+02  0.00000000000E+00 0. -1.
         -3   -1    0    0    0  501 -0.00000000000E+00 -0.00000000000E+00 -0.55758291597E+03  0.55758291597E+03  0.00000000000E+00 0.  1.
         23    2    1    2    0    0  0.32409133494E+02 -0.78944162877E+02 -0.32279711586E+03  0.34578784422E+03  0.89937324937E+02 0.  0.
         23    2    1    2    0    0 -0.32409133494E+02  0.78944162877E+02 -0.19761844743E+03  0.24896242442E+03  0.12508679075E+03 0.  0.
          5    1    4    4  502    0 -0.37192633181E+02  0.99247455198E+02 -0.20114462621E+03  0.22739829019E+03  0.41800000000E+01 0.  1.
         -5    1    4    4    0  502  0.47834996875E+01 -0.20303292321E+02  0.35261787805E+01  0.21564134231E+02  0.41800000000E+01 0.  1.
        -11    1    3    3    0    0  0.47164288619E+02 -0.39221386611E+02 -0.88442119839E+02  0.10763268951E+03  0.00000000000E+00 0. -1.
         11    1    3    3    0    0 -0.14755155125E+02 -0.39722776266E+02 -0.23435499602E+03  0.23815515471E+03  0.00000000000E+00 0.  1.
</event>
<event>
 8    1  0.1790275E-005  0.9918425E+02  0.7561462E-02  0.1282021E+00
          1   -1    0    0  501    0  0.00000000000E+00  0.00000000000E+00  0.17630236349E+03  0.17630236349E+03  0.00000000000E+00 0. -1.
         -1   -1    0    0    0  501 -0.00000000000E+00 -0.00000000000E+00 -0.95195269187E+02  0.95195269187E+02  0.00000000000E+00 0.  1.
         23    2    1    2    0    0 -0.67732013335E+00 -0.30845878605E+02 -0.37148761743E+02  0.96618643445E+02  0.83685152642E+02 0.  0.
         23    2    1    2    0    0  0.67732013335E+00  0.30845878605E+02  0.11825585604E+03  0.17487898923E+03  0.12508511660E+03 0.  0.
          5    1    4    4  502    0 -0.26884781965E+02  0.62587630747E+02  0.11340459226E+03  0.13235587244E+03  0.41800000000E+01 0. -1.
         -5    1    4    4    0  502  0.27562102098E+02 -0.31741752142E+02  0.48512637838E+01  0.42523116789E+02  0.41800000000E+01 0. -1.
        -11    1    3    3    0    0  0.24331623221E+02  0.19815291346E+02 -0.54923651129E+01  0.31856549315E+02  0.00000000000E+00 0. -1.
         11    1    3    3    0    0 -0.25008943354E+02 -0.50661169951E+02 -0.31656396631E+02  0.64762094130E+02  0.00000000000E+00 0.  1.
</event>
<event>
 8    1  0.1790275E-005  0.2178965E+03  0.7561462E-02  0.1135461E+00
         -1   -1    0    0    0  501 -0.00000000000E+00  0.00000000000E+00  0.41879767753E+03  0.41879767753E+03  0.00000000000E+00 0.  1.
          1   -1    0    0  501    0  0.00000000000E+00 -0.00000000000E+00 -0.13189630744E+03  0.13189630744E+03  0.00000000000E+00 0. -1.
         23    2    1    2    0    0  0.15163447976E+03 -0.13042679637E+03  0.20715951324E+03  0.30167298320E+03  0.89929751464E+02 0.  0.
         23    2    1    2    0    0 -0.15163447976E+03  0.13042679637E+03  0.79741856852E+02  0.24902100178E+03  0.12509408829E+03 0.  0.
          5    1    4    4  502    0 -0.31289332721E+02  0.10882088149E+03  0.44191706758E+02  0.12161984187E+03  0.41800000000E+01 0.  1.
         -5    1    4    4    0  502 -0.12034514704E+03  0.21605914888E+02  0.35550150094E+02  0.12740115991E+03  0.41800000000E+01 0.  1.
        -11    1    3    3    0    0  0.12865393821E+03 -0.10707537850E+03  0.11294538094E+03  0.20192481663E+03  0.00000000000E+00 0. -1.
         11    1    3    3    0    0  0.22980541554E+02 -0.23351417880E+02  0.94214132307E+02  0.99748166567E+02  0.00000000000E+00 0.  1.
</event>
<event>
 8    1  0.1790275E-005  0.1079075E+03  0.7561462E-02  0.1264495E+00
          2   -1    0    0  501    0  0.00000000000E+00  0.00000000000E+00  0.53509272240E+02  0.53509272240E+02  0.00000000000E+00 0.  1.
         -2   -1    0    0    0  501 -0.00000000000E+00 -0.00000000000E+00 -0.29483577797E+03  0.29483577797E+03  0.00000000000E+00 0. -1.
         23    2    1    2    0    0 -0.61115173091E+02  0.13820455915E+02 -0.11577117218E+03  0.16033890768E+03  0.91539781658E+02 0.  0.
         23    2    1    2    0    0  0.61115173091E+02 -0.13820455915E+02 -0.12555533355E+03  0.18800614253E+03  0.12512433201E+03 0.  0.
          5    1    4    4  502    0  0.26134212917E+02  0.50750093939E+02 -0.22740714612E+02  0.61588810840E+02  0.41800000000E+01 0.  1.
         -5    1    4    4    0  502  0.34980960174E+02 -0.64570549854E+02 -0.10281461894E+03  0.12641733169E+03  0.41800000000E+01 0.  1.
        -11    1    3    3    0    0 -0.57952939171E+02 -0.11854705558E+02 -0.12031843625E+03  0.13407312670E+03  0.00000000000E+00 0. -1.
         11    1    3    3    0    0 -0.31622339196E+01  0.25675161473E+02  0.45472640700E+01  0.26265780981E+02  0.00000000000E+00 0.  1.
</event>
<event>
 8    1  0.1790275E-005  0.1295612E+03  0.7561462E-02  0.1228108E+00
         -2   -1    0    0    0  501 -0.00000000000E+00  0.00000000000E+00  0.16094339786E+02  0.16094339786E+02  0.00000000000E+00 0. -1.
          2   -1    0    0  501    0  0.00000000000E+00 -0.00000000000E+00 -0.13148196427E+04  0.13148196427E+04  0.00000000000E+00 0.  1.
         23    2    1    2    0    0 -0.39347001057E+02  0.75977260575E+02 -0.43405307053E+03  0.45306056608E+03  0.97678441233E+02 0.  0.
         23    2    1    2    0    0  0.39347001057E+02 -0.75977260575E+02 -0.86467223242E+03  0.87785341644E+03  0.12509124921E+03 0.  0.
          5    1    4    4  502    0  0.48827994848E+02  0.16883775474E+02 -0.19830667589E+03  0.20496888803E+03  0.41800000000E+01 0.  1.
         -5    1    4    4    0  502 -0.94809937911E+01 -0.92861036049E+02 -0.66636555653E+03  0.67288452842E+03  0.41800000000E+01 0.  1.
        -11    1    3    3    0    0  0.21103460408E+02  0.72318982097E+01 -0.23408272391E+02  0.32335794551E+02  0.00000000000E+00 0.  1.
         11    1    3    3    0    0 -0.60450461465E+02  0.68745362365E+02 -0.41064479814E+03  0.42072477153E+03  0.00000000000E+00 0. -1.
</event>
<event>
 8    1  0.1790275E-005  0.8994673E+02  0.7561462E-02  0.1302981E+00
         -2   -1    0    0    0  501 -0.00000000000E+00  0.00000000000E+00  0.32156656897E+02  0.32156656897E+02  0.00000000000E+00 0. -1.
          2   -1    0    0  501    0  0.00000000000E+00 -0.00000000000E+00 -0.54506653151E+03  0.54506653151E+03  0.00000000000E+00 0.  1.
         23    2    1    2    0    0 -0.45556778980E+02 -0.28858037717E+02 -0.90545020894E+02  0.13343562189E+03  0.81844107473E+02 0.  0.
         23    2    1    2    0    0  0.45556778980E+02  0.28858037717E+02 -0.42236485372E+03  0.44378756652E+03  0.12508848104E+03 0.  0.
          5    1    4    4  502    0  0.10056917889E+02 -0.22577734979E+02 -0.10484236374E+02  0.27171443218E+02  0.41800000000E+01 0. -1.
         -5    1    4    4    0  502  0.35499861091E+02  0.51435772696E+02 -0.41188061735E+03  0.41661612330E+03  0.41800000000E+01 0. -1.
        -11    1    3    3    0    0  0.46373893378E+01 -0.40416547145E+02 -0.63086152536E+02  0.75065739887E+02  0.00000000000E+00 0.  1.
         11    1    3    3    0    0 -0.50194168318E+02  0.11558509428E+02 -0.27458868358E+02  0.58369882001E+02  0.00000000000E+00 0. -1.
</event>
<event>
 8    1  0.1790275E-005  0.9489465E+02  0.7561462E-02  0.1291414E+00
          1   -1    0    0  501    0  0.00000000000E+00  0.00000000000E+00  0.83244570351E+03  0.83244570351E+03  0.00000000000E+00 0. -1.
         -1   -1    0    0    0  501 -0.00000000000E+00 -0.00000000000E+00 -0.22196218582E+02  0.22196218582E+02  0.00000000000E+00 0.  1.
         23    2    1    2    0    0  0.55601960812E+02 -0.32187577743E+02  0.19985239222E+03  0.22825640960E+03  0.89623610945E+02 0.  0.
         23    2    1    2    0    0 -0.55601960812E+02  0.32187577743E+02  0.61039709270E+03  0.62638551249E+03  0.12508629530E+03 0.  0.
          5    1    4    4  502    0 -0.53571686186E+02 -0.13223454751E+02  0.53773227118E+03  0.54057215354E+03  0.41800000000E+01 0.  1.
         -5    1    4    4    0  502 -0.20302746263E+01  0.45411032494E+02  0.72664821522E+02  0.85813358949E+02  0.41800000000E+01 0.  1.
        -11    1    3    3    0    0  0.11272011481E+02 -0.41927349773E+02  0.16613834986E+03  0.17171753608E+03  0.00000000000E+00 0. -1.
         11    1    3    3    0    0  0.44329949331E+02  0.97397720303E+01  0.33714042365E+02  0.56538873525E+02  0.00000000000E+00 0.  1.
</event>
<event>
 8    1  0.1790275E-005  0.1269520E+03  0.7561462E-02  0.1232050E+00
         -3   -1    0    0    0  501 -0.00000000000E+00  0.00000000000E+00  0.21833139585E+03  0.21833139585E+03  0.00000000000E+00 0.  1.
          3   -1    0    0  501    0  0.00000000000E+00 -0.00000000000E+00 -0.90420252258E+02  0.90420252258E+02  0.00000000000E+00 0. -1.
         23    2    1    2    0    0  0.67022964860E+02  0.46970265346E+02  0.95645374273E+02  0.15583120341E+03  0.91853376037E+02 0.  0.
         23    2    1    2    0    0 -0.67022964860E+02 -0.46970265346E+02  0.32265769321E+02  0.15292044470E+03  0.12508116922E+03 0.  0.
          5    1    4    4  502    0 -0.36570440643E+02 -0.78599158525E+02 -0.15216283725E+02  0.88114882625E+02  0.41800000000E+01 0. -1.
         -5    1    4    4    0  502 -0.30452524218E+02  0.31628893179E+02  0.47482053047E+02  0.64805562080E+02  0.41800000000E+01 0. -1.
        -11    1    3    3    0    0  0.16085539435E+02  0.66528153269E+02  0.54522120856E+02  0.87506579289E+02  0.00000000000E+00 0.  1.
         11    1    3    3    0    0  0.50937425425E+02 -0.19557887923E+02  0.41123253418E+02  0.68324624116E+02  0.00000000000E+00 0. -1.
</event>
<event>
 8    1  0.1790275E-005  0.1478465E+03  0.7561462E-02  0.1203144E+00
         -2   -1    0    0    0  501 -0.00000000000E+00  0.00000000000E+00  0.85189724520E+02  0.85189724520E+02  0.00000000000E+00 0.  1.
          2   -1    0    0  501    0  0.00000000000E+00 -0.00000000000E+00 -0.25919971364E+03  0.25919971364E+03  0.00000000000E+00 0. -1.
         23    2    1    2    0    0 -0.48409029541E+02  0.88195730617E+02 -0.92331519095E+02  0.16427554814E+03  0.91320453667E+02 0.  0.
         23    2    1    2    0    0  0.48409029541E+02 -0.88195730617E+02 -0.81678470025E+02  0.18011389002E+03  0.12509084648E+03 0.  0.
          5    1    4    4  502    0  0.19008798919E+02 -0.11702114085E+03 -0.66747143391E+02  0.13611735890E+03  0.41800000000E+01 0. -1.
         -5    1    4    4    0  502  0.29400230622E+02  0.28825410235E+02 -0.14931326634E+02  0.43996531124E+02  0.41800000000E+01 0. -1.
        -11    1    3    3    0    0  0.72596542109E-01  0.87186915278E+02 -0.63494757883E+02  0.10785707091E+03  0.00000000000E+00 0.  1.
         11    1    3    3    0    0 -0.48481626083E+02  0.10088153391E+01 -0.28836761212E+02  0.56418477233E+02  0.00000000000E+00 0. -1.
</event>
<event>
 8    1  0.1790275E-005  0.7407980E+02  0.7561462E-02  0.1346745E+00
         -1   -1    0    0    0  501 -0.00000000000E+00  0.00000000000E+00  0.11158598226E+02  0.11158598226E+02  0.00000000000E+00 0.  1.
          1   -1    0    0  501    0  0.00000000000E+00 -0.00000000000E+00 -0.14602957298E+04  0.14602957298E+04  0.00000000000E+00 0. -1.
         23    2    1    2    0    0 -0.12094875261E+02 -0.48674877926E+02 -0.22586185464E+03  0.24077693406E+03  0.66666519699E+02 0.  0.
         23    2    1    2    0    0  0.12094875261E+02  0.48674877926E+02 -0.12232752769E+04  0.12306773939E+04  0.12509562380E+03 0.  0.
          5    1    4    4  502    0  0.24362257689E+02  0.70925765729E+01 -0.46829555971E+02  0.53425686281E+02  0.41800000000E+01 0.  1.
         -5    1    4    4    0  502 -0.12267382427E+02  0.41582301353E+02 -0.11764457209E+04  0.11772517076E+04  0.41800000000E+01 0.  1.
        -11    1    3    3    0    0 -0.23866652510E+02  0.46196661347E+01 -0.37690941892E+02  0.44850479573E+02  0.00000000000E+00 0.  1.
         11    1    3    3    0    0  0.11771777249E+02 -0.53294544061E+02 -0.18817091274E+03  0.19592645449E+03  0.00000000000E+00 0. -1.
</event>
<event>
 8    1  0.1790275E-005  0.1362774E+03  0.7561462E-02  0.1218428E+00
         -1   -1    0    0    0  501 -0.00000000000E+00  0.00000000000E+00  0.27732303798E+02  0.27732303798E+02  0.00000000000E+00 0.  1.
          1   -1    0    0  501    0  0.00000000000E+00 -0.00000000000E+00 -0.87271053476E+03  0.87271053476E+03  0.00000000000E+00 0. -1.
         23    2    1    2    0    0 -0.73850290227E+02  0.90612968266E+02 -0.26232073762E+03  0.29315210228E+03  0.58833751363E+02 0.  0.
         23    2    1    2    0    0  0.73850290227E+02 -0.90612968266E+02 -0.58265749335E+03  0.60729073629E+03  0.12509080078E+03 0.  0.
          5    1    4    4  502    0  0.77424482805E+02 -0.19706306517E+02 -0.44718441864E+03  0.45428434457E+03  0.41800000000E+01 0.  1.
         -5    1    4    4    0  502 -0.35741925781E+01 -0.70906661749E+02 -0.13547307471E+03  0.15300639171E+03  0.41800000000E+01 0.  1.
        -11    1    3    3    0    0 -0.35747681257E+02  0.68788702220E+02 -0.21522876674E+03  0.22876451714E+03  0.00000000000E+00 0. -1.
         11    1    3    3    0    0 -0.38102608970E+02  0.21824266046E+02 -0.47091970877E+02  0.64387585138E+02  0.00000000000E+00 0.  1.
</event>
<event>
 8    1  0.1790275E-005  0.1104199E+03  0.7561462E-02  0.1259794E+00
          1   -1    0    0  501    0  0.00000000000E+00  0.00000000000E+00  0.36617923884E+03  0.36617923884E+03  0.00000000000E+00 0. -1.
         -1   -1    0    0    0  501 -0.00000000000E+00 -0.00000000000E+00 -0.38552823984E+02  0.38552823984E+02  0.00000000000E+00 0.  1.
         23    2    1    2    0    0 -0.12298347976E+02 -0.18578395643E+02  0.76898329446E+02  0.12367112129E+03  0.94259148217E+02 0.  0.
         23    2    1    2    0    0  0.12298347976E+02  0.18578395643E+02  0.25072808541E+03  0.28106094153E+03  0.12503709007E+03 0.  0.
          5    1    4    4  502    0 -0.37674511694E+02 -0.36422701463E+02  0.10226425220E+03  0.11498448457E+03  0.41800000000E+01 0. -1.
         -5    1    4    4    0  502  0.49972859670E+02  0.55001097105E+02  0.14846383321E+03  0.16607645696E+03  0.41800000000E+01 0. -1.
        -11    1    3    3    0    0  0.39564119082E+02 -0.13163606618E+02  0.19210213551E+02  0.45908957324E+02  0.00000000000E+00 0.  1.
         11    1    3    3    0    0 -0.51862467058E+02 -0.54147890248E+01  0.57688115895E+02  0.77762163969E+02  0.00000000000E+00 0. -1.
</event>
<event>
 8    1  0.1790275E-005  0.9421349E+02  0.7561462E-02  0.1292957E+00
          2   -1    0    0  501    0  0.00000000000E+00  0.00000000000E+00  0.22724599646E+03  0.22724599646E+03  0.00000000000E+00 0. -1.
         -2   -1    0    0    0  501 -0.00000000000E+00 -0.00000000000E+00 -0.71795473063E+02  0.71795473063E+02  0.00000000000E+00 0.  1.
         23    2    1    2    0    0  0.57221190228E+02 -0.25243985020E+02  0.40554973836E+02  0.11804312652E+03  0.91531144557E+02 0.  0.
         23    2    1    2    0    0 -0.57221190228E+02  0.25243985020E+02  0.11489554956E+03  0.18099834301E+03  0.12509152438E+03 0.  0.
          5    1    4    4  502    0 -0.65160631510E+02  0.24981200242E+02  0.43034649368E+01  0.70042561881E+02  0.41800000000E+01 0.  1.
         -5    1    4    4    0  502  0.79394412822E+01  0.26278477780E+00  0.11059208463E+03  0.11095578113E+03  0.41800000000E+01 0.  1.
        -11    1    3    3    0    0 -0.17155108325E+02 -0.30484073265E+02  0.46489071402E+01  0.35287232848E+02  0.00000000000E+00 0.  1.
         11    1    3    3    0    0  0.74376298553E+02  0.52400882452E+01  0.35906066696E+02  0.82755893668E+02  0.00000000000E+00 0. -1.
</event>
<event>
 8    1  0.1790275E-005  0.1200426E+03  0.7561462E-02  0.1243027E+00
         -1   -1    0    0    0  501 -0.00000000000E+00  0.00000000000E+00  0.49129465998E+02  0.49129465998E+02  0.00000000000E+00 0.  1.
          1   -1    0    0  501    0  0.00000000000E+00 -0.00000000000E+00 -0.45395748776E+03  0.45395748776E+03  0.00000000000E+00 0. -1.
         23    2    1    2    0    0 -0.77488417102E+02  0.57446070825E+02 -0.12951927701E+03  0.18567929281E+03  0.91635423409E+02 0.  0.
         23    2    1    2    0    0  0.77488417102E+02 -0.57446070825E+02 -0.27530874474E+03  0.31740766094E+03  0.12509281535E+03 0.  0.
          5    1    4    4  502    0  0.58257660931E+02 -0.83639707849E+02 -0.11474953107E+03  0.15353984195E+03  0.41800000000E+01 0.  1.
         -5    1    4    4    0  502  0.19230756171E+02  0.26193637025E+02 -0.16055921368E+03  0.16386781899E+03  0.41800000000E+01 0.  1.
        -11    1    3    3    0    0 -0.88757607411E+01 -0.69006728044E+01  0.11554142412E+02  0.16121309524E+02  0.00000000000E+00 0.  1.
         11    1    3    3    0    0 -0.68612656361E+02  0.64346743629E+02 -0.14107341943E+03  0.16955798329E+03  0.00000000000E+00 0. -1.
</event>
<event>
 8    1  0.1790275E-005  0.1084587E+03  0.7561462E-02  0.1263451E+00
          1   -1    0    0  501    0  0.00000000000E+00  0.00000000000E+00  0.21890178673E+03  0.21890178673E+03  0.00000000000E+00 0. -1.
         -1   -1    0    0    0  501 -0.00000000000E+00 -0.00000000000E+00 -0.96285825799E+02  0.96285825799E+02  0.00000000000E+00 0.  1.
         23    2    1    2    0    0  0.77866471341E+02 -0.26759494342E+02 -0.55808789824E+01  0.11799462977E+03  0.84334622472E+02 0.  0.
         23    2    1    2    0    0 -0.77866471341E+02  0.26759494342E+02  0.12819683991E+03  0.19719298276E+03  0.12518540166E+03 0.  0.
          5    1    4    4  502    0 -0.60539910609E+02 -0.74786841750E+01 -0.22204097400E+01  0.61183446396E+02  0.41800000000E+01 0. -1.
         -5    1    4    4    0  502 -0.17326560732E+02  0.34238178517E+02  0.13041724965E+03  0.13600953636E+03  0.41800000000E+01 0. -1.
        -11    1    3    3    0    0  0.76246690704E+02  0.13030087285E+02 -0.97076702311E+01  0.77958834517E+02  0.00000000000E+00 0.  1.
         11    1    3    3    0    0  0.16197806370E+01 -0.39789581628E+02  0.41267912487E+01  0.40035795251E+02  0.00000000000E+00 0. -1.
</event>
<event>
 8    1  0.1790275E-005  0.9529968E+02  0.7561462E-02  0.1290503E+00
          1   -1    0    0  501    0  0.00000000000E+00  0.00000000000E+00  0.10181148782E+03  0.10181148782E+03  0.00000000000E+00 0. -1.
         -1   -1    0    0    0  501 -0.00000000000E+00 -0.00000000000E+00 -0.13794730989E+03  0.13794730989E+03  0.00000000000E+00 0.  1.
         23    2    1    2    0    0 -0.15786169050E+02  0.60158441591E+02 -0.91713412664E+01  0.10891343533E+03  0.88936953328E+02 0.  0.
         23    2    1    2    0    0  0.15786169050E+02 -0.60158441591E+02 -0.26964480809E+02  0.13084536238E+03  0.11191597027E+03 0.  0.
          5    1    4    4  502    0  0.52173786031E+02 -0.13294131598E+02  0.17296016283E+02  0.56705047950E+02  0.41800000000E+01 0. -1.
         -5    1    4    4    0  502 -0.36387616980E+02 -0.46864309993E+02 -0.44260497092E+02  0.74140314428E+02  0.41800000000E+01 0.  1.
        -11    1    3    3    0    0  0.15428526958E+02  0.11242357756E+02 -0.39182078330E+02  0.43585150158E+02  0.00000000000E+00 0.  1.
         11    1    3    3    0    0 -0.31214696009E+02  0.48916083835E+02  0.30010737064E+02  0.65328285174E+02  0.00000000000E+00 0. -1.
</event>
<event>
 8    1  0.1790275E-005  0.1190862E+03  0.7561462E-02  0.1244612E+00
         -1   -1    0    0    0  501 -0.00000000000E+00  0.00000000000E+00  0.26972412936E+02  0.26972412936E+02  0.00000000000E+00 0.  1.
          1   -1    0    0  501    0  0.00000000000E+00 -0.00000000000E+00 -0.59168313581E+03  0.59168313581E+03  0.00000000000E+00 0. -1.
         23    2    1    2    0    0  0.14283867691E+02  0.54928013684E+02 -0.17740268157E+03  0.20756945057E+03  0.91609223434E+02 0.  0.
         23    2    1    2    0    0 -0.14283867691E+02 -0.54928013684E+02 -0.38730804131E+03  0.41108609818E+03  0.12555136675E+03 0.  0.
          5    1    4    4  502    0 -0.55190861580E+00 -0.93962431747E+02 -0.23291343554E+03  0.25118794564E+03  0.41800000000E+01 0. -1.
         -5    1    4    4    0  502 -0.13731959075E+02  0.39034418063E+02 -0.15439460577E+03  0.15989815254E+03  0.41800000000E+01 0. -1.
        -11    1    3    3    0    0  0.49926609512E+02  0.39609047757E+02 -0.77126396637E+02  0.10005010774E+03  0.00000000000E+00 0.  1.
         11    1    3    3    0    0 -0.35642741821E+02  0.15318965927E+02 -0.10027628493E+03  0.10751934282E+03  0.00000000000E+00 0. -1.
</event>
<event>
 8    1  0.1790275E-005  0.1266326E+03  0.7561462E-02  0.1232540E+00
          1   -1    0    0  501    0  0.00000000000E+00  0.00000000000E+00  0.15543646902E+03  0.15543646902E+03  0.00000000000E+00 0. -1.
         -1   -1    0    0    0  501 -0.00000000000E+00 -0.00000000000E+00 -0.16603955871E+03  0.16603955871E+03  0.00000000000E+00 0.  1.
         23    2    1    2    0    0  0.46198247982E+02  0.10029135837E+03 -0.47446732428E+02  0.15060274938E+03  0.90759908673E+02 0.  0.
         23    2    1    2    0    0 -0.46198247982E+02 -0.10029135837E+03  0.36843642738E+02  0.17087327836E+03  0.12509032163E+03 0.  0.
          5    1    4    4  502    0 -0.24841668592E+02 -0.46377896537E+02  0.81821462359E+02  0.97366533717E+02  0.41800000000E+01 0. -1.
         -5    1    4    4    0  502 -0.21356579390E+02 -0.53913461832E+02 -0.44977819621E+02  0.73506744641E+02  0.41800000000E+01 0. -1.
        -11    1    3    3    0    0 -0.29149732037E+01 -0.15919792010E+02 -0.98949765245E+01  0.18969644352E+02  0.00000000000E+00 0.  1.
         11    1    3    3    0    0  0.49113221186E+02  0.11621115038E+03 -0.37551755903E+02  0.13163310503E+03  0.00000000000E+00 0. -1.
</event>
<event>
 7    1  0.1790275E-005  0.3590594E+03  0.7561462E-02  0.1058957E+00
         -2   -1    0    0    0  501 -0.00000000000E+00  0.00000000000E+00  0.17165577437E+03  0.17165577437E+03  0.00000000000E+00 0.  1.
          2   -1    0    0  501    0  0.00000000000E+00 -0.00000000000E+00 -0.97832822886E+03  0.97832822886E+03  0.00000000000E+00 0. -1.
         23    2    1    2    0    0  0.13695764032E+02  0.14531838389E+02 -0.19092880682E+02  0.95726079199E+02  0.91652582434E+02 0.  0.
          5    1    1    2  502    0 -0.26522844730E+03 -0.19065346619E+03 -0.62869656799E+03  0.70849962627E+03  0.41800000000E+01 0. -1.
         -5    1    1    2    0  502  0.25153268326E+03  0.17612162780E+03 -0.15888300581E+03  0.34575829776E+03  0.41800000000E+01 0.  1.
        -11    1    3    3    0    0  0.46565382513E+02 -0.38052513591E+01 -0.31208884296E+02  0.56185489635E+02  0.00000000000E+00 0. -1.
         11    1    3    3    0    0 -0.32869618481E+02  0.18337089748E+02  0.12116003614E+02  0.39540589564E+02  0.00000000000E+00 0.  1.
</event>
<event>
 8    1  0.1790275E-005  0.1237017E+03  0.7561462E-02  0.1237112E+00
          2   -1    0    0  501    0  0.00000000000E+00  0.00000000000E+00  0.57954452068E+03  0.57954452068E+03  0.00000000000E+00 0.  1.
         -2   -1    0    0    0  501 -0.00000000000E+00 -0.00000000000E+00 -0.38173807947E+02  0.38173807947E+02  0.00000000000E+00 0. -1.
         23    2    1    2    0    0  0.88641299654E+02 -0.39301417162E+02  0.18102459483E+03  0.22414532768E+03  0.89829519593E+02 0.  0.
         23    2    1    2    0    0 -0.88641299654E+02  0.39301417162E+02  0.36034611790E+03  0.39357300095E+03  0.12509396866E+03 0.  0.
          5    1    4    4  502    0 -0.77710802130E+02 -0.21193687852E+01  0.86542012076E+02  0.11640641196E+03  0.41800000000E+01 0. -1.
         -5    1    4    4    0  502 -0.10930497524E+02  0.41420785947E+02  0.27380410582E+03  0.27716658898E+03  0.41800000000E+01 0. -1.
        -11    1    3    3    0    0  0.89884019889E+02 -0.27390538338E+01  0.95763104218E+02  0.13136670650E+03  0.00000000000E+00 0. -1.
         11    1    3    3    0    0 -0.12427202355E+01 -0.36562363328E+02  0.85261490615E+02  0.92778621178E+02  0.00000000000E+00 0.  1.
</event>
<event>
 8    1  0.1790275E-005  0.1257586E+03  0.7561462E-02  0.1233888E+00
          1   -1    0    0  501    0  0.00000000000E+00  0.00000000000E+00  0.62539630936E+03  0.62539630936E+03  0.00000000000E+00 0. -1.
         -1   -1    0    0    0  501 -0.00000000000E+00 -0.00000000000E+00 -0.29168416094E+02  0.29168416094E+02  0.00000000000E+00 0.  1.
         23    2    1    2    0    0  0.36714176243E+02  0.70250477717E+02  0.24818042929E+03  0.27632248382E+03  0.92073499048E+02 0.  0.
         23    2    1    2    0    0 -0.36714176243E+02 -0.70250477717E+02  0.34804746398E+03  0.37824224163E+03  0.12508835204E+03 0.  0.
          5    1    4    4  502    0 -0.22019222178E+02  0.25085176182E+02  0.19061639380E+03  0.19356186142E+03  0.41800000000E+01 0. -1.
         -5    1    4    4    0  502 -0.14694954065E+02 -0.95335653900E+02  0.15743107018E+03  0.18468038021E+03  0.41800000000E+01 0. -1.
        -11    1    3    3    0    0 -0.97588198786E+01 -0.18628825859E+02  0.48730979018E+02  0.53075192268E+02  0.00000000000E+00 0.  1.
         11    1    3    3    0    0  0.46472996122E+02  0.88879303576E+02  0.19944945027E+03  0.22324729155E+03  0.00000000000E+00 0. -1.
</event>
<event>
 8    1  0.1790275E-005  0.1126311E+03  0.7561462E-02  0.1255774E+00
          1   -1    0    0  501    0  0.00000000000E+00  0.00000000000E+00  0.14011224369E+04  0.14011224369E+04  0.00000000000E+00 0. -1.
         -1   -1    0    0    0  501 -0.00000000000E+00 -0.00000000000E+00 -0.15852938527E+02  0.15852938527E+02  0.00000000000E+00 0.  1.
         23    2    1    2    0    0  0.41071101769E+02  0.40261104226E+02  0.23356952130E+03  0.25808298088E+03  0.93511025159E+02 0.  0.
         23    2    1    2    0    0 -0.41071101769E+02 -0.40261104226E+02  0.11516999771E+04  0.11588923946E+04  0.11537310360E+03 0.  0.
          5    1    4    4  502    0 -0.13529927461E+02 -0.78920731645E+02  0.79244334485E+03  0.79648946510E+03  0.41800000000E+01 0. -1.
         -5    1    4    4    0  502 -0.27541174308E+02  0.38659627419E+02  0.35925663224E+03  0.36240292946E+03  0.41800000000E+01 0.  1.
        -11    1    3    3    0    0 -0.10698540653E+02  0.44233507033E+02  0.51366636456E+02  0.68626476358E+02  0.00000000000E+00 0.  1.
         11    1    3    3    0    0  0.51769642422E+02 -0.39724028075E+01  0.18220288485E+03  0.18945650453E+03  0.00000000000E+00 0. -1.
</event>
<event>
 8    1  0.1790275E-005  0.1106617E+03  0.7561462E-02  0.1259349E+00
         -3   -1    0    0    0  501 -0.00000000000E+00  0.00000000000E+00  0.18407779929E+03  0.18407779929E+03  0.00000000000E+00 0.  1.
          3   -1    0    0  501    0  0.00000000000E+00 -0.00000000000E+00 -0.68071683151E+02  0.68071683151E+02  0.00000000000E+00 0. -1.
         23    2    1    2    0    0 -0.20363715495E+02  0.19589312291E+02  0.60780047708E+02  0.11252584829E+03  0.90384900672E+02 0.  0.
         23    2    1    2    0    0  0.20363715495E+02 -0.19589312291E+02  0.55226068432E+02  0.13962363415E+03  0.12508564472E+03 0.  0.
          5    1    4    4  502    0  0.52820808547E+02 -0.56414186435E+02  0.22946225514E+02  0.80725460122E+02  0.41800000000E+01 0. -1.
         -5    1    4    4    0  502 -0.32457093051E+02  0.36824874145E+02  0.32279842919E+02  0.58898174029E+02  0.41800000000E+01 0. -1.
        -11    1    3    3    0    0 -0.51204459836E+02 -0.97178590928E+01  0.34993001898E+02  0.62776139371E+02  0.00000000000E+00 0. -1.
         11    1    3    3    0    0  0.30840744341E+02  0.29307171383E+02  0.25787045810E+02  0.49749708920E+02  0.00000000000E+00 0.  1.
</event>
<event>
 8    1  0.1790275E-005  0.1101561E+03  0.7561462E-02  0.1260281E+00
         -2   -1    0    0    0  501 -0.00000000000E+00  0.00000000000E+00  0.18033677876E+03  0.18033677876E+03  0.00000000000E+00 0.  1.
          2   -1    0    0  501    0  0.00000000000E+00 -0.00000000000E+00 -0.95225323356E+02  0.95225323356E+02  0.00000000000E+00 0. -1.
         23    2    1    2    0    0 -0.14390697152E+02  0.73336086883E+02  0.35125420303E+02  0.12151369825E+03  0.89143198882E+02 0.  0.
         23    2    1    2    0    0  0.14390697152E+02 -0.73336086883E+02  0.49986035103E+02  0.15404840387E+03  0.12508810185E+03 0.  0.
          5    1    4    4  502    0  0.35476570196E+02 -0.10282483402E+03  0.42120809862E+02  0.11671832996E+03  0.41800000000E+01 0. -1.
         -5    1    4    4    0  502 -0.21085873045E+02  0.29488747141E+02  0.78652252404E+01  0.37330073909E+02  0.41800000000E+01 0. -1.
        -11    1    3    3    0    0 -0.23416148040E+01  0.26595365567E+02 -0.30187612423E+02  0.40299982299E+02  0.00000000000E+00 0. -1.
         11    1    3    3    0    0 -0.12049082348E+02  0.46740721316E+02  0.65313032726E+02  0.81213715950E+02  0.00000000000E+00 0.  1.
</event>
<event>
 8    1  0.1790275E-005  0.9241054E+02  0.7561462E-02  0.1297117E+00
          2   -1    0    0  501    0  0.00000000000E+00  0.00000000000E+00  0.13307525418E+03  0.13307525418E+03  0.00000000000E+00 0. -1.
         -2   -1    0    0    0  501 -0.00000000000E+00 -0.00000000000E+00 -0.10533243683E+03  0.10533243683E+03  0.00000000000E+00 0.  1.
         23    2    1    2    0    0  0.14348272376E+02  0.34228867465E+02 -0.21268028978E+02  0.99026722457E+02  0.89311110260E+02 0.  0.
         23    2    1    2    0    0 -0.14348272376E+02 -0.34228867465E+02  0.49010846324E+02  0.13938096855E+03  0.12508997981E+03 0.  0.
          5    1    4    4  502    0  0.43133798513E+02 -0.41256113956E+02 -0.50529680388E+01  0.60046618547E+02  0.41800000000E+01 0. -1.
         -5    1    4    4    0  502 -0.57482070889E+02  0.70272464915E+01  0.54063814363E+02  0.79334350003E+02  0.41800000000E+01 0. -1.
        -11    1    3    3    0    0  0.24243114976E+02  0.45727722138E+02  0.19669942070E+02  0.55368400886E+02  0.00000000000E+00 0. -1.
         11    1    3    3    0    0 -0.98948425997E+01 -0.11498854673E+02 -0.40937971048E+02  0.43658321571E+02  0.00000000000E+00 0.  1.
</event>
<event>
 8    1  0.1790275E-005  0.1097300E+03  0.7561462E-02  0.1261071E+00
          2   -1    0    0  501    0  0.00000000000E+00  0.00000000000E+00  0.38400736491E+03  0.38400736491E+03  0.00000000000E+00 0. -1.
         -2   -1    0    0    0  501 -0.00000000000E+00 -0.00000000000E+00 -0.36260314101E+02  0.36260314101E+02  0.00000000000E+00 0.  1.
         23    2    1    2    0    0 -0.28551535385E+02  0.29572531690E+02  0.11463154884E+03  0.15254340582E+03  0.91866064829E+02 0.  0.
         23    2    1    2    0    0  0.28551535385E+02 -0.29572531690E+02  0.23311550198E+03  0.26772427319E+03  0.12507487514E+03 0.  0.
          5    1    4    4  502    0 -0.40179853421E+02 -0.42208089179E+02  0.77225344722E+02  0.96835787189E+02  0.41800000000E+01 0. -1.
         -5    1    4    4    0  502  0.68731388806E+02  0.12635557489E+02  0.15589015726E+03  0.17088848601E+03  0.41800000000E+01 0. -1.
        -11    1    3    3    0    0 -0.35541793792E+02 -0.20122726908E+02  0.20109326041E+02  0.45525028698E+02  0.00000000000E+00 0.  1.
         11    1    3    3    0    0  0.69902584063E+01  0.49695258597E+02  0.94522222794E+02  0.10701837712E+03  0.00000000000E+00 0. -1.
</event>
<event>
 8    1  0.1790275E-005  0.1906924E+03  0.7561462E-02  0.1157838E+00
         -2   -1    0    0    0  501 -0.00000000000E+00  0.00000000000E+00  0.57606104798E+02  0.57606104798E+02  0.00000000000E+00 0.  1.
          2   -1    0    0  501    0  0.00000000000E+00 -0.00000000000E+00 -0.95465201964E+03  0.95465201964E+03  0.00000000000E+00 0. -1.
         23    2    1    2    0    0  0.14360498315E+03 -0.98571264842E+02 -0.18735579719E+03  0.27087708138E+03  0.89070270217E+02 0.  0.
         23    2    1    2    0    0 -0.14360498315E+03  0.98571264842E+02 -0.70969011765E+03  0.74138104306E+03  0.12508837868E+03 0.  0.
          5    1    4    4  502    0 -0.80252060040E+02  0.11503170900E+03 -0.57061650564E+03  0.58761667448E+03  0.41800000000E+01 0. -1.
         -5    1    4    4    0  502 -0.63352923109E+02 -0.16460444153E+02 -0.13907361201E+03  0.15376436859E+03  0.41800000000E+01 0. -1.
        -11    1    3    3    0    0  0.12746267440E+03 -0.78422037847E+02 -0.10050982907E+03  0.18027472125E+03  0.00000000000E+00 0.  1.
         11    1    3    3    0    0  0.16142308752E+02 -0.20149226996E+02 -0.86845968124E+02  0.90602360123E+02  0.00000000000E+00 0. -1.
</event>
<event>
 8    1  0.1790275E-005  0.1297994E+03  0.7561462E-02  0.1227754E+00
         -2   -1    0    0    0  501 -0.00000000000E+00  0.00000000000E+00  0.21416226241E+02  0.21416226241E+02  0.00000000000E+00 0.  1.
          2   -1    0    0  501    0  0.00000000000E+00 -0.00000000000E+00 -0.10890561902E+04  0.10890561902E+04  0.00000000000E+00 0. -1.
         23    2    1    2    0    0  0.16755572209E+01  0.91069933089E+02 -0.28178326422E+03  0.30952604561E+03  0.90044570675E+02 0.  0.
         23    2    1    2    0    0 -0.16755572209E+01 -0.91069933089E+02 -0.78585669976E+03  0.80094637086E+03  0.12509115167E+03 0.  0.
          5    1    4    4  502    0 -0.51131506991E+02 -0.64581764906E+02 -0.27782786532E+03  0.28981206068E+03  0.41800000000E+01 0. -1.
         -5    1    4    4    0  502  0.49455949770E+02 -0.26488168183E+02 -0.50802883444E+03  0.51113431018E+03  0.41800000000E+01 0. -1.
        -11    1    3    3    0    0 -0.18136201802E+02  0.98158778531E+02 -0.26305275078E+03  0.28135532217E+03  0.00000000000E+00 0.  1.
         11    1    3    3    0    0  0.19811759023E+02 -0.70888454417E+01 -0.18730513441E+02  0.28170723438E+02  0.00000000000E+00 0. -1.
</event>
<event>
 8    1  0.1790275E-005  0.5045019E+02  0.7561462E-02  0.1442928E+00
         -2   -1    0    0    0  501 -0.00000000000E+00  0.00000000000E+00  0.48267560088E+03  0.48267560088E+03  0.00000000000E+00 0. -1.
          2   -1    0    0  501    0  0.00000000000E+00 -0.00000000000E+00 -0.25705884077E+02  0.25705884077E+02  0.00000000000E+00 0.  1.
         23    2    1    2    0    0 -0.16574293438E+02  0.18260140421E+02  0.21072932892E+03  0.23109115928E+03  0.91586756138E+02 0.  0.
         23    2    1    2    0    0  0.16574293438E+02 -0.18260140421E+02  0.24624038788E+03  0.27729032568E+03  0.12508979238E+03 0.  0.
          5    1    4    4  502    0  0.18911951753E+02 -0.21728978599E+02  0.26036015216E+03  0.26198223540E+03  0.41800000000E+01 0.  1.
         -5    1    4    4    0  502 -0.23376583152E+01  0.34688381788E+01 -0.14119764278E+02  0.15308090279E+02  0.41800000000E+01 0.  1.
        -11    1    3    3    0    0  0.21420272538E+02  0.17848642118E+02  0.14907553770E+02  0.31617040666E+02  0.00000000000E+00 0.  1.
         11    1    3    3    0    0 -0.37994565976E+02  0.41149830250E+00  0.19582177515E+03  0.19947411862E+03  0.00000000000E+00 0. -1.
</event>
<event>
 8    1  0.1790275E-005  0.1030084E+03  0.7561462E-02  0.1274094E+00
         -3   -1    0    0    0  501 -0.00000000000E+00  0.00000000000E+00  0.13035192083E+03  0.13035192083E+03  0.00000000000E+00 0.  1.
          3   -1    0    0  501    0  0.00000000000E+00 -0.00000000000E+00 -0.12988227083E+03  0.12988227083E+03  0.00000000000E+00 0. -1.
         23    2    1    2    0    0  0.15046545363E+02  0.27437136934E+02  0.65133182407E+02  0.11598540154E+03  0.90725337753E+02 0.  0.
         23    2    1    2    0    0 -0.15046545363E+02 -0.27437136934E+02 -0.64663532402E+02  0.14424879011E+03  0.12508855270E+03 0.  0.
          5    1    4    4  502    0 -0.11884143412E+01 -0.67401629226E+02 -0.81558315496E+00  0.67546498998E+02  0.41800000000E+01 0. -1.
         -5    1    4    4    0  502 -0.13858131022E+02  0.39964492291E+02 -0.63847949247E+02  0.76702291117E+02  0.41800000000E+01 0. -1.
        -11    1    3    3    0    0  0.51033318811E+01 -0.33672441543E+02  0.23086217857E+02  0.41144267775E+02  0.00000000000E+00 0.  1.
         11    1    3    3    0    0  0.99432134819E+01  0.61109578478E+02  0.42046964550E+02  0.74841133770E+02  0.00000000000E+00 0. -1.
</event>
<event>
 8    1  0.1790275E-005  0.1046691E+03  0.7561462E-02  0.1270773E+00
         -1   -1    0    0    0  501 -0.00000000000E+00  0.00000000000E+00  0.26903928057E+02  0.26903928057E+02  0.00000000000E+00 0.  1.
          1   -1    0    0  501    0  0.00000000000E+00 -0.00000000000E+00 -0.51066261994E+03  0.51066261994E+03  0.00000000000E+00 0. -1.
         23    2    1    2    0    0  0.24171977118E+02  0.31581802435E+02 -0.19379500913E+03  0.21927703413E+03  0.94573872763E+02 0.  0.
         23    2    1    2    0    0 -0.24171977118E+02 -0.31581802435E+02 -0.28996368275E+03  0.31828951387E+03  0.12509029779E+03 0.  0.
          5    1    4    4  502    0  0.39238056404E+02 -0.13852988008E+02 -0.21232891981E+03  0.21640834765E+03  0.41800000000E+01 0. -1.
         -5    1    4    4    0  502 -0.63410033522E+02 -0.17728814427E+02 -0.77634762945E+02  0.10188116622E+03  0.41800000000E+01 0. -1.
        -11    1    3    3    0    0 -0.33384490101E+02 -0.43869479234E+01 -0.79701971500E+02  0.86522677677E+02  0.00000000000E+00 0.  1.
         11    1    3    3    0    0  0.57556467219E+02  0.35968750358E+02 -0.11409303763E+03  0.13275435645E+03  0.00000000000E+00 0. -1.
</event>
<event>
 8    1  0.1790275E-005  0.8511718E+02  0.7561462E-02  0.1315126E+00
          1   -1    0    0  501    0  0.00000000000E+00  0.00000000000E+00  0.40777707349E+03  0.40777707349E+03  0.00000000000E+00 0. -1.
         -1   -1    0    0    0  501 -0.00000000000E+00 -0.00000000000E+00 -0.34618929590E+02  0.34618929590E+02  0.00000000000E+00 0.  1.
         23    2    1    2    0    0 -0.16549843988E+02  0.30744694738E+02  0.97340432733E+02  0.13753122163E+03  0.90667212857E+02 0.  0.
         23    2    1    2    0    0  0.16549843988E+02 -0.30744694738E+02  0.27581771116E+03  0.30486478145E+03  0.12509193254E+03 0.  0.
          5    1    4    4  502    0  0.32554159229E+02  0.15285414221E+02  0.14488299636E+02  0.38997440908E+02  0.41800000000E+01 0. -1.
         -5    1    4    4    0  502 -0.16004315241E+02 -0.46030108959E+02  0.26132941153E+03  0.26586734054E+03  0.41800000000E+01 0. -1.
        -11    1    3    3    0    0  0.30885108273E+02  0.18955663045E+02  0.76000436314E+02  0.84197822979E+02  0.00000000000E+00 0. -1.
         11    1    3    3    0    0 -0.47434952261E+02  0.11789031692E+02  0.21339996419E+02  0.53333398648E+02  0.00000000000E+00 0.  1.
</event>
<event>
 8    1  0.1790275E-005  0.1001012E+03  0.7561462E-02  0.1280083E+00
         -1   -1    0    0    0  501 -0.00000000000E+00  0.00000000000E+00  0.10207648225E+03  0.10207648225E+03  0.00000000000E+00 0.  1.
          1   -1    0    0  501    0  0.00000000000E+00 -0.00000000000E+00 -0.23039125882E+03  0.23039125882E+03  0.00000000000E+00 0. -1.
         23    2    1    2    0    0 -0.24588172425E+02  0.45484854233E+02  0.42761726142E+02  0.11432365909E+03  0.92562863058E+02 0.  0.
         23    2    1    2    0    0  0.24588172425E+02 -0.45484854233E+02 -0.17107650271E+03  0.21814408197E+03  0.12508485333E+03 0.  0.
          5    1    4    4  502    0 -0.38527927680E+02  0.14666530807E+02 -0.26265614674E+02  0.49059792615E+02  0.41800000000E+01 0. -1.
         -5    1    4    4    0  502  0.63116100105E+02 -0.60151385040E+02 -0.14481088804E+03  0.16908428936E+03  0.41800000000E+01 0. -1.
        -11    1    3    3    0    0  0.20665304391E+01  0.44765268365E+02 -0.17747924286E+02  0.48199466971E+02  0.00000000000E+00 0. -1.
         11    1    3    3    0    0 -0.26654702864E+02  0.71958586810E+00  0.60509650428E+02  0.66124192120E+02  0.00000000000E+00 0.  1.
</event>
<event>
 8    1  0.1790275E-005  0.3445720E+03  0.7561462E-02  0.1064865E+00
         -2   -1    0    0    0  501 -0.00000000000E+00  0.00000000000E+00  0.56323038472E+02  0.56323038472E+02  0.00000000000E+00 0.  1.
          2   -1    0    0  501    0  0.00000000000E+00 -0.00000000000E+00 -0.22966533621E+04  0.22966533621E+04  0.00000000000E+00 0. -1.
         23    2    1    2    0    0  0.55848007519E+02 -0.33341049864E+03 -0.92216427368E+03  0.98641408559E+03  0.91346811974E+02 0.  0.
         23    2    1    2    0    0 -0.55848007519E+02  0.33341049864E+03 -0.13181660500E+04  0.13665623150E+04  0.12509702213E+03 0.  0.
          5    1    4    4  502    0 -0.82244055963E+02  0.26153034023E+03 -0.87968620266E+03  0.92142687781E+03  0.41800000000E+01 0. -1.
         -5    1    4    4    0  502  0.26396048445E+02  0.71880158408E+02 -0.43847984732E+03  0.44513543720E+03  0.41800000000E+01 0. -1.
        -11    1    3    3    0    0  0.22974502343E+02 -0.17334889837E+03 -0.60314072931E+03  0.62797803121E+03  0.00000000000E+00 0. -1.
         11    1    3    3    0    0  0.32873505176E+02 -0.16006160026E+03 -0.31902354437E+03  0.35843605439E+03  0.00000000000E+00 0.  1.
</event>
<event>
 8    1  0.1790275E-005  0.9376564E+02  0.7561462E-02  0.1293981E+00
         -1   -1    0    0    0  501 -0.00000000000E+00  0.00000000000E+00  0.16019595232E+02  0.16019595232E+02  0.00000000000E+00 0.  1.
          1   -1    0    0  501    0  0.00000000000E+00 -0.00000000000E+00 -0.73992856946E+03  0.73992856946E+03  0.00000000000E+00 0. -1.
         23    2    1    2    0    0 -0.76219651257E+01 -0.96669585631E+01 -0.30455208326E+03  0.31815978054E+03  0.91225709616E+02 0.  0.
         23    2    1    2    0    0  0.76219651257E+01  0.96669585631E+01 -0.41935689096E+03  0.43778838414E+03  0.12508766069E+03 0.  0.
          5    1    4    4  502    0  0.51779276881E+00  0.56534780631E+02 -0.10039019885E+03  0.11529143054E+03  0.41800000000E+01 0.  1.
         -5    1    4    4    0  502  0.71041723568E+01 -0.46867822068E+02 -0.31896669211E+03  0.32249695360E+03  0.41800000000E+01 0.  1.
        -11    1    3    3    0    0 -0.45094337537E+02 -0.75368291718E+01 -0.96917686346E+02  0.10716035180E+03  0.00000000000E+00 0.  1.
         11    1    3    3    0    0  0.37472372412E+02 -0.21301293913E+01 -0.20763439692E+03  0.21099942874E+03  0.00000000000E+00 0. -1.
</event>
<event>
 8    1  0.1790275E-005  0.1020019E+03  0.7561462E-02  0.1276142E+00
         -2   -1    0    0    0  501 -0.00000000000E+00  0.00000000000E+00  0.23813023033E+02  0.23813023033E+02  0.00000000000E+00 0.  1.
          2   -1    0    0  501    0  0.00000000000E+00 -0.00000000000E+00 -0.58147666957E+03  0.58147666957E+03  0.00000000000E+00 0. -1.
         23    2    1    2    0    0  0.17950226533E+02 -0.39071333594E+02 -0.21736040959E+03  0.24018331993E+03  0.92702210176E+02 0.  0.
         23    2    1    2    0    0 -0.17950226533E+02  0.39071333594E+02 -0.34030323694E+03  0.36510637267E+03  0.12509032957E+03 0.  0.
          5    1    4    4  502    0  0.35080749989E+02  0.43513541157E+02 -0.70461883212E+02  0.90035752174E+02  0.41800000000E+01 0.  1.
         -5    1    4    4    0  502 -0.53030976522E+02 -0.44422075634E+01 -0.26984135373E+03  0.27507062050E+03  0.41800000000E+01 0.  1.
        -11    1    3    3    0    0  0.35933995329E+02  0.13979450622E+02 -0.46675107842E+02  0.60541248352E+02  0.00000000000E+00 0. -1.
         11    1    3    3    0    0 -0.17983768796E+02 -0.53050784215E+02 -0.17068530175E+03  0.17964207158E+03  0.00000000000E+00 0.  1.
</event>
<event>
 8    1  0.1790275E-005  0.1243327E+03  0.7561462E-02  0.1236116E+00
         -1   -1    0    0    0  501 -0.00000000000E+00  0.00000000000E+00  0.15708423615E+03  0.15708423615E+03  0.00000000000E+00 0.  1.
          1   -1    0    0  501    0  0.00000000000E+00 -0.00000000000E+00 -0.15100105762E+03  0.15100105762E+03  0.00000000000E+00 0. -1.
         23    2    1    2    0    0  0.25277591785E+02 -0.59468458953E+02  0.91871766339E+02  0.14321246309E+03  0.88847813020E+02 0.  0.
         23    2    1    2    0    0 -0.25277591785E+02  0.59468458953E+02 -0.85788587807E+02  0.16487283067E+03  0.12509162338E+03 0.  0.
          5    1    4    4  502    0 -0.18625047985E+02 -0.38226379055E+02 -0.23883977626E+02  0.48949619563E+02  0.41800000000E+01 0.  1.
         -5    1    4    4    0  502 -0.66525437997E+01  0.97694838008E+02 -0.61904610181E+02  0.11592321111E+03  0.41800000000E+01 0.  1.
        -11    1    3    3    0    0 -0.25101215988E+02  0.55183870196E+01  0.34183408905E+02  0.42767149586E+02  0.00000000000E+00 0. -1.
         11    1    3    3    0    0  0.50378807773E+02 -0.64986845973E+02  0.57688357435E+02  0.10044531351E+03  0.00000000000E+00 0.  1.
</event>
<event>
 8    1  0.1790275E-005  0.1209568E+03  0.7561462E-02  0.1241527E+00
         -2   -1    0    0    0  501 -0.00000000000E+00  0.00000000000E+00  0.19129120361E+03  0.19129120361E+03  0.00000000000E+00 0.  1.
          2   -1    0    0  501    0  0.00000000000E+00 -0.00000000000E+00 -0.78147397581E+02  0.78147397581E+02  0.00000000000E+00 0. -1.
         23    2    1    2    0    0 -0.35489184751E+02  0.44723882287E+02  0.53615643635E+02  0.11961197525E+03  0.90402873297E+02 0.  0.
         23    2    1    2    0    0  0.35489184751E+02 -0.44723882287E+02  0.59528162395E+02  0.14982662594E+03  0.12507880652E+03 0.  0.
          5    1    4    4  502    0 -0.11224553795E+02  0.38657125889E+02  0.27548690846E+02  0.48956784588E+02  0.41800000000E+01 0.  1.
         -5    1    4    4    0  502  0.46713738547E+02 -0.83381008176E+02  0.31979471549E+02  0.10086984135E+03  0.41800000000E+01 0.  1.
        -11    1    3    3    0    0  0.21743729152E+02  0.43384584997E+02  0.15943918201E+02  0.51080529563E+02  0.00000000000E+00 0.  1.
         11    1    3    3    0    0 -0.57232913904E+02  0.13392972899E+01  0.37671725434E+02  0.68531445690E+02  0.00000000000E+00 0. -1.
</event>
<event>
 8    1  0.1790275E-005  0.1104172E+03  0.7561462E-02  0.1259799E+00
          2   -1    0    0  501    0  0.00000000000E+00  0.00000000000E+00  0.47233115167E+03  0.47233115167E+03  0.00000000000E+00 0. -1.
         -2   -1    0    0    0  501 -0.00000000000E+00 -0.00000000000E+00 -0.28992755547E+02  0.28992755547E+02  0.00000000000E+00 0.  1.
         23    2    1    2    0    0 -0.43106036915E+02  0.47025152367E+01  0.17218758100E+03  0.19957602285E+03  0.91114114043E+02 0.  0.
         23    2    1    2    0    0  0.43106036915E+02 -0.47025152367E+01  0.27115081512E+03  0.30174788436E+03  0.12509507228E+03 0.  0.
          5    1    4    4  502    0 -0.20222029167E+02 -0.44425348721E+02  0.16304694299E+03  0.17024781964E+03  0.41800000000E+01 0. -1.
         -5    1    4    4    0  502  0.63328066081E+02  0.39722833484E+02  0.10810387213E+03  0.13150006472E+03  0.41800000000E+01 0. -1.
        -11    1    3    3    0    0 -0.52249449721E+02  0.36598190222E+02  0.84903925404E+02  0.10619844195E+03  0.00000000000E+00 0.  1.
         11    1    3    3    0    0  0.91434128059E+01 -0.31895674985E+02  0.87283655599E+02  0.93377580902E+02  0.00000000000E+00 0. -1.
</event>
<event>
 8    1  0.1790275E-005  0.1276797E+03  0.7561462E-02  0.1230940E+00
         -2   -1    0    0    0  501 -0.00000000000E+00  0.00000000000E+00  0.23847341247E+02  0.23847341247E+02  0.00000000000E+00 0.  1.
          2   -1    0    0  501    0  0.00000000000E+00 -0.00000000000E+00 -0.11197445687E+04  0.11197445687E+04  0.00000000000E+00 0. -1.
         23    2    1    2    0    0  0.51434697602E+02  0.96015044923E+02 -0.32059171317E+03  0.35074234549E+03  0.91524474288E+02 0.  0.
         23    2    1    2    0    0 -0.51434697602E+02 -0.96015044923E+02 -0.77530551429E+03  0.79284956447E+03  0.12508946567E+03 0.  0.
          5    1    4    4  502    0  0.54941117884E+01  0.14483359283E+02 -0.33312221729E+03  0.33350837623E+03  0.41800000000E+01 0. -1.
         -5    1    4    4    0  502 -0.56928809390E+02 -0.11049840421E+03 -0.44218329700E+03  0.45934118825E+03  0.41800000000E+01 0. -1.
        -11    1    3    3    0    0  0.47281327919E+02  0.50275256527E+02 -0.28328760681E+03  0.29157330735E+03  0.00000000000E+00 0. -1.
         11    1    3    3    0    0  0.41533696824E+01  0.45739788396E+02 -0.37304106365E+02  0.59169038136E+02  0.00000000000E+00 0.  1.
</event>
<event>
 8    1  0.1790275E-005  0.1599195E+03  0.7561462E-02  0.1188788E+00
         -1   -1    0    0    0  501 -0.00000000000E+00  0.00000000000E+00  0.13545447585E+03  0.13545447585E+03  0.00000000000E+00 0.  1.
          1   -1    0    0  501    0  0.00000000000E+00 -0.00000000000E+00 -0.20811975904E+03  0.20811975904E+03  0.00000000000E+00 0. -1.
         23    2    1    2    0    0 -0.10054969618E+03 -0.79367635836E+02 -0.34629879200E+02  0.16053472071E+03  0.90347689502E+02 0.  0.
         23    2    1    2    0    0  0.10054969618E+03  0.79367635836E+02 -0.38035403989E+02  0.18303951419E+03  0.12508920328E+03 0.  0.
          5    1    4    4  502    0  0.48369337176E+02  0.10533205263E+03 -0.53941499576E+01  0.11610772301E+03  0.41800000000E+01 0.  1.
         -5    1    4    4    0  502  0.52180359005E+02 -0.25964416792E+02 -0.32641254031E+02  0.66931791175E+02  0.41800000000E+01 0.  1.
        -11    1    3    3    0    0 -0.10908062845E+03 -0.60542380271E+02 -0.55768640689E+01  0.12488020149E+03  0.00000000000E+00 0. -1.
         11    1    3    3    0    0  0.85309322644E+01 -0.18825255565E+02 -0.29053015131E+02  0.35654519217E+02  0.00000000000E+00 0.  1.
</event>
<event>
 8    1  0.1790275E-005  0.1726381E+03  0.7561462E-02  0.1175124E+00
          1   -1    0    0  501    0  0.00000000000E+00  0.00000000000E+00  0.25456423117E+03  0.25456423117E+03  0.00000000000E+00 0. -1.
         -1   -1    0    0    0  501 -0.00000000000E+00 -0.00000000000E+00 -0.13179987121E+03  0.13179987121E+03  0.00000000000E+00 0.  1.
         23    2    1    2    0    0  0.67812868241E+02 -0.12737950948E+03  0.29883494808E+02  0.17399944411E+03  0.92513019386E+02 0.  0.
         23    2    1    2    0    0 -0.67812868241E+02  0.12737950948E+03  0.92880865156E+02  0.21236465827E+03  0.12509104059E+03 0.  0.
          5    1    4    4  502    0 -0.40184584880E+02 -0.12606868378E+02  0.45061033302E+02  0.61819924899E+02  0.41800000000E+01 0.  1.
         -5    1    4    4    0  502 -0.27628283361E+02  0.13998637786E+03  0.47819831854E+02  0.15054473337E+03  0.41800000000E+01 0.  1.
        -11    1    3    3    0    0  0.57945805816E+02 -0.35835897585E+02  0.43631162429E+02  0.80904921373E+02  0.00000000000E+00 0. -1.
         11    1    3    3    0    0  0.98670624248E+01 -0.91543611894E+02 -0.13747667621E+02  0.93094522742E+02  0.00000000000E+00 0.  1.
</event>
<event>
 8    1  0.1790275E-005  0.1407827E+03  0.7561462E-02  0.1212280E+00
         -2   -1    0    0    0  501 -0.00000000000E+00  0.00000000000E+00  0.30338013780E+02  0.30338013780E+02  0.00000000000E+00 0.  1.
          2   -1    0    0  501    0  0.00000000000E+00 -0.00000000000E+00 -0.11271023294E+04  0.11271023294E+04  0.00000000000E+00 0. -1.
         23    2    1    2    0    0 -0.16070545731E+02 -0.11478697169E+03 -0.23696168568E+03  0.28088829286E+03  0.96504307021E+02 0.  0.
         23    2    1    2    0    0  0.16070545731E+02  0.11478697169E+03 -0.85980262999E+03  0.87655205037E+03  0.12509445696E+03 0.  0.
          5    1    4    4  502    0  0.37748732392E+02 -0.58404121755E+01 -0.35473369567E+03  0.35680883461E+03  0.41800000000E+01 0. -1.
         -5    1    4    4    0  502 -0.21678186662E+02  0.12062738387E+03 -0.50506893432E+03  0.51974321576E+03  0.41800000000E+01 0. -1.
        -11    1    3    3    0    0  0.10158285938E+02 -0.25509146281E+02 -0.12626331855E+01  0.27486388627E+02  0.00000000000E+00 0.  1.
         11    1    3    3    0    0 -0.26228831669E+02 -0.89277825413E+02 -0.23569905249E+03  0.25340190423E+03  0.00000000000E+00 0. -1.
</event>
<event>
 8    1  0.1790275E-005  0.1365372E+03  0.7561462E-02  0.1218066E+00
          1   -1    0    0  501    0  0.00000000000E+00  0.00000000000E+00  0.16139513065E+04  0.16139513065E+04  0.00000000000E+00 0. -1.
         -1   -1    0    0    0  501 -0.00000000000E+00 -0.00000000000E+00 -0.16075790229E+02  0.16075790229E+02  0.00000000000E+00 0.  1.
         23    2    1    2    0    0 -0.55023412997E+02 -0.77513255205E+02  0.38897125794E+03  0.41095696936E+03  0.92472214497E+02 0.  0.
         23    2    1    2    0    0  0.55023412997E+02  0.77513255205E+02  0.12089042584E+04  0.12190701274E+04  0.12508632585E+03 0.  0.
          5    1    4    4  502    0 -0.27392676819E+02  0.64628891525E+02  0.67791267203E+03  0.68154993629E+03  0.41800000000E+01 0. -1.
         -5    1    4    4    0  502  0.82416089816E+02  0.12884363680E+02  0.53099158634E+03  0.53752019111E+03  0.41800000000E+01 0. -1.
        -11    1    3    3    0    0  0.13676377704E+02 -0.37072651834E+02  0.55757165930E+02  0.68339493513E+02  0.00000000000E+00 0.  1.
         11    1    3    3    0    0 -0.68699790701E+02 -0.40440603372E+02  0.33321409201E+03  0.34261747585E+03  0.00000000000E+00 0. -1.
</event>
<event>
 8    1  0.1790275E-005  0.1173009E+03  0.7561462E-02  0.1247617E+00
          2   -1    0    0  501    0  0.00000000000E+00  0.00000000000E+00  0.34573325209E+02  0.34573325209E+02  0.00000000000E+00 0. -1.
         -2   -1    0    0    0  501 -0.00000000000E+00 -0.00000000000E+00 -0.66807975789E+03  0.66807975789E+03  0.00000000000E+00 0.  1.
         23    2    1    2    0    0  0.52710244792E+02 -0.90060815365E+02 -0.24502671454E+03  0.28140163204E+03  0.90881611486E+02 0.  0.
         23    2    1    2    0    0 -0.52710244792E+02  0.90060815365E+02 -0.38847971814E+03  0.42125145106E+03  0.12508786209E+03 0.  0.
          5    1    4    4  502    0 -0.18665548772E+02  0.11644966400E+02  0.10608670937E+01  0.22418871346E+02  0.41800000000E+01 0. -1.
         -5    1    4    4    0  502 -0.34044696020E+02  0.78415848965E+02 -0.38954058524E+03  0.39883257972E+03  0.41800000000E+01 0. -1.
        -11    1    3    3    0    0  0.57774453783E+02 -0.27733959296E+02 -0.18053114124E+03  0.19156866384E+03  0.00000000000E+00 0.  1.
         11    1    3    3    0    0 -0.50642089914E+01 -0.62326856069E+02 -0.64495573298E+02  0.89832968198E+02  0.00000000000E+00 0. -1.
</event>
<event>
 8    1  0.1790275E-005  0.1268002E+03  0.7561462E-02  0.1232282E+00
         -1   -1    0    0    0  501 -0.00000000000E+00  0.00000000000E+00  0.13699266429E+02  0.13699266429E+02  0.00000000000E+00 0.  1.
          1   -1    0    0  501    0  0.00000000000E+00 -0.00000000000E+00 -0.19838152429E+04  0.19838152429E+04  0.00000000000E+00 0. -1.
         23    2    1    2    0    0  0.15203050308E+02 -0.94116243665E+02 -0.44497214917E+03  0.46428264210E+03  0.92028029208E+02 0.  0.
         23    2    1    2    0    0 -0.15203050308E+02  0.94116243665E+02 -0.15251438273E+04  0.15332318672E+04  0.12508902696E+03 0.  0.
          5    1    4    4  502    0  0.48215429104E+02  0.66368604775E+02 -0.10276904216E+04  0.10309677950E+04  0.41800000000E+01 0.  1.
         -5    1    4    4    0  502 -0.63418479413E+02  0.27747638890E+02 -0.49745340575E+03  0.50226407227E+03  0.41800000000E+01 0.  1.
        -11    1    3    3    0    0 -0.12200635875E+02 -0.29659599298E+02 -0.31616167319E+02  0.45034757490E+02  0.00000000000E+00 0.  1.
         11    1    3    3    0    0  0.27403686183E+02 -0.64456644367E+02 -0.41335598185E+03  0.41924788461E+03  0.00000000000E+00 0. -1.
</event>
<event>
 8    1  0.1790275E-005  0.8751711E+02  0.7561462E-02  0.1308978E+00
         -1   -1    0    0    0  501 -0.00000000000E+00  0.00000000000E+00  0.70706177318E+02  0.70706177318E+02  0.00000000000E+00 0.  1.
          1   -1    0    0  501    0  0.00000000000E+00 -0.00000000000E+00 -0.23461843329E+03  0.23461843329E+03  0.00000000000E+00 0. -1.
         23    2    1    2    0    0  0.48422661165E+02  0.10934050196E+02 -0.16169971156E+02  0.10547578880E+03  0.91648057743E+02 0.  0.
         23    2    1    2    0    0 -0.48422661165E+02 -0.10934050196E+02 -0.14774228481E+03  0.19984882180E+03  0.12508981288E+03 0.  0.
          5    1    4    4  502    0 -0.16426679179E+02 -0.33250040787E+02  0.89002987891E+01  0.38367808378E+02  0.41800000000E+01 0. -1.
         -5    1    4    4    0  502 -0.31995981985E+02  0.22315990591E+02 -0.15664258360E+03  0.16148101343E+03  0.41800000000E+01 0. -1.
        -11    1    3    3    0    0  0.60573115506E+02 -0.21160294261E+02 -0.26821849975E+02  0.69543310328E+02  0.00000000000E+00 0. -1.
         11    1    3    3    0    0 -0.12150454341E+02  0.32094344457E+02  0.10651878819E+02  0.35932478473E+02  0.00000000000E+00 0.  1.
</event>
<event>
 7    1  0.1790275E-005  0.2690880E+03  0.7561462E-02  0.1101803E+00
          1   -1    0    0  501    0  0.00000000000E+00  0.00000000000E+00  0.16229543568E+04  0.16229543568E+04  0.00000000000E+00 0. -1.
         -1   -1    0    0    0  501 -0.00000000000E+00 -0.00000000000E+00 -0.94246926005E+02  0.94246926005E+02  0.00000000000E+00 0.  1.
         23    2    1    2    0    0  0.99867383208E+02  0.18264517178E+03  0.92346521827E+02  0.24706527081E+03  0.95815525574E+02 0.  0.
          5    1    1    2  502    0  0.27636741825E+02 -0.18315952048E+03  0.88951632875E+03  0.90860771016E+03  0.41800000000E+01 0. -1.
         -5    1    1    2    0  502 -0.12750412503E+03  0.51434869665E+00  0.54684458022E+03  0.56152830184E+03  0.41800000000E+01 0.  1.
        -11    1    3    3    0    0  0.20827591933E+02 -0.52504493085E+01  0.23672910670E+02  0.31965019995E+02  0.00000000000E+00 0. -1.
         11    1    3    3    0    0  0.79039791274E+02  0.18789562109E+03  0.68673611157E+02  0.21510025081E+03  0.00000000000E+00 0.  1.
</event>
<event>
 8    1  0.1790275E-005  0.1061959E+03  0.7561462E-02  0.1267781E+00
          1   -1    0    0  501    0  0.00000000000E+00  0.00000000000E+00  0.70716121738E+03  0.70716121738E+03  0.00000000000E+00 0. -1.
         -1   -1    0    0    0  501 -0.00000000000E+00 -0.00000000000E+00 -0.24112013379E+02  0.24112013379E+02  0.00000000000E+00 0.  1.
         23    2    1    2    0    0  0.48725363812E+02 -0.50815497507E+02  0.26355989507E+03  0.28790776653E+03  0.92036339962E+02 0.  0.
         23    2    1    2    0    0 -0.48725363812E+02  0.50815497507E+02  0.41948930893E+03  0.44336546422E+03  0.12508108849E+03 0.  0.
          5    1    4    4  502    0  0.32706522962E+02 -0.74847925371E+01  0.18933757763E+03  0.19233286112E+03  0.41800000000E+01 0.  1.
         -5    1    4    4    0  502 -0.81431886774E+02  0.58300290044E+02  0.23015173130E+03  0.25103260311E+03  0.41800000000E+01 0.  1.
        -11    1    3    3    0    0  0.90700062093E+01  0.46240939296E+01 -0.46353167037E+01  0.11186304942E+02  0.00000000000E+00 0.  1.
         11    1    3    3    0    0  0.39655357603E+02 -0.55439591436E+02  0.26819521178E+03  0.27672146159E+03  0.00000000000E+00 0. -1.
</event>
<event>
 7    1  0.1790275E-005  0.8197309E+02  0.7561462E-02  0.1323544E+00
          2   -1    0    0  501    0  0.00000000000E+00  0.00000000000E+00  0.11980185531E+04  0.11980185531E+04  0.00000000000E+00 0. -1.
         -2   -1    0    0    0  501 -0.00000000000E+00 -0.00000000000E+00 -0.67937166285E+01  0.67937166285E+01  0.00000000000E+00 0.  1.
         23    2    1    2    0    0 -0.31030360859E+01 -0.14475987980E+02  0.99195166704E+03  0.99991756105E+03  0.12509131096E+03 0.  0.
          5    1    3    3  502    0 -0.59155480321E+02 -0.52887533395E+01  0.69555300695E+03  0.69809655467E+03  0.41800000000E+01 0.  1.
         -5    1    3    3    0  502  0.56052444235E+02 -0.91872346410E+01  0.29639866010E+03  0.30182100638E+03  0.41800000000E+01 0.  1.
        -11    1    1    2    0    0  0.21448200840E+02  0.18894955764E+02  0.12930306746E+03  0.13242480103E+03  0.00000000000E+00 0.  1.
         11    1    1    2    0    0 -0.18345164754E+02 -0.44189677834E+01  0.69970101962E+02  0.72469907649E+02  0.00000000000E+00 0. -1.
</event>
<event>
 8    1  0.1790275E-005  0.1546446E+03  0.7561462E-02  0.1194879E+00
          1   -1    0    0  501    0  0.00000000000E+00  0.00000000000E+00  0.90946905062E+02  0.90946905062E+02  0.00000000000E+00 0. -1.
         -1   -1    0    0    0  501 -0.00000000000E+00 -0.00000000000E+00 -0.37211572226E+03  0.37211572226E+03  0.00000000000E+00 0.  1.
         23    2    1    2    0    0  0.44187484042E+02  0.14062602760E+03 -0.16213776628E+03  0.23602608036E+03  0.87700866427E+02 0.  0.
         23    2    1    2    0    0 -0.44187484042E+02 -0.14062602760E+03 -0.11903105091E+03  0.22703654695E+03  0.12509591995E+03 0.  0.
          5    1    4    4  502    0  0.11147501645E+01 -0.99319536051E+02 -0.74980690880E+01  0.99696069879E+02  0.41800000000E+01 0.  1.
         -5    1    4    4    0  502 -0.45302234207E+02 -0.41306491546E+02 -0.11153298182E+03  0.12734047708E+03  0.41800000000E+01 0.  1.
        -11    1    3    3    0    0  0.35534491865E+01  0.36188804832E+02  0.29651335996E+01  0.36483538939E+02  0.00000000000E+00 0. -1.
         11    1    3    3    0    0  0.40634034856E+02  0.10443722277E+03 -0.16510289988E+03  0.19954254142E+03  0.00000000000E+00 0.  1.
</event>
<event>
 8    1  0.1790275E-005  0.2048198E+03  0.7561462E-02  0.1145735E+00
          2   -1    0    0  501    0  0.00000000000E+00  0.00000000000E+00  0.92636354901E+03  0.92636354901E+03  0.00000000000E+00 0. -1.
         -2   -1    0    0    0  501 -0.00000000000E+00 -0.00000000000E+00 -0.54333953854E+02  0.54333953854E+02  0.00000000000E+00 0.  1.
         23    2    1    2    0    0  0.19165848025E+03 -0.18945305597E+02  0.33325841306E+03  0.39502376412E+03  0.88829649840E+02 0.  0.
         23    2    1    2    0    0 -0.19165848025E+03  0.18945305597E+02  0.53877118209E+03  0.58567373874E+03  0.12508974354E+03 0.  0.
          5    1    4    4  502    0 -0.99661840471E+02 -0.25963154943E+02  0.13939110311E+03  0.17336066419E+03  0.41800000000E+01 0.  1.
         -5    1    4    4    0  502 -0.91996639779E+02  0.44908460540E+02  0.39938007898E+03  0.41231307455E+03  0.41800000000E+01 0.  1.
        -11    1    3    3    0    0  0.35565628970E+02 -0.31502970360E+02  0.13018423166E+03  0.13858313490E+03  0.00000000000E+00 0.  1.
         11    1    3    3    0    0  0.15609285128E+03  0.12557664764E+02  0.20307418139E+03  0.25644062922E+03  0.00000000000E+00 0. -1.
</event>
<event>
 8    1  0.1790275E-005  0.1017064E+03  0.7561462E-02  0.1276748E+00
          2   -1    0    0  501    0  0.00000000000E+00  0.00000000000E+00  0.10657640336E+04  0.10657640336E+04  0.00000000000E+00 0. -1.
         -2   -1    0    0    0  501 -0.00000000000E+00 -0.00000000000E+00 -0.14390944206E+02  0.14390944206E+02  0.00000000000E+00 0.  1.
         23    2    1    2    0    0 -0.38588756205E+02 -0.51656341743E+02  0.39811934809E+03  0.41399126532E+03  0.93446683683E+02 0.  0.
         23    2    1    2    0    0  0.38588756205E+02  0.51656341743E+02  0.65325374135E+03  0.66616371253E+03  0.11347321956E+03 0.  0.
          5    1    4    4  502    0  0.56831772465E+02  0.34466080202E+02  0.62344943190E+03  0.62699635373E+03  0.41800000000E+01 0. -1.
         -5    1    4    4    0  502 -0.18243016260E+02  0.17190261542E+02  0.29804309448E+02  0.39167358806E+02  0.41800000000E+01 0.  1.
        -11    1    3    3    0    0  0.29616448256E+02 -0.89852526183E+01  0.77976902132E+02  0.83894374293E+02  0.00000000000E+00 0. -1.
         11    1    3    3    0    0 -0.68205204461E+02 -0.42671089125E+02  0.32014244596E+03  0.33009689103E+03  0.00000000000E+00 0.  1.
</event>
<event>
 8    1  0.1790275E-005  0.8207295E+02  0.7561462E-02  0.1323270E+00
          2   -1    0    0  501    0  0.00000000000E+00  0.00000000000E+00  0.14323493630E+04  0.14323493630E+04  0.00000000000E+00 0. -1.
         -2   -1    0    0    0  501 -0.00000000000E+00 -0.00000000000E+00 -0.16221197147E+02  0.16221197147E+02  0.00000000000E+00 0.  1.
         23    2    1    2    0    0  0.17570538486E+02 -0.50682573111E+02  0.22655452752E+03  0.25123654800E+03  0.94421406848E+02 0.  0.
         23    2    1    2    0    0 -0.17570538486E+02  0.50682573111E+02  0.11895736383E+04  0.11973340122E+04  0.12508336655E+03 0.  0.
          5    1    4    4  502    0 -0.24289785453E+02  0.51440061566E+02  0.11878259129E+04  0.11891946625E+04  0.41800000000E+01 0. -1.
         -5    1    4    4    0  502  0.67192469669E+01 -0.75748845486E+00  0.17477254652E+01  0.81393496585E+01  0.41800000000E+01 0. -1.
        -11    1    3    3    0    0  0.41966542608E+02 -0.59847999589E+02  0.11190690117E+03  0.13366423711E+03  0.00000000000E+00 0.  1.
         11    1    3    3    0    0 -0.24396004122E+02  0.91654264775E+01  0.11464762635E+03  0.11757231089E+03  0.00000000000E+00 0. -1.
</event>
<event>
 8    1  0.1790275E-005  0.1138264E+03  0.7561462E-02  0.1253644E+00
         -2   -1    0    0    0  501 -0.00000000000E+00  0.00000000000E+00  0.38310583696E+02  0.38310583696E+02  0.00000000000E+00 0.  1.
          2   -1    0    0  501    0  0.00000000000E+00 -0.00000000000E+00 -0.39170544398E+03  0.39170544398E+03  0.00000000000E+00 0. -1.
         23    2    1    2    0    0  0.17566954421E+02  0.35283537547E+02 -0.85500442303E+02  0.13212848166E+03  0.92704283189E+02 0.  0.
         23    2    1    2    0    0 -0.17566954421E+02 -0.35283537547E+02 -0.26789441799E+03  0.29788754602E+03  0.12416136669E+03 0.  0.
          5    1    4    4  502    0  0.51649359260E+02 -0.25070403468E+01 -0.13223257999E+03  0.14204530677E+03  0.41800000000E+01 0. -1.
         -5    1    4    4    0  502 -0.69216313681E+02 -0.32776497201E+02 -0.13566183800E+03  0.15584223926E+03  0.41800000000E+01 0.  1.
        -11    1    3    3    0    0  0.54102609206E+02  0.11010781932E+02 -0.59354690797E+02  0.81063610586E+02  0.00000000000E+00 0.  1.
         11    1    3    3    0    0 -0.36535654785E+02  0.24272755616E+02 -0.26145751506E+02  0.51064871072E+02  0.00000000000E+00 0. -1.
</event>
<event>
 8    1  0.1790275E-005  0.1386356E+03  0.7561462E-02  0.1215177E+00
          1   -1    0    0  501    0  0.00000000000E+00  0.00000000000E+00  0.37184721306E+03  0.37184721306E+03  0.00000000000E+00 0. -1.
         -1   -1    0    0    0  501 -0.00000000000E+00 -0.00000000000E+00 -0.83968937120E+02  0.83968937120E+02  0.00000000000E+00 0.  1.
         23    2    1    2    0    0  0.12620338945E+03  0.15442125644E+01  0.61340416101E+02  0.16789827780E+03  0.92181912216E+02 0.  0.
         23    2    1    2    0    0 -0.12620338945E+03 -0.15442125644E+01  0.22653785984E+03  0.28791787238E+03  0.12509044406E+03 0.  0.
          5    1    4    4  502    0 -0.75332249375E+02  0.38532039457E+02  0.46716816618E+02  0.96745021657E+02  0.41800000000E+01 0.  1.
         -5    1    4    4    0  502 -0.50871140073E+02 -0.40076252021E+02  0.17982104322E+03  0.19117285072E+03  0.41800000000E+01 0.  1.
        -11    1    3    3    0    0  0.96489218287E+02  0.93328056405E+01 -0.25865428482E+01  0.96974020803E+02  0.00000000000E+00 0.  1.
         11    1    3    3    0    0  0.29714171160E+02 -0.77885930761E+01  0.63926958949E+02  0.70924256995E+02  0.00000000000E+00 0. -1.
</event>
<event>
 8    1  0.1790275E-005  0.9743290E+02  0.7561462E-02  0.1285789E+00
         -2   -1    0    0    0  501 -0.00000000000E+00  0.00000000000E+00  0.81245083696E+02  0.81245083696E+02  0.00000000000E+00 0.  1.
          2   -1    0    0  501    0  0.00000000000E+00 -0.00000000000E+00 -0.22709245343E+03  0.22709245343E+03  0.00000000000E+00 0. -1.
         23    2    1    2    0    0 -0.29564958643E+02  0.36943190411E+02  0.12971618959E+02  0.10070794672E+03  0.87948516396E+02 0.  0.
         23    2    1    2    0    0  0.29564958643E+02 -0.36943190411E+02 -0.15881898869E+03  0.20762959041E+03  0.12509072527E+03 0.  0.
          5    1    4    4  502    0 -0.27063264822E+02  0.24473712084E+02 -0.96707467275E+02  0.10344655390E+03  0.41800000000E+01 0. -1.
         -5    1    4    4    0  502  0.56628223465E+02 -0.61416902494E+02 -0.62111521419E+02  0.10418303652E+03  0.41800000000E+01 0. -1.
        -11    1    3    3    0    0 -0.18222891018E+02  0.52311651805E+02  0.39487910146E+02  0.68028506667E+02  0.00000000000E+00 0.  1.
         11    1    3    3    0    0 -0.11342067625E+02 -0.15368461395E+02 -0.26516291187E+02  0.32679440050E+02  0.00000000000E+00 0. -1.
</event>
<event>
 8    1  0.1790275E-005  0.7687588E+02  0.7561462E-02  0.1338159E+00
          1   -1    0    0  501    0  0.00000000000E+00  0.00000000000E+00  0.52041929154E+02  0.52041929154E+02  0.00000000000E+00 0. -1.
         -1   -1    0    0    0  501 -0.00000000000E+00 -0.00000000000E+00 -0.26453158616E+03  0.26453158616E+03  0.00000000000E+00 0.  1.
         23    2    1    2    0    0 -0.29399727838E+02  0.32287111012E+02 -0.67465997252E+02  0.12013949157E+03  0.89303052104E+02 0.  0.
         23    2    1    2    0    0  0.29399727838E+02 -0.32287111012E+02 -0.14502365975E+03  0.19643402374E+03  0.12509061620E+03 0.  0.
          5    1    4    4  502    0  0.92449882891E+01 -0.48331958311E+02 -0.15923488213E+03  0.16671732991E+03  0.41800000000E+01 0.  1.
         -5    1    4    4    0  502  0.20154739549E+02  0.16044847299E+02  0.14211222380E+02  0.29716693838E+02  0.41800000000E+01 0.  1.
        -11    1    3    3    0    0 -0.41760474920E+02 -0.20126615307E+01 -0.72142418699E+02  0.83381752487E+02  0.00000000000E+00 0.  1.
         11    1    3    3    0    0  0.12360747082E+02  0.34299772543E+02  0.46764214474E+01  0.36757739083E+02  0.00000000000E+00 0. -1.
</event>
<event>
 8    1  0.1790275E-005  0.9458232E+02  0.7561462E-02  0.1292120E+00
          1   -1    0    0  501    0  0.00000000000E+00  0.00000000000E+00  0.29991107831E+03  0.29991107831E+03  0.00000000000E+00 0. -1.
         -1   -1    0    0    0  501 -0.00000000000E+00 -0.00000000000E+00 -0.45003590042E+02  0.45003590042E+02  0.00000000000E+00 0.  1.
         23    2    1    2    0    0 -0.30601035061E+01  0.34984100473E+02  0.66696401804E+02  0.11621441120E+03  0.88454100178E+02 0.  0.
         23    2    1    2    0    0  0.30601035061E+01 -0.34984100473E+02  0.18821108647E+03  0.22870025715E+03  0.12508854077E+03 0.  0.
          5    1    4    4  502    0  0.56076724734E+02 -0.28535639918E+02  0.50017694659E+02  0.80486793832E+02  0.41800000000E+01 0.  1.
         -5    1    4    4    0  502 -0.53016621228E+02 -0.64484605557E+01  0.13819339181E+03  0.14821346332E+03  0.41800000000E+01 0.  1.
        -11    1    3    3    0    0  0.28867697571E+02  0.61515336680E+01 -0.74951267332E+01  0.30452623110E+02  0.00000000000E+00 0.  1.
         11    1    3    3    0    0 -0.31927801077E+02  0.28832566805E+02  0.74191528537E+02  0.85761788093E+02  0.00000000000E+00 0. -1.
</event>
<event>
 8    1  0.1790275E-005  0.1120551E+03  0.7561462E-02  0.1256811E+00
          1   -1    0    0  501    0  0.00000000000E+00  0.00000000000E+00  0.10610684517E+04  0.10610684517E+04  0.00000000000E+00 0. -1.
         -1   -1    0    0    0  501 -0.00000000000E+00 -0.00000000000E+00 -0.26221671877E+02  0.26221671877E+02  0.00000000000E+00 0.  1.
         23    2    1    2    0    0  0.40620790740E+02 -0.10841333484E+02  0.81175849933E+02  0.12453852086E+03  0.84573881390E+02 0.  0.
         23    2    1    2    0    0 -0.40620790740E+02  0.10841333484E+02  0.95367092989E+03  0.96275160272E+03  0.12503928529E+03 0.  0.
          5    1    4    4  502    0 -0.67416149314E+02 -0.35756459006E+02  0.63035919344E+03  0.63497531188E+03  0.41800000000E+01 0. -1.
         -5    1    4    4    0  502  0.26795358574E+02  0.46597792490E+02  0.32331173646E+03  0.32777629084E+03  0.41800000000E+01 0. -1.
        -11    1    3    3    0    0  0.29521553787E+02  0.35469067205E+02  0.32510694710E+02  0.56449288188E+02  0.00000000000E+00 0.  1.
         11    1    3    3    0    0  0.11099236953E+02 -0.46310400689E+02  0.48665155224E+02  0.68089232672E+02  0.00000000000E+00 0. -1.
</event>
<event>
 8    1  0.1790275E-005  0.1002276E+03  0.7561462E-02  0.1279818E+00
         -1   -1    0    0    0  501 -0.00000000000E+00  0.00000000000E+00  0.89660568876E+02  0.89660568876E+02  0.00000000000E+00 0.  1.
          1   -1    0    0  501    0  0.00000000000E+00 -0.00000000000E+00 -0.14399765508E+03  0.14399765508E+03  0.00000000000E+00 0. -1.
         23    2    1    2    0    0  0.12684124031E+02  0.27625248110E+02  0.18505383654E+02  0.85749970328E+02  0.78016452441E+02 0.  0.
         23    2    1    2    0    0 -0.12684124031E+02 -0.27625248110E+02 -0.72842469859E+02  0.14790825363E+03  0.12508710861E+03 0.  0.
          5    1    4    4  502    0 -0.42691611410E+02 -0.60797872518E+02 -0.17157099150E+02  0.76359632259E+02  0.41800000000E+01 0.  1.
         -5    1    4    4    0  502  0.30007487380E+02  0.33172624408E+02 -0.55685370709E+02  0.71548621370E+02  0.41800000000E+01 0.  1.
        -11    1    3    3    0    0 -0.76221675699E+01 -0.24246992706E+02 -0.38874292999E+01  0.25712374458E+02  0.00000000000E+00 0. -1.
         11    1    3    3    0    0  0.20306291600E+02  0.51872240815E+02  0.22392812954E+02  0.60037595869E+02  0.00000000000E+00 0.  1.
</event>
<event>
 8    1  0.1790275E-005  0.1112316E+03  0.7561462E-02  0.1258306E+00
          1   -1    0    0  501    0  0.00000000000E+00  0.00000000000E+00  0.22843876276E+02  0.22843876276E+02  0.00000000000E+00 0. -1.
         -1   -1    0    0    0  501 -0.00000000000E+00 -0.00000000000E+00 -0.81040394866E+03  0.81040394866E+03  0.00000000000E+00 0.  1.
         23    2    1    2    0    0  0.77026554460E+02 -0.24896574712E+02 -0.38424384193E+03  0.40328923366E+03  0.91901830227E+02 0.  0.
         23    2    1    2    0    0 -0.77026554460E+02  0.24896574712E+02 -0.40331623045E+03  0.42995859127E+03  0.12508988345E+03 0.  0.
          5    1    4    4  502    0 -0.60228409225E+02  0.44203467056E+02 -0.96804345798E+02  0.12235179420E+03  0.41800000000E+01 0. -1.
         -5    1    4    4    0  502 -0.16798145235E+02 -0.19306892344E+02 -0.30651188465E+03  0.30760679708E+03  0.41800000000E+01 0. -1.
        -11    1    3    3    0    0  0.95208382940E+02 -0.58692567184E+01 -0.28124103606E+03  0.29697744817E+03  0.00000000000E+00 0.  1.
         11    1    3    3    0    0 -0.18181828480E+02 -0.19027317994E+02 -0.10300280587E+03  0.10631178549E+03  0.00000000000E+00 0. -1.
</event>
<event>
 8    1  0.1790275E-005  0.2202579E+03  0.7561462E-02  0.1133691E+00
          1   -1    0    0  501    0  0.00000000000E+00  0.00000000000E+00  0.89097131932E+03  0.89097131932E+03  0.00000000000E+00 0. -1.
         -1   -1    0    0    0  501 -0.00000000000E+00 -0.00000000000E+00 -0.62079258497E+02  0.62079258497E+02  0.00000000000E+00 0.  1.
         23    2    1    2    0    0 -0.18839335060E+03 -0.89050533933E+02  0.41251941207E+03  0.47093510257E+03  0.90474047949E+02 0.  0.
         23    2    1    2    0    0  0.18839335060E+03  0.89050533933E+02  0.41637264875E+03  0.48211547525E+03  0.12508835559E+03 0.  0.
          5    1    4    4  502    0  0.51139305002E+02  0.62749365202E+02  0.64841690487E+02  0.10380090835E+03  0.41800000000E+01 0. -1.
         -5    1    4    4    0  502  0.13725404560E+03  0.26301168731E+02  0.35153095826E+03  0.37831456690E+03  0.41800000000E+01 0. -1.
        -11    1    3    3    0    0 -0.28026701967E+02 -0.45553027957E+02  0.15954378415E+03  0.16827000161E+03  0.00000000000E+00 0. -1.
         11    1    3    3    0    0 -0.16036664863E+03 -0.43497505976E+02  0.25297562792E+03  0.30266510096E+03  0.00000000000E+00 0.  1.
</event>
<event>
 8    1  0.1790275E-005  0.1586349E+03  0.7561462E-02  0.1190247E+00
         -1   -1    0    0    0  501 -0.00000000000E+00  0.00000000000E+00  0.16840695504E+02  0.16840695504E+02  0.00000000000E+00 0.  1.
          1   -1    0    0  501    0  0.00000000000E+00 -0.00000000000E+00 -0.17358874564E+04  0.17358874564E+04  0.00000000000E+00 0. -1.
         23    2    1    2    0    0 -0.11279835607E+03 -0.66147561183E+02 -0.66500624877E+03  0.68326626810E+03  0.86720892774E+02 0.  0.
         23    2    1    2    0    0  0.11279835607E+03  0.66147561183E+02 -0.10540405121E+04  0.10694618838E+04  0.12509336800E+03 0.  0.
          5    1    4    4  502    0  0.12409432143E+03  0.75430271455E+02 -0.69121070250E+03  0.70631355226E+03  0.41800000000E+01 0.  1.
         -5    1    4    4    0  502 -0.11295965362E+02 -0.92827102719E+01 -0.36282980965E+03  0.36314833156E+03  0.41800000000E+01 0.  1.
        -11    1    3    3    0    0 -0.36793364965E+02 -0.71684647852E+02 -0.32818794375E+03  0.33793456004E+03  0.00000000000E+00 0. -1.
         11    1    3    3    0    0 -0.76004991105E+02  0.55370866683E+01 -0.33681830502E+03  0.34533170807E+03  0.00000000000E+00 0.  1.
</event>
<event>
 8    1  0.1790275E-005  0.1507787E+03  0.7561462E-02  0.1199519E+00
          2   -1    0    0  501    0  0.00000000000E+00  0.00000000000E+00  0.13801312632E+04  0.13801312632E+04  0.00000000000E+00 0. -1.
         -2   -1    0    0    0  501 -0.00000000000E+00 -0.00000000000E+00 -0.24660497092E+02  0.24660497092E+02  0.00000000000E+00 0.  1.
         23    2    1    2    0    0 -0.80896614304E+02 -0.10983955828E+03  0.41265057539E+03  0.44397595700E+03  0.90692680261E+02 0.  0.
         23    2    1    2    0    0  0.80896614304E+02  0.10983955828E+03  0.94282019068E+03  0.96081580326E+03  0.12509238611E+03 0.  0.
          5    1    4    4  502    0  0.56988809814E+01  0.18690008086E+02  0.55528302713E+03  0.55564242663E+03  0.41800000000E+01 0.  1.
         -5    1    4    4    0  502  0.75197733323E+02  0.91149550199E+02  0.38753716355E+03  0.40517337663E+03  0.41800000000E+01 0.  1.
        -11    1    3    3    0    0 -0.96514778398E+00 -0.76864881112E+02  0.17742183500E+03  0.19335886065E+03  0.00000000000E+00 0.  1.
         11    1    3    3    0    0 -0.79931466520E+02 -0.32974677173E+02  0.23522874039E+03  0.25061709634E+03  0.00000000000E+00 0. -1.
</event>
<event>
 8    1  0.1790275E-005  0.1380115E+03  0.7561462E-02  0.1216030E+00
         -1   -1    0    0    0  501 -0.00000000000E+00  0.00000000000E+00  0.99175276126E+02  0.99175276126E+02  0.00000000000E+00 0.  1.
          1   -1    0    0  501    0  0.00000000000E+00 -0.00000000000E+00 -0.28749339548E+03  0.28749339548E+03  0.00000000000E+00 0. -1.
         23    2    1    2    0    0  0.85865868086E+02  0.62452144980E+02  0.87427472830E+00  0.13619451380E+03  0.85293396683E+02 0.  0.
         23    2    1    2    0    0 -0.85865868086E+02 -0.62452144980E+02 -0.18919239408E+03  0.25047415780E+03  0.12518116486E+03 0.  0.
          5    1    4    4  502    0 -0.26129982470E+02 -0.81647185878E+02 -0.15907167780E+03  0.18074930159E+03  0.41800000000E+01 0. -1.
         -5    1    4    4    0  502 -0.59735885616E+02  0.19195040898E+02 -0.30120716275E+02  0.69724856216E+02  0.41800000000E+01 0. -1.
        -11    1    3    3    0    0  0.49761390860E+02  0.74202335710E+02  0.22991515604E+02  0.92253956202E+02  0.00000000000E+00 0.  1.
         11    1    3    3    0    0  0.36104477226E+02 -0.11750190730E+02 -0.22117240875E+02  0.43940557597E+02  0.00000000000E+00 0. -1.
</event>
<event>
 8    1  0.1790275E-005  0.9779445E+02  0.7561462E-02  0.1285003E+00
          2   -1    0    0  501    0  0.00000000000E+00  0.00000000000E+00  0.48171230959E+03  0.48171230959E+03  0.00000000000E+00 0.  1.
         -2   -1    0    0    0  501 -0.00000000000E+00 -0.00000000000E+00 -0.30193417829E+02  0.30193417829E+02  0.00000000000E+00 0. -1.
         23    2    1    2    0    0 -0.26733890269E+01  0.53083055961E+02  0.17904145567E+03  0.20741101753E+03  0.90213798859E+02 0.  0.
         23    2    1    2    0    0  0.26733890269E+01 -0.53083055961E+02  0.27247743610E+03  0.30449470990E+03  0.12509243516E+03 0.  0.
          5    1    4    4  502    0 -0.46080172405E+02  0.10228704493E+02  0.54098140050E+02  0.71917243004E+02  0.41800000000E+01 0.  1.
         -5    1    4    4    0  502  0.48753561432E+02 -0.63311760454E+02  0.21837929605E+03  0.23257746689E+03  0.41800000000E+01 0.  1.
        -11    1    3    3    0    0  0.14975944834E+02  0.47297361525E+02  0.18196672560E+03  0.18860861209E+03  0.00000000000E+00 0.  1.
         11    1    3    3    0    0 -0.17649333861E+02  0.57856944363E+01 -0.29252699316E+01  0.18802405432E+02  0.00000000000E+00 0. -1.
</event>
<event>
 7    1  0.1790275E-005  0.1590608E+03  0.7561462E-02  0.1189761E+00
          2   -1    0    0  501    0  0.00000000000E+00  0.00000000000E+00  0.48132121035E+03  0.48132121035E+03  0.00000000000E+00 0. -1.
         -2   -1    0    0    0  501 -0.00000000000E+00 -0.00000000000E+00 -0.70270743385E+02  0.70270743385E+02  0.00000000000E+00 0.  1.
         23    2    1    2    0    0  0.94279139213E+02 -0.82551851081E+02  0.10010037861E+03  0.18383592288E+03  0.89845403524E+02 0.  0.
          5    1    1    2  502    0 -0.53117543662E+02 -0.17252659000E+02  0.21848933712E+03  0.22555307696E+03  0.41800000000E+01 0. -1.
         -5    1    1    2    0  502 -0.41161595552E+02  0.99804510081E+02  0.92460751231E+02  0.14220295390E+03  0.41800000000E+01 0.  1.
        -11    1    3    3    0    0  0.10330485921E+03 -0.40326521730E+02  0.68795513155E+02  0.13050266251E+03  0.00000000000E+00 0.  1.
         11    1    3    3    0    0 -0.90257199991E+01 -0.42225329351E+02  0.31304865460E+02  0.53333260370E+02  0.00000000000E+00 0. -1.
</event>
<event>
 8    1  0.1790275E-005  0.7181292E+02  0.7561462E-02  0.1354034E+00
         -2   -1    0    0    0  501 -0.00000000000E+00  0.00000000000E+00  0.13273378346E+03  0.13273378346E+03  0.00000000000E+00 0.  1.
          2   -1    0    0  501    0  0.00000000000E+00 -0.00000000000E+00 -0.13031068541E+03  0.13031068541E+03  0.00000000000E+00 0. -1.
         23    2    1    2    0    0 -0.61005818594E+02 -0.11413738267E+02  0.40695975347E+02  0.11825279938E+03  0.92062906902E+02 0.  0.
         23    2    1    2    0    0  0.61005818594E+02  0.11413738267E+02 -0.38272877299E+02  0.14479166950E+03  0.12509129105E+03 0.  0.
          5    1    4    4  502    0  0.46293086147E+00  0.72953276639E+01 -0.73847380358E+02  0.74325931520E+02  0.41800000000E+01 0.  1.
         -5    1    4    4    0  502  0.60542887733E+02  0.41184106027E+01  0.35574503059E+02  0.70465737978E+02  0.41800000000E+01 0.  1.
        -11    1    3    3    0    0 -0.39534897179E+02 -0.26975564249E+02  0.66048167131E+02  0.81566227956E+02  0.00000000000E+00 0.  1.
         11    1    3    3    0    0 -0.21470921415E+02  0.15561825983E+02 -0.25352191784E+02  0.36686571420E+02  0.00000000000E+00 0. -1.
</event>
<event>
 8    1  0.1790275E-005  0.1446437E+03  0.7561462E-02  0.1207214E+00
         -2   -1    0    0    0  501 -0.00000000000E+00  0.00000000000E+00  0.31483241164E+02  0.31483241164E+02  0.00000000000E+00 0.  1.
          2   -1    0    0  501    0  0.00000000000E+00 -0.00000000000E+00 -0.83218055473E+03  0.83218055473E+03  0.00000000000E+00 0. -1.
         23    2    1    2    0    0 -0.36446982083E+02  0.11220767686E+03 -0.31622376650E+03  0.34958145884E+03  0.91053723799E+02 0.  0.
         23    2    1    2    0    0  0.36446982083E+02 -0.11220767686E+03 -0.48447354706E+03  0.51408233705E+03  0.12508831365E+03 0.  0.
          5    1    4    4  502    0 -0.16132290979E+02  0.13938538928E+02 -0.18734112043E+02  0.28687506579E+02  0.41800000000E+01 0.  1.
         -5    1    4    4    0  502  0.52579273062E+02 -0.12614621579E+03 -0.46573943502E+03  0.48539483047E+03  0.41800000000E+01 0.  1.
        -11    1    3    3    0    0  0.69349171456E+01  0.69875644869E+02 -0.83534075900E+02  0.10912671835E+03  0.00000000000E+00 0.  1.
         11    1    3    3    0    0 -0.43381899228E+02  0.42332031993E+02 -0.23268969060E+03  0.24045474049E+03  0.00000000000E+00 0. -1.
</event>
<event>
 8    1  0.1790275E-005  0.1303633E+03  0.7561462E-02  0.1226918E+00
         -2   -1    0    0    0  501 -0.00000000000E+00  0.00000000000E+00  0.15744726781E+03  0.15744726781E+03  0.00000000000E+00 0.  1.
          2   -1    0    0  501    0  0.00000000000E+00 -0.00000000000E+00 -0.15180236937E+03  0.15180236937E+03  0.00000000000E+00 0. -1.
         23    2    1    2    0    0 -0.55168666953E+02  0.95582869034E+02  0.58079453542E+01  0.14243351576E+03  0.89854924837E+02 0.  0.
         23    2    1    2    0    0  0.55168666953E+02 -0.95582869034E+02 -0.16304691511E+00  0.16681612143E+03  0.12509166686E+03 0.  0.
          5    1    4    4  502    0  0.72463183552E+02 -0.97178944453E+02  0.35964599387E+02  0.12651318123E+03  0.41800000000E+01 0. -1.
         -5    1    4    4    0  502 -0.17294516599E+02  0.15960754191E+01 -0.36127646302E+02  0.40302940197E+02  0.41800000000E+01 0. -1.
        -11    1    3    3    0    0  0.52736533744E+01  0.37072583719E+02 -0.32887292983E+02  0.49837354698E+02  0.00000000000E+00 0. -1.
         11    1    3    3    0    0 -0.60442320327E+02  0.58510285315E+02  0.38695238337E+02  0.92596161066E+02  0.00000000000E+00 0.  1.
</event>
<event>
 8    1  0.1790275E-005  0.1040385E+03  0.7561462E-02  0.1272026E+00
          1   -1    0    0  501    0  0.00000000000E+00  0.00000000000E+00  0.72234677109E+02  0.72234677109E+02  0.00000000000E+00 0. -1.
         -1   -1    0    0    0  501 -0.00000000000E+00 -0.00000000000E+00 -0.20441058805E+03  0.20441058805E+03  0.00000000000E+00 0.  1.
         23    2    1    2    0    0  0.23233877197E+02 -0.36721624566E+02 -0.92360648093E+02  0.13836525813E+03  0.93413942118E+02 0.  0.
         23    2    1    2    0    0 -0.23233877197E+02  0.36721624566E+02 -0.39815262844E+02  0.13828000702E+03  0.12509122442E+03 0.  0.
          5    1    4    4  502    0 -0.54011929807E+02 -0.15433768870E+02 -0.51660369833E+02  0.76431380953E+02  0.41800000000E+01 0.  1.
         -5    1    4    4    0  502  0.30778052610E+02  0.52155393435E+02  0.11845106989E+02  0.61848626068E+02  0.41800000000E+01 0.  1.
        -11    1    3    3    0    0 -0.16139303991E+02  0.17648115725E+02 -0.58458331872E+02  0.63160982316E+02  0.00000000000E+00 0. -1.
         11    1    3    3    0    0  0.39373181188E+02 -0.54369740291E+02 -0.33902316222E+02  0.75204275818E+02  0.00000000000E+00 0.  1.
</event>
<event>
 8    1  0.1790275E-005  0.1034966E+03  0.7561462E-02  0.1273110E+00
         -2   -1    0    0    0  501 -0.00000000000E+00  0.00000000000E+00  0.94007413127E+03  0.94007413127E+03  0.00000000000E+00 0.  1.
          2   -1    0    0  501    0  0.00000000000E+00 -0.00000000000E+00 -0.23061464146E+02  0.23061464146E+02  0.00000000000E+00 0. -1.
         23    2    1    2    0    0  0.97822839988E+02  0.27211010482E+02  0.44476904926E+03  0.46416543012E+03  0.85558706308E+02 0.  0.
         23    2    1    2    0    0 -0.97822839988E+02 -0.27211010482E+02  0.47224361786E+03  0.49897016529E+03  0.12508974429E+03 0.  0.
          5    1    4    4  502    0 -0.41284291461E+02 -0.14743679406E+02  0.30830081097E+02  0.53756256420E+02  0.41800000000E+01 0. -1.
         -5    1    4    4    0  502 -0.56538548527E+02 -0.12467331076E+02  0.44141353677E+03  0.44521390887E+03  0.41800000000E+01 0. -1.
        -11    1    3    3    0    0  0.71107037536E+02  0.70821228988E+01  0.40898858862E+03  0.41518433602E+03  0.00000000000E+00 0.  1.
         11    1    3    3    0    0  0.26715802452E+02  0.20128887583E+02  0.35780460637E+02  0.48981094101E+02  0.00000000000E+00 0. -1.
</event>
<event>
 8    1  0.1790275E-005  0.8906932E+02  0.7561462E-02  0.1305121E+00
          2   -1    0    0  501    0  0.00000000000E+00  0.00000000000E+00  0.24023729797E+03  0.24023729797E+03  0.00000000000E+00 0. -1.
         -2   -1    0    0    0  501 -0.00000000000E+00 -0.00000000000E+00 -0.58737981114E+02  0.58737981114E+02  0.00000000000E+00 0.  1.
         23    2    1    2    0    0 -0.18662430225E+01 -0.17416353435E+02  0.23290078025E+02  0.95285640248E+02  0.90719971743E+02 0.  0.
         23    2    1    2    0    0  0.18662430225E+01  0.17416353435E+02  0.15820923883E+03  0.20368963884E+03  0.12709246039E+03 0.  0.
          5    1    4    4  502    0  0.42460131519E+02  0.34163759533E+01  0.15457742116E+03  0.16039384629E+03  0.41800000000E+01 0. -1.
         -5    1    4    4    0  502 -0.40593888496E+02  0.13999977482E+02  0.36318176662E+01  0.43295792547E+02  0.41800000000E+01 0.  1.
        -11    1    3    3    0    0  0.33266801179E+02 -0.38765293738E+02  0.16029324402E+02  0.53538465612E+02  0.00000000000E+00 0.  1.
         11    1    3    3    0    0 -0.35133044202E+02  0.21348940303E+02  0.72607536232E+01  0.41747174636E+02  0.00000000000E+00 0. -1.
</event>
<event>
 8    1  0.1790275E-005  0.1462936E+03  0.7561462E-02  0.1205103E+00
         -3   -1    0    0    0  501 -0.00000000000E+00  0.00000000000E+00  0.67179089426E+02  0.67179089426E+02  0.00000000000E+00 0.  1.
          3   -1    0    0  501    0  0.00000000000E+00 -0.00000000000E+00 -0.37963045047E+03  0.37963045047E+03  0.00000000000E+00 0. -1.
         23    2    1    2    0    0 -0.59247121936E+02  0.10045215588E+03 -0.14922280427E+03  0.21039627057E+03  0.91642175200E+02 0.  0.
         23    2    1    2    0    0  0.59247121936E+02 -0.10045215588E+03 -0.16322855677E+03  0.23641326933E+03  0.12508722992E+03 0.  0.
          5    1    4    4  502    0 -0.36239902433E+01  0.25780475627E+02 -0.10197922806E+02  0.28270766852E+02  0.41800000000E+01 0.  1.
         -5    1    4    4    0  502  0.62871112179E+02 -0.12623263151E+03 -0.15303063397E+03  0.20814250247E+03  0.41800000000E+01 0.  1.
        -11    1    3    3    0    0 -0.53408671539E+02  0.46342977468E+02 -0.25390112568E+02  0.75131987677E+02  0.00000000000E+00 0.  1.
         11    1    3    3    0    0 -0.58384503970E+01  0.54109178414E+02 -0.12383269170E+03  0.13526428289E+03  0.00000000000E+00 0. -1.
</event>
<event>
 8    1  0.1790275E-005  0.1617591E+03  0.7561462E-02  0.1186725E+00
         -2   -1    0    0    0  501 -0.00000000000E+00  0.00000000000E+00  0.90556723659E+02  0.90556723659E+02  0.00000000000E+00 0.  1.
          2   -1    0    0  501    0  0.00000000000E+00 -0.00000000000E+00 -0.50377790626E+03  0.50377790626E+03  0.00000000000E+00 0. -1.
         23    2    1    2    0    0  0.60601324577E+02 -0.14750571716E+03 -0.71756140494E+02  0.19725052151E+03  0.91259889323E+02 0.  0.
         23    2    1    2    0    0 -0.60601324577E+02  0.14750571716E+03 -0.34146504211E+03  0.39708410842E+03  0.12508779731E+03 0.  0.
          5    1    4    4  502    0 -0.56044769483E+02  0.11979588870E+03 -0.13630900898E+03  0.18997286507E+03  0.41800000000E+01 0.  1.
         -5    1    4    4    0  502 -0.45565550944E+01  0.27709828466E+02 -0.20515603314E+03  0.20711124334E+03  0.41800000000E+01 0.  1.
        -11    1    3    3    0    0  0.11053394848E+02 -0.69627227758E+02  0.13288938367E+02  0.71740673721E+02  0.00000000000E+00 0.  1.
         11    1    3    3    0    0  0.49547929730E+02 -0.77878489406E+02 -0.85045078861E+02  0.12550984779E+03  0.00000000000E+00 0. -1.
</event>
<event>
 8    1  0.1790275E-005  0.1199014E+03  0.7561462E-02  0.1243260E+00
          2   -1    0    0  501    0  0.00000000000E+00  0.00000000000E+00  0.13570167463E+03  0.13570167463E+03  0.00000000000E+00 0. -1.
         -2   -1    0    0    0  501 -0.00000000000E+00 -0.00000000000E+00 -0.13867214914E+03  0.13867214914E+03  0.00000000000E+00 0.  1.
         23    2    1    2    0    0 -0.62735952610E+02 -0.51491222553E+02  0.56018644940E+00  0.12522161755E+03  0.95357191354E+02 0.  0.
         23    2    1    2    0    0  0.62735952610E+02  0.51491222553E+02 -0.35306609556E+01  0.14915220623E+03  0.12508704691E+03 0.  0.
          5    1    4    4  502    0  0.72111581172E+02  0.70968418611E+02  0.32996557871E+02  0.10650277842E+03  0.41800000000E+01 0. -1.
         -5    1    4    4    0  502 -0.93756285618E+01 -0.19477196059E+02 -0.36527218826E+02  0.42649427809E+02  0.41800000000E+01 0. -1.
        -11    1    3    3    0    0 -0.33978184044E+02  0.20026359700E+02  0.22067454233E+02  0.45194519691E+02  0.00000000000E+00 0.  1.
         11    1    3    3    0    0 -0.28757768566E+02 -0.71517582253E+02 -0.21507267783E+02  0.80027097859E+02  0.00000000000E+00 0. -1.
</event>
<event>
 8    1  0.1790275E-005  0.1434877E+03  0.7561462E-02  0.1208712E+00
         -1   -1    0    0    0  501 -0.00000000000E+00  0.00000000000E+00  0.13702748946E+03  0.13702748946E+03  0.00000000000E+00 0.  1.
          1   -1    0    0  501    0  0.00000000000E+00 -0.00000000000E+00 -0.26774719258E+03  0.26774719258E+03  0.00000000000E+00 0. -1.
         23    2    1    2    0    0 -0.13370972504E+03 -0.31788103548E+01  0.24616208062E+02  0.16464076650E+03  0.92802095287E+02 0.  0.
         23    2    1    2    0    0  0.13370972504E+03  0.31788103548E+01 -0.15533591118E+03  0.24013391554E+03  0.12508659676E+03 0.  0.
          5    1    4    4  502    0  0.75884127694E+02  0.23875333650E+02 -0.15965221192E+03  0.17842290650E+03  0.41800000000E+01 0. -1.
         -5    1    4    4    0  502  0.57825597341E+02 -0.20696523295E+02  0.43163007483E+01  0.61711009038E+02  0.41800000000E+01 0. -1.
        -11    1    3    3    0    0 -0.11337910281E+03  0.19775760874E+02  0.49369715849E+02  0.12523286516E+03  0.00000000000E+00 0.  1.
         11    1    3    3    0    0 -0.20330622222E+02 -0.22954571229E+02 -0.24753507787E+02  0.39407901340E+02  0.00000000000E+00 0. -1.
</event>
<event>
 8    1  0.1790275E-005  0.1058012E+03  0.7561462E-02  0.1268549E+00
          2   -1    0    0  501    0  0.00000000000E+00  0.00000000000E+00  0.81177855161E+03  0.81177855161E+03  0.00000000000E+00 0. -1.
         -2   -1    0    0    0  501 -0.00000000000E+00 -0.00000000000E+00 -0.38951268058E+02  0.38951268058E+02  0.00000000000E+00 0.  1.
         23    2    1    2    0    0  0.15163209623E+02  0.76902530086E+02  0.79893009737E+02  0.14224594766E+03  0.87790059584E+02 0.  0.
         23    2    1    2    0    0 -0.15163209623E+02 -0.76902530086E+02  0.69293427381E+03  0.70848387200E+03  0.12509023546E+03 0.  0.
          5    1    4    4  502    0 -0.51891535970E+02 -0.58523347986E+01  0.44161253298E+03  0.44470898689E+03  0.41800000000E+01 0. -1.
         -5    1    4    4    0  502  0.36728326347E+02 -0.71050195287E+02  0.25132174082E+03  0.26377488512E+03  0.41800000000E+01 0. -1.
        -11    1    3    3    0    0  0.14408466721E+01  0.35041939285E+02 -0.14599792169E+02  0.37989044201E+02  0.00000000000E+00 0.  1.
         11    1    3    3    0    0  0.13722362950E+02  0.41860590801E+02  0.94492801906E+02  0.10425690346E+03  0.00000000000E+00 0. -1.
</event>
<event>
 8    1  0.1790275E-005  0.8495038E+02  0.7561462E-02  0.1315562E+00
         -1   -1    0    0    0  501 -0.00000000000E+00  0.00000000000E+00  0.11805857971E+03  0.11805857971E+03  0.00000000000E+00 0.  1.
          1   -1    0    0  501    0  0.00000000000E+00 -0.00000000000E+00 -0.18465378928E+03  0.18465378928E+03  0.00000000000E+00 0. -1.
         23    2    1    2    0    0  0.14319231566E+02  0.72986687114E+02  0.35608289474E+02  0.12488005399E+03  0.93781558512E+02 0.  0.
         23    2    1    2    0    0 -0.14319231566E+02 -0.72986687114E+02 -0.10220349905E+03  0.17783231499E+03  0.12508669054E+03 0.  0.
          5    1    4    4  502    0  0.99737763937E+01 -0.56775541500E+02  0.12722364878E+02  0.59179973777E+02  0.41800000000E+01 0.  1.
         -5    1    4    4    0  502 -0.24293007959E+02 -0.16211145614E+02 -0.11492586392E+03  0.11865234122E+03  0.41800000000E+01 0.  1.
        -11    1    3    3    0    0  0.20656239700E+02  0.18444959718E+02 -0.28994870428E+02  0.40094878584E+02  0.00000000000E+00 0. -1.
         11    1    3    3    0    0 -0.63370081340E+01  0.54541727396E+02  0.64603159902E+02  0.84785175407E+02  0.00000000000E+00 0.  1.
</event>
<event>
 8    1  0.1790275E-005  0.1020427E+03  0.7561462E-02  0.1276058E+00
         -2   -1    0    0    0  501 -0.00000000000E+00  0.00000000000E+00  0.33845741556E+02  0.33845741556E+02  0.00000000000E+00 0. -1.
          2   -1    0    0  501    0  0.00000000000E+00 -0.00000000000E+00 -0.57516867927E+03  0.57516867927E+03  0.00000000000E+00 0.  1.
         23    2    1    2    0    0 -0.86109905379E+02  0.88753730601E+01 -0.21047589455E+03  0.24487098079E+03  0.90377026904E+02 0.  0.
         23    2    1    2    0    0  0.86109905379E+02 -0.88753730601E+01 -0.33084704316E+03  0.36414344004E+03  0.12508793269E+03 0.  0.
          5    1    4    4  502    0  0.62764123064E+02 -0.16754249759E+02 -0.49731180760E+02  0.81918879196E+02  0.41800000000E+01 0. -1.
         -5    1    4    4    0  502  0.23345782315E+02  0.78788766986E+01 -0.28111586240E+03  0.28222456084E+03  0.41800000000E+01 0. -1.
        -11    1    3    3    0    0 -0.94541020217E+02 -0.82593008104E+01 -0.20349919132E+03  0.22453984373E+03  0.00000000000E+00 0.  1.
         11    1    3    3    0    0  0.84311148380E+01  0.17134673870E+02 -0.69767032321E+01  0.20331137057E+02  0.00000000000E+00 0. -1.
</event>
<event>
 8    1  0.1790275E-005  0.1546903E+03  0.7561462E-02  0.1194825E+00
         -1   -1    0    0    0  501 -0.00000000000E+00  0.00000000000E+00  0.33434659146E+02  0.33434659146E+02  0.00000000000E+00 0.  1.
          1   -1    0    0  501    0  0.00000000000E+00 -0.00000000000E+00 -0.82321391633E+03  0.82321391633E+03  0.00000000000E+00 0. -1.
         23    2    1    2    0    0  0.51823090241E+02  0.99722846492E+02 -0.22563449037E+03  0.26797314778E+03  0.90930775276E+02 0.  0.
         23    2    1    2    0    0 -0.51823090241E+02 -0.99722846492E+02 -0.56414476681E+03  0.58867542769E+03  0.12509661248E+03 0.  0.
          5    1    4    4  502    0  0.27219057785E+02 -0.82740456977E+02 -0.28965061501E+03  0.30249266356E+03  0.41800000000E+01 0.  1.
         -5    1    4    4    0  502 -0.79042148026E+02 -0.16982389516E+02 -0.27449415179E+03  0.28618276413E+03  0.41800000000E+01 0.  1.
        -11    1    3    3    0    0  0.70488837407E+02  0.10024957808E+03 -0.21192465115E+03  0.24480749962E+03  0.00000000000E+00 0.  1.
         11    1    3    3    0    0 -0.18665747166E+02 -0.52673158605E+00 -0.13709839222E+02  0.23165648165E+02  0.00000000000E+00 0. -1.
</event>
<event>
 7    1  0.1790275E-005  0.1427850E+03  0.7561462E-02  0.1209630E+00
         -2   -1    0    0    0  501 -0.00000000000E+00  0.00000000000E+00  0.46773179249E+02  0.46773179249E+02  0.00000000000E+00 0.  1.
          2   -1    0    0  501    0  0.00000000000E+00 -0.00000000000E+00 -0.67348143148E+03  0.67348143148E+03  0.00000000000E+00 0. -1.
         23    2    1    2    0    0  0.34495279007E+02 -0.10808968492E+03 -0.20223633262E+03  0.24894094202E+03  0.90546971911E+02 0.  0.
          5    1    1    2  502    0 -0.77826240298E+02  0.58575358769E+02 -0.37871045881E+03  0.39105892184E+03  0.41800000000E+01 0. -1.
         -5    1    1    2    0  502  0.43330961290E+02  0.49514326156E+02 -0.45761460801E+02  0.80254746873E+02  0.41800000000E+01 0.  1.
        -11    1    3    3    0    0  0.17701934954E+00 -0.73217651474E+02 -0.18166662699E+03  0.19586632990E+03  0.00000000000E+00 0. -1.
         11    1    3    3    0    0  0.34318259658E+02 -0.34872033451E+02 -0.20569705628E+02  0.53074612128E+02  0.00000000000E+00 0.  1.
</event>
<event>
 8    1  0.1790275E-005  0.8294442E+02  0.7561462E-02  0.1320897E+00
         -2   -1    0    0    0  501 -0.00000000000E+00  0.00000000000E+00  0.34665464746E+02  0.34665464746E+02  0.00000000000E+00 0. -1.
          2   -1    0    0  501    0  0.00000000000E+00 -0.00000000000E+00 -0.35401905194E+03  0.35401905194E+03  0.00000000000E+00 0.  1.
         23    2    1    2    0    0  0.15592118995E+02 -0.19020303226E+02 -0.12917371614E+03  0.15972521041E+03  0.90671979065E+02 0.  0.
         23    2    1    2    0    0 -0.15592118995E+02  0.19020303226E+02 -0.19017987105E+03  0.22895930628E+03  0.12509634075E+03 0.  0.
          5    1    4    4  502    0 -0.33342084030E+02  0.38458064313E+02 -0.17126652817E+02  0.53865684019E+02  0.41800000000E+01 0.  1.
         -5    1    4    4    0  502  0.17749965035E+02 -0.19437761087E+02 -0.17305321824E+03  0.17509362226E+03  0.41800000000E+01 0.  1.
        -11    1    3    3    0    0  0.11409904525E+02 -0.52855559292E+02 -0.50522575341E+02  0.74002882974E+02  0.00000000000E+00 0. -1.
         11    1    3    3    0    0  0.41822144702E+01  0.33835256066E+02 -0.78651140803E+02  0.85722327433E+02  0.00000000000E+00 0.  1.
</event>
<event>
 8    1  0.1790275E-005  0.8620155E+02  0.7561462E-02  0.1312320E+00
          1   -1    0    0  501    0  0.00000000000E+00  0.00000000000E+00  0.61718353367E+03  0.61718353367E+03  0.00000000000E+00 0. -1.
         -1   -1    0    0    0  501 -0.00000000000E+00 -0.00000000000E+00 -0.31234081229E+02  0.31234081229E+02  0.00000000000E+00 0.  1.
         23    2    1    2    0    0 -0.10380235420E+02 -0.56489306512E+02  0.11488621016E+03  0.15794125990E+03  0.91911964704E+02 0.  0.
         23    2    1    2    0    0  0.10380235420E+02  0.56489306512E+02  0.47106324228E+03  0.49047635500E+03  0.12396646945E+03 0.  0.
          5    1    4    4  502    0  0.48188425252E+02  0.42520616253E+02  0.42180010276E+03  0.42668832445E+03  0.41800000000E+01 0. -1.
         -5    1    4    4    0  502 -0.37808189832E+02  0.13968690260E+02  0.49263139526E+02  0.63788030553E+02  0.41800000000E+01 0.  1.
        -11    1    3    3    0    0 -0.23310507083E+02 -0.29905040264E+02 -0.14134504268E+01  0.37943234124E+02  0.00000000000E+00 0.  1.
         11    1    3    3    0    0  0.12930271663E+02 -0.26584266248E+02  0.11629966059E+03  0.11999802577E+03  0.00000000000E+00 0. -1.
</event>
<event>
 8    1  0.1790275E-005  0.1699838E+03  0.7561462E-02  0.1177865E+00
          2   -1    0    0  501    0  0.00000000000E+00  0.00000000000E+00  0.34270474296E+04  0.34270474296E+04  0.00000000000E+00 0. -1.
         -2   -1    0    0    0  501 -0.00000000000E+00 -0.00000000000E+00 -0.23152547004E+02  0.23152547004E+02  0.00000000000E+00 0.  1.
         23    2    1    2    0    0 -0.14449236684E+02 -0.15792843092E+03  0.40721151857E+03  0.44671718062E+03  0.92654459531E+02 0.  0.
         23    2    1    2    0    0  0.14449236684E+02  0.15792843092E+03  0.29966833640E+04  0.30034827960E+04  0.12509017466E+03 0.  0.
          5    1    4    4  502    0  0.25964454868E+02  0.85745239947E+02  0.24817899240E+04  0.24834099739E+04  0.41800000000E+01 0.  1.
         -5    1    4    4    0  502 -0.11515218184E+02  0.72183190976E+02  0.51489344000E+03  0.52007282208E+03  0.41800000000E+01 0.  1.
        -11    1    3    3    0    0 -0.45996968207E+02 -0.71088009875E+02  0.25466718372E+03  0.26837399408E+03  0.00000000000E+00 0. -1.
         11    1    3    3    0    0  0.31547731523E+02 -0.86840421049E+02  0.15254433485E+03  0.17834318654E+03  0.00000000000E+00 0.  1.
</event>
<event>
 8    1  0.1790275E-005  0.9232292E+02  0.7561462E-02  0.1297322E+00
          1   -1    0    0  501    0  0.00000000000E+00  0.00000000000E+00  0.17284672634E+03  0.17284672634E+03  0.00000000000E+00 0. -1.
         -1   -1    0    0    0  501 -0.00000000000E+00 -0.00000000000E+00 -0.82967621740E+02  0.82967621740E+02  0.00000000000E+00 0.  1.
         23    2    1    2    0    0 -0.25989966488E+02  0.58075318378E+01 -0.59696364322E+01  0.95990434690E+02  0.92028915069E+02 0.  0.
         23    2    1    2    0    0  0.25989966488E+02 -0.58075318378E+01  0.95848741031E+02  0.15982391339E+03  0.12508995303E+03 0.  0.
          5    1    4    4  502    0 -0.18298015035E+02 -0.53911234682E+02  0.67586512111E+02  0.88468342351E+02  0.41800000000E+01 0. -1.
         -5    1    4    4    0  502  0.44287981522E+02  0.48103702844E+02  0.28262228920E+02  0.71355571038E+02  0.41800000000E+01 0. -1.
        -11    1    3    3    0    0 -0.43849984112E+02  0.29014514169E+01 -0.38722226368E+02  0.58571753788E+02  0.00000000000E+00 0.  1.
         11    1    3    3    0    0  0.17860017624E+02  0.29060804210E+01  0.32752589936E+02  0.37418680902E+02  0.00000000000E+00 0. -1.
</event>
<event>
 8    1  0.1790275E-005  0.9937177E+02  0.7561462E-02  0.1281623E+00
         -2   -1    0    0    0  501 -0.00000000000E+00  0.00000000000E+00  0.19952957175E+02  0.19952957175E+02  0.00000000000E+00 0.  1.
          2   -1    0    0  501    0  0.00000000000E+00 -0.00000000000E+00 -0.78519988956E+03  0.78519988956E+03  0.00000000000E+00 0. -1.
         23    2    1    2    0    0  0.31201995300E+02  0.48814221123E+02 -0.26408319852E+03  0.28537435461E+03  0.91335610995E+02 0.  0.
         23    2    1    2    0    0 -0.31201995300E+02 -0.48814221123E+02 -0.50116373386E+03  0.51977849212E+03  0.12509276572E+03 0.  0.
          5    1    4    4  502    0  0.15278236772E+02 -0.45996148621E+02 -0.65374044050E+02  0.81488086505E+02  0.41800000000E+01 0.  1.
         -5    1    4    4    0  502 -0.46480232073E+02 -0.28180725018E+01 -0.43578968981E+03  0.43829040561E+03  0.41800000000E+01 0.  1.
        -11    1    3    3    0    0 -0.24003724159E+02  0.41107465588E+02 -0.80562455490E+02  0.93575166231E+02  0.00000000000E+00 0.  1.
         11    1    3    3    0    0  0.55205719459E+02  0.77067555346E+01 -0.18352074303E+03  0.19179918838E+03  0.00000000000E+00 0. -1.
</event>
<event>
 8    1  0.1790275E-005  0.1031339E+03  0.7561462E-02  0.1273841E+00
          1   -1    0    0  501    0  0.00000000000E+00  0.00000000000E+00  0.34153496891E+03  0.34153496891E+03  0.00000000000E+00 0. -1.
         -1   -1    0    0    0  501 -0.00000000000E+00 -0.00000000000E+00 -0.43889283414E+02  0.43889283414E+02  0.00000000000E+00 0.  1.
         23    2    1    2    0    0  0.51523276067E+02 -0.47069595969E+01  0.14219410666E+03  0.17929321522E+03  0.96177386168E+02 0.  0.
         23    2    1    2    0    0 -0.51523276067E+02  0.47069595969E+01  0.15545157884E+03  0.20613103710E+03  0.12509199675E+03 0.  0.
          5    1    4    4  502    0 -0.24144461351E+02  0.64019527199E+02  0.64911510781E+02  0.94405675193E+02  0.41800000000E+01 0.  1.
         -5    1    4    4    0  502 -0.27378814716E+02 -0.59312567603E+02  0.90540068055E+02  0.11172536191E+03  0.41800000000E+01 0.  1.
        -11    1    3    3    0    0  0.22548515919E+02 -0.27378312595E+02  0.33141917881E+01  0.35622906085E+02  0.00000000000E+00 0.  1.
         11    1    3    3    0    0  0.28974760148E+02  0.22671352998E+02  0.13887991487E+03  0.14367030914E+03  0.00000000000E+00 0. -1.
</event>
<event>
 8    1  0.1790275E-005  0.1494485E+03  0.7561462E-02  0.1201152E+00
         -3   -1    0    0    0  501 -0.00000000000E+00  0.00000000000E+00  0.16924185020E+03  0.16924185020E+03  0.00000000000E+00 0.  1.
          3   -1    0    0  501    0  0.00000000000E+00 -0.00000000000E+00 -0.21677902539E+03  0.21677902539E+03  0.00000000000E+00 0. -1.
         23    2    1    2    0    0  0.48218326351E+02 -0.11666367440E+03  0.74073556815E+02  0.17068435544E+03  0.87811374276E+02 0.  0.
         23    2    1    2    0    0 -0.48218326351E+02  0.11666367440E+03 -0.12161073201E+03  0.21533652016E+03  0.12508088125E+03 0.  0.
          5    1    4    4  502    0  0.18980054957E+02  0.17502540730E+02 -0.86609093388E+02  0.90472033667E+02  0.41800000000E+01 0.  1.
         -5    1    4    4    0  502 -0.67198381308E+02  0.99161133666E+02 -0.35001638618E+02  0.12486448649E+03  0.41800000000E+01 0.  1.
        -11    1    3    3    0    0 -0.11450462406E+02 -0.84162719178E+02  0.50214024321E+02  0.98670789128E+02  0.00000000000E+00 0. -1.
         11    1    3    3    0    0  0.59668788757E+02 -0.32500955219E+02  0.23859532494E+02  0.72013566310E+02  0.00000000000E+00 0.  1.
</event>
<event>
 8    1  0.1790275E-005  0.8373405E+02  0.7561462E-02  0.1318777E+00
          1   -1    0    0  501    0  0.00000000000E+00  0.00000000000E+00  0.46191811485E+02  0.46191811485E+02  0.00000000000E+00 0. -1.
         -1   -1    0    0    0  501 -0.00000000000E+00 -0.00000000000E+00 -0.36465509207E+03  0.36465509207E+03  0.00000000000E+00 0.  1.
         23    2    1    2    0    0  0.64327817249E+02 -0.65442335223E+01 -0.17849051642E+03  0.21230454377E+03  0.95044514776E+02 0.  0.
         23    2    1    2    0    0 -0.64327817249E+02  0.65442335223E+01 -0.13997276417E+03  0.19854235979E+03  0.12508316776E+03 0.  0.
          5    1    4    4  502    0 -0.21245060684E+02  0.11243490400E+02  0.20749049958E+02  0.32027553045E+02  0.41800000000E+01 0. -1.
         -5    1    4    4    0  502 -0.43082756565E+02 -0.46992568780E+01 -0.16072181413E+03  0.16651480675E+03  0.41800000000E+01 0. -1.
        -11    1    3    3    0    0  0.76470823696E+02 -0.22284145979E+02 -0.84057353783E+02  0.11580159223E+03  0.00000000000E+00 0. -1.
         11    1    3    3    0    0 -0.12143006447E+02  0.15739912457E+02 -0.94433162633E+02  0.96502951533E+02  0.00000000000E+00 0.  1.
</event>
<event>
 8    1  0.1790275E-005  0.1248467E+03  0.7561462E-02  0.1235309E+00
         -2   -1    0    0    0  501 -0.00000000000E+00  0.00000000000E+00  0.38059088566E+02  0.38059088566E+02  0.00000000000E+00 0.  1.
          2   -1    0    0  501    0  0.00000000000E+00 -0.00000000000E+00 -0.54747151529E+03  0.54747151529E+03  0.00000000000E+00 0. -1.
         23    2    1    2    0    0  0.28767760277E+01  0.84905922877E+02 -0.16376099328E+03  0.20825002435E+03  0.96608064588E+02 0.  0.
         23    2    1    2    0    0 -0.28767760277E+01 -0.84905922877E+02 -0.34565143345E+03  0.37728057951E+03  0.12509368748E+03 0.  0.
          5    1    4    4  502    0 -0.44367721964E+02 -0.16502927881E+02 -0.42605206503E+02  0.63824113014E+02  0.41800000000E+01 0. -1.
         -5    1    4    4    0  502  0.41490945936E+02 -0.68402994996E+02 -0.30304622695E+03  0.31345646649E+03  0.41800000000E+01 0. -1.
        -11    1    3    3    0    0  0.45088869362E+02  0.38099826171E+02 -0.46586288971E+02  0.75198970836E+02  0.00000000000E+00 0. -1.
         11    1    3    3    0    0 -0.42212093335E+02  0.46806096706E+02 -0.11717470431E+03  0.13305105352E+03  0.00000000000E+00 0.  1.
</event>
<event>
 8    1  0.1790275E-005  0.1018003E+03  0.7561462E-02  0.1276555E+00
         -1   -1    0    0    0  501 -0.00000000000E+00  0.00000000000E+00  0.43157361808E+02  0.43157361808E+02  0.00000000000E+00 0. -1.
          1   -1    0    0  501    0  0.00000000000E+00 -0.00000000000E+00 -0.51325030963E+03  0.51325030963E+03  0.00000000000E+00 0.  1.
         23    2    1    2    0    0  0.61890375375E+02 -0.13005425319E+01 -0.64509295566E+02  0.12748315222E+03  0.90875711341E+02 0.  0.
         23    2    1    2    0    0 -0.61890375375E+02  0.13005425319E+01 -0.40558365225E+03  0.42892451921E+03  0.12508410863E+03 0.  0.
          5    1    4    4  502    0 -0.89307966795E+02  0.33146011103E+02 -0.31219214576E+03  0.32642913359E+03  0.41800000000E+01 0. -1.
         -5    1    4    4    0  502  0.27417591420E+02 -0.31845468572E+02 -0.93391506498E+02  0.10249538562E+03  0.41800000000E+01 0. -1.
        -11    1    3    3    0    0  0.12233923351E+02 -0.97561334943E+01 -0.74504379673E+02  0.76129847049E+02  0.00000000000E+00 0.  1.
         11    1    3    3    0    0  0.49656452024E+02  0.84555909625E+01  0.99950841064E+01  0.51353305175E+02  0.00000000000E+00 0. -1.
</event>
<event>
 8    1  0.1790275E-005  0.8300636E+02  0.7561462E-02  0.1320730E+00
         -3   -1    0    0    0  501 -0.00000000000E+00  0.00000000000E+00  0.86603556223E+02  0.86603556223E+02  0.00000000000E+00 0.  1.
          3   -1    0    0  501    0  0.00000000000E+00 -0.00000000000E+00 -0.14849849429E+03  0.14849849429E+03  0.00000000000E+00 0. -1.
         23    2    1    2    0    0  0.76593181649E+01 -0.16632808201E+02  0.29376370952E+01  0.93029208728E+02  0.91161880748E+02 0.  0.
         23    2    1    2    0    0 -0.76593181649E+01  0.16632808201E+02 -0.64832575165E+02  0.14207284179E+03  0.12508442792E+03 0.  0.
          5    1    4    4  502    0  0.36332602986E+02 -0.39188625462E+02 -0.16740032731E+02  0.56156099412E+02  0.41800000000E+01 0. -1.
         -5    1    4    4    0  502 -0.43991921151E+02  0.55821433662E+02 -0.48092542434E+02  0.85916742376E+02  0.41800000000E+01 0. -1.
        -11    1    3    3    0    0  0.18041834361E+02 -0.22848876427E+02  0.42579811611E+02  0.51581191319E+02  0.00000000000E+00 0.  1.
         11    1    3    3    0    0 -0.10382516196E+02  0.62160682266E+01 -0.39642174516E+02  0.41448017408E+02  0.00000000000E+00 0. -1.
</event>
<event>
 8    1  0.1790275E-005  0.1023089E+03  0.7561462E-02  0.1275514E+00
         -1   -1    0    0    0  501 -0.00000000000E+00  0.00000000000E+00  0.25571722409E+02  0.25571722409E+02  0.00000000000E+00 0.  1.
          1   -1    0    0  501    0  0.00000000000E+00 -0.00000000000E+00 -0.50954781739E+03  0.50954781739E+03  0.00000000000E+00 0. -1.
         23    2    1    2    0    0  0.78324182294E+01 -0.15239751635E+02 -0.13395668198E+03  0.16302412641E+03  0.91317448160E+02 0.  0.
         23    2    1    2    0    0 -0.78324182294E+01  0.15239751635E+02 -0.35001941300E+03  0.37209541339E+03  0.12509120826E+03 0.  0.
          5    1    4    4  502    0 -0.64169524086E+02  0.24251959794E+02 -0.17762596165E+03  0.19045823696E+03  0.41800000000E+01 0.  1.
         -5    1    4    4    0  502  0.56337105856E+02 -0.90122081589E+01 -0.17239345136E+03  0.18163717643E+03  0.41800000000E+01 0.  1.
        -11    1    3    3    0    0 -0.15577126106E+02 -0.41010438813E+02 -0.11564559371E+03  0.12368672643E+03  0.00000000000E+00 0. -1.
         11    1    3    3    0    0  0.23409544335E+02  0.25770687178E+02 -0.18311088268E+02  0.39337399979E+02  0.00000000000E+00 0.  1.
</event>
<event>
 8    1  0.4869040E-005  0.2002646E+03  0.7561462E-02  0.1149516E+00
          1   -1    0    0  501    0  0.00000000000E+00  0.00000000000E+00  0.15343120238E+04  0.15343120238E+04  0.00000000000E+00 0. -1.
         -1   -1    0    0    0  501 -0.00000000000E+00 -0.00000000000E+00 -0.29864034699E+02  0.29864034699E+02  0.00000000000E+00 0.  1.
         23    2    1    2    0    0  0.16263253600E+03  0.58335694061E+02  0.48341957596E+03  0.52110424218E+03  0.89458089779E+02 0.  0.
         23    2    1    2    0    0 -0.16263253600E+03 -0.58335694061E+02  0.10210284132E+04  0.10430718164E+04  0.12508956231E+03 0.  0.
          5    1    4    4  502    0 -0.17402663697E+03 -0.24806437198E+02  0.89429956695E+03  0.91142186585E+03  0.41800000000E+01 0. -1.
         -5    1    4    4    0  502  0.11394100976E+02 -0.33529256863E+02  0.12672884623E+03  0.13164995051E+03  0.41800000000E+01 0. -1.
        -11    1    3    3    0    0  0.11744497662E+03  0.76685839139E+02  0.29771711429E+03  0.32910411818E+03  0.00000000000E+00 0. -1.
         11    1    3    3    0    0  0.45187559375E+02 -0.18350145078E+02  0.18570246167E+03  0.19200012400E+03  0.00000000000E+00 0.  1.
</event>
<event>
 8    1  0.1790275E-005  0.1822119E+03  0.7561462E-02  0.1165679E+00
         -2   -1    0    0    0  501 -0.00000000000E+00  0.00000000000E+00  0.15659191488E+03  0.15659191488E+03  0.00000000000E+00 0. -1.
          2   -1    0    0  501    0  0.00000000000E+00 -0.00000000000E+00 -0.22685471065E+03  0.22685471065E+03  0.00000000000E+00 0.  1.
         23    2    1    2    0    0 -0.11852869109E+03  0.92614540618E+02 -0.66392388620E+02  0.18776835795E+03  0.90678019578E+02 0.  0.
         23    2    1    2    0    0  0.11852869109E+03 -0.92614540618E+02 -0.38704071486E+01  0.19567826757E+03  0.12509396709E+03 0.  0.
          5    1    4    4  502    0 -0.22954612711E+02 -0.10479457977E+02  0.16987697200E+02  0.30704845551E+02  0.41800000000E+01 0.  1.
         -5    1    4    4    0  502  0.14148330381E+03 -0.82135082640E+02 -0.20858104348E+02  0.16497342202E+03  0.41800000000E+01 0.  1.
        -11    1    3    3    0    0 -0.83758499787E+02  0.10841821820E+03 -0.57327660391E+02  0.14851416421E+03  0.00000000000E+00 0.  1.
         11    1    3    3    0    0 -0.34770191308E+02 -0.15803677581E+02 -0.90647282287E+01  0.39254193745E+02  0.00000000000E+00 0. -1.
</event>
<event>
 8    1  0.1790275E-005  0.9418206E+02  0.7561462E-02  0.1293029E+00
          3   -1    0    0  501    0  0.00000000000E+00  0.00000000000E+00  0.35785153122E+03  0.35785153122E+03  0.00000000000E+00 0. -1.
         -3   -1    0    0    0  501 -0.00000000000E+00 -0.00000000000E+00 -0.36829221465E+02  0.36829221465E+02  0.00000000000E+00 0.  1.
         23    2    1    2    0    0 -0.37813201226E+02 -0.80120931676E+00  0.13273830969E+03  0.16549758130E+03  0.91320920027E+02 0.  0.
         23    2    1    2    0    0  0.37813201226E+02  0.80120931676E+00  0.18828400006E+03  0.22918317138E+03  0.12507430288E+03 0.  0.
          5    1    4    4  502    0  0.39877942980E+02 -0.53792974098E+02  0.14352603423E+03  0.15843335918E+03  0.41800000000E+01 0. -1.
         -5    1    4    4    0  502 -0.20647417536E+01  0.54594183415E+02  0.44757965834E+02  0.70749812203E+02  0.41800000000E+01 0. -1.
        -11    1    3    3    0    0 -0.26045552539E+02 -0.27149078046E+02  0.13132372183E+03  0.13660659999E+03  0.00000000000E+00 0. -1.
         11    1    3    3    0    0 -0.11767648687E+02  0.26347868730E+02  0.14145878571E+01  0.28890981309E+02  0.00000000000E+00 0.  1.
</event>
<event>
 8    1  0.1790275E-005  0.9526206E+02  0.7561462E-02  0.1290587E+00
          1   -1    0    0  501    0  0.00000000000E+00  0.00000000000E+00  0.15862747235E+03  0.15862747235E+03  0.00000000000E+00 0. -1.
         -1   -1    0    0    0  501 -0.00000000000E+00 -0.00000000000E+00 -0.10187300182E+03  0.10187300182E+03  0.00000000000E+00 0.  1.
         23    2    1    2    0    0  0.13687507746E+02  0.53879833065E+02 -0.42903500775E+01  0.11061847409E+03  0.95538764003E+02 0.  0.
         23    2    1    2    0    0 -0.13687507746E+02 -0.53879833065E+02  0.61044820607E+02  0.14988200008E+03  0.12509100505E+03 0.  0.
          5    1    4    4  502    0  0.16713667204E+02 -0.45013603306E+02  0.92969965746E+02  0.10472085793E+03  0.41800000000E+01 0. -1.
         -5    1    4    4    0  502 -0.30401174950E+02 -0.88662297592E+01 -0.31925145139E+02  0.45161142154E+02  0.41800000000E+01 0. -1.
        -11    1    3    3    0    0  0.53484063223E+02  0.44305910699E+02 -0.54940654701E+01  0.69668812945E+02  0.00000000000E+00 0. -1.
         11    1    3    3    0    0 -0.39796555477E+02  0.95739223658E+01  0.12037153925E+01  0.40949661147E+02  0.00000000000E+00 0.  1.
</event>
<event>
 8    1  0.1790275E-005  0.1183537E+03  0.7561462E-02  0.1245838E+00
          2   -1    0    0  501    0  0.00000000000E+00  0.00000000000E+00  0.68324126589E+02  0.68324126589E+02  0.00000000000E+00 0.  1.
         -2   -1    0    0    0  501 -0.00000000000E+00 -0.00000000000E+00 -0.25187335250E+03  0.25187335250E+03  0.00000000000E+00 0. -1.
         23    2    1    2    0    0 -0.43582429755E+02 -0.60296312254E+02 -0.83558940658E+02  0.14362145049E+03  0.90055266482E+02 0.  0.
         23    2    1    2    0    0  0.43582429755E+02  0.60296312254E+02 -0.99990285256E+02  0.17657602861E+03  0.12508382501E+03 0.  0.
          5    1    4    4  502    0 -0.26477437041E+02 -0.85090082490E+01  0.92720054531E+01  0.29612503757E+02  0.41800000000E+01 0. -1.
         -5    1    4    4    0  502  0.70059866796E+02  0.68805320503E+02 -0.10926229071E+03  0.14696352485E+03  0.41800000000E+01 0. -1.
        -11    1    3    3    0    0  0.23173394298E+02 -0.27374474368E+02 -0.64362288410E+01  0.36438895316E+02  0.00000000000E+00 0.  1.
         11    1    3    3    0    0 -0.66755824053E+02 -0.32921837887E+02 -0.77122711817E+02  0.10718255517E+03  0.00000000000E+00 0. -1.
</event>
<event>
 8    1  0.1790275E-005  0.9053929E+02  0.7561462E-02  0.1301551E+00
         -2   -1    0    0    0  501 -0.00000000000E+00  0.00000000000E+00  0.18739567692E+02  0.18739567692E+02  0.00000000000E+00 0.  1.
          2   -1    0    0  501    0  0.00000000000E+00 -0.00000000000E+00 -0.76852381446E+03  0.76852381446E+03  0.00000000000E+00 0. -1.
         23    2    1    2    0    0  0.11445959192E+02 -0.53549461237E+02 -0.22998105803E+03  0.24982394300E+03  0.80759895150E+02 0.  0.
         23    2    1    2    0    0 -0.11445959192E+02  0.53549461237E+02 -0.51980318874E+03  0.53743943915E+03  0.12508893216E+03 0.  0.
          5    1    4    4  502    0 -0.28047488533E+01  0.66895728525E+02 -0.51628788349E+03  0.52062804011E+03  0.41800000000E+01 0.  1.
         -5    1    4    4    0  502 -0.86412103388E+01 -0.13346267289E+02 -0.35153052505E+01  0.16811399040E+02  0.41800000000E+01 0.  1.
        -11    1    3    3    0    0  0.46074827339E+02 -0.37404862271E+02 -0.13741744238E+03  0.14968489204E+03  0.00000000000E+00 0. -1.
         11    1    3    3    0    0 -0.34628868147E+02 -0.16144598965E+02 -0.92563615651E+02  0.10013905096E+03  0.00000000000E+00 0.  1.
</event>
<event>
 8    1  0.1790275E-005  0.8656362E+02  0.7561462E-02  0.1311393E+00
          3   -1    0    0  501    0  0.00000000000E+00  0.00000000000E+00  0.25241356490E+03  0.25241356490E+03  0.00000000000E+00 0. -1.
         -3   -1    0    0    0  501 -0.00000000000E+00 -0.00000000000E+00 -0.76145764143E+02  0.76145764143E+02  0.00000000000E+00 0.  1.
         23    2    1    2    0    0 -0.30028235247E+02  0.65952853304E+02  0.25812275112E+02  0.11990710157E+03  0.91978071788E+02 0.  0.
         23    2    1    2    0    0  0.30028235247E+02 -0.65952853304E+02  0.15045552565E+03  0.20865222748E+03  0.12508962012E+03 0.  0.
          5    1    4    4  502    0  0.23075245352E+02 -0.75213573348E+02  0.25089559372E+02  0.82683172129E+02  0.41800000000E+01 0.  1.
         -5    1    4    4    0  502  0.69529898946E+01  0.92607200437E+01  0.12536596628E+03  0.12596905535E+03  0.41800000000E+01 0.  1.
        -11    1    3    3    0    0  0.71983642339E+01  0.27834619992E+02  0.52846114445E+02  0.60160571222E+02  0.00000000000E+00 0. -1.
         11    1    3    3    0    0 -0.37226599481E+02  0.38118233312E+02 -0.27033839334E+02  0.59746530350E+02  0.00000000000E+00 0.  1.
</event>
<event>
 8    1  0.1790275E-005  0.1352701E+03  0.7561462E-02  0.1219839E+00
          2   -1    0    0  501    0  0.00000000000E+00  0.00000000000E+00  0.10620351150E+04  0.10620351150E+04  0.00000000000E+00 0. -1.
         -2   -1    0    0    0  501 -0.00000000000E+00 -0.00000000000E+00 -0.25836522966E+02  0.25836522966E+02  0.00000000000E+00 0.  1.
         23    2    1    2    0    0  0.41295948087E+02  0.98050522561E+02  0.27032087644E+03  0.30458867581E+03  0.91551214566E+02 0.  0.
         23    2    1    2    0    0 -0.41295948087E+02 -0.98050522561E+02  0.76587771560E+03  0.78328296217E+03  0.12507702931E+03 0.  0.
          5    1    4    4  502    0 -0.59366790763E+02 -0.34932022585E+02  0.61272052465E+03  0.61659433647E+03  0.41800000000E+01 0. -1.
         -5    1    4    4    0  502  0.18070842676E+02 -0.63118499976E+02  0.15315719096E+03  0.16668862569E+03  0.41800000000E+01 0. -1.
        -11    1    3    3    0    0  0.67228418089E+02  0.62917295588E+02  0.21659971377E+03  0.23535862485E+03  0.00000000000E+00 0. -1.
         11    1    3    3    0    0 -0.25932470002E+02  0.35133226973E+02  0.53721162667E+02  0.69230050962E+02  0.00000000000E+00 0.  1.
</event>
<event>
 8    1  0.1790275E-005  0.9974137E+02  0.7561462E-02  0.1280841E+00
          1   -1    0    0  501    0  0.00000000000E+00  0.00000000000E+00  0.30875153087E+03  0.30875153087E+03  0.00000000000E+00 0. -1.
         -1   -1    0    0    0  501 -0.00000000000E+00 -0.00000000000E+00 -0.60212829466E+02  0.60212829466E+02  0.00000000000E+00 0.  1.
         23    2    1    2    0    0 -0.74144489309E+02 -0.29509805609E+02  0.84059948437E+02  0.14744625454E+03  0.91137748086E+02 0.  0.
         23    2    1    2    0    0  0.74144489309E+02  0.29509805609E+02  0.16447875297E+03  0.22151810579E+03  0.12509507222E+03 0.  0.
          5    1    4    4  502    0  0.22361961925E+02  0.84541630970E+01  0.16366690705E+03  0.16545651718E+03  0.41800000000E+01 0.  1.
         -5    1    4    4    0  502  0.51782527384E+02  0.21055642512E+02  0.81184592084E+00  0.56061588612E+02  0.41800000000E+01 0.  1.
        -11    1    3    3    0    0 -0.18459722823E+02  0.31528616696E+02  0.14024331120E+02  0.39134344262E+02  0.00000000000E+00 0. -1.
         11    1    3    3    0    0 -0.55684766486E+02 -0.61038422305E+02  0.70035617317E+02  0.10831191028E+03  0.00000000000E+00 0.  1.
</event>
<event>
 8    1  0.1790275E-005  0.1047005E+03  0.7561462E-02  0.1270711E+00
          2   -1    0    0  501    0  0.00000000000E+00  0.00000000000E+00  0.11845078679E+04  0.11845078679E+04  0.00000000000E+00 0. -1.
         -2   -1    0    0    0  501 -0.00000000000E+00 -0.00000000000E+00 -0.12443596001E+02  0.12443596001E+02  0.00000000000E+00 0.  1.
         23    2    1    2    0    0 -0.71327093777E+00 -0.75657398518E+01  0.31162072267E+03  0.32742969981E+03  0.10022466936E+03 0.  0.
         23    2    1    2    0    0  0.71327093777E+00  0.75657398518E+01  0.86044354928E+03  0.86952176413E+03  0.12508895890E+03 0.  0.
          5    1    4    4  502    0 -0.38835511292E+02  0.44215375559E+02  0.25818326718E+03  0.26483819253E+03  0.41800000000E+01 0.  1.
         -5    1    4    4    0  502  0.39548782230E+02 -0.36649635707E+02  0.60226028210E+03  0.60468357160E+03  0.41800000000E+01 0.  1.
        -11    1    3    3    0    0  0.15807777664E+02  0.41575148186E+02  0.98220906238E+02  0.10782265626E+03  0.00000000000E+00 0.  1.
         11    1    3    3    0    0 -0.16521048601E+02 -0.49140888038E+02  0.21339981643E+03  0.21960704355E+03  0.00000000000E+00 0. -1.
</event>
<event>
 8    1  0.1790275E-005  0.1577875E+03  0.7561462E-02  0.1191217E+00
         -1   -1    0    0    0  501 -0.00000000000E+00  0.00000000000E+00  0.66786536153E+03  0.66786536153E+03  0.00000000000E+00 0.  1.
          1   -1    0    0  501    0  0.00000000000E+00 -0.00000000000E+00 -0.48139956122E+02  0.48139956122E+02  0.00000000000E+00 0. -1.
         23    2    1    2    0    0 -0.12121310805E+03 -0.35166583868E+02  0.42307162509E+03  0.45095101084E+03  0.91858086372E+02 0.  0.
         23    2    1    2    0    0  0.12121310805E+03  0.35166583868E+02  0.19665378032E+03  0.26505430681E+03  0.12510703443E+03 0.  0.
          5    1    4    4  502    0  0.63584621764E+02 -0.45536594033E+02  0.91893087970E+02  0.12074103502E+03  0.41800000000E+01 0.  1.
         -5    1    4    4    0  502  0.57628486290E+02  0.80703177901E+02  0.10476069235E+03  0.14431327179E+03  0.41800000000E+01 0.  1.
        -11    1    3    3    0    0 -0.68441020952E+02  0.91991856957E+01  0.10628514050E+03  0.12674908069E+03  0.00000000000E+00 0. -1.
         11    1    3    3    0    0 -0.52772087102E+02 -0.44365769563E+02  0.31678648460E+03  0.32420193015E+03  0.00000000000E+00 0.  1.
</event>
<event>
 8    1  0.1790275E-005  0.1104389E+03  0.7561462E-02  0.1259759E+00
          2   -1    0    0  501    0  0.00000000000E+00  0.00000000000E+00  0.67684581994E+02  0.67684581994E+02  0.00000000000E+00 0. -1.
         -2   -1    0    0    0  501 -0.00000000000E+00 -0.00000000000E+00 -0.27381417403E+03  0.27381417403E+03  0.00000000000E+00 0.  1.
         23    2    1    2    0    0  0.99181278910E+00 -0.79271088594E+02 -0.11968347607E+03  0.17001987719E+03  0.91091904227E+02 0.  0.
         23    2    1    2    0    0 -0.99181278910E+00  0.79271088594E+02 -0.86446115971E+02  0.17147887884E+03  0.12508871149E+03 0.  0.
          5    1    4    4  502    0 -0.26521916798E+02  0.10035007816E+03 -0.33973848572E+02  0.10929430472E+03  0.41800000000E+01 0. -1.
         -5    1    4    4    0  502  0.25530104009E+02 -0.21078989569E+02 -0.52472267399E+02  0.62184574116E+02  0.41800000000E+01 0. -1.
        -11    1    3    3    0    0 -0.12230049268E+02 -0.50563710584E+02 -0.64046745627E+01  0.52414528419E+02  0.00000000000E+00 0. -1.
         11    1    3    3    0    0  0.13221862057E+02 -0.28707378010E+02 -0.11327880151E+03  0.11760534877E+03  0.00000000000E+00 0.  1.
</event>
<event>
 6    1  0.1790275E-005  0.1233588E+03  0.7561462E-02  0.1237657E+00
          2   -1    0    0  501    0  0.00000000000E+00  0.00000000000E+00  0.11524139689E+03  0.11524139689E+03  0.00000000000E+00 0. -1.
         -2   -1    0    0    0  501 -0.00000000000E+00 -0.00000000000E+00 -0.27885432690E+03  0.27885432690E+03  0.00000000000E+00 0.  1.
          5    1    1    2  502    0  0.99312732939E+02  0.19405517077E+02  0.65390310017E+02  0.12055271901E+03  0.41800000000E+01 0. -1.
         -5    1    1    2    0  502 -0.99117192073E+02  0.23214640076E+02 -0.13049004352E+03  0.16555440537E+03  0.41800000000E+01 0.  1.
        -11    1    1    2    0    0 -0.38928592972E+01 -0.10080089113E+02 -0.33381604619E+02  0.35086950237E+02  0.00000000000E+00 0. -1.
         11    1    1    2    0    0  0.36973184307E+01 -0.32540068040E+02 -0.65131591882E+02  0.72901649177E+02  0.00000000000E+00 0.  1.
</event>
<event>
 8    1  0.1790275E-005  0.1133116E+03  0.7561462E-02  0.1254557E+00
          2   -1    0    0  501    0  0.00000000000E+00  0.00000000000E+00  0.77970707482E+03  0.77970707482E+03  0.00000000000E+00 0. -1.
         -2   -1    0    0    0  501 -0.00000000000E+00 -0.00000000000E+00 -0.18388162054E+02  0.18388162054E+02  0.00000000000E+00 0.  1.
         23    2    1    2    0    0 -0.31139857831E+02 -0.13933722523E+02  0.22760573199E+03  0.24885822756E+03  0.94668943273E+02 0.  0.
         23    2    1    2    0    0  0.31139857831E+02  0.13933722523E+02  0.53371318077E+03  0.54923700931E+03  0.12509074186E+03 0.  0.
          5    1    4    4  502    0  0.31979581610E+02 -0.53096672693E+02  0.27720325979E+03  0.28407933739E+03  0.41800000000E+01 0.  1.
         -5    1    4    4    0  502 -0.83972377904E+00  0.67030395216E+02  0.25650992098E+03  0.26515767192E+03  0.41800000000E+01 0.  1.
        -11    1    3    3    0    0 -0.57721118334E+01 -0.51599412036E+02  0.89407852850E+02  0.10339042871E+03  0.00000000000E+00 0.  1.
         11    1    3    3    0    0 -0.25367745997E+02  0.37665689513E+02  0.13819787914E+03  0.14546779885E+03  0.00000000000E+00 0. -1.
</event>
<event>
 8    1  0.1790275E-005  0.1680548E+03  0.7561462E-02  0.1179892E+00
          1   -1    0    0  501    0  0.00000000000E+00  0.00000000000E+00  0.13380134783E+04  0.13380134783E+04  0.00000000000E+00 0. -1.
         -1   -1    0    0    0  501 -0.00000000000E+00 -0.00000000000E+00 -0.25164930898E+02  0.25164930898E+02  0.00000000000E+00 0.  1.
         23    2    1    2    0    0  0.12425831352E+02 -0.12991599930E+03  0.36440436421E+03  0.39765987060E+03  0.91160648681E+02 0.  0.
         23    2    1    2    0    0 -0.12425831352E+02  0.12991599930E+03  0.94844418317E+03  0.96551853858E+03  0.12508841511E+03 0.  0.
          5    1    4    4  502    0 -0.46491482035E+02  0.13784102750E+03  0.76933139051E+03  0.78297501084E+03  0.41800000000E+01 0.  1.
         -5    1    4    4    0  502  0.34065650682E+02 -0.79250281963E+01  0.17911279266E+03  0.18254352775E+03  0.41800000000E+01 0.  1.
        -11    1    3    3    0    0  0.48717682993E+02 -0.79388659295E+02  0.17417825026E+03  0.19751970718E+03  0.00000000000E+00 0.  1.
         11    1    3    3    0    0 -0.36291851641E+02 -0.50527340005E+02  0.19022611395E+03  0.20014016341E+03  0.00000000000E+00 0. -1.
</event>
<event>
 8    1  0.1790275E-005  0.1230974E+03  0.7561462E-02  0.1238073E+00
         -2   -1    0    0    0  501 -0.00000000000E+00  0.00000000000E+00  0.73077820311E+02  0.73077820311E+02  0.00000000000E+00 0.  1.
          2   -1    0    0  501    0  0.00000000000E+00 -0.00000000000E+00 -0.22565316294E+03  0.22565316294E+03  0.00000000000E+00 0. -1.
         23    2    1    2    0    0  0.68494471896E+02  0.16906802075E+02 -0.47923721618E+02  0.12102180000E+03  0.85861867816E+02 0.  0.
         23    2    1    2    0    0 -0.68494471896E+02 -0.16906802075E+02 -0.10465162102E+03  0.17770918325E+03  0.12510499349E+03 0.  0.
          5    1    4    4  502    0 -0.19165695405E+02  0.51104631169E+02 -0.64195257051E+02  0.84365340248E+02  0.41800000000E+01 0.  1.
         -5    1    4    4    0  502 -0.49328776491E+02 -0.68011433244E+02 -0.40456363964E+02  0.93343843006E+02  0.41800000000E+01 0.  1.
        -11    1    3    3    0    0  0.21555303168E+02  0.46909511133E+02 -0.38779597322E+02  0.64567720246E+02  0.00000000000E+00 0.  1.
         11    1    3    3    0    0  0.46939168728E+02 -0.30002709058E+02 -0.91441242960E+01  0.56454079754E+02  0.00000000000E+00 0. -1.
</event>
<event>
 8    1  0.1790275E-005  0.8675444E+02  0.7561462E-02  0.1310907E+00
         -1   -1    0    0    0  501 -0.00000000000E+00  0.00000000000E+00  0.36527935747E+02  0.36527935747E+02  0.00000000000E+00 0.  1.
          1   -1    0    0  501    0  0.00000000000E+00 -0.00000000000E+00 -0.43858205228E+03  0.43858205228E+03  0.00000000000E+00 0. -1.
         23    2    1    2    0    0  0.66438135347E+01 -0.14196288932E+02 -0.56812272056E+02  0.10757123773E+03  0.89990344219E+02 0.  0.
         23    2    1    2    0    0 -0.66438135347E+01  0.14196288932E+02 -0.34524184448E+03  0.36753875030E+03  0.12508847635E+03 0.  0.
          5    1    4    4  502    0 -0.37111322420E+02  0.57646393473E+02 -0.14668541435E+03  0.16197049150E+03  0.41800000000E+01 0.  1.
         -5    1    4    4    0  502  0.30467508885E+02 -0.43450104541E+02 -0.19855643013E+03  0.20556825880E+03  0.41800000000E+01 0.  1.
        -11    1    3    3    0    0  0.20857321982E+02 -0.25846396948E+02  0.12785145998E+02  0.35588257525E+02  0.00000000000E+00 0.  1.
         11    1    3    3    0    0 -0.14213508448E+02  0.11650108016E+02 -0.69597418055E+02  0.71982980204E+02  0.00000000000E+00 0. -1.
</event>
<event>
 8    1  0.1790275E-005  0.1020443E+03  0.7561462E-02  0.1276055E+00
          1   -1    0    0  501    0  0.00000000000E+00  0.00000000000E+00  0.37096437075E+03  0.37096437075E+03  0.00000000000E+00 0. -1.
         -1   -1    0    0    0  501 -0.00000000000E+00 -0.00000000000E+00 -0.58271171983E+02  0.58271171983E+02  0.00000000000E+00 0.  1.
         23    2    1    2    0    0 -0.30157365684E+02  0.88963210428E+01  0.38741631558E+01  0.98056272905E+02  0.92797695461E+02 0.  0.
         23    2    1    2    0    0  0.30157365684E+02 -0.88963210428E+01  0.30881903561E+03  0.33117926983E+03  0.11542053879E+03 0.  0.
          5    1    4    4  502    0  0.44942822975E+02  0.36878844433E+02  0.24086685234E+03  0.24781892474E+03  0.41800000000E+01 0. -1.
         -5    1    4    4    0  502 -0.14785457291E+02 -0.45775165476E+02  0.67952183268E+02  0.83360345084E+02  0.41800000000E+01 0.  1.
        -11    1    3    3    0    0  0.60181018433E+01 -0.37896085104E+02  0.61818297762E+01  0.38865741154E+02  0.00000000000E+00 0. -1.
         11    1    3    3    0    0 -0.36175467527E+02  0.46792406147E+02 -0.23076666204E+01  0.59190531752E+02  0.00000000000E+00 0.  1.
</event>
<event>
 8    1  0.1790275E-005  0.1068916E+03  0.7561462E-02  0.1266437E+00
          1   -1    0    0  501    0  0.00000000000E+00  0.00000000000E+00  0.40126900006E+03  0.40126900006E+03  0.00000000000E+00 0. -1.
         -1   -1    0    0    0  501 -0.00000000000E+00 -0.00000000000E+00 -0.31878389720E+02  0.31878389720E+02  0.00000000000E+00 0.  1.
         23    2    1    2    0    0 -0.21673325458E+02  0.18275675924E+02  0.13423647309E+03  0.16528708926E+03  0.92177317178E+02 0.  0.
         23    2    1    2    0    0  0.21673325458E+02 -0.18275675924E+02  0.23515413726E+03  0.26786030052E+03  0.12509172219E+03 0.  0.
          5    1    4    4  502    0 -0.47913509815E+02 -0.79928046095E+01  0.50394734335E+02  0.70119120053E+02  0.41800000000E+01 0. -1.
         -5    1    4    4    0  502  0.69586835273E+02 -0.10282871314E+02  0.18475940292E+03  0.19774118047E+03  0.41800000000E+01 0. -1.
        -11    1    3    3    0    0 -0.45910652615E+01  0.54404434455E+02  0.93143344886E+02  0.10796574950E+03  0.00000000000E+00 0.  1.
         11    1    3    3    0    0 -0.17082260196E+02 -0.36128758531E+02  0.41093128200E+02  0.57321339758E+02  0.00000000000E+00 0. -1.
</event>
<event>
 8    1  0.1790275E-005  0.9650143E+02  0.7561462E-02  0.1287830E+00
         -2   -1    0    0    0  501 -0.00000000000E+00  0.00000000000E+00  0.55985770881E+02  0.55985770881E+02  0.00000000000E+00 0.  1.
          2   -1    0    0  501    0  0.00000000000E+00 -0.00000000000E+00 -0.47618142367E+03  0.47618142367E+03  0.00000000000E+00 0. -1.
         23    2    1    2    0    0  0.67087127391E+02  0.45536273620E+02 -0.47153561893E+02  0.13044417697E+03  0.90653130277E+02 0.  0.
         23    2    1    2    0    0 -0.67087127391E+02 -0.45536273620E+02 -0.37304209090E+03  0.40172301758E+03  0.12508695535E+03 0.  0.
          5    1    4    4  502    0 -0.43080903778E+02  0.12478246232E+02 -0.32828177085E+02  0.55738967609E+02  0.41800000000E+01 0. -1.
         -5    1    4    4    0  502 -0.24006223613E+02 -0.58014519852E+02 -0.34021391381E+03  0.34598404997E+03  0.41800000000E+01 0. -1.
        -11    1    3    3    0    0  0.64870765887E+02  0.33913986955E+02 -0.72154757169E+02  0.10278464749E+03  0.00000000000E+00 0. -1.
         11    1    3    3    0    0  0.22163615045E+01  0.11622286666E+02  0.25001195276E+02  0.27659529477E+02  0.00000000000E+00 0.  1.
</event>
<event>
 8    1  0.1790275E-005  0.9219237E+02  0.7561462E-02  0.1297628E+00
          2   -1    0    0  501    0  0.00000000000E+00  0.00000000000E+00  0.30810204192E+03  0.30810204192E+03  0.00000000000E+00 0. -1.
         -2   -1    0    0    0  501 -0.00000000000E+00 -0.00000000000E+00 -0.77094752617E+02  0.77094752617E+02  0.00000000000E+00 0.  1.
         23    2    1    2    0    0 -0.84531763866E+01 -0.68332878073E+02  0.84417567830E+00  0.11431970519E+03  0.91254829715E+02 0.  0.
         23    2    1    2    0    0  0.84531763866E+01  0.68332878073E+02  0.23016311363E+03  0.27087708935E+03  0.12513392921E+03 0.  0.
          5    1    4    4  502    0  0.26367149755E+02  0.58448837714E+02  0.23952338442E+03  0.24799277671E+03  0.41800000000E+01 0.  1.
         -5    1    4    4    0  502 -0.17913973368E+02  0.98840403598E+01 -0.93602707891E+01  0.22884312638E+02  0.41800000000E+01 0.  1.
        -11    1    3    3    0    0  0.31741956891E+02 -0.31730732717E+02  0.28661365844E+02  0.53252841408E+02  0.00000000000E+00 0. -1.
         11    1    3    3    0    0 -0.40195133278E+02 -0.36602145357E+02 -0.27817190166E+02  0.61066863786E+02  0.00000000000E+00 0.  1.
</event>
<event>
 8    1  0.1790275E-005  0.1421490E+03  0.7561462E-02  0.1210466E+00
          1   -1    0    0  501    0  0.00000000000E+00  0.00000000000E+00  0.17622523868E+03  0.17622523868E+03  0.00000000000E+00 0. -1.
         -1   -1    0    0    0  501 -0.00000000000E+00 -0.00000000000E+00 -0.13330704903E+03  0.13330704903E+03  0.00000000000E+00 0.  1.
         23    2    1    2    0    0 -0.59501589487E+02  0.89194236023E+02  0.10509732021E+01  0.13954199394E+03  0.89301806463E+02 0.  0.
         23    2    1    2    0    0  0.59501589487E+02 -0.89194236023E+02  0.41867216450E+02  0.16999029376E+03  0.12509110787E+03 0.  0.
          5    1    4    4  502    0  0.69954354088E+02 -0.11451521270E+03  0.46115453700E+02  0.14195581378E+03  0.41800000000E+01 0.  1.
         -5    1    4    4    0  502 -0.10452764601E+02  0.25320976682E+02 -0.42482372507E+01  0.28034479979E+02  0.41800000000E+01 0.  1.
        -11    1    3    3    0    0 -0.25592292723E+02  0.84264212656E+02 -0.30266470663E+02  0.93120793745E+02  0.00000000000E+00 0.  1.
         11    1    3    3    0    0 -0.33909296764E+02  0.49300233670E+01  0.31317443866E+02  0.46421200197E+02  0.00000000000E+00 0. -1.
</event>
<event>
 8    1  0.1790275E-005  0.1257310E+03  0.7561462E-02  0.1233931E+00
          1   -1    0    0  501    0  0.00000000000E+00  0.00000000000E+00  0.55119890594E+03  0.55119890594E+03  0.00000000000E+00 0. -1.
         -1   -1    0    0    0  501 -0.00000000000E+00 -0.00000000000E+00 -0.28989485094E+02  0.28989485094E+02  0.00000000000E+00 0.  1.
         23    2    1    2    0    0 -0.82234368960E+01  0.62627060759E+02  0.25675508782E+03  0.28001325894E+03  0.92165483830E+02 0.  0.
         23    2    1    2    0    0  0.82234368960E+01 -0.62627060759E+02  0.26545433303E+03  0.30017513209E+03  0.12509729553E+03 0.  0.
          5    1    4    4  502    0 -0.58208319066E+02 -0.31658232936E+02  0.13641466015E+03  0.15171316365E+03  0.41800000000E+01 0.  1.
         -5    1    4    4    0  502  0.66431755962E+02 -0.30968827823E+02  0.12903967288E+03  0.14846196844E+03  0.41800000000E+01 0.  1.
        -11    1    3    3    0    0  0.30024178807E+02  0.66744359402E+02  0.16327191486E+03  0.17892450644E+03  0.00000000000E+00 0.  1.
         11    1    3    3    0    0 -0.38247615703E+02 -0.41172986426E+01  0.93483172963E+02  0.10108875250E+03  0.00000000000E+00 0. -1.
</event>
<event>
 8    1  0.1790275E-005  0.8151013E+02  0.7561462E-02  0.1324820E+00
         -1   -1    0    0    0  501 -0.00000000000E+00  0.00000000000E+00  0.13618673356E+03  0.13618673356E+03  0.00000000000E+00 0.  1.
          1   -1    0    0  501    0  0.00000000000E+00 -0.00000000000E+00 -0.10856494721E+03  0.10856494721E+03  0.00000000000E+00 0. -1.
         23    2    1    2    0    0 -0.15955392957E+01 -0.15741526062E+01  0.66115866944E+02  0.11385259231E+03  0.92661109494E+02 0.  0.
         23    2    1    2    0    0  0.15955392957E+01  0.15741526062E+01 -0.38494080592E+02  0.13089908845E+03  0.12509098055E+03 0.  0.
          5    1    4    4  502    0 -0.13581884124E+02 -0.31599390169E+02  0.34684152349E+02  0.49025012591E+02  0.41800000000E+01 0. -1.
         -5    1    4    4    0  502  0.15177423419E+02  0.33173542775E+02 -0.73178232942E+02  0.81874075863E+02  0.41800000000E+01 0. -1.
        -11    1    3    3    0    0 -0.42975639997E+02  0.17102373768E+02  0.41842079735E+02  0.62371118782E+02  0.00000000000E+00 0.  1.
         11    1    3    3    0    0  0.41380100701E+02 -0.18676526374E+02  0.24273787209E+02  0.51481473531E+02  0.00000000000E+00 0. -1.
</event>
<event>
 8    1  0.1790275E-005  0.1249306E+03  0.7561462E-02  0.1235178E+00
         -2   -1    0    0    0  501 -0.00000000000E+00  0.00000000000E+00  0.33708412844E+02  0.33708412844E+02  0.00000000000E+00 0.  1.
          2   -1    0    0  501    0  0.00000000000E+00 -0.00000000000E+00 -0.67886880208E+03  0.67886880208E+03  0.00000000000E+00 0. -1.
         23    2    1    2    0    0 -0.68948546907E+02 -0.79937859986E+02 -0.30586104691E+03  0.33586002203E+03  0.90038940471E+02 0.  0.
         23    2    1    2    0    0  0.68948546907E+02  0.79937859986E+02 -0.33929934232E+03  0.37671719289E+03  0.12509131121E+03 0.  0.
          5    1    4    4  502    0  0.10785208209E+02  0.59694463967E+02 -0.29381844130E+03  0.30004416107E+03  0.41800000000E+01 0.  1.
         -5    1    4    4    0  502  0.58163338697E+02  0.20243396018E+02 -0.45480901024E+02  0.76673031822E+02  0.41800000000E+01 0.  1.
        -11    1    3    3    0    0 -0.25184401723E+02 -0.79679077798E+02 -0.25709771139E+03  0.27033727588E+03  0.00000000000E+00 0. -1.
         11    1    3    3    0    0 -0.43764145184E+02 -0.25878218828E+00 -0.48763335523E+02  0.65522746152E+02  0.00000000000E+00 0.  1.
</event>
<event>
 8    1  0.1790275E-005  0.2163775E+03  0.7561462E-02  0.1136613E+00
          2   -1    0    0  501    0  0.00000000000E+00  0.00000000000E+00  0.18945086492E+03  0.18945086492E+03  0.00000000000E+00 0. -1.
         -2   -1    0    0    0  501 -0.00000000000E+00 -0.00000000000E+00 -0.37230929083E+03  0.37230929083E+03  0.00000000000E+00 0.  1.
         23    2    1    2    0    0  0.80502225824E+02  0.18816277943E+03 -0.22581006337E+03  0.31808637357E+03  0.91120340256E+02 0.  0.
         23    2    1    2    0    0 -0.80502225824E+02 -0.18816277943E+03  0.42951637466E+02  0.24367378218E+03  0.12508488731E+03 0.  0.
          5    1    4    4  502    0 -0.38245659318E+02 -0.13704466597E+03 -0.29493210304E+02  0.14536606475E+03  0.41800000000E+01 0. -1.
         -5    1    4    4    0  502 -0.42256566506E+02 -0.51118113462E+02  0.72444847771E+02  0.98307717425E+02  0.41800000000E+01 0. -1.
        -11    1    3    3    0    0  0.49391253187E+01  0.12603999840E+03 -0.13112451553E+03  0.18194536194E+03  0.00000000000E+00 0.  1.
         11    1    3    3    0    0  0.75563100505E+02  0.62122781031E+02 -0.94685547833E+02  0.13614101164E+03  0.00000000000E+00 0. -1.
</event>
<event>
 8    1  0.1790275E-005  0.7276136E+02  0.7561462E-02  0.1350947E+00
          2   -1    0    0  501    0  0.00000000000E+00  0.00000000000E+00  0.90922628565E+02  0.90922628565E+02  0.00000000000E+00 0. -1.
         -2   -1    0    0    0  501 -0.00000000000E+00 -0.00000000000E+00 -0.23494093550E+03  0.23494093550E+03  0.00000000000E+00 0.  1.
         23    2    1    2    0    0 -0.16040075751E+02  0.51466786346E+02 -0.15788609584E+03  0.18894475410E+03  0.88690398106E+02 0.  0.
         23    2    1    2    0    0  0.16040075751E+02 -0.51466786346E+02  0.13867788908E+02  0.13691880996E+03  0.12509328849E+03 0.  0.
          5    1    4    4  502    0  0.44163236066E+02 -0.40749205397E+02 -0.41924157728E+02  0.73389349101E+02  0.41800000000E+01 0. -1.
         -5    1    4    4    0  502 -0.28123160314E+02 -0.10717580948E+02  0.55791946636E+02  0.63529460858E+02  0.41800000000E+01 0. -1.
        -11    1    3    3    0    0 -0.13277764427E+02  0.25144245075E+02  0.42359602678E+00  0.28437853684E+02  0.00000000000E+00 0. -1.
         11    1    3    3    0    0 -0.27623113246E+01  0.26322541271E+02 -0.15830969187E+03  0.16050690042E+03  0.00000000000E+00 0.  1.
</event>
<event>
 8    1  0.1790275E-005  0.1130727E+03  0.7561462E-02  0.1254983E+00
         -1   -1    0    0    0  501 -0.00000000000E+00  0.00000000000E+00  0.28022788938E+02  0.28022788938E+02  0.00000000000E+00 0.  1.
          1   -1    0    0  501    0  0.00000000000E+00 -0.00000000000E+00 -0.86643376916E+03  0.86643376916E+03  0.00000000000E+00 0. -1.
         23    2    1    2    0    0 -0.23438922724E+02  0.79581094090E+02 -0.17071321131E+03  0.21009472984E+03  0.90079194899E+02 0.  0.
         23    2    1    2    0    0  0.23438922724E+02 -0.79581094090E+02 -0.66769776891E+03  0.68436182826E+03  0.12509303633E+03 0.  0.
          5    1    4    4  502    0 -0.25069836671E+02 -0.57920370272E+02 -0.13587391293E+03  0.14987480982E+03  0.41800000000E+01 0. -1.
         -5    1    4    4    0  502  0.48508759395E+02 -0.21660723818E+02 -0.53182385598E+03  0.53448701844E+03  0.41800000000E+01 0. -1.
        -11    1    3    3    0    0 -0.41777876772E+02  0.81073727376E+02 -0.93099247524E+02  0.13032962114E+03  0.00000000000E+00 0.  1.
         11    1    3    3    0    0  0.18338954048E+02 -0.14926332857E+01 -0.77613963789E+02  0.79765108693E+02  0.00000000000E+00 0. -1.
</event>
<event>
 8    1  0.1790275E-005  0.1308851E+03  0.7561462E-02  0.1226148E+00
         -2   -1    0    0    0  501 -0.00000000000E+00  0.00000000000E+00  0.38567957679E+02  0.38567957679E+02  0.00000000000E+00 0.  1.
          2   -1    0    0  501    0  0.00000000000E+00 -0.00000000000E+00 -0.59579587255E+03  0.59579587255E+03  0.00000000000E+00 0. -1.
         23    2    1    2    0    0  0.61877673720E+02 -0.79797263005E+02 -0.19135614304E+03  0.23473121275E+03  0.91022629445E+02 0.  0.
         23    2    1    2    0    0 -0.61877673720E+02  0.79797263005E+02 -0.36587177183E+03  0.39963261748E+03  0.12509047063E+03 0.  0.
          5    1    4    4  502    0  0.13024658251E+02  0.84418827488E+02 -0.18843041804E+03  0.20692915454E+03  0.41800000000E+01 0.  1.
         -5    1    4    4    0  502 -0.74902331971E+02 -0.46215644826E+01 -0.17744135379E+03  0.19270346294E+03  0.41800000000E+01 0.  1.
        -11    1    3    3    0    0  0.15385132300E+02 -0.23305389276E+02  0.19987119635E+01  0.27997112614E+02  0.00000000000E+00 0.  1.
         11    1    3    3    0    0  0.46492541420E+02 -0.56491873729E+02 -0.19335485500E+03  0.20673410013E+03  0.00000000000E+00 0. -1.
</event>
<event>
 7    1  0.1790275E-005  0.1197582E+03  0.7561462E-02  0.1243496E+00
          2   -1    0    0  501    0  0.00000000000E+00  0.00000000000E+00  0.19144630469E+03  0.19144630469E+03  0.00000000000E+00 0. -1.
         -2   -1    0    0    0  501 -0.00000000000E+00 -0.00000000000E+00 -0.12482991811E+03  0.12482991811E+03  0.00000000000E+00 0.  1.
         23    2    1    2    0    0  0.43586069007E+02  0.28548332101E+02 -0.21358591896E+02  0.10662989264E+03  0.90548284791E+02 0.  0.
          5    1    1    2  502    0  0.24750297606E+02 -0.70431520128E+02  0.10371615405E+03  0.12785808254E+03  0.41800000000E+01 0. -1.
         -5    1    1    2    0  502 -0.68336366613E+02  0.41883188026E+02 -0.15741175577E+02  0.81788247626E+02  0.41800000000E+01 0.  1.
        -11    1    3    3    0    0  0.36228875292E+02 -0.15805652230E+02 -0.41546803083E+02  0.57345330182E+02  0.00000000000E+00 0.  1.
         11    1    3    3    0    0  0.73571937155E+01  0.44353984331E+02  0.20188211186E+02  0.49284562454E+02  0.00000000000E+00 0. -1.
</event>
<event>
 8    1  0.1790275E-005  0.1266180E+03  0.7561462E-02  0.1232562E+00
          1   -1    0    0  501    0  0.00000000000E+00  0.00000000000E+00  0.73857176101E+03  0.73857176101E+03  0.00000000000E+00 0.  1.
         -1   -1    0    0    0  501 -0.00000000000E+00 -0.00000000000E+00 -0.28402681793E+02  0.28402681793E+02  0.00000000000E+00 0. -1.
         23    2    1    2    0    0 -0.92020367348E+02 -0.18946805113E+02  0.28079943178E+03  0.30999186952E+03  0.91760061296E+02 0.  0.
         23    2    1    2    0    0  0.92020367348E+02  0.18946805113E+02  0.42936964744E+03  0.45698257328E+03  0.12509216088E+03 0.  0.
          5    1    4    4  502    0  0.55520676755E+02 -0.43755904403E+02  0.12130093971E+03  0.14045823256E+03  0.41800000000E+01 0. -1.
         -5    1    4    4    0  502  0.36499690593E+02  0.62702709516E+02  0.30806870772E+03  0.31652434073E+03  0.41800000000E+01 0. -1.
        -11    1    3    3    0    0 -0.82742008367E+02 -0.36079118298E+02  0.27533908687E+03  0.28975775310E+03  0.00000000000E+00 0.  1.
         11    1    3    3    0    0 -0.92783589809E+01  0.17132313185E+02  0.54603449066E+01  0.20234116411E+02  0.00000000000E+00 0. -1.
</event>
<event>
 8    1  0.1790275E-005  0.2046805E+03  0.7561462E-02  0.1145849E+00
          1   -1    0    0  501    0  0.00000000000E+00  0.00000000000E+00  0.80814413826E+03  0.80814413826E+03  0.00000000000E+00 0. -1.
         -1   -1    0    0    0  501 -0.00000000000E+00 -0.00000000000E+00 -0.60194097026E+02  0.60194097026E+02  0.00000000000E+00 0.  1.
         23    2    1    2    0    0 -0.65244819240E+02 -0.16852519118E+03  0.48169434845E+03  0.52308565401E+03  0.94506770165E+02 0.  0.
         23    2    1    2    0    0  0.65244819240E+02  0.16852519118E+03  0.26625569279E+03  0.34525258127E+03  0.12509845896E+03 0.  0.
          5    1    4    4  502    0  0.45048292970E+02 -0.31962072633E+01  0.72637623925E+02  0.85634462980E+02  0.41800000000E+01 0.  1.
         -5    1    4    4    0  502  0.20196526269E+02  0.17172139844E+03  0.19361806886E+03  0.25961811829E+03  0.41800000000E+01 0.  1.
        -11    1    3    3    0    0 -0.76739945738E+02 -0.13119117970E+03  0.28960498825E+03  0.32706451064E+03  0.00000000000E+00 0.  1.
         11    1    3    3    0    0  0.11495126499E+02 -0.37334011480E+02  0.19208936020E+03  0.19602114337E+03  0.00000000000E+00 0. -1.
</event>
<event>
 8    1  0.1790275E-005  0.1382311E+03  0.7561462E-02  0.1215729E+00
          1   -1    0    0  501    0  0.00000000000E+00  0.00000000000E+00  0.25388862139E+03  0.25388862139E+03  0.00000000000E+00 0. -1.
         -1   -1    0    0    0  501 -0.00000000000E+00 -0.00000000000E+00 -0.11084410222E+03  0.11084410222E+03  0.00000000000E+00 0.  1.
         23    2    1    2    0    0 -0.81681592637E+02 -0.79162594615E+02  0.79496917639E+01  0.14831457190E+03  0.94844165227E+02 0.  0.
         23    2    1    2    0    0  0.81681592637E+02  0.79162594615E+02  0.13509482741E+03  0.21641815171E+03  0.12509038746E+03 0.  0.
          5    1    4    4  502    0  0.85151383045E+02  0.85492355973E+02  0.15404004657E+03  0.19571793303E+03  0.41800000000E+01 0.  1.
         -5    1    4    4    0  502 -0.34697904082E+01 -0.63297613577E+01 -0.18945219159E+02  0.20700218677E+02  0.41800000000E+01 0.  1.
        -11    1    3    3    0    0 -0.65925388655E+02  0.75421522351E+00 -0.36850478084E+01  0.66032607757E+02  0.00000000000E+00 0.  1.
         11    1    3    3    0    0 -0.15756203982E+02 -0.79916809839E+02  0.11634739572E+02  0.82281964146E+02  0.00000000000E+00 0. -1.
</event>
<event>
 8    1  0.1790275E-005  0.9638144E+02  0.7561462E-02  0.1288095E+00
         -2   -1    0    0    0  501 -0.00000000000E+00  0.00000000000E+00  0.24170995570E+02  0.24170995570E+02  0.00000000000E+00 0. -1.
          2   -1    0    0  501    0  0.00000000000E+00 -0.00000000000E+00 -0.76552581914E+03  0.76552581914E+03  0.00000000000E+00 0.  1.
         23    2    1    2    0    0  0.30828765804E+02 -0.33894693878E+02 -0.13772366730E+03  0.17154059640E+03  0.91428139016E+02 0.  0.
         23    2    1    2    0    0 -0.30828765804E+02  0.33894693878E+02 -0.60363115626E+03  0.61815621830E+03  0.12508906565E+03 0.  0.
          5    1    4    4  502    0 -0.55968200730E+02 -0.21539151346E+01 -0.11977054727E+03  0.13228580891E+03  0.41800000000E+01 0. -1.
         -5    1    4    4    0  502  0.25139434926E+02  0.36048609013E+02 -0.48386060899E+03  0.48587040940E+03  0.41800000000E+01 0. -1.
        -11    1    3    3    0    0 -0.22140624373E+02  0.93854156959E+01 -0.88235446417E+01  0.25615390207E+02  0.00000000000E+00 0. -1.
         11    1    3    3    0    0  0.52969390177E+02 -0.43280109574E+02 -0.12890012266E+03  0.14592520619E+03  0.00000000000E+00 0.  1.
</event>
<event>
 8    1  0.1790275E-005  0.1144187E+03  0.7561462E-02  0.1252599E+00
          2   -1    0    0  501    0  0.00000000000E+00  0.00000000000E+00  0.19357568388E+04  0.19357568388E+04  0.00000000000E+00 0. -1.
         -2   -1    0    0    0  501 -0.00000000000E+00 -0.00000000000E+00 -0.96306363633E+01  0.96306363633E+01  0.00000000000E+00 0.  1.
         23    2    1    2    0    0  0.56657863199E+02  0.37119303375E+02  0.54554440465E+03  0.55749770949E+03  0.92720237797E+02 0.  0.
         23    2    1    2    0    0 -0.56657863199E+02 -0.37119303375E+02  0.13805817978E+04  0.13878897657E+04  0.12507575758E+03 0.  0.
          5    1    4    4  502    0 -0.51488346865E+01 -0.57973631846E+02  0.28608961038E+03  0.29197977679E+03  0.41800000000E+01 0. -1.
         -5    1    4    4    0  502 -0.51509028513E+02  0.20854328471E+02  0.10944921874E+04  0.10959099889E+04  0.41800000000E+01 0. -1.
        -11    1    3    3    0    0  0.30686346304E+02 -0.29923189832E+02  0.21310799877E+03  0.21737540863E+03  0.00000000000E+00 0.  1.
         11    1    3    3    0    0  0.25971516895E+02  0.67042493207E+02  0.33243640588E+03  0.34012230086E+03  0.00000000000E+00 0. -1.
</event>
<event>
 8    1  0.1790275E-005  0.9266467E+02  0.7561462E-02  0.1296524E+00
          2   -1    0    0  501    0  0.00000000000E+00  0.00000000000E+00  0.53876505343E+03  0.53876505343E+03  0.00000000000E+00 0. -1.
         -2   -1    0    0    0  501 -0.00000000000E+00 -0.00000000000E+00 -0.35944662213E+02  0.35944662213E+02  0.00000000000E+00 0.  1.
         23    2    1    2    0    0 -0.50557639013E+02  0.16071621468E+02  0.83316859060E+02  0.13375002978E+03  0.90183144674E+02 0.  0.
         23    2    1    2    0    0  0.50557639013E+02 -0.16071621468E+02  0.41950353216E+03  0.44095968586E+03  0.12509140332E+03 0.  0.
          5    1    4    4  502    0  0.76126376986E+02 -0.26469958111E+02  0.15284428943E+03  0.17284308828E+03  0.41800000000E+01 0. -1.
         -5    1    4    4    0  502 -0.25568737973E+02  0.10398336643E+02  0.26665924273E+03  0.26811659758E+03  0.41800000000E+01 0. -1.
        -11    1    3    3    0    0 -0.48883091487E+01  0.28867864555E+02 -0.84308684668E+01  0.30468487219E+02  0.00000000000E+00 0.  1.
         11    1    3    3    0    0 -0.45669329864E+02 -0.12796243087E+02  0.91747727527E+02  0.10328154256E+03  0.00000000000E+00 0. -1.
</event>
<event>
 8    1  0.1790275E-005  0.1359233E+03  0.7561462E-02  0.1218922E+00
          1   -1    0    0  501    0  0.00000000000E+00  0.00000000000E+00  0.78892539109E+03  0.78892539109E+03  0.00000000000E+00 0. -1.
         -1   -1    0    0    0  501 -0.00000000000E+00 -0.00000000000E+00 -0.30604788158E+02  0.30604788158E+02  0.00000000000E+00 0.  1.
         23    2    1    2    0    0 -0.24533152121E+02  0.10194794519E+03  0.25364344557E+03  0.28911349209E+03  0.90864485631E+02 0.  0.
         23    2    1    2    0    0  0.24533152121E+02 -0.10194794519E+03  0.50467715736E+03  0.53041668715E+03  0.12509024649E+03 0.  0.
          5    1    4    4  502    0 -0.29910756673E+02 -0.92819807706E+02  0.40291612355E+03  0.41457091683E+03  0.41800000000E+01 0. -1.
         -5    1    4    4    0  502  0.54443908793E+02 -0.91281374841E+01  0.10176103381E+03  0.11584577032E+03  0.41800000000E+01 0. -1.
        -11    1    3    3    0    0 -0.42817258732E+02  0.73306596343E+02  0.97342998415E+02  0.12916204571E+03  0.00000000000E+00 0.  1.
         11    1    3    3    0    0  0.18284106611E+02  0.28641348848E+02  0.15630044715E+03  0.15995144638E+03  0.00000000000E+00 0. -1.
</event>
<event>
 8    1  0.1790275E-005  0.1081313E+03  0.7561462E-02  0.1264070E+00
          3   -1    0    0  501    0  0.00000000000E+00  0.00000000000E+00  0.47496946177E+03  0.47496946177E+03  0.00000000000E+00 0. -1.
         -3   -1    0    0    0  501 -0.00000000000E+00 -0.00000000000E+00 -0.30924276314E+02  0.30924276314E+02  0.00000000000E+00 0.  1.
         23    2    1    2    0    0  0.20380431170E+02  0.26744582126E+02  0.10266507276E+03  0.14076276056E+03  0.90240805335E+02 0.  0.
         23    2    1    2    0    0 -0.20380431170E+02 -0.26744582126E+02  0.34138011270E+03  0.36513097753E+03  0.12509842028E+03 0.  0.
          5    1    4    4  502    0  0.12338801330E+00  0.47848603116E+02  0.17713125614E+03  0.18352781355E+03  0.41800000000E+01 0. -1.
         -5    1    4    4    0  502 -0.20503819183E+02 -0.74593185242E+02  0.16424885656E+03  0.18160316398E+03  0.41800000000E+01 0. -1.
        -11    1    3    3    0    0 -0.10523127814E+02 -0.26880269202E+02  0.12635758569E+02  0.31511069261E+02  0.00000000000E+00 0.  1.
         11    1    3    3    0    0  0.30903558983E+02  0.53624851328E+02  0.90029314189E+02  0.10925169130E+03  0.00000000000E+00 0. -1.
</event>
<event>
 7    1  0.1790275E-005  0.8460907E+02  0.7561462E-02  0.1316458E+00
         -1   -1    0    0    0  501 -0.00000000000E+00  0.00000000000E+00  0.77596764474E+02  0.77596764474E+02  0.00000000000E+00 0.  1.
          1   -1    0    0  501    0  0.00000000000E+00 -0.00000000000E+00 -0.41848914748E+03  0.41848914748E+03  0.00000000000E+00 0. -1.
         23    2    1    2    0    0  0.46796481991E+02  0.33467744553E+02  0.68859361333E+01  0.11641486771E+03  0.10097031571E+03 0.  0.
          5    1    1    2  502    0 -0.20256874827E+02 -0.30172270718E+02 -0.35055717550E+03  0.35246065397E+03  0.41800000000E+01 0. -1.
         -5    1    1    2    0  502 -0.26539607164E+02 -0.32954738352E+01  0.27788563657E+01  0.27210390275E+02  0.41800000000E+01 0.  1.
        -11    1    3    3    0    0 -0.26626367636E+02  0.10714650576E+02  0.24291757406E+02  0.37601285461E+02  0.00000000000E+00 0.  1.
         11    1    3    3    0    0  0.73422849627E+02  0.22753093977E+02 -0.17405821272E+02  0.78813582250E+02  0.00000000000E+00 0. -1.
</event>
<event>
 7    1  0.1790275E-005  0.1085853E+03  0.7561462E-02  0.1263212E+00
         -3   -1    0    0    0  501 -0.00000000000E+00  0.00000000000E+00  0.67592726209E+02  0.67592726209E+02  0.00000000000E+00 0.  1.
          3   -1    0    0  501    0  0.00000000000E+00 -0.00000000000E+00 -0.49195299652E+03  0.49195299652E+03  0.00000000000E+00 0. -1.
         23    2    1    2    0    0 -0.20134854919E+02  0.59271977581E+02 -0.12222980748E+02  0.11688938247E+03  0.97954820023E+02 0.  0.
          5    1    1    2  502    0  0.27739281609E+02 -0.76723790035E+02 -0.96571600492E+02  0.12648934391E+03  0.41800000000E+01 0. -1.
         -5    1    1    2    0  502 -0.76044266894E+01  0.17451812454E+02 -0.31556568907E+03  0.31616699635E+03  0.41800000000E+01 0.  1.
        -11    1    3    3    0    0 -0.18843022014E+02 -0.25223027909E+02 -0.68028450129E+01  0.32210857110E+02  0.00000000000E+00 0. -1.
         11    1    3    3    0    0 -0.12918329056E+01  0.84495005490E+02 -0.54201357352E+01  0.84678525355E+02  0.00000000000E+00 0.  1.
</event>
<event>
 8    1  0.1790275E-005  0.6189975E+02  0.7561462E-02  0.1390028E+00
         -1   -1    0    0    0  501 -0.00000000000E+00  0.00000000000E+00  0.13683994058E+03  0.13683994058E+03  0.00000000000E+00 0. -1.
          1   -1    0    0  501    0  0.00000000000E+00 -0.00000000000E+00 -0.15337546307E+03  0.15337546307E+03  0.00000000000E+00 0.  1.
         23    2    1    2    0    0 -0.11373170781E+01 -0.19285977639E+02  0.86240399659E+02  0.12717035784E+03  0.91442063382E+02 0.  0.
         23    2    1    2    0    0  0.11373170781E+01  0.19285977639E+02 -0.10277592215E+03  0.16304504581E+03  0.12509018493E+03 0.  0.
          5    1    4    4  502    0 -0.14927679697E+00 -0.14793840544E+02 -0.12247712598E+03  0.12343823877E+03  0.41800000000E+01 0. -1.
         -5    1    4    4    0  502  0.12865938751E+01  0.34079818183E+02  0.19701203837E+02  0.39606807039E+02  0.41800000000E+01 0. -1.
        -11    1    3    3    0    0 -0.29079025071E+02 -0.32111891328E+02  0.86145781494E+02  0.96425406055E+02  0.00000000000E+00 0. -1.
         11    1    3    3    0    0  0.27941707993E+02  0.12825913689E+02  0.94618165334E-01  0.30744951783E+02  0.00000000000E+00 0.  1.
</event>
<event>
 8    1  0.1790275E-005  0.9402003E+02  0.7561462E-02  0.1293399E+00
         -2   -1    0    0    0  501 -0.00000000000E+00  0.00000000000E+00  0.36932589714E+02  0.36932589714E+02  0.00000000000E+00 0.  1.
          2   -1    0    0  501    0  0.00000000000E+00 -0.00000000000E+00 -0.49438697041E+03  0.49438697041E+03  0.00000000000E+00 0. -1.
         23    2    1    2    0    0 -0.23824356205E+02 -0.76930694333E+02 -0.16759646675E+03  0.20550925936E+03  0.87518845602E+02 0.  0.
         23    2    1    2    0    0  0.23824356205E+02  0.76930694333E+02 -0.28985791394E+03  0.32581030076E+03  0.12509520426E+03 0.  0.
          5    1    4    4  502    0 -0.14195615224E+02  0.17881133977E+01  0.75303205458E+01  0.16700029001E+02  0.41800000000E+01 0. -1.
         -5    1    4    4    0  502  0.38019971430E+02  0.75142580935E+02 -0.29738823449E+03  0.30911027176E+03  0.41800000000E+01 0. -1.
        -11    1    3    3    0    0 -0.33981767436E+02 -0.55050999542E+02 -0.40904337538E+02  0.76541086340E+02  0.00000000000E+00 0.  1.
         11    1    3    3    0    0  0.10157411231E+02 -0.21879694791E+02 -0.12669212922E+03  0.12896817302E+03  0.00000000000E+00 0. -1.
</event>
<event>
 8    1  0.1790275E-005  0.7848821E+02  0.7561462E-02  0.1333397E+00
          4   -1    0    0  501    0  0.00000000000E+00  0.00000000000E+00  0.36918241582E+03  0.36918241582E+03  0.00000000000E+00 0. -1.
         -4   -1    0    0    0  501 -0.00000000000E+00 -0.00000000000E+00 -0.87051088114E+02  0.87051088114E+02  0.00000000000E+00 0.  1.
         23    2    1    2    0    0 -0.36780735142E+01  0.44758042926E+02 -0.37516240711E+02  0.11005635312E+03  0.93210095554E+02 0.  0.
         23    2    1    2    0    0  0.36780735142E+01 -0.44758042926E+02  0.31964756842E+03  0.34617715082E+03  0.12508893285E+03 0.  0.
          5    1    4    4  502    0 -0.18186952833E+02 -0.14721595593E+02 -0.57855146214E+00  0.23775991082E+02  0.41800000000E+01 0. -1.
         -5    1    4    4    0  502  0.21865026347E+02 -0.30036447333E+02  0.32022611988E+03  0.32240115973E+03  0.41800000000E+01 0. -1.
        -11    1    3    3    0    0 -0.28552632121E+02 -0.14157367555E+02  0.63631516820E+01  0.32498823924E+02  0.00000000000E+00 0.  1.
         11    1    3    3    0    0  0.24874558607E+02  0.58915410480E+02 -0.43879392393E+02  0.77557529194E+02  0.00000000000E+00 0. -1.
</event>
<event>
 8    1  0.1790275E-005  0.1994121E+03  0.7561462E-02  0.1150236E+00
          2   -1    0    0  501    0  0.00000000000E+00  0.00000000000E+00  0.10397150110E+04  0.10397150110E+04  0.00000000000E+00 0. -1.
         -2   -1    0    0    0  501 -0.00000000000E+00 -0.00000000000E+00 -0.51475113809E+02  0.51475113809E+02  0.00000000000E+00 0.  1.
         23    2    1    2    0    0  0.67654382736E+02  0.15331088369E+03  0.20279803034E+03  0.27838883956E+03  0.91060212595E+02 0.  0.
         23    2    1    2    0    0 -0.67654382736E+02 -0.15331088369E+03  0.78544186687E+03  0.81280128528E+03  0.12508261490E+03 0.  0.
          5    1    4    4  502    0 -0.19027578704E+02  0.20661426366E+02  0.11095007745E+03  0.11452657062E+03  0.41800000000E+01 0.  1.
         -5    1    4    4    0  502 -0.48626804032E+02 -0.17397231006E+03  0.67449178942E+03  0.69827471466E+03  0.41800000000E+01 0.  1.
        -11    1    3    3    0    0 -0.18132710758E+02  0.56974455256E+01  0.29684381643E+02  0.35247958784E+02  0.00000000000E+00 0. -1.
         11    1    3    3    0    0  0.85787093494E+02  0.14761343816E+03  0.17311364870E+03  0.24314088077E+03  0.00000000000E+00 0.  1.
</event>
<event>
 8    1  0.1790275E-005  0.9652962E+02  0.7561462E-02  0.1287768E+00
         -2   -1    0    0    0  501 -0.00000000000E+00  0.00000000000E+00  0.37310335050E+03  0.37310335050E+03  0.00000000000E+00 0.  1.
          2   -1    0    0  501    0  0.00000000000E+00 -0.00000000000E+00 -0.33749914896E+02  0.33749914896E+02  0.00000000000E+00 0. -1.
         23    2    1    2    0    0  0.22133897360E+02 -0.57923636313E+01  0.18212625241E+03  0.20463254179E+03  0.90449126338E+02 0.  0.
         23    2    1    2    0    0 -0.22133897360E+02  0.57923636313E+01  0.15722718320E+03  0.20222072361E+03  0.12509745413E+03 0.  0.
          5    1    4    4  502    0 -0.47809492686E+02 -0.30472400725E+02  0.23982783172E+02  0.61700576055E+02  0.41800000000E+01 0.  1.
         -5    1    4    4    0  502  0.25675595326E+02  0.36264764357E+02  0.13324440003E+03  0.14052014755E+03  0.41800000000E+01 0.  1.
        -11    1    3    3    0    0  0.44512500018E+02  0.26864928901E+02  0.83576534484E+02  0.98428269207E+02  0.00000000000E+00 0.  1.
         11    1    3    3    0    0 -0.22378602658E+02 -0.32657292532E+02  0.98549717921E+02  0.10620427258E+03  0.00000000000E+00 0. -1.
</event>
<event>
 7    1  0.1790275E-005  0.1754961E+03  0.7561462E-02  0.1172235E+00
          1   -1    0    0  501    0  0.00000000000E+00  0.00000000000E+00  0.13958446845E+04  0.13958446845E+04  0.00000000000E+00 0. -1.
         -1   -1    0    0    0  501 -0.00000000000E+00 -0.00000000000E+00 -0.29563533140E+02  0.29563533140E+02  0.00000000000E+00 0.  1.
         23    2    1    2    0    0 -0.99278321733E+02  0.10692474827E+03  0.36194296203E+03  0.40101255160E+03  0.92299901502E+02 0.  0.
          5    1    1    2  502    0 -0.29824603649E+02 -0.46708527011E+02  0.20236343095E+03  0.20985619853E+03  0.41800000000E+01 0. -1.
         -5    1    1    2    0  502  0.12910292538E+03 -0.60216221262E+02  0.80197475842E+03  0.81453946754E+03  0.41800000000E+01 0.  1.
        -11    1    3    3    0    0 -0.33073701054E+02  0.82739816999E+01  0.18347791820E+03  0.18661852786E+03  0.00000000000E+00 0.  1.
         11    1    3    3    0    0 -0.66204620678E+02  0.98650766572E+02  0.17846504383E+03  0.21439402374E+03  0.00000000000E+00 0. -1.
</event>
<event>
 8    1  0.1790275E-005  0.2008283E+03  0.7561462E-02  0.1149042E+00
          2   -1    0    0  501    0  0.00000000000E+00  0.00000000000E+00  0.52882276602E+03  0.52882276602E+03  0.00000000000E+00 0. -1.
         -2   -1    0    0    0  501 -0.00000000000E+00 -0.00000000000E+00 -0.11873192555E+03  0.11873192555E+03  0.00000000000E+00 0.  1.
         23    2    1    2    0    0  0.40170826466E+01  0.18290701741E+03  0.32155771605E+02  0.20942997969E+03  0.96725429815E+02 0.  0.
         23    2    1    2    0    0 -0.40170826466E+01 -0.18290701741E+03  0.37793506886E+03  0.43812471189E+03  0.12508890008E+03 0.  0.
          5    1    4    4  502    0  0.47860091337E+02 -0.68678090353E+02  0.22601189675E+03  0.24105210705E+03  0.41800000000E+01 0. -1.
         -5    1    4    4    0  502 -0.51877173984E+02 -0.11422892706E+03  0.15192317211E+03  0.19707260485E+03  0.41800000000E+01 0. -1.
        -11    1    3    3    0    0 -0.25927236989E+02  0.52991134243E+02 -0.25381224551E+02  0.64222180638E+02  0.00000000000E+00 0.  1.
         11    1    3    3    0    0  0.29944319636E+02  0.12991588317E+03  0.57536996156E+02  0.14520779905E+03  0.00000000000E+00 0. -1.
</event>
<event>
 8    1  0.1790275E-005  0.1146655E+03  0.7561462E-02  0.1252166E+00
         -2   -1    0    0    0  501 -0.00000000000E+00  0.00000000000E+00  0.33732541146E+02  0.33732541146E+02  0.00000000000E+00 0. -1.
          2   -1    0    0  501    0  0.00000000000E+00 -0.00000000000E+00 -0.78612310545E+03  0.78612310545E+03  0.00000000000E+00 0.  1.
         23    2    1    2    0    0  0.64725530917E+02 -0.86718915274E+02 -0.21485703039E+03  0.25745084378E+03  0.91694213760E+02 0.  0.
         23    2    1    2    0    0 -0.64725530917E+02  0.86718915274E+02 -0.53753353392E+03  0.56240480282E+03  0.12508915832E+03 0.  0.
          5    1    4    4  502    0 -0.12922220758E+02  0.43040216277E+02 -0.40140580684E+02  0.60400187286E+02  0.41800000000E+01 0.  1.
         -5    1    4    4    0  502 -0.51803310159E+02  0.43678698996E+02 -0.49739295323E+03  0.50200461553E+03  0.41800000000E+01 0.  1.
        -11    1    3    3    0    0  0.62433848842E+02 -0.51270631117E+02 -0.20536229855E+03  0.22068152792E+03  0.00000000000E+00 0.  1.
         11    1    3    3    0    0  0.22916820743E+01 -0.35448284156E+02 -0.94947318327E+01  0.36769315861E+02  0.00000000000E+00 0. -1.
</event>
<event>
 8    1  0.1790275E-005  0.7830006E+02  0.7561462E-02  0.1333946E+00
         -3   -1    0    0    0  501 -0.00000000000E+00  0.00000000000E+00  0.58705178773E+02  0.58705178773E+02  0.00000000000E+00 0.  1.
          3   -1    0    0  501    0  0.00000000000E+00 -0.00000000000E+00 -0.27188265492E+03  0.27188265492E+03  0.00000000000E+00 0. -1.
         23    2    1    2    0    0  0.10127377820E+02  0.62767966690E+02 -0.10485524948E+03  0.15331931338E+03  0.92031554850E+02 0.  0.
         23    2    1    2    0    0 -0.10127377820E+02 -0.62767966690E+02 -0.10832222666E+03  0.17726852031E+03  0.12509213436E+03 0.  0.
          5    1    4    4  502    0 -0.19433318782E+02 -0.46898178272E+02 -0.13517346810E+03  0.14445217853E+03  0.41800000000E+01 0. -1.
         -5    1    4    4    0  502  0.93059409622E+01 -0.15869788417E+02  0.26851241431E+02  0.32816341783E+02  0.41800000000E+01 0. -1.
        -11    1    3    3    0    0  0.80609838552E+01 -0.10646416041E+02  0.10212250451E+02  0.16811177666E+02  0.00000000000E+00 0.  1.
         11    1    3    3    0    0  0.20663939650E+01  0.73414382730E+02 -0.11506749993E+03  0.13650813572E+03  0.00000000000E+00 0. -1.
</event>
<event>
 8    1  0.1790275E-005  0.6074802E+02  0.7561462E-02  0.1394719E+00
         -1   -1    0    0    0  501 -0.00000000000E+00  0.00000000000E+00  0.71489864229E+02  0.71489864229E+02  0.00000000000E+00 0.  1.
          1   -1    0    0  501    0  0.00000000000E+00 -0.00000000000E+00 -0.25707885539E+03  0.25707885539E+03  0.00000000000E+00 0. -1.
         23    2    1    2    0    0 -0.17414088670E+02 -0.13041833227E+02  0.11693987884E+02  0.93954633413E+02  0.90649787032E+02 0.  0.
         23    2    1    2    0    0  0.17414088670E+02  0.13041833227E+02 -0.19728297905E+03  0.23461408621E+03  0.12509938340E+03 0.  0.
          5    1    4    4  502    0  0.25797013164E+01  0.39199897612E+02 -0.48526148921E+01  0.39803355423E+02  0.41800000000E+01 0.  1.
         -5    1    4    4    0  502  0.14834387354E+02 -0.26158064384E+02 -0.19243036416E+03  0.19481073079E+03  0.41800000000E+01 0.  1.
        -11    1    3    3    0    0 -0.28441634752E+02  0.65139958680E+01 -0.32932554152E+02  0.43998998312E+02  0.00000000000E+00 0. -1.
         11    1    3    3    0    0  0.11027546082E+02 -0.19555829095E+02  0.44626542036E+02  0.49955635100E+02  0.00000000000E+00 0.  1.
</event>
<event>
 7    1  0.1790275E-005  0.8316296E+02  0.7561462E-02  0.1320308E+00
         -2   -1    0    0    0  501 -0.00000000000E+00  0.00000000000E+00  0.14322008275E+02  0.14322008275E+02  0.00000000000E+00 0.  1.
          2   -1    0    0  501    0  0.00000000000E+00 -0.00000000000E+00 -0.18206978933E+04  0.18206978933E+04  0.00000000000E+00 0. -1.
         23    2    1    2    0    0  0.63872885304E+00 -0.22256659359E+02 -0.13145702115E+03  0.14978400292E+03  0.68253441386E+02 0.  0.
          5    1    1    2  502    0 -0.28707780483E+02 -0.26108304885E+02 -0.15196528648E+04  0.15201539666E+04  0.41800000000E+01 0. -1.
         -5    1    1    2    0  502  0.28069051630E+02  0.48364964244E+02 -0.15526599909E+03  0.16508193208E+03  0.41800000000E+01 0.  1.
        -11    1    3    3    0    0 -0.75419225037E+01  0.23530114118E+02 -0.36934732184E+02  0.44437836434E+02  0.00000000000E+00 0. -1.
         11    1    3    3    0    0  0.81806513567E+01 -0.45786773477E+02 -0.94522288964E+02  0.10534616649E+03  0.00000000000E+00 0.  1.
</event>
<event>
 8    1  0.1790275E-005  0.1044263E+03  0.7561462E-02  0.1271254E+00
          2   -1    0    0  501    0  0.00000000000E+00  0.00000000000E+00  0.39620900293E+03  0.39620900293E+03  0.00000000000E+00 0. -1.
         -2   -1    0    0    0  501 -0.00000000000E+00 -0.00000000000E+00 -0.34421637560E+02  0.34421637560E+02  0.00000000000E+00 0.  1.
         23    2    1    2    0    0 -0.15997671275E+02 -0.38141866529E+02  0.13245007259E+03  0.16614160155E+03  0.91374408725E+02 0.  0.
         23    2    1    2    0    0  0.15997671275E+02  0.38141866529E+02  0.22933729278E+03  0.26448903894E+03  0.12509248734E+03 0.  0.
          5    1    4    4  502    0 -0.35259983965E+02  0.45180952586E+02  0.19235480377E+03  0.20075464597E+03  0.41800000000E+01 0.  1.
         -5    1    4    4    0  502  0.51257655241E+02 -0.70390860567E+01  0.36982489016E+02  0.63734392969E+02  0.41800000000E+01 0.  1.
        -11    1    3    3    0    0  0.25790896065E+02 -0.49813296252E+02  0.85047013716E+02  0.10187997519E+03  0.00000000000E+00 0.  1.
         11    1    3    3    0    0 -0.41788567341E+02  0.11671429723E+02  0.47403058871E+02  0.64261626361E+02  0.00000000000E+00 0. -1.
</event>
<event>
 8    1  0.1790275E-005  0.1089881E+03  0.7561462E-02  0.1262455E+00
         -2   -1    0    0    0  501 -0.00000000000E+00  0.00000000000E+00  0.41092471158E+02  0.41092471158E+02  0.00000000000E+00 0.  1.
          2   -1    0    0  501    0  0.00000000000E+00 -0.00000000000E+00 -0.38661416375E+03  0.38661416375E+03  0.00000000000E+00 0. -1.
         23    2    1    2    0    0 -0.12944902003E+02 -0.44959400986E+02 -0.74369020921E+02  0.12545115445E+03  0.89545087272E+02 0.  0.
         23    2    1    2    0    0  0.12944902003E+02  0.44959400986E+02 -0.27115267167E+03  0.30225548046E+03  0.12508271619E+03 0.  0.
          5    1    4    4  502    0  0.38452420233E+01 -0.37327791403E+02 -0.33201442316E+02  0.50278803378E+02  0.41800000000E+01 0.  1.
         -5    1    4    4    0  502  0.90996599801E+01  0.82287192388E+02 -0.23795122936E+03  0.25197667709E+03  0.41800000000E+01 0.  1.
        -11    1    3    3    0    0 -0.31585680041E+02  0.14686798628E+02 -0.43569480560E+02  0.55782227222E+02  0.00000000000E+00 0. -1.
         11    1    3    3    0    0  0.18640778038E+02 -0.59646199614E+02 -0.30799540361E+02  0.69668927225E+02  0.00000000000E+00 0.  1.
</event>
<event>
 8    1  0.1790275E-005  0.1029096E+03  0.7561462E-02  0.1274294E+00
         -2   -1    0    0    0  501 -0.00000000000E+00  0.00000000000E+00  0.42595397274E+02  0.42595397274E+02  0.00000000000E+00 0.  1.
          2   -1    0    0  501    0  0.00000000000E+00 -0.00000000000E+00 -0.55251038243E+03  0.55251038243E+03  0.00000000000E+00 0. -1.
         23    2    1    2    0    0  0.17556587721E+02 -0.99155735530E+02 -0.15001375602E+03  0.20100404728E+03  0.88081816323E+02 0.  0.
         23    2    1    2    0    0 -0.17556587721E+02  0.99155735530E+02 -0.35990122914E+03  0.39410173243E+03  0.12508871694E+03 0.  0.
          5    1    4    4  502    0 -0.11347793032E+02  0.65457282815E+02 -0.52523196146E+02  0.84791431251E+02  0.41800000000E+01 0. -1.
         -5    1    4    4    0  502 -0.62087946890E+01  0.33698452715E+02 -0.30737803300E+03  0.30931030118E+03  0.41800000000E+01 0. -1.
        -11    1    3    3    0    0  0.22056212214E+02 -0.42336745783E+02 -0.85600474460E+01  0.48498978886E+02  0.00000000000E+00 0.  1.
         11    1    3    3    0    0 -0.44996244925E+01 -0.56818989747E+02 -0.14145370857E+03  0.15250506839E+03  0.00000000000E+00 0. -1.
</event>
<event>
 8    1  0.1790275E-005  0.8894663E+02  0.7561462E-02  0.1305423E+00
          1   -1    0    0  501    0  0.00000000000E+00  0.00000000000E+00  0.89014202784E+03  0.89014202784E+03  0.00000000000E+00 0. -1.
         -1   -1    0    0    0  501 -0.00000000000E+00 -0.00000000000E+00 -0.30100949620E+02  0.30100949620E+02  0.00000000000E+00 0.  1.
         23    2    1    2    0    0  0.21437964388E+02 -0.92519569446E+01  0.61486866208E+02  0.11161387306E+03  0.90176698313E+02 0.  0.
         23    2    1    2    0    0 -0.21437964388E+02  0.92519569446E+01  0.79855421201E+03  0.80862910440E+03  0.12508802477E+03 0.  0.
          5    1    4    4  502    0 -0.49365242256E+02  0.21557476095E+02  0.15156487572E+03  0.16090691679E+03  0.41800000000E+01 0.  1.
         -5    1    4    4    0  502  0.27927277868E+02 -0.12305519151E+02  0.64698933629E+03  0.64772218761E+03  0.41800000000E+01 0.  1.
        -11    1    3    3    0    0  0.25104668966E+02  0.38067352697E+02  0.27687394457E+02  0.53347535623E+02  0.00000000000E+00 0.  1.
         11    1    3    3    0    0 -0.36667045783E+01 -0.47319309642E+02  0.33799471751E+02  0.58266337435E+02  0.00000000000E+00 0. -1.
</event>
<event>
 7    1  0.1790275E-005  0.1532207E+03  0.7561462E-02  0.1196570E+00
         -2   -1    0    0    0  501 -0.00000000000E+00  0.00000000000E+00  0.13737868815E+03  0.13737868815E+03  0.00000000000E+00 0.  1.
          2   -1    0    0  501    0  0.00000000000E+00 -0.00000000000E+00 -0.44102522500E+03  0.44102522500E+03  0.00000000000E+00 0. -1.
         23    2    1    2    0    0  0.21454694521E+02  0.63988254813E+02 -0.34323525217E+03  0.36938693458E+03  0.11866536323E+03 0.  0.
          5    1    3    3  502    0 -0.12475349535E+02 -0.15477129556E+02 -0.20708315805E+03  0.20807710743E+03  0.41800000000E+01 0. -1.
         -5    1    3    3    0  502  0.33930044057E+02  0.79465384369E+02 -0.13615209412E+03  0.16130982715E+03  0.41800000000E+01 0.  1.
        -11    1    1    2    0    0 -0.10480318355E+03 -0.25755313113E+02  0.45514736575E+02  0.11712657547E+03  0.00000000000E+00 0.  1.
         11    1    1    2    0    0  0.83348489029E+02 -0.38232941700E+02 -0.59260212622E+01  0.91890403103E+02  0.00000000000E+00 0. -1.
</event>
<event>
 8    1  0.1790275E-005  0.1593518E+03  0.7561462E-02  0.1189431E+00
         -2   -1    0    0    0  501 -0.00000000000E+00  0.00000000000E+00  0.62364248182E+02  0.62364248182E+02  0.00000000000E+00 0.  1.
          2   -1    0    0  501    0  0.00000000000E+00 -0.00000000000E+00 -0.43916007290E+03  0.43916007290E+03  0.00000000000E+00 0. -1.
         23    2    1    2    0    0 -0.98952261575E+02  0.63184559020E+02 -0.11295955742E+03  0.18681380516E+03  0.91409505072E+02 0.  0.
         23    2    1    2    0    0  0.98952261575E+02 -0.63184559020E+02 -0.26383626731E+03  0.31471051593E+03  0.12509713953E+03 0.  0.
          5    1    4    4  502    0  0.78085127277E+02  0.22870877663E+02 -0.14677494752E+03  0.16787114632E+03  0.41800000000E+01 0. -1.
         -5    1    4    4    0  502  0.20867134297E+02 -0.86055436683E+02 -0.11706131979E+03  0.14683936961E+03  0.41800000000E+01 0. -1.
        -11    1    3    3    0    0  0.10591242099E+02  0.33433626848E+02 -0.22523132042E+02  0.41680610485E+02  0.00000000000E+00 0. -1.
         11    1    3    3    0    0 -0.10954350367E+03  0.29750932172E+02 -0.90436425374E+02  0.14513319468E+03  0.00000000000E+00 0.  1.
</event>
<event>
 8    1  0.1790275E-005  0.8090015E+02  0.7561462E-02  0.1326516E+00
         -2   -1    0    0    0  501 -0.00000000000E+00  0.00000000000E+00  0.23165835248E+03  0.23165835248E+03  0.00000000000E+00 0.  1.
          2   -1    0    0  501    0  0.00000000000E+00 -0.00000000000E+00 -0.76920544302E+02  0.76920544302E+02  0.00000000000E+00 0. -1.
         23    2    1    2    0    0  0.81564400788E+00  0.69663893060E+02  0.98644568576E+02  0.15479823385E+03  0.96840172570E+02 0.  0.
         23    2    1    2    0    0 -0.81564400788E+00 -0.69663893060E+02  0.56093239602E+02  0.15378066293E+03  0.12509323519E+03 0.  0.
          5    1    4    4  502    0  0.43083108784E+01  0.10004668848E+02 -0.32452585152E+02  0.34486194693E+02  0.41800000000E+01 0. -1.
         -5    1    4    4    0  502 -0.51239548863E+01 -0.79668561908E+02  0.88545824754E+02  0.11929446824E+03  0.41800000000E+01 0. -1.
        -11    1    3    3    0    0  0.46976632846E+01  0.37501460093E+02 -0.11884768484E+02  0.39619127594E+02  0.00000000000E+00 0. -1.
         11    1    3    3    0    0 -0.38820192768E+01  0.32162432967E+02  0.11052933706E+03  0.11517910626E+03  0.00000000000E+00 0.  1.
</event>
<event>
 8    1  0.1790275E-005  0.2250087E+03  0.7561462E-02  0.1130203E+00
         -2   -1    0    0    0  501 -0.00000000000E+00  0.00000000000E+00  0.52601631470E+02  0.52601631470E+02  0.00000000000E+00 0.  1.
          2   -1    0    0  501    0  0.00000000000E+00 -0.00000000000E+00 -0.10151993908E+04  0.10151993908E+04  0.00000000000E+00 0. -1.
         23    2    1    2    0    0  0.35802505868E+02 -0.19745400246E+03 -0.38425918420E+03  0.44298633172E+03  0.91169440822E+02 0.  0.
         23    2    1    2    0    0 -0.35802505868E+02  0.19745400246E+03 -0.57833857517E+03  0.62481469058E+03  0.12509191629E+03 0.  0.
          5    1    4    4  502    0  0.31037926108E+02  0.43226259900E+01 -0.91276720997E+02  0.96596843367E+02  0.41800000000E+01 0.  1.
         -5    1    4    4    0  502 -0.66840431976E+02  0.19313137647E+03 -0.48706185417E+03  0.52821784722E+03  0.41800000000E+01 0.  1.
        -11    1    3    3    0    0  0.57539262303E+02 -0.11330557733E+03 -0.27831786080E+03  0.30595710843E+03  0.00000000000E+00 0. -1.
         11    1    3    3    0    0 -0.21736756436E+02 -0.84148425132E+02 -0.10594132340E+03  0.13702922329E+03  0.00000000000E+00 0.  1.
</event>
<event>
 8    1  0.1790275E-005  0.1187680E+03  0.7561462E-02  0.1245143E+00
          4   -1    0    0  501    0  0.00000000000E+00  0.00000000000E+00  0.53325338284E+02  0.53325338284E+02  0.00000000000E+00 0. -1.
         -4   -1    0    0    0  501 -0.00000000000E+00 -0.00000000000E+00 -0.30311470382E+03  0.30311470382E+03  0.00000000000E+00 0.  1.
         23    2    1    2    0    0  0.32159628135E+02  0.58437211980E+02 -0.92902206570E+02  0.14498494724E+03  0.89110411939E+02 0.  0.
         23    2    1    2    0    0 -0.32159628135E+02 -0.58437211980E+02 -0.15688715897E+03  0.21145509486E+03  0.12510206660E+03 0.  0.
          5    1    4    4  502    0  0.39952154061E+02 -0.19715865520E+02 -0.10581470986E+03  0.11488740222E+03  0.41800000000E+01 0. -1.
         -5    1    4    4    0  502 -0.72111782197E+02 -0.38721346461E+02 -0.51072449109E+02  0.96567692637E+02  0.41800000000E+01 0. -1.
        -11    1    3    3    0    0 -0.25479815328E+02  0.44896322449E+02 -0.36601843671E+02  0.63281875120E+02  0.00000000000E+00 0.  1.
         11    1    3    3    0    0  0.57639443463E+02  0.13540889532E+02 -0.56300362899E+02  0.81703072125E+02  0.00000000000E+00 0. -1.
</event>
<event>
 7    1  0.1790275E-005  0.1258665E+03  0.7561462E-02  0.1233721E+00
         -1   -1    0    0    0  501 -0.00000000000E+00  0.00000000000E+00  0.24460866759E+03  0.24460866759E+03  0.00000000000E+00 0.  1.
          1   -1    0    0  501    0  0.00000000000E+00 -0.00000000000E+00 -0.10936353047E+03  0.10936353047E+03  0.00000000000E+00 0. -1.
         23    2    1    2    0    0  0.76436612468E+02 -0.60319452509E+01  0.15779315835E+03  0.19874222960E+03  0.93385506994E+02 0.  0.
          5    1    1    2  502    0 -0.16789701948E+02  0.61768609154E+02  0.14053066270E+02  0.65667467135E+02  0.41800000000E+01 0. -1.
         -5    1    1    2    0  502 -0.59646910520E+02 -0.55736663903E+02 -0.36601087501E+02  0.89562501326E+02  0.41800000000E+01 0.  1.
        -11    1    3    3    0    0 -0.11530482332E+02  0.11346763003E+02  0.74908255272E+02  0.76635160085E+02  0.00000000000E+00 0. -1.
         11    1    3    3    0    0  0.87967094799E+02 -0.17378708254E+02  0.82884903079E+02  0.12210706952E+03  0.00000000000E+00 0.  1.
</event>
<event>
 8    1  0.1790275E-005  0.8603176E+02  0.7561462E-02  0.1312756E+00
         -2   -1    0    0    0  501 -0.00000000000E+00  0.00000000000E+00  0.47040798339E+02  0.47040798339E+02  0.00000000000E+00 0.  1.
          2   -1    0    0  501    0  0.00000000000E+00 -0.00000000000E+00 -0.30662012540E+03  0.30662012540E+03  0.00000000000E+00 0. -1.
         23    2    1    2    0    0  0.41363561049E+01  0.17023927777E+02 -0.68706332194E+02  0.12477796140E+03  0.10267451489E+03 0.  0.
         23    2    1    2    0    0 -0.41363561049E+01 -0.17023927777E+02 -0.19087299486E+03  0.22888296234E+03  0.12509191309E+03 0.  0.
          5    1    4    4  502    0  0.29031020971E+02 -0.25231618067E+02 -0.19057130427E+03  0.19445906803E+03  0.41800000000E+01 0.  1.
         -5    1    4    4    0  502 -0.33167377076E+02  0.82076902899E+01 -0.30169059647E+00  0.34423894306E+02  0.41800000000E+01 0.  1.
        -11    1    3    3    0    0  0.45275817527E+02  0.31702258546E+02 -0.18626260805E+02  0.58325555645E+02  0.00000000000E+00 0.  1.
         11    1    3    3    0    0 -0.41139461422E+02 -0.14678330770E+02 -0.50080071388E+02  0.66452405755E+02  0.00000000000E+00 0. -1.
</event>
<event>
 8    1  0.1790275E-005  0.1240795E+03  0.7561462E-02  0.1236515E+00
          2   -1    0    0  501    0  0.00000000000E+00  0.00000000000E+00  0.53438977910E+03  0.53438977910E+03  0.00000000000E+00 0. -1.
         -2   -1    0    0    0  501 -0.00000000000E+00 -0.00000000000E+00 -0.36463372725E+02  0.36463372725E+02  0.00000000000E+00 0.  1.
         23    2    1    2    0    0 -0.69651860511E+02 -0.52441685624E+02  0.20336976775E+03  0.23917217406E+03  0.90788514393E+02 0.  0.
         23    2    1    2    0    0  0.69651860511E+02  0.52441685624E+02  0.29455663863E+03  0.33168097777E+03  0.12508855100E+03 0.  0.
          5    1    4    4  502    0  0.20152580892E+02  0.88629388560E+02  0.17893745324E+03  0.20074207233E+03  0.41800000000E+01 0. -1.
         -5    1    4    4    0  502  0.49499279619E+02 -0.36187702936E+02  0.11561918540E+03  0.13093890544E+03  0.41800000000E+01 0. -1.
        -11    1    3    3    0    0 -0.39500507064E+02 -0.54434144878E+01  0.16891866879E+03  0.17356104829E+03  0.00000000000E+00 0. -1.
         11    1    3    3    0    0 -0.30151353447E+02 -0.46998271136E+02  0.34451098959E+02  0.65611125763E+02  0.00000000000E+00 0.  1.
</event>
<event>
 8    1  0.1790275E-005  0.6577212E+02  0.7561462E-02  0.1375090E+00
         -3   -1    0    0    0  501 -0.00000000000E+00  0.00000000000E+00  0.23137781891E+02  0.23137781891E+02  0.00000000000E+00 0.  1.
          3   -1    0    0  501    0  0.00000000000E+00 -0.00000000000E+00 -0.64235023559E+03  0.64235023559E+03  0.00000000000E+00 0. -1.
         23    2    1    2    0    0  0.10959191131E+01 -0.50808526473E+02 -0.21197204432E+03  0.23644565027E+03  0.91606170954E+02 0.  0.
         23    2    1    2    0    0 -0.10959191131E+01  0.50808526473E+02 -0.40724040937E+03  0.42904236720E+03  0.12509953809E+03 0.  0.
          5    1    4    4  502    0  0.59815574305E+01  0.31942956536E+01 -0.36434030517E+03  0.36442737675E+03  0.41800000000E+01 0. -1.
         -5    1    4    4    0  502 -0.70774765435E+01  0.47614230819E+02 -0.42900104199E+02  0.64614990452E+02  0.41800000000E+01 0. -1.
        -11    1    3    3    0    0  0.21289161606E+02 -0.77296476297E+00 -0.41116662522E+01  0.21696351670E+02  0.00000000000E+00 0.  1.
         11    1    3    3    0    0 -0.20193242493E+02 -0.50035561710E+02 -0.20786037807E+03  0.21474929860E+03  0.00000000000E+00 0. -1.
</event>
<event>
 8    1  0.1790275E-005  0.1583258E+03  0.7561462E-02  0.1190600E+00
          2   -1    0    0  501    0  0.00000000000E+00  0.00000000000E+00  0.71887156894E+03  0.71887156894E+03  0.00000000000E+00 0. -1.
         -2   -1    0    0    0  501 -0.00000000000E+00 -0.00000000000E+00 -0.40524019605E+02  0.40524019605E+02  0.00000000000E+00 0.  1.
         23    2    1    2    0    0 -0.11670618447E+03  0.58061453381E+02  0.21307511497E+03  0.26195744500E+03  0.78925487075E+02 0.  0.
         23    2    1    2    0    0  0.11670618447E+03 -0.58061453381E+02  0.46527243436E+03  0.49743814354E+03  0.11821506931E+03 0.  0.
          5    1    4    4  502    0  0.51510361232E+02 -0.82099290358E+02  0.34595210157E+03  0.35929645110E+03  0.41800000000E+01 0. -1.
         -5    1    4    4    0  502  0.65195823234E+02  0.24037836977E+02  0.11932033279E+03  0.13814169244E+03  0.41800000000E+01 0.  1.
        -11    1    3    3    0    0 -0.12214313006E+03  0.67190218350E+02  0.20744217633E+03  0.24993144297E+03  0.00000000000E+00 0.  1.
         11    1    3    3    0    0  0.54369455906E+01 -0.91287649690E+01  0.56329386395E+01  0.12026002034E+02  0.00000000000E+00 0. -1.
</event>
<event>
 8    1  0.1790275E-005  0.1064734E+03  0.7561462E-02  0.1267244E+00
          1   -1    0    0  501    0  0.00000000000E+00  0.00000000000E+00  0.67841845473E+02  0.67841845473E+02  0.00000000000E+00 0. -1.
         -1   -1    0    0    0  501 -0.00000000000E+00 -0.00000000000E+00 -0.26013176719E+03  0.26013176719E+03  0.00000000000E+00 0.  1.
         23    2    1    2    0    0 -0.41636892217E+02  0.53265249937E+02 -0.74512286066E+02  0.14334268953E+03  0.10209910980E+03 0.  0.
         23    2    1    2    0    0  0.41636892217E+02 -0.53265249937E+02 -0.11777763565E+03  0.18463092313E+03  0.12508472598E+03 0.  0.
          5    1    4    4  502    0 -0.17218221962E+02 -0.16438303613E+01 -0.10340740566E+03  0.10492727620E+03  0.41800000000E+01 0. -1.
         -5    1    4    4    0  502  0.58855114179E+02 -0.51621419576E+02 -0.14370229989E+02  0.79703646931E+02  0.41800000000E+01 0. -1.
        -11    1    3    3    0    0  0.63344977968E+01  0.66650687893E+02 -0.63628319910E+02  0.92363429741E+02  0.00000000000E+00 0. -1.
         11    1    3    3    0    0 -0.47971390014E+02 -0.13385437956E+02 -0.10883966155E+02  0.50979259787E+02  0.00000000000E+00 0.  1.
</event>
<event>
 8    1  0.1790275E-005  0.1206539E+03  0.7561462E-02  0.1242022E+00
         -2   -1    0    0    0  501 -0.00000000000E+00  0.00000000000E+00  0.24218641039E+02  0.24218641039E+02  0.00000000000E+00 0.  1.
          2   -1    0    0  501    0  0.00000000000E+00 -0.00000000000E+00 -0.82944661421E+03  0.82944661421E+03  0.00000000000E+00 0. -1.
         23    2    1    2    0    0  0.30156349725E+02  0.66814652401E+02 -0.19739497622E+03  0.22877953574E+03  0.89452200272E+02 0.  0.
         23    2    1    2    0    0 -0.30156349725E+02 -0.66814652401E+02 -0.60783299695E+03  0.62488571951E+03  0.12509039554E+03 0.  0.
          5    1    4    4  502    0 -0.44248688943E+02  0.24778805776E+02 -0.17643655024E+03  0.18362805981E+03  0.41800000000E+01 0.  1.
         -5    1    4    4    0  502  0.14092339218E+02 -0.91593458178E+02 -0.43139644671E+03  0.44125765969E+03  0.41800000000E+01 0.  1.
        -11    1    3    3    0    0  0.31053025568E+02  0.21843511723E+00 -0.13139454487E+03  0.13501431233E+03  0.00000000000E+00 0. -1.
         11    1    3    3    0    0 -0.89667584340E+00  0.66596217284E+02 -0.66000431346E+02  0.93765223415E+02  0.00000000000E+00 0.  1.
</event>
<event>
 8    1  0.1790275E-005  0.1478541E+03  0.7561462E-02  0.1203135E+00
         -1   -1    0    0    0  501 -0.00000000000E+00  0.00000000000E+00  0.47119979971E+02  0.47119979971E+02  0.00000000000E+00 0.  1.
          1   -1    0    0  501    0  0.00000000000E+00 -0.00000000000E+00 -0.62168625987E+03  0.62168625987E+03  0.00000000000E+00 0. -1.
         23    2    1    2    0    0  0.61016998937E+02  0.88735404250E+02 -0.12389075817E+03  0.18885580569E+03  0.93383881131E+02 0.  0.
         23    2    1    2    0    0 -0.61016998937E+02 -0.88735404250E+02 -0.45067552173E+03  0.47995043416E+03  0.12508775813E+03 0.  0.
          5    1    4    4  502    0 -0.89550602397E+02 -0.43743837179E+02 -0.19826129322E+03  0.22194108783E+03  0.41800000000E+01 0. -1.
         -5    1    4    4    0  502  0.28533603459E+02 -0.44991567071E+02 -0.25241422851E+03  0.25800934632E+03  0.41800000000E+01 0. -1.
        -11    1    3    3    0    0 -0.12705131443E+02  0.63250184229E+02 -0.54384040467E+02  0.84377900113E+02  0.00000000000E+00 0. -1.
         11    1    3    3    0    0  0.73722130380E+02  0.25485220021E+02 -0.69506717705E+02  0.10447790558E+03  0.00000000000E+00 0.  1.
</event>
<event>
 8    1  0.1790275E-005  0.1624019E+03  0.7561462E-02  0.1186011E+00
         -2   -1    0    0    0  501 -0.00000000000E+00  0.00000000000E+00  0.51120251903E+02  0.51120251903E+02  0.00000000000E+00 0.  1.
          2   -1    0    0  501    0  0.00000000000E+00 -0.00000000000E+00 -0.54946808495E+03  0.54946808495E+03  0.00000000000E+00 0. -1.
         23    2    1    2    0    0 -0.81371466724E+02  0.87766913269E+02 -0.21543225352E+03  0.26860579003E+03  0.10683476925E+03 0.  0.
         23    2    1    2    0    0  0.81371466724E+02 -0.87766913269E+02 -0.28291557953E+03  0.33198254682E+03  0.12588423091E+03 0.  0.
          5    1    4    4  502    0 -0.90446979424E+01 -0.75308913367E+02 -0.17373092715E+03  0.18961314944E+03  0.41800000000E+01 0. -1.
         -5    1    4    4    0  502  0.90416164666E+02 -0.12457999902E+02 -0.10918465238E+03  0.14236939738E+03  0.41800000000E+01 0.  1.
        -11    1    3    3    0    0  0.24231607564E+02  0.24026964170E+02 -0.27578685547E+02  0.43875388418E+02  0.00000000000E+00 0.  1.
         11    1    3    3    0    0 -0.10560307429E+03  0.63739949099E+02 -0.18785356797E+03  0.22473040161E+03  0.00000000000E+00 0. -1.
</event>
<event>
 8    1  0.1790275E-005  0.8131721E+02  0.7561462E-02  0.1325354E+00
         -2   -1    0    0    0  501 -0.00000000000E+00  0.00000000000E+00  0.33208017908E+02  0.33208017908E+02  0.00000000000E+00 0.  1.
          2   -1    0    0  501    0  0.00000000000E+00 -0.00000000000E+00 -0.34958095462E+03  0.34958095462E+03  0.00000000000E+00 0. -1.
         23    2    1    2    0    0  0.14470161980E+02 -0.99195606145E+01 -0.12963960212E+03  0.15986948305E+03  0.91891468056E+02 0.  0.
         23    2    1    2    0    0 -0.14470161980E+02  0.99195606145E+01 -0.18673333459E+03  0.22291948948E+03  0.12048226953E+03 0.  0.
          5    1    4    4  502    0 -0.45842114691E+02 -0.11042355880E+02 -0.19107667530E+02  0.51049078945E+02  0.41800000000E+01 0. -1.
         -5    1    4    4    0  502  0.31371952711E+02  0.20961916494E+02 -0.16762566706E+03  0.17187041053E+03  0.41800000000E+01 0.  1.
        -11    1    3    3    0    0 -0.19491810375E+02  0.22923270647E+02 -0.99211056103E+02  0.10367372214E+03  0.00000000000E+00 0. -1.
         11    1    3    3    0    0  0.33961972355E+02 -0.32842831261E+02 -0.30428546017E+02  0.56195760909E+02  0.00000000000E+00 0.  1.
</event>
<event>
 8    1  0.1790275E-005  0.1063618E+03  0.7561462E-02  0.1267459E+00
          2   -1    0    0  501    0  0.00000000000E+00  0.00000000000E+00  0.92946850918E+03  0.92946850918E+03  0.00000000000E+00 0. -1.
         -2   -1    0    0    0  501 -0.00000000000E+00 -0.00000000000E+00 -0.18157469787E+02  0.18157469787E+02  0.00000000000E+00 0.  1.
         23    2    1    2    0    0  0.60645285241E+02 -0.19606565849E+02  0.31424800269E+03  0.33427904496E+03  0.94490235790E+02 0.  0.
         23    2    1    2    0    0 -0.60645285241E+02  0.19606565849E+02  0.59706303671E+03  0.61334693401E+03  0.12509166083E+03 0.  0.
          5    1    4    4  502    0 -0.58465031579E+02 -0.20820180329E+02  0.12588406726E+03  0.14041335626E+03  0.41800000000E+01 0. -1.
         -5    1    4    4    0  502 -0.21802536625E+01  0.40426746178E+02  0.47117896945E+03  0.47293357775E+03  0.41800000000E+01 0. -1.
        -11    1    3    3    0    0  0.28829207998E+02 -0.55080661420E+02  0.22076555664E+03  0.22935220404E+03  0.00000000000E+00 0. -1.
         11    1    3    3    0    0  0.31816077243E+02  0.35474095571E+02  0.93482446045E+02  0.10492684092E+03  0.00000000000E+00 0.  1.
</event>
<event>
 8    1  0.1790275E-005  0.1123225E+03  0.7561462E-02  0.1256329E+00
         -2   -1    0    0    0  501 -0.00000000000E+00  0.00000000000E+00  0.12682800250E+03  0.12682800250E+03  0.00000000000E+00 0.  1.
          2   -1    0    0  501    0  0.00000000000E+00 -0.00000000000E+00 -0.22273050220E+03  0.22273050220E+03  0.00000000000E+00 0. -1.
         23    2    1    2    0    0  0.13322375378E+02  0.31713744008E+02  0.79794616544E+02  0.13115375268E+03  0.98238886237E+02 0.  0.
         23    2    1    2    0    0 -0.13322375378E+02 -0.31713744008E+02 -0.17569711624E+03  0.21840475201E+03  0.12509161363E+03 0.  0.
          5    1    4    4  502    0  0.38090613432E+02 -0.53886071666E+02 -0.57808927187E+02  0.87829084099E+02  0.41800000000E+01 0.  1.
         -5    1    4    4    0  502 -0.51412988810E+02  0.22172327658E+02 -0.11788818906E+03  0.13057566791E+03  0.41800000000E+01 0.  1.
        -11    1    3    3    0    0  0.46584153757E+02 -0.11366298174E+02  0.49270579242E+02  0.68752207923E+02  0.00000000000E+00 0. -1.
         11    1    3    3    0    0 -0.33261778380E+02  0.43080042182E+02  0.30524037302E+02  0.62401544762E+02  0.00000000000E+00 0.  1.
</event>
<event>
 8    1  0.1790275E-005  0.8909647E+02  0.7561462E-02  0.1305055E+00
         -3   -1    0    0    0  501 -0.00000000000E+00  0.00000000000E+00  0.50468480041E+02  0.50468480041E+02  0.00000000000E+00 0.  1.
          3   -1    0    0  501    0  0.00000000000E+00 -0.00000000000E+00 -0.28001921771E+03  0.28001921771E+03  0.00000000000E+00 0. -1.
         23    2    1    2    0    0  0.16603291362E+02  0.18539622579E+02 -0.50043680023E+02  0.11028324876E+03  0.95071752685E+02 0.  0.
         23    2    1    2    0    0 -0.16603291362E+02 -0.18539622579E+02 -0.17950705765E+03  0.22020444899E+03  0.12509128155E+03 0.  0.
          5    1    4    4  502    0  0.10640377361E+02 -0.53440973234E+02 -0.16438522700E+03  0.17323143625E+03  0.41800000000E+01 0. -1.
         -5    1    4    4    0  502 -0.27243668723E+02  0.34901350654E+02 -0.15121830645E+02  0.46973012731E+02  0.41800000000E+01 0. -1.
        -11    1    3    3    0    0 -0.28956143296E+02  0.16802232509E+02 -0.55035744537E+02  0.64418215038E+02  0.00000000000E+00 0. -1.
         11    1    3    3    0    0  0.45559434659E+02  0.17373900705E+01  0.49920645148E+01  0.45865033727E+02  0.00000000000E+00 0.  1.
</event>
<event>
 7    1  0.1790275E-005  0.1101406E+03  0.7561462E-02  0.1260310E+00
          2   -1    0    0  501    0  0.00000000000E+00  0.00000000000E+00  0.37942528324E+04  0.37942528324E+04  0.00000000000E+00 0. -1.
         -2   -1    0    0    0  501 -0.00000000000E+00 -0.00000000000E+00 -0.80446564680E+01  0.80446564680E+01  0.00000000000E+00 0.  1.
         23    2    1    2    0    0 -0.57565964519E+02 -0.32996383748E+02  0.59472093958E+03  0.60724301107E+03  0.10319145751E+03 0.  0.
          5    1    1    2  502    0  0.49168749868E+00 -0.19495053192E+02  0.23272500424E+04  0.23273355004E+04  0.41800000000E+01 0. -1.
         -5    1    1    2    0  502  0.57074277020E+02  0.52491436941E+02  0.86423719386E+03  0.86771897738E+03  0.41800000000E+01 0.  1.
        -11    1    3    3    0    0 -0.44088262523E+02 -0.70320830554E+02  0.40337214612E+03  0.41182263460E+03  0.00000000000E+00 0.  1.
         11    1    3    3    0    0 -0.13477701996E+02  0.37324446806E+02  0.19134879346E+03  0.19542037647E+03  0.00000000000E+00 0. -1.
</event>
<event>
 8    1  0.1790275E-005  0.9041833E+02  0.7561462E-02  0.1301842E+00
         -2   -1    0    0    0  501 -0.00000000000E+00  0.00000000000E+00  0.79732729892E+02  0.79732729892E+02  0.00000000000E+00 0.  1.
          2   -1    0    0  501    0  0.00000000000E+00 -0.00000000000E+00 -0.22925582341E+03  0.22925582341E+03  0.00000000000E+00 0. -1.
         23    2    1    2    0    0  0.70412355840E+02  0.19634199643E+02 -0.25801480217E+02  0.11846946095E+03  0.89587360415E+02 0.  0.
         23    2    1    2    0    0 -0.70412355840E+02 -0.19634199643E+02 -0.12372161330E+03  0.19051909235E+03  0.12508831001E+03 0.  0.
          5    1    4    4  502    0  0.48051980879E+01  0.13301215790E+02  0.20055394825E+02  0.24893845258E+02  0.41800000000E+01 0. -1.
         -5    1    4    4    0  502 -0.75217553927E+02 -0.32935415433E+02 -0.14377700812E+03  0.16562524709E+03  0.41800000000E+01 0. -1.
        -11    1    3    3    0    0  0.15700870306E+02  0.24331958608E+02  0.28934381873E+02  0.40936047591E+02  0.00000000000E+00 0.  1.
         11    1    3    3    0    0  0.54711485533E+02 -0.46977589645E+01 -0.54735862089E+02  0.77533413360E+02  0.00000000000E+00 0. -1.
</event>
<event>
 8    1  0.1790275E-005  0.1186741E+03  0.7561462E-02  0.1245301E+00
          2   -1    0    0  501    0  0.00000000000E+00  0.00000000000E+00  0.45299434962E+03  0.45299434962E+03  0.00000000000E+00 0. -1.
         -2   -1    0    0    0  501 -0.00000000000E+00 -0.00000000000E+00 -0.36530627731E+02  0.36530627731E+02  0.00000000000E+00 0.  1.
         23    2    1    2    0    0  0.29196783259E+02 -0.62486759627E+02  0.20121927034E+03  0.23119430375E+03  0.90579048632E+02 0.  0.
         23    2    1    2    0    0 -0.29196783259E+02  0.62486759627E+02  0.21524445156E+03  0.25833067360E+03  0.12509003045E+03 0.  0.
          5    1    4    4  502    0 -0.41003609826E+02  0.86933690964E+02  0.20911654986E+03  0.23018680776E+03  0.41800000000E+01 0.  1.
         -5    1    4    4    0  502  0.11806826566E+02 -0.24446931337E+02  0.61279017007E+01  0.28143865844E+02  0.41800000000E+01 0.  1.
        -11    1    3    3    0    0  0.61175528101E+02 -0.30187785132E+02  0.11434981114E+03  0.13315264518E+03  0.00000000000E+00 0. -1.
         11    1    3    3    0    0 -0.31978744842E+02 -0.32298974495E+02  0.86869459196E+02  0.98041658575E+02  0.00000000000E+00 0.  1.
</event>
<event>
 8    1  0.1790275E-005  0.1176167E+03  0.7561462E-02  0.1247081E+00
          1   -1    0    0  501    0  0.00000000000E+00  0.00000000000E+00  0.20621126177E+03  0.20621126177E+03  0.00000000000E+00 0. -1.
         -1   -1    0    0    0  501 -0.00000000000E+00 -0.00000000000E+00 -0.77854749633E+02  0.77854749633E+02  0.00000000000E+00 0.  1.
         23    2    1    2    0    0 -0.47014785338E+02  0.17667713508E+02  0.85637264813E+01  0.10373541892E+03  0.90361283672E+02 0.  0.
         23    2    1    2    0    0  0.47014785338E+02 -0.17667713508E+02  0.11979278566E+03  0.18033059248E+03  0.12508506285E+03 0.  0.
          5    1    4    4  502    0 -0.42147258424E+02 -0.15285325696E+01  0.52030474153E+02  0.67107156438E+02  0.41800000000E+01 0.  1.
         -5    1    4    4    0  502  0.89162043762E+02 -0.16139180938E+02  0.67762311503E+02  0.11322343604E+03  0.41800000000E+01 0.  1.
        -11    1    3    3    0    0 -0.29744802192E+02 -0.35458166259E+02 -0.40747343711E+01  0.46461147985E+02  0.00000000000E+00 0.  1.
         11    1    3    3    0    0 -0.17269983146E+02  0.53125879766E+02  0.12638460852E+02  0.57274270938E+02  0.00000000000E+00 0. -1.
</event>
<event>
 8    1  0.1790275E-005  0.6856552E+02  0.7561462E-02  0.1365040E+00
          2   -1    0    0  501    0  0.00000000000E+00  0.00000000000E+00  0.25988099425E+03  0.25988099425E+03  0.00000000000E+00 0.  1.
         -2   -1    0    0    0  501 -0.00000000000E+00 -0.00000000000E+00 -0.45561453580E+02  0.45561453580E+02  0.00000000000E+00 0. -1.
         23    2    1    2    0    0 -0.11066830081E+02 -0.29253358306E+01  0.70206364037E+02  0.11427075077E+03  0.89430635759E+02 0.  0.
         23    2    1    2    0    0  0.11066830081E+02  0.29253358306E+01  0.14411317664E+03  0.19117169707E+03  0.12508788015E+03 0.  0.
          5    1    4    4  502    0 -0.25692812973E+02 -0.39866704033E+02  0.14530825788E+02  0.49780438195E+02  0.41800000000E+01 0. -1.
         -5    1    4    4    0  502  0.36759643054E+02  0.42792039863E+02  0.12958235085E+03  0.14139125887E+03  0.41800000000E+01 0. -1.
        -11    1    3    3    0    0 -0.92410778456E+01 -0.16683624031E+02  0.88936752085E+02  0.90958708775E+02  0.00000000000E+00 0.  1.
         11    1    3    3    0    0 -0.18257522356E+01  0.13758288201E+02 -0.18730388049E+02  0.23312041993E+02  0.00000000000E+00 0. -1.
</event>
<event>
 8    1  0.1790275E-005  0.9899008E+02  0.7561462E-02  0.1282434E+00
         -2   -1    0    0    0  501 -0.00000000000E+00  0.00000000000E+00  0.32019210543E+02  0.32019210543E+02  0.00000000000E+00 0.  1.
          2   -1    0    0  501    0  0.00000000000E+00 -0.00000000000E+00 -0.51833249131E+03  0.51833249131E+03  0.00000000000E+00 0. -1.
         23    2    1    2    0    0 -0.37196827341E+02 -0.50629293788E+02 -0.15076282458E+03  0.18677449831E+03  0.90599970135E+02 0.  0.
         23    2    1    2    0    0  0.37196827341E+02  0.50629293788E+02 -0.33555045618E+03  0.36357720354E+03  0.12508934782E+03 0.  0.
          5    1    4    4  502    0  0.26136028065E+02  0.70176406918E+02 -0.90834780906E+02  0.11779749519E+03  0.41800000000E+01 0. -1.
         -5    1    4    4    0  502  0.11060799276E+02 -0.19547113130E+02 -0.24471567527E+03  0.24577970835E+03  0.41800000000E+01 0. -1.
        -11    1    3    3    0    0  0.24551602435E+02 -0.12360510678E+02 -0.82991070521E+02  0.87424717287E+02  0.00000000000E+00 0. -1.
         11    1    3    3    0    0 -0.61748429776E+02 -0.38268783110E+02 -0.67771754063E+02  0.99349781023E+02  0.00000000000E+00 0.  1.
</event>
<event>
 8    1  0.1790275E-005  0.9166528E+02  0.7561462E-02  0.1298868E+00
          1   -1    0    0  501    0  0.00000000000E+00  0.00000000000E+00  0.17024103057E+03  0.17024103057E+03  0.00000000000E+00 0. -1.
         -1   -1    0    0    0  501 -0.00000000000E+00 -0.00000000000E+00 -0.92375288192E+02  0.92375288192E+02  0.00000000000E+00 0.  1.
         23    2    1    2    0    0  0.37966013095E+02  0.25139378380E+02 -0.63612108140E+01  0.10507671717E+03  0.94484099149E+02 0.  0.
         23    2    1    2    0    0 -0.37966013095E+02 -0.25139378380E+02  0.84226953188E+02  0.15753960159E+03  0.12510451603E+03 0.  0.
          5    1    4    4  502    0 -0.65224829685E+02  0.16444352829E+02  0.83931813081E+02  0.10764161275E+03  0.41800000000E+01 0. -1.
         -5    1    4    4    0  502  0.27258816590E+02 -0.41583731209E+02  0.29514010750E+00  0.49897988846E+02  0.41800000000E+01 0. -1.
        -11    1    3    3    0    0  0.92766235863E+01 -0.14434661901E+02  0.36330484366E+02  0.40178592604E+02  0.00000000000E+00 0. -1.
         11    1    3    3    0    0  0.28689389509E+02  0.39574040281E+02 -0.42691695180E+02  0.64898124564E+02  0.00000000000E+00 0.  1.
</event>
<event>
 8    1  0.1790275E-005  0.1373119E+03  0.7561462E-02  0.1216992E+00
          4   -1    0    0  501    0  0.00000000000E+00  0.00000000000E+00  0.31146358468E+02  0.31146358468E+02  0.00000000000E+00 0.  1.
         -4   -1    0    0    0  501 -0.00000000000E+00 -0.00000000000E+00 -0.86246841379E+03  0.86246841379E+03  0.00000000000E+00 0. -1.
         23    2    1    2    0    0 -0.11944989456E+03  0.13559282663E+02 -0.40246417812E+03  0.43099332159E+03  0.96569649082E+02 0.  0.
         23    2    1    2    0    0  0.11944989456E+03 -0.13559282663E+02 -0.42885787720E+03  0.46262145067E+03  0.12508955324E+03 0.  0.
          5    1    4    4  502    0  0.52344944432E+02 -0.27102844495E+01 -0.35575165148E+02  0.63485459947E+02  0.41800000000E+01 0.  1.
         -5    1    4    4    0  502  0.67104950127E+02 -0.10848998214E+02 -0.39328271205E+03  0.39913599072E+03  0.41800000000E+01 0.  1.
        -11    1    3    3    0    0 -0.12382599969E+03 -0.15282790797E+02 -0.31589937860E+03  0.33964519619E+03  0.00000000000E+00 0.  1.
         11    1    3    3    0    0  0.43761051282E+01  0.28842073461E+02 -0.86564799524E+02  0.91348125400E+02  0.00000000000E+00 0. -1.
</event>
<event>
 7    1  0.1790275E-005  0.1126262E+03  0.7561462E-02  0.1255782E+00
         -1   -1    0    0    0  501 -0.00000000000E+00  0.00000000000E+00  0.83924619896E+02  0.83924619896E+02  0.00000000000E+00 0.  1.
          1   -1    0    0  501    0  0.00000000000E+00 -0.00000000000E+00 -0.42790446073E+03  0.42790446073E+03  0.00000000000E+00 0. -1.
         23    2    1    2    0    0  0.46059682365E+02 -0.37257423073E+02 -0.27823103337E+03  0.30518610929E+03  0.11052802115E+03 0.  0.
          5    1    3    3  502    0  0.52476011749E+02  0.18703187185E+02 -0.20629489924E+03  0.21372552228E+03  0.41800000000E+01 0. -1.
         -5    1    3    3    0  502 -0.64163293839E+01 -0.55960610258E+02 -0.71936134122E+02  0.91460587007E+02  0.41800000000E+01 0.  1.
        -11    1    1    2    0    0  0.25287463717E+02 -0.10143912250E+02  0.53370581851E+02  0.59923065543E+02  0.00000000000E+00 0.  1.
         11    1    1    2    0    0 -0.71347146082E+02  0.47401335324E+02 -0.11911938932E+03  0.14671990579E+03  0.00000000000E+00 0. -1.
</event>
<event>
 8    1  0.1790275E-005  0.1192488E+03  0.7561462E-02  0.1244341E+00
         -2   -1    0    0    0  501 -0.00000000000E+00  0.00000000000E+00  0.29705769415E+02  0.29705769415E+02  0.00000000000E+00 0.  1.
          2   -1    0    0  501    0  0.00000000000E+00 -0.00000000000E+00 -0.52283379109E+03  0.52283379109E+03  0.00000000000E+00 0. -1.
         23    2    1    2    0    0 -0.60578955551E+02 -0.52792529693E+01 -0.20422998815E+03  0.23190471913E+03  0.91499892500E+02 0.  0.
         23    2    1    2    0    0  0.60578955551E+02  0.52792529693E+01 -0.28889803353E+03  0.32063484138E+03  0.12508775864E+03 0.  0.
          5    1    4    4  502    0  0.43921647652E+01  0.55009217547E+02 -0.70237564240E+02  0.89420875397E+02  0.41800000000E+01 0. -1.
         -5    1    4    4    0  502  0.56186790785E+02 -0.49729964577E+02 -0.21866046929E+03  0.23121396598E+03  0.41800000000E+01 0. -1.
        -11    1    3    3    0    0  0.16886042824E+02 -0.23006085595E+02 -0.36763953625E+02  0.46540377123E+02  0.00000000000E+00 0.  1.
         11    1    3    3    0    0 -0.77464998374E+02  0.17726832625E+02 -0.16746603452E+03  0.18536434201E+03  0.00000000000E+00 0. -1.
</event>
<event>
 8    1  0.1790275E-005  0.1155934E+03  0.7561462E-02  0.1250549E+00
         -2   -1    0    0    0  501 -0.00000000000E+00  0.00000000000E+00  0.63417727175E+03  0.63417727175E+03  0.00000000000E+00 0. -1.
          2   -1    0    0  501    0  0.00000000000E+00 -0.00000000000E+00 -0.32534304125E+02  0.32534304125E+02  0.00000000000E+00 0.  1.
         23    2    1    2    0    0 -0.43579837260E+02  0.57530664607E+01  0.46620381878E+03  0.47717739708E+03  0.91760381697E+02 0.  0.
         23    2    1    2    0    0  0.43579837260E+02 -0.57530664607E+01  0.13543914885E+03  0.18953417880E+03  0.12508853626E+03 0.  0.
          5    1    4    4  502    0 -0.18488101649E+02 -0.51809168083E+02  0.54832403364E+02  0.77782161571E+02  0.41800000000E+01 0.  1.
         -5    1    4    4    0  502  0.62067938908E+02  0.46056101623E+02  0.80606745489E+02  0.11175201723E+03  0.41800000000E+01 0.  1.
        -11    1    3    3    0    0  0.19086790792E+02 -0.22814858886E+02  0.92022565822E+02  0.96710785279E+02  0.00000000000E+00 0.  1.
         11    1    3    3    0    0 -0.62666628052E+02  0.28567925346E+02  0.37418125295E+03  0.38046661180E+03  0.00000000000E+00 0. -1.
</event>
<event>
 8    1  0.1790275E-005  0.7153834E+02  0.7561462E-02  0.1354939E+00
         -1   -1    0    0    0  501 -0.00000000000E+00  0.00000000000E+00  0.44536603197E+03  0.44536603197E+03  0.00000000000E+00 0.  1.
          1   -1    0    0  501    0  0.00000000000E+00 -0.00000000000E+00 -0.29668694992E+02  0.29668694992E+02  0.00000000000E+00 0. -1.
         23    2    1    2    0    0 -0.32525457810E+02 -0.28224696767E+02  0.24663150536E+03  0.26469808413E+03  0.85926930546E+02 0.  0.
         23    2    1    2    0    0  0.32525457810E+02  0.28224696767E+02  0.16906583162E+03  0.21033664283E+03  0.11748918667E+03 0.  0.
          5    1    4    4  502    0  0.38759327863E+02  0.70701356443E+01 -0.16832483284E+00  0.39620361529E+02  0.41800000000E+01 0. -1.
         -5    1    4    4    0  502 -0.62338700532E+01  0.21154561122E+02  0.16923415645E+03  0.17071628130E+03  0.41800000000E+01 0.  1.
        -11    1    3    3    0    0  0.15809717923E+02 -0.28593899630E+02  0.36106743278E+02  0.48695535596E+02  0.00000000000E+00 0. -1.
         11    1    3    3    0    0 -0.48335175733E+02  0.36920286306E+00  0.21052476208E+03  0.21600254854E+03  0.00000000000E+00 0.  1.
</event>
<event>
 8    1  0.1790275E-005  0.7200351E+02  0.7561462E-02  0.1353410E+00
          2   -1    0    0  501    0  0.00000000000E+00  0.00000000000E+00  0.64606083570E+03  0.64606083570E+03  0.00000000000E+00 0.  1.
         -2   -1    0    0    0  501 -0.00000000000E+00 -0.00000000000E+00 -0.28781780072E+02  0.28781780072E+02  0.00000000000E+00 0. -1.
         23    2    1    2    0    0  0.11983817195E+02  0.92424374962E+01  0.81426147666E+02  0.12437468282E+03  0.92789060119E+02 0.  0.
         23    2    1    2    0    0 -0.11983817195E+02 -0.92424374962E+01  0.53585290796E+03  0.55046793295E+03  0.12509025426E+03 0.  0.
          5    1    4    4  502    0 -0.40062295607E+02  0.93233598196E+01  0.57003433665E+02  0.70418580056E+02  0.41800000000E+01 0.  1.
         -5    1    4    4    0  502  0.28078478412E+02 -0.18565797316E+02  0.47884947430E+03  0.48004935289E+03  0.41800000000E+01 0.  1.
        -11    1    3    3    0    0  0.39547420636E+02 -0.37467497024E+00  0.86157000553E+02  0.94800673017E+02  0.00000000000E+00 0.  1.
         11    1    3    3    0    0 -0.27563603441E+02  0.96171124664E+01 -0.47308528869E+01  0.29574009804E+02  0.00000000000E+00 0. -1.
</event>
<event>
 8    1  0.1790275E-005  0.1136138E+03  0.7561462E-02  0.1254020E+00
          2   -1    0    0  501    0  0.00000000000E+00  0.00000000000E+00  0.88646582926E+03  0.88646582926E+03  0.00000000000E+00 0. -1.
         -2   -1    0    0    0  501 -0.00000000000E+00 -0.00000000000E+00 -0.16872377899E+02  0.16872377899E+02  0.00000000000E+00 0.  1.
         23    2    1    2    0    0 -0.11909792868E+01 -0.42207423611E+02  0.25434368684E+03  0.27408306101E+03  0.92994237783E+02 0.  0.
         23    2    1    2    0    0  0.11909792868E+01  0.42207423611E+02  0.61524976452E+03  0.62925514615E+03  0.12508749404E+03 0.  0.
          5    1    4    4  502    0  0.46453848485E+02  0.60914657877E+02  0.27607115916E+03  0.28653326666E+03  0.41800000000E+01 0.  1.
         -5    1    4    4    0  502 -0.45262869198E+02 -0.18707234266E+02  0.33917860536E+03  0.34272187949E+03  0.41800000000E+01 0.  1.
        -11    1    3    3    0    0  0.45371563692E+02 -0.17395859025E+02  0.10514553621E+03  0.11583081839E+03  0.00000000000E+00 0.  1.
         11    1    3    3    0    0 -0.46562542979E+02 -0.24811564586E+02  0.14919815062E+03  0.15825224262E+03  0.00000000000E+00 0. -1.
</event>
<event>
 8    1  0.1790275E-005  0.1171294E+03  0.7561462E-02  0.1247909E+00
          2   -1    0    0  501    0  0.00000000000E+00  0.00000000000E+00  0.11379158113E+04  0.11379158113E+04  0.00000000000E+00 0. -1.
         -2   -1    0    0    0  501 -0.00000000000E+00 -0.00000000000E+00 -0.29291565435E+02  0.29291565435E+02  0.00000000000E+00 0.  1.
         23    2    1    2    0    0  0.41211854518E+02  0.10467276153E+03  0.22148238695E+03  0.26425492383E+03  0.90118883039E+02 0.  0.
         23    2    1    2    0    0 -0.41211854518E+02 -0.10467276153E+03  0.88714185895E+03  0.90295245294E+03  0.12509056885E+03 0.  0.
          5    1    4    4  502    0 -0.45595818412E+02 -0.66102930170E+02  0.21287490628E+03  0.22755609013E+03  0.41800000000E+01 0.  1.
         -5    1    4    4    0  502  0.43839638938E+01 -0.38569831355E+02  0.67426695267E+03  0.67539636281E+03  0.41800000000E+01 0.  1.
        -11    1    3    3    0    0  0.17286515910E+02  0.18276180919E+02 -0.17286004033E+00  0.25156953351E+02  0.00000000000E+00 0.  1.
         11    1    3    3    0    0  0.23925338608E+02  0.86396580607E+02  0.22165524699E+03  0.23909797048E+03  0.00000000000E+00 0. -1.
</event>
<event>
 8    1  0.1790275E-005  0.7174011E+02  0.7561462E-02  0.1354274E+00
         -2   -1    0    0    0  501 -0.00000000000E+00  0.00000000000E+00  0.91466817694E+01  0.91466817694E+01  0.00000000000E+00 0.  1.
          2   -1    0    0  501    0  0.00000000000E+00 -0.00000000000E+00 -0.19821269174E+04  0.19821269174E+04  0.00000000000E+00 0. -1.
         23    2    1    2    0    0 -0.32169871046E+02  0.27582418979E+01 -0.31424469455E+03  0.32751472156E+03  0.86450311041E+02 0.  0.
         23    2    1    2    0    0  0.32169871046E+02 -0.27582418979E+01 -0.16587355410E+04  0.16637588776E+04  0.12508996405E+03 0.  0.
          5    1    4    4  502    0  0.10262068960E+02  0.21170713913E+02 -0.58540297514E+02  0.63229328796E+02  0.41800000000E+01 0.  1.
         -5    1    4    4    0  502  0.21907802087E+02 -0.23928955811E+02 -0.16001952435E+04  0.16005295488E+04  0.41800000000E+01 0.  1.
        -11    1    3    3    0    0  0.76475860152E+01 -0.32684347432E+02 -0.17944604302E+03  0.18255857826E+03  0.00000000000E+00 0. -1.
         11    1    3    3    0    0 -0.39817457061E+02  0.35442589330E+02 -0.13479865153E+03  0.14495614330E+03  0.00000000000E+00 0.  1.
</event>
<event>
 7    1  0.1790275E-005  0.1376330E+03  0.7561462E-02  0.1216550E+00
         -1   -1    0    0    0  501 -0.00000000000E+00  0.00000000000E+00  0.41574255939E+02  0.41574255939E+02  0.00000000000E+00 0.  1.
          1   -1    0    0  501    0  0.00000000000E+00 -0.00000000000E+00 -0.46466469644E+03  0.46466469644E+03  0.00000000000E+00 0. -1.
         23    2    1    2    0    0  0.12812441071E+02  0.49251953203E+02 -0.16480998691E+03  0.19534445524E+03  0.91690843974E+02 0.  0.
          5    1    1    2  502    0 -0.11066249152E+02 -0.10948278140E+03 -0.14033434401E+03  0.17838201087E+03  0.41800000000E+01 0. -1.
         -5    1    1    2    0  502 -0.17461919196E+01  0.60230828195E+02 -0.11794610958E+03  0.13251248627E+03  0.41800000000E+01 0.  1.
        -11    1    3    3    0    0  0.21774393884E+01 -0.27335799758E+02 -0.39093387878E+02  0.47752279175E+02  0.00000000000E+00 0. -1.
         11    1    3    3    0    0  0.10635001683E+02  0.76587752961E+02 -0.12571659903E+03  0.14759217607E+03  0.00000000000E+00 0.  1.
</event>
<event>
 8    1  0.1790275E-005  0.1183858E+03  0.7561462E-02  0.1245784E+00
          1   -1    0    0  501    0  0.00000000000E+00  0.00000000000E+00  0.39374389957E+03  0.39374389957E+03  0.00000000000E+00 0. -1.
         -1   -1    0    0    0  501 -0.00000000000E+00 -0.00000000000E+00 -0.54645457513E+02  0.54645457513E+02  0.00000000000E+00 0.  1.
         23    2    1    2    0    0  0.69588827337E+02 -0.64693230608E+02  0.11930420846E+03  0.17824258493E+03  0.92244815305E+02 0.  0.
         23    2    1    2    0    0 -0.69588827337E+02  0.64693230608E+02  0.21979423360E+03  0.27014677215E+03  0.12506779923E+03 0.  0.
          5    1    4    4  502    0  0.44046350133E+00  0.67236765298E+02  0.42990580087E+02  0.79916450071E+02  0.41800000000E+01 0. -1.
         -5    1    4    4    0  502 -0.70029290838E+02 -0.25435346896E+01  0.17680365351E+03  0.19023032208E+03  0.41800000000E+01 0. -1.
        -11    1    3    3    0    0  0.48697188228E+02 -0.25933570374E+02  0.12223924808E+03  0.13411338481E+03  0.00000000000E+00 0. -1.
         11    1    3    3    0    0  0.20891639108E+02 -0.38759660234E+02 -0.29350396196E+01  0.44129200124E+02  0.00000000000E+00 0.  1.
</event>
<event>
 8    1  0.1790275E-005  0.1233400E+03  0.7561462E-02  0.1237687E+00
         -2   -1    0    0    0  501 -0.00000000000E+00  0.00000000000E+00  0.14403877298E+02  0.14403877298E+02  0.00000000000E+00 0.  1.
          2   -1    0    0  501    0  0.00000000000E+00 -0.00000000000E+00 -0.12572720090E+04  0.12572720090E+04  0.00000000000E+00 0. -1.
         23    2    1    2    0    0 -0.68472394411E+02  0.40947078502E+02 -0.51477445820E+03  0.52861985496E+03  0.89894806303E+02 0.  0.
         23    2    1    2    0    0  0.68472394411E+02 -0.40947078502E+02 -0.72809367347E+03  0.74305603132E+03  0.12508691495E+03 0.  0.
          5    1    4    4  502    0  0.95013685737E+02 -0.37669551855E+02 -0.36819248114E+03  0.38213841888E+03  0.41800000000E+01 0.  1.
         -5    1    4    4    0  502 -0.26541291325E+02 -0.32775266474E+01 -0.35990119234E+03  0.36091761244E+03  0.41800000000E+01 0.  1.
        -11    1    3    3    0    0 -0.37925767060E+02 -0.24460352727E+02 -0.14484685475E+03  0.15171448182E+03  0.00000000000E+00 0. -1.
         11    1    3    3    0    0 -0.30546627352E+02  0.65407431229E+02 -0.36992760346E+03  0.37690537314E+03  0.00000000000E+00 0.  1.
</event>
<event>
 8    1  0.1790275E-005  0.1338037E+03  0.7561462E-02  0.1221918E+00
          2   -1    0    0  501    0  0.00000000000E+00  0.00000000000E+00  0.57367780953E+03  0.57367780953E+03  0.00000000000E+00 0. -1.
         -2   -1    0    0    0  501 -0.00000000000E+00 -0.00000000000E+00 -0.56366590840E+02  0.56366590840E+02  0.00000000000E+00 0.  1.
         23    2    1    2    0    0 -0.36165765115E+02 -0.83035648105E+02  0.49647681399E+02  0.13754142877E+03  0.90828800149E+02 0.  0.
         23    2    1    2    0    0  0.36165765115E+02  0.83035648105E+02  0.46766353729E+03  0.49250297160E+03  0.12508841474E+03 0.  0.
          5    1    4    4  502    0  0.45779726346E+02 -0.15917665804E+02  0.22558451923E+03  0.23077045553E+03  0.41800000000E+01 0.  1.
         -5    1    4    4    0  502 -0.96139612315E+01  0.98953313910E+02  0.24207901806E+03  0.26173251607E+03  0.41800000000E+01 0.  1.
        -11    1    3    3    0    0  0.67478025655E+01 -0.75598478322E+02  0.54899141122E+02  0.93672719935E+02  0.00000000000E+00 0. -1.
         11    1    3    3    0    0 -0.42913567680E+02 -0.74371697832E+01 -0.52514597231E+01  0.43868708833E+02  0.00000000000E+00 0.  1.
</event>
<event>
 8    1  0.1790275E-005  0.1816995E+03  0.7561462E-02  0.1166168E+00
         -1   -1    0    0    0  501 -0.00000000000E+00  0.00000000000E+00  0.11996660866E+03  0.11996660866E+03  0.00000000000E+00 0.  1.
          1   -1    0    0  501    0  0.00000000000E+00 -0.00000000000E+00 -0.32417667460E+03  0.32417667460E+03  0.00000000000E+00 0. -1.
         23    2    1    2    0    0  0.16350626840E+03  0.87599634511E+01 -0.84931390579E+02  0.20605456550E+03  0.91837389404E+02 0.  0.
         23    2    1    2    0    0 -0.16350626840E+03 -0.87599634511E+01 -0.11927867536E+03  0.23808871775E+03  0.12509116020E+03 0.  0.
          5    1    4    4  502    0 -0.15311423213E+03 -0.25975005646E+02 -0.13984148417E+03  0.20902579289E+03  0.41800000000E+01 0.  1.
         -5    1    4    4    0  502 -0.10392036274E+02  0.17215042195E+02  0.20562808809E+02  0.29062924866E+02  0.41800000000E+01 0.  1.
        -11    1    3    3    0    0  0.13032265201E+03  0.45460744400E+02 -0.57930759027E+02  0.14968849571E+03  0.00000000000E+00 0.  1.
         11    1    3    3    0    0  0.33183616393E+02 -0.36700780949E+02 -0.27000631552E+02  0.56366069788E+02  0.00000000000E+00 0. -1.
</event>
<event>
 8    1  0.1790275E-005  0.4719773E+02  0.7561462E-02  0.1461070E+00
         -1   -1    0    0    0  501 -0.00000000000E+00  0.00000000000E+00  0.21408531469E+02  0.21408531469E+02  0.00000000000E+00 0.  1.
          1   -1    0    0  501    0  0.00000000000E+00 -0.00000000000E+00 -0.76940858647E+03  0.76940858647E+03  0.00000000000E+00 0. -1.
         23    2    1    2    0    0  0.67701625540E+01  0.21055676466E+02 -0.13438115345E+03  0.16418782393E+03  0.91706981802E+02 0.  0.
         23    2    1    2    0    0 -0.67701625540E+01 -0.21055676466E+02 -0.61361890155E+03  0.62662929401E+03  0.12508772586E+03 0.  0.
          5    1    4    4  502    0 -0.15985287512E+02 -0.26602075639E+02 -0.61427379168E+03  0.61507151079E+03  0.41800000000E+01 0. -1.
         -5    1    4    4    0  502  0.92151249585E+01  0.55463991729E+01  0.65489013117E+00  0.11557783216E+02  0.41800000000E+01 0. -1.
        -11    1    3    3    0    0  0.23851201520E+02  0.24415702152E+02 -0.14136768344E+03  0.14542980522E+03  0.00000000000E+00 0. -1.
         11    1    3    3    0    0 -0.17081038966E+02 -0.33600256863E+01  0.69865299843E+01  0.18758018712E+02  0.00000000000E+00 0.  1.
</event>
<event>
 8    1  0.1790275E-005  0.9793625E+02  0.7561462E-02  0.1284697E+00
         -2   -1    0    0    0  501 -0.00000000000E+00  0.00000000000E+00  0.46323525380E+02  0.46323525380E+02  0.00000000000E+00 0.  1.
          2   -1    0    0  501    0  0.00000000000E+00 -0.00000000000E+00 -0.33872820103E+03  0.33872820103E+03  0.00000000000E+00 0. -1.
         23    2    1    2    0    0 -0.27436037066E+02 -0.24471317617E+02 -0.51206518956E+02  0.11101626901E+03  0.91383384076E+02 0.  0.
         23    2    1    2    0    0  0.27436037066E+02  0.24471317617E+02 -0.24119815669E+03  0.27403545740E+03  0.12476898495E+03 0.  0.
          5    1    4    4  502    0 -0.48104878268E+02 -0.45627092831E+01 -0.78536858122E+02  0.92306056751E+02  0.41800000000E+01 0.  1.
         -5    1    4    4    0  502  0.75540915334E+02  0.29034026900E+02 -0.16266129857E+03  0.18172940065E+03  0.41800000000E+01 0.  1.
        -11    1    3    3    0    0  0.15489722870E+02  0.24258395330E+01  0.18879045066E+02  0.24540467694E+02  0.00000000000E+00 0.  1.
         11    1    3    3    0    0 -0.42925759935E+02 -0.26897157150E+02 -0.70085564022E+02  0.86475801315E+02  0.00000000000E+00 0. -1.
</event>
<event>
 8    1  0.1790275E-005  0.1242606E+03  0.7561462E-02  0.1236229E+00
          1   -1    0    0  501    0  0.00000000000E+00  0.00000000000E+00  0.93413317187E+03  0.93413317187E+03  0.00000000000E+00 0. -1.
         -1   -1    0    0    0  501 -0.00000000000E+00 -0.00000000000E+00 -0.22963153632E+02  0.22963153632E+02  0.00000000000E+00 0.  1.
         23    2    1    2    0    0 -0.45585622506E+02  0.54493400335E+02  0.18300082207E+03  0.21628939965E+03  0.90797708482E+02 0.  0.
         23    2    1    2    0    0  0.45585622506E+02 -0.54493400335E+02  0.72816919617E+03  0.74080692585E+03  0.11626239062E+03 0.  0.
          5    1    4    4  502    0 -0.37220679301E+02 -0.31907241141E+02  0.22118563809E+03  0.22659216646E+03  0.41800000000E+01 0. -1.
         -5    1    4    4    0  502  0.82806301807E+02 -0.22586159193E+02  0.50698355808E+03  0.51421475939E+03  0.41800000000E+01 0.  1.
        -11    1    3    3    0    0  0.21433180673E+02  0.39149299402E+02  0.91817207467E+02  0.10209039360E+03  0.00000000000E+00 0.  1.
         11    1    3    3    0    0 -0.67018803179E+02  0.15344100933E+02  0.91183614599E+02  0.11419900606E+03  0.00000000000E+00 0. -1.
</event>
<event>
 8    1  0.1790275E-005  0.1326449E+03  0.7561462E-02  0.1223583E+00
         -1   -1    0    0    0  501 -0.00000000000E+00  0.00000000000E+00  0.31430897754E+03  0.31430897754E+03  0.00000000000E+00 0.  1.
          1   -1    0    0  501    0  0.00000000000E+00 -0.00000000000E+00 -0.73837636159E+02  0.73837636159E+02  0.00000000000E+00 0. -1.
         23    2    1    2    0    0 -0.10368983971E+03  0.20069103756E+02  0.13208706772E+03  0.19180970737E+03  0.90496511519E+02 0.  0.
         23    2    1    2    0    0  0.10368983971E+03 -0.20069103756E+02  0.10838427366E+03  0.19633690633E+03  0.12508668284E+03 0.  0.
          5    1    4    4  502    0  0.71699811576E+02  0.34154615436E+02  0.10688134540E+03  0.13322347814E+03  0.41800000000E+01 0.  1.
         -5    1    4    4    0  502  0.31990028139E+02 -0.54223719192E+02  0.15029282640E+01  0.63113428180E+02  0.41800000000E+01 0.  1.
        -11    1    3    3    0    0  0.32893697649E+01  0.15224999082E+02  0.61757555280E+02  0.63691570750E+02  0.00000000000E+00 0.  1.
         11    1    3    3    0    0 -0.10697920948E+03  0.48441046739E+01  0.70329512439E+02  0.12811813662E+03  0.00000000000E+00 0. -1.
</event>
<event>
 8    1  0.1790275E-005  0.1581528E+03  0.7561462E-02  0.1190798E+00
          1   -1    0    0  501    0  0.00000000000E+00  0.00000000000E+00  0.10173557885E+04  0.10173557885E+04  0.00000000000E+00 0. -1.
         -1   -1    0    0    0  501 -0.00000000000E+00 -0.00000000000E+00 -0.30823770562E+02  0.30823770562E+02  0.00000000000E+00 0.  1.
         23    2    1    2    0    0  0.13775154612E+03  0.24673588069E+02  0.45545534361E+03  0.48490808630E+03  0.90066684869E+02 0.  0.
         23    2    1    2    0    0 -0.13775154612E+03 -0.24673588069E+02  0.53107667430E+03  0.56327147274E+03  0.12509214048E+03 0.  0.
          5    1    4    4  502    0 -0.11966787207E+03  0.77897837180E+01  0.22571167794E+03  0.25562533970E+03  0.41800000000E+01 0.  1.
         -5    1    4    4    0  502 -0.18083674049E+02 -0.32463371787E+02  0.30536499635E+03  0.30764613304E+03  0.41800000000E+01 0.  1.
        -11    1    3    3    0    0  0.88986035680E+02 -0.21730717638E+02  0.33067828516E+03  0.34313097632E+03  0.00000000000E+00 0. -1.
         11    1    3    3    0    0  0.48765510441E+02  0.46404305707E+02  0.12477705846E+03  0.14177710998E+03  0.00000000000E+00 0.  1.
</event>
<event>
 8    1  0.1790275E-005  0.1734149E+03  0.7561462E-02  0.1174333E+00
          1   -1    0    0  501    0  0.00000000000E+00  0.00000000000E+00  0.91130866923E+03  0.91130866923E+03  0.00000000000E+00 0. -1.
         -1   -1    0    0    0  501 -0.00000000000E+00 -0.00000000000E+00 -0.45769304431E+02  0.45769304431E+02  0.00000000000E+00 0.  1.
         23    2    1    2    0    0 -0.97587609308E+01 -0.14079861023E+03  0.17597301538E+03  0.24218761414E+03  0.88141115512E+02 0.  0.
         23    2    1    2    0    0  0.97587609308E+01  0.14079861023E+03  0.68956634941E+03  0.71489035952E+03  0.12508794438E+03 0.  0.
          5    1    4    4  502    0 -0.25362821185E+02  0.14482803259E+03  0.47068539528E+03  0.49313349659E+03  0.41800000000E+01 0. -1.
         -5    1    4    4    0  502  0.35121582116E+02 -0.40294223665E+01  0.21888095413E+03  0.22175686293E+03  0.41800000000E+01 0. -1.
        -11    1    3    3    0    0 -0.37262599069E+02 -0.24410509581E+02  0.31097177400E+02  0.54326869132E+02  0.00000000000E+00 0. -1.
         11    1    3    3    0    0  0.27503838138E+02 -0.11638810065E+03  0.14487583798E+03  0.18786074501E+03  0.00000000000E+00 0.  1.
</event>
<event>
 8    1  0.1790275E-005  0.8533410E+02  0.7561462E-02  0.1314561E+00
          4   -1    0    0  501    0  0.00000000000E+00  0.00000000000E+00  0.46538247511E+03  0.46538247511E+03  0.00000000000E+00 0. -1.
         -4   -1    0    0    0  501 -0.00000000000E+00 -0.00000000000E+00 -0.27909645179E+02  0.27909645179E+02  0.00000000000E+00 0.  1.
         23    2    1    2    0    0  0.23687174066E+02 -0.15454953546E+02  0.15939289511E+03  0.18705446276E+03  0.93719470867E+02 0.  0.
         23    2    1    2    0    0 -0.23687174066E+02  0.15454953546E+02  0.27807993482E+03  0.30623765754E+03  0.12511240921E+03 0.  0.
          5    1    4    4  502    0 -0.56112983464E+02  0.12487073790E+02  0.51505712379E+02  0.77297507933E+02  0.41800000000E+01 0.  1.
         -5    1    4    4    0  502  0.32425809398E+02  0.29678797561E+01  0.22657422244E+03  0.22894014960E+03  0.41800000000E+01 0.  1.
        -11    1    3    3    0    0 -0.23392097695E+02  0.11378691119E+02  0.95440565293E+01  0.27708371681E+02  0.00000000000E+00 0.  1.
         11    1    3    3    0    0  0.47079271761E+02 -0.26833644665E+02  0.14984883859E+03  0.15934609108E+03  0.00000000000E+00 0. -1.
</event>
<event>
 8    1  0.1790275E-005  0.9022191E+02  0.7561462E-02  0.1302315E+00
          3   -1    0    0  501    0  0.00000000000E+00  0.00000000000E+00  0.10687752366E+03  0.10687752366E+03  0.00000000000E+00 0. -1.
         -3   -1    0    0    0  501 -0.00000000000E+00 -0.00000000000E+00 -0.13644915161E+03  0.13644915161E+03  0.00000000000E+00 0.  1.
         23    2    1    2    0    0  0.14587583602E+01 -0.48349665403E+02 -0.23197257945E+02  0.10906807934E+03  0.94962703387E+02 0.  0.
         23    2    1    2    0    0 -0.14587583602E+01  0.48349665403E+02 -0.63743700057E+01  0.13425859592E+03  0.12507965408E+03 0.  0.
          5    1    4    4  502    0 -0.53138469022E+02  0.25921435954E+02  0.30638254175E+02  0.66721756203E+02  0.41800000000E+01 0.  1.
         -5    1    4    4    0  502  0.51679710662E+02  0.22428229449E+02 -0.37012624180E+02  0.67536839717E+02  0.41800000000E+01 0.  1.
        -11    1    3    3    0    0  0.17523573270E+02 -0.44971235032E+02  0.27658734319E+02  0.55628168984E+02  0.00000000000E+00 0. -1.
         11    1    3    3    0    0 -0.16064814910E+02 -0.33784303714E+01 -0.50855992264E+02  0.53439910357E+02  0.00000000000E+00 0.  1.
</event>
<event>
 8    1  0.1790275E-005  0.1685336E+03  0.7561462E-02  0.1179386E+00
          2   -1    0    0  501    0  0.00000000000E+00  0.00000000000E+00  0.10992372755E+04  0.10992372755E+04  0.00000000000E+00 0.  1.
         -2   -1    0    0    0  501 -0.00000000000E+00 -0.00000000000E+00 -0.31794938866E+02  0.31794938866E+02  0.00000000000E+00 0. -1.
         23    2    1    2    0    0 -0.13848363844E+03  0.14331863308E+02  0.33101948780E+03  0.37119812969E+03  0.93973558839E+02 0.  0.
         23    2    1    2    0    0  0.13848363844E+03 -0.14331863308E+02  0.73642284883E+03  0.75983408467E+03  0.12508438565E+03 0.  0.
          5    1    4    4  502    0  0.11763420710E+03  0.32758139646E+02  0.36672535092E+03  0.38654347466E+03  0.41800000000E+01 0.  1.
         -5    1    4    4    0  502  0.20849431336E+02 -0.47090002954E+02  0.36969749791E+03  0.37329061002E+03  0.41800000000E+01 0.  1.
        -11    1    3    3    0    0 -0.60827703056E+01 -0.24496104023E+02  0.25067472531E+02  0.35572986746E+02  0.00000000000E+00 0. -1.
         11    1    3    3    0    0 -0.13240086813E+03  0.38827967331E+02  0.30595201527E+03  0.33562514294E+03  0.00000000000E+00 0.  1.
</event>
<event>
 8    1  0.1790275E-005  0.1389988E+03  0.7561462E-02  0.1214683E+00
         -2   -1    0    0    0  501 -0.00000000000E+00  0.00000000000E+00  0.32203150222E+03  0.32203150222E+03  0.00000000000E+00 0.  1.
          2   -1    0    0  501    0  0.00000000000E+00 -0.00000000000E+00 -0.63047139922E+02  0.63047139922E+02  0.00000000000E+00 0. -1.
         23    2    1    2    0    0 -0.80231295126E+02  0.39146743152E+02  0.14815412315E+03  0.19560678049E+03  0.91339149051E+02 0.  0.
         23    2    1    2    0    0  0.80231295126E+02 -0.39146743152E+02  0.11083023914E+03  0.18947186165E+03  0.12508683477E+03 0.  0.
          5    1    4    4  502    0 -0.33466548494E+02 -0.12632493227E+01  0.23468541130E+02  0.41107791107E+02  0.41800000000E+01 0. -1.
         -5    1    4    4    0  502  0.11369784362E+03 -0.37883493830E+02  0.87361698015E+02  0.14836407054E+03  0.41800000000E+01 0. -1.
        -11    1    3    3    0    0 -0.31918867851E+02  0.62870174291E+02  0.10568517703E+03  0.12704656463E+03  0.00000000000E+00 0.  1.
         11    1    3    3    0    0 -0.48312427275E+02 -0.23723431139E+02  0.42468946126E+02  0.68560215864E+02  0.00000000000E+00 0. -1.
</event>
<event>
 8    1  0.1790275E-005  0.1100884E+03  0.7561462E-02  0.1260406E+00
         -2   -1    0    0    0  501 -0.00000000000E+00  0.00000000000E+00  0.31728948144E+02  0.31728948144E+02  0.00000000000E+00 0. -1.
          2   -1    0    0  501    0  0.00000000000E+00 -0.00000000000E+00 -0.43525941414E+03  0.43525941414E+03  0.00000000000E+00 0.  1.
         23    2    1    2    0    0  0.29904452833E+02 -0.23288578725E+02 -0.11822565853E+03  0.15316884294E+03  0.89703700679E+02 0.  0.
         23    2    1    2    0    0 -0.29904452833E+02  0.23288578725E+02 -0.28530480747E+03  0.31381951934E+03  0.12508886185E+03 0.  0.
          5    1    4    4  502    0  0.94873015774E+01 -0.45466833170E+02 -0.14869515439E+03  0.15583633450E+03  0.41800000000E+01 0.  1.
         -5    1    4    4    0  502 -0.39391754411E+02  0.68755411895E+02 -0.13660965307E+03  0.15798318484E+03  0.41800000000E+01 0.  1.
        -11    1    3    3    0    0  0.59797663485E+02 -0.23630191989E+02 -0.61123122793E+02  0.88714050024E+02  0.00000000000E+00 0. -1.
         11    1    3    3    0    0 -0.29893210652E+02  0.34161326446E+00 -0.57102535737E+02  0.64454792920E+02  0.00000000000E+00 0.  1.
</event>
<event>
 8    1  0.1790275E-005  0.1176604E+03  0.7561462E-02  0.1247007E+00
          1   -1    0    0  501    0  0.00000000000E+00  0.00000000000E+00  0.64963118000E+02  0.64963118000E+02  0.00000000000E+00 0.  1.
         -1   -1    0    0    0  501 -0.00000000000E+00 -0.00000000000E+00 -0.30226051507E+03  0.30226051507E+03  0.00000000000E+00 0. -1.
         23    2    1    2    0    0 -0.81476979242E+02 -0.32565636484E+02 -0.12112165059E+03  0.17527928016E+03  0.91396679299E+02 0.  0.
         23    2    1    2    0    0  0.81476979242E+02  0.32565636484E+02 -0.11617574648E+03  0.19194435291E+03  0.12508721644E+03 0.  0.
          5    1    4    4  502    0  0.93474755092E+02  0.61883210248E+02 -0.59752101680E+02  0.12710172149E+03  0.41800000000E+01 0. -1.
         -5    1    4    4    0  502 -0.11997775849E+02 -0.29317573763E+02 -0.56423644799E+02  0.64842631417E+02  0.41800000000E+01 0. -1.
        -11    1    3    3    0    0 -0.23789978018E+02  0.21062005584E+01  0.11537019219E+02  0.26523611130E+02  0.00000000000E+00 0.  1.
         11    1    3    3    0    0 -0.57687001225E+02 -0.34671837043E+02 -0.13265866981E+03  0.14875566903E+03  0.00000000000E+00 0. -1.
</event>
<event>
 8    1  0.1790275E-005  0.1428226E+03  0.7561462E-02  0.1209581E+00
          2   -1    0    0  501    0  0.00000000000E+00  0.00000000000E+00  0.78184083601E+02  0.78184083601E+02  0.00000000000E+00 0. -1.
         -2   -1    0    0    0  501 -0.00000000000E+00 -0.00000000000E+00 -0.36493773466E+03  0.36493773466E+03  0.00000000000E+00 0.  1.
         23    2    1    2    0    0 -0.11012146164E+03 -0.67137555256E+02 -0.92066742008E+02  0.17819639821E+03  0.81507568421E+02 0.  0.
         23    2    1    2    0    0  0.11012146164E+03  0.67137555256E+02 -0.19468690905E+03  0.26492542006E+03  0.12509315727E+03 0.  0.
          5    1    4    4  502    0  0.16961192580E+02 -0.20738098095E+02 -0.10519468879E+03  0.10863307837E+03  0.41800000000E+01 0.  1.
         -5    1    4    4    0  502  0.93160269061E+02  0.87875653351E+02 -0.89492220269E+02  0.15629234169E+03  0.41800000000E+01 0.  1.
        -11    1    3    3    0    0 -0.28622920425E+02 -0.27795477999E+02 -0.76626032197E+02  0.86391023730E+02  0.00000000000E+00 0.  1.
         11    1    3    3    0    0 -0.81498541215E+02 -0.39342077256E+02 -0.15440709810E+02  0.91805374475E+02  0.00000000000E+00 0. -1.
</event>
<event>
 8    1  0.1790275E-005  0.1022738E+03  0.7561462E-02  0.1275586E+00
         -1   -1    0    0    0  501 -0.00000000000E+00  0.00000000000E+00  0.77042884723E+02  0.77042884723E+02  0.00000000000E+00 0.  1.
          1   -1    0    0  501    0  0.00000000000E+00 -0.00000000000E+00 -0.17258807201E+03  0.17258807201E+03  0.00000000000E+00 0. -1.
         23    2    1    2    0    0 -0.30173997621E+02 -0.27591911360E+02 -0.43160740299E+02  0.10798434731E+03  0.90144251373E+02 0.  0.
         23    2    1    2    0    0  0.30173997621E+02  0.27591911360E+02 -0.52384446987E+02  0.14164660942E+03  0.12509135850E+03 0.  0.
          5    1    4    4  502    0 -0.92104296589E+01 -0.32373789472E+02  0.20222842869E+02  0.39488353131E+02  0.41800000000E+01 0.  1.
         -5    1    4    4    0  502  0.39384427280E+02  0.59965700832E+02 -0.72607289856E+02  0.10215825629E+03  0.41800000000E+01 0.  1.
        -11    1    3    3    0    0  0.25365920563E+02 -0.34474948125E+02 -0.22262933773E+02  0.48245105393E+02  0.00000000000E+00 0. -1.
         11    1    3    3    0    0 -0.55539918184E+02  0.68830367654E+01 -0.20897806526E+02  0.59739241915E+02  0.00000000000E+00 0.  1.
</event>
<event>
 8    1  0.1790275E-005  0.1341422E+03  0.7561462E-02  0.1221436E+00
          2   -1    0    0  501    0  0.00000000000E+00  0.00000000000E+00  0.31977254230E+03  0.31977254230E+03  0.00000000000E+00 0. -1.
         -2   -1    0    0    0  501 -0.00000000000E+00 -0.00000000000E+00 -0.56723562731E+02  0.56723562731E+02  0.00000000000E+00 0.  1.
         23    2    1    2    0    0 -0.70502909049E+02 -0.56796499232E+02  0.11174285678E+03  0.16819101577E+03  0.87208080115E+02 0.  0.
         23    2    1    2    0    0  0.70502909049E+02  0.56796499232E+02  0.15130612279E+03  0.20830508925E+03  0.11090971511E+03 0.  0.
          5    1    4    4  502    0 -0.23349890669E+02 -0.11791152056E+02  0.22554242227E+02  0.34791017569E+02  0.41800000000E+01 0. -1.
         -5    1    4    4    0  502  0.93852799717E+02  0.68587651288E+02  0.12875188056E+03  0.17351407168E+03  0.41800000000E+01 0.  1.
        -11    1    3    3    0    0 -0.14111583500E+02 -0.66738796372E+02  0.65791407491E+02  0.94771900001E+02  0.00000000000E+00 0.  1.
         11    1    3    3    0    0 -0.56391325548E+02  0.99422971401E+01  0.45951449285E+02  0.73419115773E+02  0.00000000000E+00 0. -1.
</event>
<event>
 8    1  0.1790275E-005  0.1146736E+03  0.7561462E-02  0.1252152E+00
          2   -1    0    0  501    0  0.00000000000E+00  0.00000000000E+00  0.17131592436E+04  0.17131592436E+04  0.00000000000E+00 0. -1.
         -2   -1    0    0    0  501 -0.00000000000E+00 -0.00000000000E+00 -0.41428821775E+02  0.41428821775E+02  0.00000000000E+00 0.  1.
         23    2    1    2    0    0  0.58759429494E+02  0.60012707071E+02  0.52734807203E+02  0.12859641232E+03  0.81865021876E+02 0.  0.
         23    2    1    2    0    0 -0.58759429494E+02 -0.60012707071E+02  0.16189956146E+04  0.16259916531E+04  0.12509140687E+03 0.  0.
          5    1    4    4  502    0  0.69164288968E+00 -0.62033654410E+02  0.34212022381E+03  0.34772456426E+03  0.41800000000E+01 0. -1.
         -5    1    4    4    0  502 -0.59451072384E+02  0.20209473390E+01  0.12768753908E+04  0.12782670888E+04  0.41800000000E+01 0. -1.
        -11    1    3    3    0    0  0.47416697117E+01  0.52831487733E+02  0.40442273048E+00  0.53045387033E+02  0.00000000000E+00 0.  1.
         11    1    3    3    0    0  0.54017759782E+02  0.71812193375E+01  0.52330384473E+02  0.75551025288E+02  0.00000000000E+00 0. -1.
</event>
<event>
 8    1  0.1790275E-005  0.1548628E+03  0.7561462E-02  0.1194622E+00
         -1   -1    0    0    0  501 -0.00000000000E+00  0.00000000000E+00  0.24290067661E+02  0.24290067661E+02  0.00000000000E+00 0.  1.
          1   -1    0    0  501    0  0.00000000000E+00 -0.00000000000E+00 -0.13339817984E+04  0.13339817984E+04  0.00000000000E+00 0. -1.
         23    2    1    2    0    0 -0.10039799860E+03  0.57862015390E+02 -0.31384038958E+03  0.34793033129E+03  0.95561259671E+02 0.  0.
         23    2    1    2    0    0  0.10039799860E+03 -0.57862015390E+02 -0.99585134116E+03  0.10103415348E+04  0.12506938975E+03 0.  0.
          5    1    4    4  502    0  0.38450950355E+02 -0.91685982673E+02 -0.55307933346E+03  0.56195997767E+03  0.41800000000E+01 0.  1.
         -5    1    4    4    0  502  0.61947048247E+02  0.33823967283E+02 -0.44277200770E+03  0.44838155711E+03  0.41800000000E+01 0.  1.
        -11    1    3    3    0    0 -0.10915415194E+03  0.34364098381E+02 -0.29543649781E+03  0.31682525843E+03  0.00000000000E+00 0. -1.
         11    1    3    3    0    0  0.87561533382E+01  0.23497917009E+02 -0.18403891774E+02  0.31105072858E+02  0.00000000000E+00 0.  1.
</event>
<event>
 8    1  0.1790275E-005  0.1144760E+03  0.7561462E-02  0.1252499E+00
         -2   -1    0    0    0  501 -0.00000000000E+00  0.00000000000E+00  0.13315950193E+03  0.13315950193E+03  0.00000000000E+00 0. -1.
          2   -1    0    0  501    0  0.00000000000E+00 -0.00000000000E+00 -0.12811442180E+03  0.12811442180E+03  0.00000000000E+00 0.  1.
         23    2    1    2    0    0 -0.64561562385E+02 -0.21676897548E+02  0.29451461029E+02  0.11677099702E+03  0.90166479160E+02 0.  0.
         23    2    1    2    0    0  0.64561562385E+02  0.21676897548E+02 -0.24406380897E+02  0.14450292671E+03  0.12508933277E+03 0.  0.
          5    1    4    4  502    0  0.41586701508E+02 -0.36714129550E+02 -0.51702219534E+02  0.75947172138E+02  0.41800000000E+01 0.  1.
         -5    1    4    4    0  502  0.22974860877E+02  0.58391027098E+02  0.27295838637E+02  0.68555754571E+02  0.41800000000E+01 0.  1.
        -11    1    3    3    0    0 -0.19879890208E+02 -0.52508952681E+02  0.25999750981E+01  0.56206405479E+02  0.00000000000E+00 0.  1.
         11    1    3    3    0    0 -0.44681672177E+02  0.30832055133E+02  0.26851485930E+02  0.60564591544E+02  0.00000000000E+00 0. -1.
</event>
<event>
 8    1  0.1790275E-005  0.7582775E+02  0.7561462E-02  0.1341327E+00
         -3   -1    0    0    0  501 -0.00000000000E+00  0.00000000000E+00  0.62269768227E+02  0.62269768227E+02  0.00000000000E+00 0.  1.
          3   -1    0    0  501    0  0.00000000000E+00 -0.00000000000E+00 -0.22190137126E+03  0.22190137126E+03  0.00000000000E+00 0. -1.
         23    2    1    2    0    0 -0.31802256866E+02 -0.54633832779E+00 -0.29603226855E+02  0.10096043584E+03  0.91131644000E+02 0.  0.
         23    2    1    2    0    0  0.31802256866E+02  0.54633832779E+00 -0.13002837618E+03  0.18321070364E+03  0.12508837392E+03 0.  0.
          5    1    4    4  502    0 -0.15804391536E+02  0.48848796267E+02 -0.22950133685E+02  0.56392949247E+02  0.41800000000E+01 0.  1.
         -5    1    4    4    0  502  0.47606648402E+02 -0.48302457939E+02 -0.10707824249E+03  0.12681775440E+03  0.41800000000E+01 0.  1.
        -11    1    3    3    0    0 -0.13645060103E+02  0.22332726230E+01 -0.62105877541E+02  0.63626371867E+02  0.00000000000E+00 0. -1.
         11    1    3    3    0    0 -0.18157196763E+02 -0.27796109507E+01  0.32502650686E+02  0.37334063976E+02  0.00000000000E+00 0.  1.
</event>
<event>
 8    1  0.1790275E-005  0.1043466E+03  0.7561462E-02  0.1271412E+00
          2   -1    0    0  501    0  0.00000000000E+00  0.00000000000E+00  0.11232853280E+04  0.11232853280E+04  0.00000000000E+00 0. -1.
         -2   -1    0    0    0  501 -0.00000000000E+00 -0.00000000000E+00 -0.13971003068E+02  0.13971003068E+02  0.00000000000E+00 0.  1.
         23    2    1    2    0    0 -0.22625706583E+02 -0.42302800060E+02  0.31102531068E+03  0.32780302720E+03  0.91742200041E+02 0.  0.
         23    2    1    2    0    0  0.22625706583E+02  0.42302800060E+02  0.79828901424E+03  0.80945330385E+03  0.12509137209E+03 0.  0.
          5    1    4    4  502    0 -0.37096416542E+02  0.14471577725E+02  0.95272852653E+02  0.10334388968E+03  0.41800000000E+01 0.  1.
         -5    1    4    4    0  502  0.59722123126E+02  0.27831222335E+02  0.70301616158E+03  0.70610941417E+03  0.41800000000E+01 0.  1.
        -11    1    3    3    0    0 -0.57975392655E+02 -0.29394668298E+02  0.21699727557E+03  0.22652375214E+03  0.00000000000E+00 0. -1.
         11    1    3    3    0    0  0.35349686072E+02 -0.12908131762E+02  0.94028035105E+02  0.10127927506E+03  0.00000000000E+00 0.  1.
</event>
<event>
 8    1  0.1790275E-005  0.9023857E+02  0.7561462E-02  0.1302275E+00
          2   -1    0    0  501    0  0.00000000000E+00  0.00000000000E+00  0.12382328088E+03  0.12382328088E+03  0.00000000000E+00 0.  1.
         -2   -1    0    0    0  501 -0.00000000000E+00 -0.00000000000E+00 -0.12887639377E+03  0.12887639377E+03  0.00000000000E+00 0. -1.
         23    2    1    2    0    0 -0.26403176727E+01 -0.19119331824E+02 -0.63183174018E+02  0.11342072265E+03  0.92193420157E+02 0.  0.
         23    2    1    2    0    0  0.26403176727E+01  0.19119331824E+02  0.58130061123E+02  0.13927895200E+03  0.12508797839E+03 0.  0.
          5    1    4    4  502    0  0.34704194992E+02 -0.17695921874E+02 -0.22313173888E+02  0.45087436499E+02  0.41800000000E+01 0.  1.
         -5    1    4    4    0  502 -0.32063877319E+02  0.36815253699E+02  0.80443235011E+02  0.94191515503E+02  0.41800000000E+01 0.  1.
        -11    1    3    3    0    0  0.42839666215E+02 -0.18886768086E+02 -0.20719238086E+02  0.51197986650E+02  0.00000000000E+00 0.  1.
         11    1    3    3    0    0 -0.45479983887E+02 -0.23256373845E+00 -0.42463935932E+02  0.62222735998E+02  0.00000000000E+00 0. -1.
</event>
<event>
 8    1  0.1790275E-005  0.1076550E+03  0.7561462E-02  0.1264975E+00
          1   -1    0    0  501    0  0.00000000000E+00  0.00000000000E+00  0.58301586487E+03  0.58301586487E+03  0.00000000000E+00 0. -1.
         -1   -1    0    0    0  501 -0.00000000000E+00 -0.00000000000E+00 -0.25899836361E+02  0.25899836361E+02  0.00000000000E+00 0.  1.
         23    2    1    2    0    0  0.17114154019E+02 -0.51407614351E+02  0.18546187191E+03  0.21304959934E+03  0.89768528817E+02 0.  0.
         23    2    1    2    0    0 -0.17114154019E+02  0.51407614351E+02  0.37165415660E+03  0.39586610189E+03  0.12509005327E+03 0.  0.
          5    1    4    4  502    0 -0.35477951866E+02 -0.33353585681E+02  0.15240736513E+03  0.16005194186E+03  0.41800000000E+01 0.  1.
         -5    1    4    4    0  502  0.18363797847E+02  0.84761200031E+02  0.21924679147E+03  0.23581416003E+03  0.41800000000E+01 0.  1.
        -11    1    3    3    0    0 -0.74818051008E+00 -0.59847534962E+02  0.18371252906E+03  0.19321640859E+03  0.00000000000E+00 0.  1.
         11    1    3    3    0    0  0.17862334529E+02  0.84399206108E+01  0.17493428439E+01  0.19833190745E+02  0.00000000000E+00 0. -1.
</event>
<event>
 8    1  0.1790275E-005  0.9482442E+02  0.7561462E-02  0.1291572E+00
         -2   -1    0    0    0  501 -0.00000000000E+00  0.00000000000E+00  0.34113784474E+02  0.34113784474E+02  0.00000000000E+00 0.  1.
          2   -1    0    0  501    0  0.00000000000E+00 -0.00000000000E+00 -0.52643165996E+03  0.52643165996E+03  0.00000000000E+00 0. -1.
         23    2    1    2    0    0 -0.10047774973E+02 -0.20336708386E+02 -0.54020438641E+02  0.10418430763E+03  0.86148840243E+02 0.  0.
         23    2    1    2    0    0  0.10047774973E+02  0.20336708386E+02 -0.43829743684E+03  0.45636113681E+03  0.12508518918E+03 0.  0.
          5    1    4    4  502    0 -0.46718148069E+02  0.12125645646E+02 -0.80365732968E+02  0.93838904922E+02  0.41800000000E+01 0.  1.
         -5    1    4    4    0  502  0.56765923042E+02  0.82110627400E+01 -0.35793170388E+03  0.36252223188E+03  0.41800000000E+01 0.  1.
        -11    1    3    3    0    0 -0.43831802060E+02  0.80532616621E+00 -0.45975183046E+02  0.63526316423E+02  0.00000000000E+00 0. -1.
         11    1    3    3    0    0  0.33784027088E+02 -0.21142034552E+02 -0.80452555942E+01  0.40657991205E+02  0.00000000000E+00 0.  1.
</event>
<event>
 8    1  0.1790275E-005  0.1128251E+03  0.7561462E-02  0.1255426E+00
         -2   -1    0    0    0  501 -0.00000000000E+00  0.00000000000E+00  0.80084011809E+02  0.80084011809E+02  0.00000000000E+00 0.  1.
          2   -1    0    0  501    0  0.00000000000E+00 -0.00000000000E+00 -0.18237601557E+03  0.18237601557E+03  0.00000000000E+00 0. -1.
         23    2    1    2    0    0 -0.45944932218E+02 -0.26950572432E+02 -0.43791463085E+02  0.11435853325E+03  0.91229993626E+02 0.  0.
         23    2    1    2    0    0  0.45944932218E+02  0.26950572432E+02 -0.58500540672E+02  0.14810149413E+03  0.12519772024E+03 0.  0.
          5    1    4    4  502    0  0.10431569654E+02  0.68578433596E+02 -0.22697282195E+01  0.69530160838E+02  0.41800000000E+01 0. -1.
         -5    1    4    4    0  502  0.35513362563E+02 -0.41627861164E+02 -0.56230812452E+02  0.78571333288E+02  0.41800000000E+01 0. -1.
        -11    1    3    3    0    0  0.19590493203E+02  0.13930646006E+02 -0.25372977256E+02  0.34951942677E+02  0.00000000000E+00 0. -1.
         11    1    3    3    0    0 -0.65535425421E+02 -0.40881218438E+02 -0.18418485830E+02  0.79406590572E+02  0.00000000000E+00 0.  1.
</event>
<event>
 8    1  0.1790275E-005  0.9767439E+02  0.7561462E-02  0.1285264E+00
          1   -1    0    0  501    0  0.00000000000E+00  0.00000000000E+00  0.66252281215E+03  0.66252281215E+03  0.00000000000E+00 0. -1.
         -1   -1    0    0    0  501 -0.00000000000E+00 -0.00000000000E+00 -0.33083320931E+02  0.33083320931E+02  0.00000000000E+00 0.  1.
         23    2    1    2    0    0 -0.20854636649E+01  0.71400990483E+02  0.12241066243E+03  0.16851161266E+03  0.91155596221E+02 0.  0.
         23    2    1    2    0    0  0.20854636649E+01 -0.71400990483E+02  0.50702882878E+03  0.52709452042E+03  0.12509176488E+03 0.  0.
          5    1    4    4  502    0 -0.17488288737E+02 -0.31673143788E+02  0.46325378219E+03  0.46468329795E+03  0.41800000000E+01 0.  1.
         -5    1    4    4    0  502  0.19573752402E+02 -0.39727846695E+02  0.43775046590E+02  0.62411222469E+02  0.41800000000E+01 0.  1.
        -11    1    3    3    0    0  0.43039278373E+02  0.25261284453E+02  0.40761171763E+02  0.64435899145E+02  0.00000000000E+00 0.  1.
         11    1    3    3    0    0 -0.45124742038E+02  0.46139706030E+02  0.81649490672E+02  0.10407571351E+03  0.00000000000E+00 0. -1.
</event>
<event>
 8    1  0.1790275E-005  0.3611930E+03  0.7561462E-02  0.1058112E+00
         -2   -1    0    0    0  501 -0.00000000000E+00  0.00000000000E+00  0.21960178098E+03  0.21960178098E+03  0.00000000000E+00 0.  1.
          2   -1    0    0  501    0  0.00000000000E+00 -0.00000000000E+00 -0.64061066720E+03  0.64061066720E+03  0.00000000000E+00 0. -1.
         23    2    1    2    0    0  0.31317069114E+03 -0.16093790064E+03 -0.12892540616E+03  0.38594325740E+03  0.91397745744E+02 0.  0.
         23    2    1    2    0    0 -0.31317069114E+03  0.16093790064E+03 -0.29208348006E+03  0.47426919077E+03  0.12506644768E+03 0.  0.
          5    1    4    4  502    0 -0.53714268590E+02  0.81358728416E+02 -0.45908131994E+02  0.10784013317E+03  0.41800000000E+01 0. -1.
         -5    1    4    4    0  502 -0.25945642255E+03  0.79579172227E+02 -0.24617534806E+03  0.36642905760E+03  0.41800000000E+01 0. -1.
        -11    1    3    3    0    0  0.14943539832E+03 -0.59944991679E+02 -0.13452837742E+02  0.16157140570E+03  0.00000000000E+00 0. -1.
         11    1    3    3    0    0  0.16373529283E+03 -0.10099290896E+03 -0.11547256842E+03  0.22437185170E+03  0.00000000000E+00 0.  1.
</event>
<event>
 8    1  0.1790275E-005  0.8813110E+02  0.7561462E-02  0.1307442E+00
          2   -1    0    0  501    0  0.00000000000E+00  0.00000000000E+00  0.13171877501E+04  0.13171877501E+04  0.00000000000E+00 0. -1.
         -2   -1    0    0    0  501 -0.00000000000E+00 -0.00000000000E+00 -0.13916563166E+02  0.13916563166E+02  0.00000000000E+00 0.  1.
         23    2    1    2    0    0  0.18308814961E+02 -0.89382131050E+01  0.18629085638E+03  0.20695627458E+03  0.87815215431E+02 0.  0.
         23    2    1    2    0    0 -0.18308814961E+02  0.89382131050E+01  0.11169803306E+04  0.11241480387E+04  0.12509456288E+03 0.  0.
          5    1    4    4  502    0 -0.50147345845E+01 -0.37403129754E+02  0.11719025244E+03  0.12318753730E+03  0.41800000000E+01 0.  1.
         -5    1    4    4    0  502 -0.13294080377E+02  0.46341342859E+02  0.99979007815E+03  0.10009605014E+04  0.41800000000E+01 0.  1.
        -11    1    3    3    0    0 -0.31708680914E+02  0.14259104604E+02  0.79592176974E+02  0.86854344422E+02  0.00000000000E+00 0.  1.
         11    1    3    3    0    0  0.50017495875E+02 -0.23197317709E+02  0.10669867940E+03  0.12010193016E+03  0.00000000000E+00 0. -1.
</event>
<event>
 8    1  0.1790275E-005  0.1092071E+03  0.7561462E-02  0.1262045E+00
         -1   -1    0    0    0  501 -0.00000000000E+00  0.00000000000E+00  0.16595608772E+03  0.16595608772E+03  0.00000000000E+00 0.  1.
          1   -1    0    0  501    0  0.00000000000E+00 -0.00000000000E+00 -0.17465687377E+03  0.17465687377E+03  0.00000000000E+00 0. -1.
         23    2    1    2    0    0  0.72186665368E+02 -0.28285951711E+02  0.10230487450E+03  0.15627461146E+03  0.89131684156E+02 0.  0.
         23    2    1    2    0    0 -0.72186665368E+02  0.28285951711E+02 -0.11100566055E+03  0.18433835002E+03  0.12508941159E+03 0.  0.
          5    1    4    4  502    0 -0.33522526977E+02  0.46611599562E+02  0.77080728786E+01  0.58080012191E+02  0.41800000000E+01 0.  1.
         -5    1    4    4    0  502 -0.38664138392E+02 -0.18325647851E+02 -0.11871373343E+03  0.12625833783E+03  0.41800000000E+01 0.  1.
        -11    1    3    3    0    0  0.40483087168E+02  0.30756344792E+02  0.49455524450E+02  0.70927300740E+02  0.00000000000E+00 0. -1.
         11    1    3    3    0    0  0.31703578200E+02 -0.59042296504E+02  0.52849350052E+02  0.85347310725E+02  0.00000000000E+00 0.  1.
</event>
<event>
 8    1  0.1790275E-005  0.1706051E+03  0.7561462E-02  0.1177218E+00
         -2   -1    0    0    0  501 -0.00000000000E+00  0.00000000000E+00  0.62612099102E+02  0.62612099102E+02  0.00000000000E+00 0.  1.
          2   -1    0    0  501    0  0.00000000000E+00 -0.00000000000E+00 -0.87009004206E+03  0.87009004206E+03  0.00000000000E+00 0. -1.
         23    2    1    2    0    0  0.11545794276E+03 -0.11074145740E+03 -0.12930137933E+03  0.22477291452E+03  0.90607998935E+02 0.  0.
         23    2    1    2    0    0 -0.11545794276E+03  0.11074145740E+03 -0.67817656363E+03  0.70792922665E+03  0.12508449766E+03 0.  0.
          5    1    4    4  502    0 -0.66648687946E+00  0.25467134504E+02 -0.15773742973E+02  0.30253966880E+02  0.41800000000E+01 0.  1.
         -5    1    4    4    0  502 -0.11479145588E+03  0.85274322895E+02 -0.66240282066E+03  0.67767525977E+03  0.41800000000E+01 0.  1.
        -11    1    3    3    0    0  0.45380805210E+02 -0.52448170526E+01 -0.28017481294E+01  0.45768716172E+02  0.00000000000E+00 0.  1.
         11    1    3    3    0    0  0.70077137546E+02 -0.10549664035E+03 -0.12649963120E+03  0.17900419834E+03  0.00000000000E+00 0. -1.
</event>
<event>
 8    1  0.1790275E-005  0.1152050E+03  0.7561462E-02  0.1251224E+00
          2   -1    0    0  501    0  0.00000000000E+00  0.00000000000E+00  0.78737314700E+02  0.78737314700E+02  0.00000000000E+00 0. -1.
         -2   -1    0    0    0  501 -0.00000000000E+00 -0.00000000000E+00 -0.26963313735E+03  0.26963313735E+03  0.00000000000E+00 0.  1.
         23    2    1    2    0    0 -0.63934161965E+02 -0.63220890510E+02 -0.12097076391E+03  0.17919009302E+03  0.96905653349E+02 0.  0.
         23    2    1    2    0    0  0.63934161965E+02  0.63220890510E+02 -0.69925058742E+02  0.16918035904E+03  0.12509205403E+03 0.  0.
          5    1    4    4  502    0  0.34373640744E+02  0.15480955587E+00 -0.90117967682E+02  0.96541657553E+02  0.41800000000E+01 0.  1.
         -5    1    4    4    0  502  0.29560521222E+02  0.63066080954E+02  0.20192908940E+02  0.72638701484E+02  0.41800000000E+01 0.  1.
        -11    1    3    3    0    0 -0.37693901811E+02  0.17186103005E+02 -0.67268135669E+02  0.79001230666E+02  0.00000000000E+00 0.  1.
         11    1    3    3    0    0 -0.26240260154E+02 -0.80406993515E+02 -0.53702628244E+02  0.10018886235E+03  0.00000000000E+00 0. -1.
</event>
<event>
 8    1  0.1790275E-005  0.1510837E+03  0.7561462E-02  0.1199148E+00
         -1   -1    0    0    0  501 -0.00000000000E+00  0.00000000000E+00  0.35430728956E+02  0.35430728956E+02  0.00000000000E+00 0.  1.
          1   -1    0    0  501    0  0.00000000000E+00 -0.00000000000E+00 -0.71185356649E+03  0.71185356649E+03  0.00000000000E+00 0. -1.
         23    2    1    2    0    0 -0.78051268350E+02  0.81001634533E+02 -0.24930099193E+03  0.28822726691E+03  0.90943430352E+02 0.  0.
         23    2    1    2    0    0  0.78051268350E+02 -0.81001634533E+02 -0.42712184560E+03  0.45905702854E+03  0.12508804567E+03 0.  0.
          5    1    4    4  502    0 -0.21778568808E+02 -0.60497379904E+02 -0.19896428390E+03  0.20913750908E+03  0.41800000000E+01 0.  1.
         -5    1    4    4    0  502  0.99829837158E+02 -0.20504254629E+02 -0.22815756170E+03  0.24991951945E+03  0.41800000000E+01 0.  1.
        -11    1    3    3    0    0 -0.59764176884E+02  0.77858284248E+01 -0.16190341777E+03  0.17275732299E+03  0.00000000000E+00 0.  1.
         11    1    3    3    0    0 -0.18287091466E+02  0.73215806108E+02 -0.87397574165E+02  0.11546994392E+03  0.00000000000E+00 0. -1.
</event>
<event>
 7    1  0.1790275E-005  0.1490222E+03  0.7561462E-02  0.1201680E+00
          3   -1    0    0  501    0  0.00000000000E+00  0.00000000000E+00  0.24544255316E+03  0.24544255316E+03  0.00000000000E+00 0. -1.
         -3   -1    0    0    0  501 -0.00000000000E+00 -0.00000000000E+00 -0.28260730175E+03  0.28260730175E+03  0.00000000000E+00 0.  1.
         23    2    1    2    0    0 -0.46312437129E+02  0.11122144985E+02 -0.21892864025E+03  0.24521654743E+03  0.99663743008E+02 0.  0.
          5    1    1    2  502    0  0.79230362112E+02  0.78060389429E+02  0.14016536769E+03  0.17898233817E+03  0.41800000000E+01 0. -1.
         -5    1    1    2    0  502 -0.32917924983E+02 -0.89182534414E+02  0.41598523972E+02  0.10385096931E+03  0.41800000000E+01 0.  1.
        -11    1    3    3    0    0 -0.66594558566E+02 -0.33357510470E+01 -0.20724010654E+03  0.21770260500E+03  0.00000000000E+00 0.  1.
         11    1    3    3    0    0  0.20282121438E+02  0.14457896032E+02 -0.11688533708E+02  0.27513942428E+02  0.00000000000E+00 0. -1.
</event>
<event>
 8    1  0.1790275E-005  0.1202297E+03  0.7561462E-02  0.1242719E+00
          1   -1    0    0  501    0  0.00000000000E+00  0.00000000000E+00  0.69782665944E+03  0.69782665944E+03  0.00000000000E+00 0. -1.
         -1   -1    0    0    0  501 -0.00000000000E+00 -0.00000000000E+00 -0.27299247030E+02  0.27299247030E+02  0.00000000000E+00 0.  1.
         23    2    1    2    0    0  0.14078472839E+02 -0.56793597566E+02  0.14669214995E+03  0.18339247414E+03  0.93222833002E+02 0.  0.
         23    2    1    2    0    0 -0.14078472839E+02  0.56793597566E+02  0.52383526246E+03  0.54173343233E+03  0.12509201967E+03 0.  0.
          5    1    4    4  502    0 -0.25494499456E+02 -0.35147665065E+02  0.12989532924E+03  0.13702407387E+03  0.41800000000E+01 0. -1.
         -5    1    4    4    0  502  0.11416026617E+02  0.91941262630E+02  0.39393993323E+03  0.40470935847E+03  0.41800000000E+01 0. -1.
        -11    1    3    3    0    0  0.44311323194E+02 -0.58996169473E+02  0.73381304707E+02  0.10406179537E+03  0.00000000000E+00 0.  1.
         11    1    3    3    0    0 -0.30232850356E+02  0.22025719076E+01  0.73310845242E+02  0.79330678768E+02  0.00000000000E+00 0. -1.
</event>
<event>
 8    1  0.1790275E-005  0.2167535E+03  0.7561462E-02  0.1136327E+00
         -2   -1    0    0    0  501 -0.00000000000E+00  0.00000000000E+00  0.29856903252E+03  0.29856903252E+03  0.00000000000E+00 0.  1.
          2   -1    0    0  501    0  0.00000000000E+00 -0.00000000000E+00 -0.17404665699E+03  0.17404665699E+03  0.00000000000E+00 0. -1.
         23    2    1    2    0    0 -0.18766387830E+03 -0.28876126641E+02  0.12558559239E+03  0.24524691813E+03  0.91229095839E+02 0.  0.
         23    2    1    2    0    0  0.18766387830E+03  0.28876126641E+02 -0.10632168585E+01  0.22736877138E+03  0.12507544069E+03 0.  0.
          5    1    4    4  502    0  0.18152498276E+03  0.59710311795E+02 -0.16963501761E+02  0.19189026419E+03  0.41800000000E+01 0. -1.
         -5    1    4    4    0  502  0.61388955389E+01 -0.30834185154E+02  0.15900284903E+02  0.35478507191E+02  0.41800000000E+01 0. -1.
        -11    1    3    3    0    0 -0.14700248351E+03  0.18564851658E+02  0.88392268013E+02  0.17253282853E+03  0.00000000000E+00 0. -1.
         11    1    3    3    0    0 -0.40661394785E+02 -0.47440978299E+02  0.37193324380E+02  0.72714089599E+02  0.00000000000E+00 0.  1.
</event>
<event>
 8    1  0.1790275E-005  0.1197595E+03  0.7561462E-02  0.1243494E+00
          2   -1    0    0  501    0  0.00000000000E+00  0.00000000000E+00  0.61188969658E+03  0.61188969658E+03  0.00000000000E+00 0.  1.
         -2   -1    0    0    0  501 -0.00000000000E+00 -0.00000000000E+00 -0.33852284105E+02  0.33852284105E+02  0.00000000000E+00 0. -1.
         23    2    1    2    0    0 -0.35956549197E+02 -0.83696055561E+02  0.22308956643E+03  0.25852825553E+03  0.93648284078E+02 0.  0.
         23    2    1    2    0    0  0.35956549197E+02  0.83696055561E+02  0.35494784604E+03  0.38721372515E+03  0.12509433396E+03 0.  0.
          5    1    4    4  502    0  0.44608803006E+02  0.10093164053E+03  0.34980454460E+03  0.36682125509E+03  0.41800000000E+01 0.  1.
         -5    1    4    4    0  502 -0.86522538092E+01 -0.17235584972E+02  0.51433014420E+01  0.20392470057E+02  0.41800000000E+01 0.  1.
        -11    1    3    3    0    0 -0.52296044719E+02 -0.52285661175E+02  0.71517270743E+02  0.10287558832E+03  0.00000000000E+00 0. -1.
         11    1    3    3    0    0  0.16339495522E+02 -0.31410394385E+02  0.15157229569E+03  0.15565266721E+03  0.00000000000E+00 0.  1.
</event>
<event>
 8    1  0.1845794E-005  0.2045836E+03  0.7561462E-02  0.1145928E+00
          2   -1    0    0  501    0  0.00000000000E+00  0.00000000000E+00  0.88485467898E+03  0.88485467898E+03  0.00000000000E+00 0. -1.
         -2   -1    0    0    0  501 -0.00000000000E+00 -0.00000000000E+00 -0.71311150654E+02  0.71311150654E+02  0.00000000000E+00 0.  1.
         23    2    1    2    0    0 -0.16744465541E+03  0.78219319753E+02  0.13645629649E+03  0.24324905786E+03  0.79961294949E+02 0.  0.
         23    2    1    2    0    0  0.16744465541E+03 -0.78219319753E+02  0.67708723183E+03  0.71291677177E+03  0.12508888581E+03 0.  0.
          5    1    4    4  502    0  0.16810775623E+03 -0.26347757775E+02  0.54436746883E+03  0.57035763830E+03  0.41800000000E+01 0.  1.
         -5    1    4    4    0  502 -0.66310082211E+00 -0.51871561978E+02  0.13271976301E+03  0.14255913347E+03  0.41800000000E+01 0.  1.
        -11    1    3    3    0    0 -0.11907724246E+03  0.69156753835E+02  0.13670846153E+03  0.19403929944E+03  0.00000000000E+00 0. -1.
         11    1    3    3    0    0 -0.48367412951E+02  0.90625659175E+01 -0.25216504105E+00  0.49209758421E+02  0.00000000000E+00 0.  1.
</event>
<event>
 8    1  0.1790275E-005  0.1135729E+03  0.7561462E-02  0.1254093E+00
          2   -1    0    0  501    0  0.00000000000E+00  0.00000000000E+00  0.66665155424E+03  0.66665155424E+03  0.00000000000E+00 0. -1.
         -2   -1    0    0    0  501 -0.00000000000E+00 -0.00000000000E+00 -0.30621631996E+02  0.30621631996E+02  0.00000000000E+00 0.  1.
         23    2    1    2    0    0  0.90853960685E+02  0.15699357635E+02  0.31377599058E+03  0.33950913041E+03  0.91160108418E+02 0.  0.
         23    2    1    2    0    0 -0.90853960685E+02 -0.15699357635E+02  0.32225393166E+03  0.35776405582E+03  0.12508641478E+03 0.  0.
          5    1    4    4  502    0 -0.39449762521E+02  0.19340736104E+02  0.27756480401E+03  0.28105166902E+03  0.41800000000E+01 0. -1.
         -5    1    4    4    0  502 -0.51404198164E+02 -0.35040093739E+02  0.44689127657E+02  0.76712386802E+02  0.41800000000E+01 0. -1.
        -11    1    3    3    0    0 -0.14372898657E+02  0.94154249958E+00  0.96042406059E+01  0.17312081207E+02  0.00000000000E+00 0.  1.
         11    1    3    3    0    0  0.10522685934E+03  0.14757815135E+02  0.30417174997E+03  0.32219704920E+03  0.00000000000E+00 0. -1.
</event>
<event>
 7    1  0.1790275E-005  0.1651416E+03  0.7561462E-02  0.1183011E+00
         -2   -1    0    0    0  501 -0.00000000000E+00  0.00000000000E+00  0.10594538956E+03  0.10594538956E+03  0.00000000000E+00 0.  1.
          2   -1    0    0  501    0  0.00000000000E+00 -0.00000000000E+00 -0.34777892842E+03  0.34777892842E+03  0.00000000000E+00 0. -1.
         23    2    1    2    0    0  0.55659472266E+02 -0.10163570881E+03 -0.11427869864E+03  0.20526581593E+03  0.12508653033E+03 0.  0.
          5    1    3    3  502    0  0.30327866781E+02  0.62016593657E+01 -0.85080544917E+02  0.90633391230E+02  0.41800000000E+01 0. -1.
         -5    1    3    3    0  502  0.25331605485E+02 -0.10783736818E+03 -0.29198153719E+02  0.11463242470E+03  0.41800000000E+01 0. -1.
        -11    1    1    2    0    0 -0.37404969463E+01  0.12930802663E+03 -0.27293279833E+02  0.13220998522E+03  0.00000000000E+00 0.  1.
         11    1    1    2    0    0 -0.51918975320E+02 -0.27672317814E+02 -0.10026156040E+03  0.11624851683E+03  0.00000000000E+00 0. -1.
</event>
<event>
 8    1  0.1790275E-005  0.1075775E+03  0.7561462E-02  0.1265123E+00
          1   -1    0    0  501    0  0.00000000000E+00  0.00000000000E+00  0.57596129863E+02  0.57596129863E+02  0.00000000000E+00 0. -1.
         -1   -1    0    0    0  501 -0.00000000000E+00 -0.00000000000E+00 -0.25407295738E+03  0.25407295738E+03  0.00000000000E+00 0.  1.
         23    2    1    2    0    0  0.23896776860E+02 -0.39851122065E+02 -0.12301637087E+03  0.15934616404E+03  0.89994469937E+02 0.  0.
         23    2    1    2    0    0 -0.23896776860E+02  0.39851122065E+02 -0.73460456644E+02  0.15232292320E+03  0.12508663544E+03 0.  0.
          5    1    4    4  502    0  0.24899893985E+02  0.63014535295E+02 -0.95717797621E+01  0.68556019041E+02  0.41800000000E+01 0. -1.
         -5    1    4    4    0  502 -0.48796670844E+02 -0.23163413230E+02 -0.63888676882E+02  0.83766904155E+02  0.41800000000E+01 0. -1.
        -11    1    3    3    0    0 -0.18087476863E+02 -0.47131394764E+02 -0.34613035496E+02  0.61209373611E+02  0.00000000000E+00 0.  1.
         11    1    3    3    0    0  0.41984253722E+02  0.72802726986E+01 -0.88403335373E+02  0.98136790431E+02  0.00000000000E+00 0. -1.
</event>
<event>
 8    1  0.1790275E-005  0.9993134E+02  0.7561462E-02  0.1280440E+00
          2   -1    0    0  501    0  0.00000000000E+00  0.00000000000E+00  0.48502869623E+03  0.48502869623E+03  0.00000000000E+00 0. -1.
         -2   -1    0    0    0  501 -0.00000000000E+00 -0.00000000000E+00 -0.10118145242E+03  0.10118145242E+03  0.00000000000E+00 0.  1.
         23    2    1    2    0    0  0.13591023501E+02 -0.58657235105E+02 -0.60079706197E+02  0.12474286702E+03  0.91245956769E+02 0.  0.
         23    2    1    2    0    0 -0.13591023501E+02  0.58657235105E+02  0.44392695001E+03  0.46146728163E+03  0.11070468792E+03 0.  0.
          5    1    4    4  502    0 -0.17803040136E+02 -0.26233088243E+02  0.21246135783E+03  0.21485442544E+03  0.41800000000E+01 0. -1.
         -5    1    4    4    0  502  0.42120166348E+01  0.84890323348E+02  0.23146559217E+03  0.24661285620E+03  0.41800000000E+01 0.  1.
        -11    1    3    3    0    0  0.26600196151E+02 -0.63546743011E+02 -0.76688317295E+02  0.10308664798E+03  0.00000000000E+00 0.  1.
         11    1    3    3    0    0 -0.13009172650E+02  0.48895079064E+01  0.16608611098E+02  0.21656219042E+02  0.00000000000E+00 0. -1.
</event>
<event>
 8    1  0.1790275E-005  0.8083573E+02  0.7561462E-02  0.1326696E+00
          1   -1    0    0  501    0  0.00000000000E+00  0.00000000000E+00  0.22889734551E+03  0.22889734551E+03  0.00000000000E+00 0. -1.
         -1   -1    0    0    0  501 -0.00000000000E+00 -0.00000000000E+00 -0.69852777745E+02  0.69852777745E+02  0.00000000000E+00 0.  1.
         23    2    1    2    0    0  0.52783595220E+02  0.10954439258E+02  0.17201081570E+02  0.10597313861E+03  0.89600899752E+02 0.  0.
         23    2    1    2    0    0 -0.52783595220E+02 -0.10954439258E+02  0.14184348619E+03  0.19277698464E+03  0.11890030937E+03 0.  0.
          5    1    4    4  502    0 -0.35072432744E+02 -0.26248536770E+02  0.15801390068E+03  0.16402721247E+03  0.41800000000E+01 0. -1.
         -5    1    4    4    0  502 -0.17711162475E+02  0.15294097512E+02 -0.16170414492E+02  0.28749772169E+02  0.41800000000E+01 0.  1.
        -11    1    3    3    0    0  0.71479061421E+02 -0.13872556236E+01 -0.83659354652E+01  0.71980341594E+02  0.00000000000E+00 0.  1.
         11    1    3    3    0    0 -0.18695466201E+02  0.12341694882E+02  0.25567017036E+02  0.33992797018E+02  0.00000000000E+00 0. -1.
</event>
<event>
 8    1  0.1790275E-005  0.1441408E+03  0.7561462E-02  0.1207863E+00
         -2   -1    0    0    0  501 -0.00000000000E+00  0.00000000000E+00  0.12726751963E+03  0.12726751963E+03  0.00000000000E+00 0. -1.
          2   -1    0    0  501    0  0.00000000000E+00 -0.00000000000E+00 -0.23489229237E+03  0.23489229237E+03  0.00000000000E+00 0.  1.
         23    2    1    2    0    0 -0.13016439350E+03 -0.79048323587E+01 -0.59080615032E+02  0.17505522962E+03  0.10074005477E+03 0.  0.
         23    2    1    2    0    0  0.13016439350E+03  0.79048323587E+01 -0.48544157708E+02  0.18710458238E+03  0.12508530605E+03 0.  0.
          5    1    4    4  502    0  0.67705157169E+02 -0.10514048575E+02 -0.87419618788E+02  0.11114942948E+03  0.41800000000E+01 0. -1.
         -5    1    4    4    0  502  0.62459236332E+02  0.18418880934E+02  0.38875461080E+02  0.75955152901E+02  0.41800000000E+01 0. -1.
        -11    1    3    3    0    0  0.86463809332E+01  0.11325390775E+02  0.11348903560E+02  0.18215981759E+02  0.00000000000E+00 0. -1.
         11    1    3    3    0    0 -0.13881077443E+03 -0.19230223133E+02 -0.70429518592E+02  0.15683924786E+03  0.00000000000E+00 0.  1.
</event>
<event>
 8    1  0.1790275E-005  0.1013448E+03  0.7561462E-02  0.1277493E+00
         -2   -1    0    0    0  501 -0.00000000000E+00  0.00000000000E+00  0.11355767516E+03  0.11355767516E+03  0.00000000000E+00 0.  1.
          2   -1    0    0  501    0  0.00000000000E+00 -0.00000000000E+00 -0.16408146255E+03  0.16408146255E+03  0.00000000000E+00 0. -1.
         23    2    1    2    0    0  0.80681893397E+02 -0.97383429909E+01 -0.38470333524E+01  0.12133652274E+03  0.90018602731E+02 0.  0.
         23    2    1    2    0    0 -0.80681893397E+02  0.97383429909E+01 -0.46676754044E+02  0.15630261498E+03  0.12508950729E+03 0.  0.
          5    1    4    4  502    0 -0.13546664581E+01 -0.78492192600E+01 -0.70856081156E+02  0.71424799622E+02  0.41800000000E+01 0. -1.
         -5    1    4    4    0  502 -0.79327226939E+02  0.17587562251E+02  0.24179327112E+02  0.84877815354E+02  0.41800000000E+01 0. -1.
        -11    1    3    3    0    0  0.38036326506E+02 -0.43614259382E+02  0.20881607189E+02  0.61522412780E+02  0.00000000000E+00 0.  1.
         11    1    3    3    0    0  0.42645566892E+02  0.33875916391E+02 -0.24728640541E+02  0.59814109956E+02  0.00000000000E+00 0. -1.
</event>
<event>
 8    1  0.1790275E-005  0.1022032E+03  0.7561462E-02  0.1275730E+00
          1   -1    0    0  501    0  0.00000000000E+00  0.00000000000E+00  0.49587325453E+03  0.49587325453E+03  0.00000000000E+00 0. -1.
         -1   -1    0    0    0  501 -0.00000000000E+00 -0.00000000000E+00 -0.45955529418E+02  0.45955529418E+02  0.00000000000E+00 0.  1.
         23    2    1    2    0    0  0.49782872058E+02  0.63087177554E+02  0.88081125507E+02  0.15063659065E+03  0.92058521873E+02 0.  0.
         23    2    1    2    0    0 -0.49782872058E+02 -0.63087177554E+02  0.36183659961E+03  0.39119219330E+03  0.12508909211E+03 0.  0.
          5    1    4    4  502    0 -0.24113389701E+01 -0.90494754289E+01  0.28761412213E+03  0.28779691314E+03  0.41800000000E+01 0.  1.
         -5    1    4    4    0  502 -0.47371533088E+02 -0.54037702125E+02  0.74222477474E+02  0.10339528016E+03  0.41800000000E+01 0.  1.
        -11    1    3    3    0    0 -0.25605443527E+02  0.31071123091E+02  0.27372426111E+02  0.48685759104E+02  0.00000000000E+00 0.  1.
         11    1    3    3    0    0  0.75388315585E+02  0.32016054462E+02  0.60708699396E+02  0.10195083154E+03  0.00000000000E+00 0. -1.
</event>
<event>
 8    1  0.1790275E-005  0.1366061E+03  0.7561462E-02  0.1217970E+00
          2   -1    0    0  501    0  0.00000000000E+00  0.00000000000E+00  0.67680382129E+03  0.67680382129E+03  0.00000000000E+00 0. -1.
         -2   -1    0    0    0  501 -0.00000000000E+00 -0.00000000000E+00 -0.47925388696E+02  0.47925388696E+02  0.00000000000E+00 0.  1.
         23    2    1    2    0    0  0.10667447319E+03 -0.52290013886E+02  0.13515002706E+03  0.20172998975E+03  0.91190844771E+02 0.  0.
         23    2    1    2    0    0 -0.10667447319E+03  0.52290013886E+02  0.49372840553E+03  0.52299922023E+03  0.12508699831E+03 0.  0.
          5    1    4    4  502    0 -0.96584985886E+02  0.71185395766E+02  0.24019004675E+03  0.26852327837E+03  0.41800000000E+01 0.  1.
         -5    1    4    4    0  502 -0.10089487303E+02 -0.18895381880E+02  0.25353835878E+03  0.25447594186E+03  0.41800000000E+01 0.  1.
        -11    1    3    3    0    0  0.83380253761E+02 -0.64140414658E+02  0.14003121427E+03  0.17514280025E+03  0.00000000000E+00 0. -1.
         11    1    3    3    0    0  0.23294219428E+02  0.11850400772E+02 -0.48811872096E+01  0.26587189505E+02  0.00000000000E+00 0.  1.
</event>
<event>
 8    1  0.1790275E-005  0.1050985E+03  0.7561462E-02  0.1269926E+00
          2   -1    0    0  501    0  0.00000000000E+00  0.00000000000E+00  0.60231982781E+03  0.60231982781E+03  0.00000000000E+00 0.  1.
         -2   -1    0    0    0  501 -0.00000000000E+00 -0.00000000000E+00 -0.35135143681E+02  0.35135143681E+02  0.00000000000E+00 0. -1.
         23    2    1    2    0    0  0.57902968664E+02  0.42855262780E+02  0.12392175916E+03  0.17128087672E+03  0.93761447346E+02 0.  0.
         23    2    1    2    0    0 -0.57902968664E+02 -0.42855262780E+02  0.44326292497E+03  0.46617409477E+03  0.12508772385E+03 0.  0.
          5    1    4    4  502    0 -0.25546413303E+02 -0.59511458066E+02  0.89679954982E+02  0.11069868834E+03  0.41800000000E+01 0.  1.
         -5    1    4    4    0  502 -0.32356555361E+02  0.16656195286E+02  0.35358296999E+03  0.35547540644E+03  0.41800000000E+01 0.  1.
        -11    1    3    3    0    0  0.78352065728E+02  0.40152208817E+02  0.66698057098E+02  0.11045305291E+03  0.00000000000E+00 0. -1.
         11    1    3    3    0    0 -0.20449097064E+02  0.27030539630E+01  0.57223702065E+02  0.60827823810E+02  0.00000000000E+00 0.  1.
</event>
<event>
 8    1  0.1790275E-005  0.1081588E+03  0.7561462E-02  0.1264018E+00
         -1   -1    0    0    0  501 -0.00000000000E+00  0.00000000000E+00  0.36722285303E+03  0.36722285303E+03  0.00000000000E+00 0.  1.
          1   -1    0    0  501    0  0.00000000000E+00 -0.00000000000E+00 -0.49712387741E+02  0.49712387741E+02  0.00000000000E+00 0. -1.
         23    2    1    2    0    0 -0.40902180601E+00 -0.22144913724E+02  0.26094994692E+03  0.27787505497E+03  0.92892986141E+02 0.  0.
         23    2    1    2    0    0  0.40902180601E+00  0.22144913724E+02  0.56560518370E+02  0.13906018580E+03  0.12509228007E+03 0.  0.
          5    1    4    4  502    0  0.42443086517E+02  0.56474708113E+02  0.20182411475E+02  0.73590830832E+02  0.41800000000E+01 0.  1.
         -5    1    4    4    0  502 -0.42034064711E+02 -0.34329794389E+02  0.36378106895E+02  0.65469354970E+02  0.41800000000E+01 0.  1.
        -11    1    3    3    0    0 -0.32362508488E+02  0.20138603879E+02  0.15216483032E+03  0.15686628353E+03  0.00000000000E+00 0.  1.
         11    1    3    3    0    0  0.31953486682E+02 -0.42283517602E+02  0.10878511660E+03  0.12100877144E+03  0.00000000000E+00 0. -1.
</event>
<event>
 8    1  0.1790275E-005  0.7300634E+02  0.7561462E-02  0.1350158E+00
          2   -1    0    0  501    0  0.00000000000E+00  0.00000000000E+00  0.12380611588E+03  0.12380611588E+03  0.00000000000E+00 0. -1.
         -2   -1    0    0    0  501 -0.00000000000E+00 -0.00000000000E+00 -0.11615290877E+03  0.11615290877E+03  0.00000000000E+00 0.  1.
         23    2    1    2    0    0 -0.43162563756E+02  0.25789571941E+02 -0.61025338051E+01  0.10444371271E+03  0.91340786483E+02 0.  0.
         23    2    1    2    0    0  0.43162563756E+02 -0.25789571941E+02  0.13755740919E+02  0.13551531194E+03  0.12508825057E+03 0.  0.
          5    1    4    4  502    0 -0.13536077281E+01 -0.39126884562E+01  0.64303936634E+02  0.64572517772E+02  0.41800000000E+01 0. -1.
         -5    1    4    4    0  502  0.44516171484E+02 -0.21876883484E+02 -0.50548195715E+02  0.70942794170E+02  0.41800000000E+01 0. -1.
        -11    1    3    3    0    0  0.21634823167E+02  0.88681126219E+01 -0.25621552141E+02  0.34686783204E+02  0.00000000000E+00 0.  1.
         11    1    3    3    0    0 -0.64797386923E+02  0.16921459319E+02  0.19519018336E+02  0.69756929508E+02  0.00000000000E+00 0. -1.
</event>
<event>
 7    1  0.1790275E-005  0.1643478E+03  0.7561462E-02  0.1183874E+00
         -2   -1    0    0    0  501 -0.00000000000E+00  0.00000000000E+00  0.45117538946E+02  0.45117538946E+02  0.00000000000E+00 0.  1.
          2   -1    0    0  501    0  0.00000000000E+00 -0.00000000000E+00 -0.12703916446E+04  0.12703916446E+04  0.00000000000E+00 0. -1.
         23    2    1    2    0    0  0.12550475362E+03 -0.42815099685E+02 -0.21442240636E+03  0.26765615745E+03  0.89879220792E+02 0.  0.
          5    1    1    2  502    0 -0.19665421490E+02  0.60853248183E+02 -0.86142873872E+03  0.86380946447E+03  0.41800000000E+01 0. -1.
         -5    1    1    2    0  502 -0.10583933213E+03 -0.18038148498E+02 -0.14942296054E+03  0.18404356159E+03  0.41800000000E+01 0.  1.
        -11    1    3    3    0    0  0.69918290667E+02 -0.66726939529E+02 -0.10567640424E+03  0.14320808023E+03  0.00000000000E+00 0.  1.
         11    1    3    3    0    0  0.55586462949E+02  0.23911839844E+02 -0.10874600211E+03  0.12444807722E+03  0.00000000000E+00 0. -1.
</event>
<event>
 7    1  0.1790275E-005  0.1308185E+03  0.7561462E-02  0.1226246E+00
         -1   -1    0    0    0  501 -0.00000000000E+00  0.00000000000E+00  0.37930471641E+02  0.37930471641E+02  0.00000000000E+00 0.  1.
          1   -1    0    0  501    0  0.00000000000E+00 -0.00000000000E+00 -0.24000512942E+04  0.24000512942E+04  0.00000000000E+00 0. -1.
         23    2    1    2    0    0  0.14957964923E+01  0.44230968037E+02 -0.45981132453E+02  0.11390206399E+03  0.94344049625E+02 0.  0.
          5    1    1    2  502    0 -0.85761774412E+02 -0.33550206084E+02 -0.16438009108E+04  0.16463837964E+04  0.41800000000E+01 0. -1.
         -5    1    1    2    0  502  0.84265977919E+02 -0.10680761953E+02 -0.67233877924E+03  0.67769590539E+03  0.41800000000E+01 0.  1.
        -11    1    3    3    0    0  0.32001446729E+02  0.43359841983E+02  0.53800637515E+01  0.54158227219E+02  0.00000000000E+00 0.  1.
         11    1    3    3    0    0 -0.30505650236E+02  0.87112605389E+00 -0.51361196204E+02  0.59743836774E+02  0.00000000000E+00 0. -1.
</event>
<event>
 8    1  0.1790275E-005  0.9976264E+02  0.7561462E-02  0.1280796E+00
         -4   -1    0    0    0  501 -0.00000000000E+00  0.00000000000E+00  0.46987220196E+03  0.46987220196E+03  0.00000000000E+00 0.  1.
          4   -1    0    0  501    0  0.00000000000E+00 -0.00000000000E+00 -0.28702230128E+02  0.28702230128E+02  0.00000000000E+00 0. -1.
         23    2    1    2    0    0  0.92837900435E+01  0.40624309852E+01  0.27922221101E+03  0.29369107105E+03  0.90480439816E+02 0.  0.
         23    2    1    2    0    0 -0.92837900435E+01 -0.40624309852E+01  0.16194776082E+03  0.20488336104E+03  0.12508965701E+03 0.  0.
          5    1    4    4  502    0  0.19222583739E+02  0.49340535735E+02  0.33432050432E+02  0.62762812145E+02  0.41800000000E+01 0.  1.
         -5    1    4    4    0  502 -0.28506373783E+02 -0.53402966721E+02  0.12851571039E+03  0.14212054889E+03  0.41800000000E+01 0.  1.
        -11    1    3    3    0    0 -0.34709077953E+02  0.18621971017E+02  0.17888124547E+03  0.18316658504E+03  0.00000000000E+00 0.  1.
         11    1    3    3    0    0  0.43992867996E+02 -0.14559540032E+02  0.10034096554E+03  0.11052448601E+03  0.00000000000E+00 0. -1.
</event>
<event>
 8    1  0.1790275E-005  0.1554245E+03  0.7561462E-02  0.1193961E+00
         -2   -1    0    0    0  501 -0.00000000000E+00  0.00000000000E+00  0.57269662964E+03  0.57269662964E+03  0.00000000000E+00 0.  1.
          2   -1    0    0  501    0  0.00000000000E+00 -0.00000000000E+00 -0.52230379731E+02  0.52230379731E+02  0.00000000000E+00 0. -1.
         23    2    1    2    0    0  0.45398967855E+02 -0.12741960805E+03  0.20741504539E+03  0.26168491062E+03  0.84623688147E+02 0.  0.
         23    2    1    2    0    0 -0.45398967855E+02  0.12741960805E+03  0.31305120452E+03  0.36324209875E+03  0.12508774063E+03 0.  0.
          5    1    4    4  502    0 -0.34758792088E+02  0.14001418430E+03  0.31463723702E+03  0.34615922457E+03  0.41800000000E+01 0.  1.
         -5    1    4    4    0  502 -0.10640175767E+02 -0.12594576249E+02 -0.15860325030E+01  0.17082874183E+02  0.41800000000E+01 0.  1.
        -11    1    3    3    0    0 -0.10749226966E+02 -0.63642249412E+02  0.13657092039E+03  0.15105461954E+03  0.00000000000E+00 0.  1.
         11    1    3    3    0    0  0.56148194822E+02 -0.63777358636E+02  0.70844125003E+02  0.11063029108E+03  0.00000000000E+00 0. -1.
</event>
<event>
 8    1  0.1790275E-005  0.1723194E+03  0.7561462E-02  0.1175450E+00
         -3   -1    0    0    0  501 -0.00000000000E+00  0.00000000000E+00  0.11896278089E+03  0.11896278089E+03  0.00000000000E+00 0.  1.
          3   -1    0    0  501    0  0.00000000000E+00 -0.00000000000E+00 -0.37832779248E+03  0.37832779248E+03  0.00000000000E+00 0. -1.
         23    2    1    2    0    0  0.11206214337E+03  0.12399404444E+03 -0.39898235331E+02  0.19439347655E+03  0.90909336753E+02 0.  0.
         23    2    1    2    0    0 -0.11206214337E+03 -0.12399404444E+03 -0.21946677626E+03  0.30289709683E+03  0.12509411799E+03 0.  0.
          5    1    4    4  502    0  0.30071463551E+00 -0.28239093264E+02  0.97960763298E+01  0.30182318153E+02  0.41800000000E+01 0. -1.
         -5    1    4    4    0  502 -0.11236285800E+03 -0.95754951172E+02 -0.22926285258E+03  0.27271477868E+03  0.41800000000E+01 0. -1.
        -11    1    3    3    0    0  0.57212766488E+02  0.47999709207E+02  0.26819288131E+02  0.79350784174E+02  0.00000000000E+00 0.  1.
         11    1    3    3    0    0  0.54849376881E+02  0.75994335229E+02 -0.66717523462E+02  0.11504269237E+03  0.00000000000E+00 0. -1.
</event>
<event>
 8    1  0.1790275E-005  0.1150819E+03  0.7561462E-02  0.1251438E+00
         -2   -1    0    0    0  501 -0.00000000000E+00  0.00000000000E+00  0.11171437884E+02  0.11171437884E+02  0.00000000000E+00 0. -1.
          2   -1    0    0  501    0  0.00000000000E+00 -0.00000000000E+00 -0.12628397371E+04  0.12628397371E+04  0.00000000000E+00 0.  1.
         23    2    1    2    0    0 -0.40708077666E+02  0.12745287135E+02 -0.41785859303E+03  0.42979033647E+03  0.91073265138E+02 0.  0.
         23    2    1    2    0    0  0.40708077666E+02 -0.12745287135E+02 -0.83380970617E+03  0.84422083850E+03  0.12510239054E+03 0.  0.
          5    1    4    4  502    0 -0.30259276905E+02  0.34656788314E+02 -0.25745171854E+03  0.26156371421E+03  0.41800000000E+01 0.  1.
         -5    1    4    4    0  502  0.70967354571E+02 -0.47402075448E+02 -0.57635798763E+03  0.58265712428E+03  0.41800000000E+01 0.  1.
        -11    1    3    3    0    0 -0.27590910672E+02 -0.37520363566E+02 -0.24105423078E+03  0.24551207345E+03  0.00000000000E+00 0.  1.
         11    1    3    3    0    0 -0.13117166993E+02  0.50265650701E+02 -0.17680436224E+03  0.18427826301E+03  0.00000000000E+00 0. -1.
</event>
<event>
 8    1  0.1790275E-005  0.9085727E+02  0.7561462E-02  0.1300789E+00
          1   -1    0    0  501    0  0.00000000000E+00  0.00000000000E+00  0.12129020599E+03  0.12129020599E+03  0.00000000000E+00 0. -1.
         -1   -1    0    0    0  501 -0.00000000000E+00 -0.00000000000E+00 -0.11328935715E+03  0.11328935715E+03  0.00000000000E+00 0.  1.
         23    2    1    2    0    0 -0.31225615464E+02  0.48098242819E+02 -0.46388314849E+01  0.10764567971E+03  0.90981281478E+02 0.  0.
         23    2    1    2    0    0  0.31225615464E+02 -0.48098242819E+02  0.12639680328E+02  0.12693388344E+03  0.11253430242E+03 0.  0.
          5    1    4    4  502    0  0.97600115952E-02 -0.57392460130E+02  0.50680686278E+02  0.76680499064E+02  0.41800000000E+01 0. -1.
         -5    1    4    4    0  502  0.31215855453E+02  0.92942173105E+01 -0.38041005951E+02  0.50253384372E+02  0.41800000000E+01 0.  1.
        -11    1    3    3    0    0 -0.51392429198E+02  0.16740893838E+02  0.25444184934E+02  0.59739817980E+02  0.00000000000E+00 0. -1.
         11    1    3    3    0    0  0.20166813733E+02  0.31357348981E+02 -0.30083016419E+02  0.47905861730E+02  0.00000000000E+00 0.  1.
</event>
<event>
 8    1  0.1790275E-005  0.1038827E+03  0.7561462E-02  0.1272337E+00
         -2   -1    0    0    0  501 -0.00000000000E+00  0.00000000000E+00  0.65460248552E+02  0.65460248552E+02  0.00000000000E+00 0.  1.
          2   -1    0    0  501    0  0.00000000000E+00 -0.00000000000E+00 -0.19516456628E+03  0.19516456628E+03  0.00000000000E+00 0. -1.
         23    2    1    2    0    0 -0.28171876788E+02  0.33008669932E+02 -0.31009957118E+02  0.10474656802E+03  0.90149870439E+02 0.  0.
         23    2    1    2    0    0  0.28171876788E+02 -0.33008669932E+02 -0.98694360614E+02  0.15587824681E+03  0.11257985645E+03 0.  0.
          5    1    4    4  502    0  0.66145391864E+02 -0.12923574554E+01 -0.77247801317E+02  0.10179183789E+03  0.41800000000E+01 0. -1.
         -5    1    4    4    0  502 -0.37973515076E+02 -0.31716312477E+02 -0.21446559297E+02  0.54086408921E+02  0.41800000000E+01 0.  1.
        -11    1    3    3    0    0  0.11402959134E+02  0.48126285983E+02 -0.37261148465E+02  0.61923824692E+02  0.00000000000E+00 0. -1.
         11    1    3    3    0    0 -0.39574835922E+02 -0.15117616051E+02  0.62511913476E+01  0.42822743333E+02  0.00000000000E+00 0.  1.
</event>
<event>
 8    1  0.1790275E-005  0.9255632E+02  0.7561462E-02  0.1296777E+00
         -1   -1    0    0    0  501 -0.00000000000E+00  0.00000000000E+00  0.10481379957E+03  0.10481379957E+03  0.00000000000E+00 0.  1.
          1   -1    0    0  501    0  0.00000000000E+00 -0.00000000000E+00 -0.20310019676E+03  0.20310019676E+03  0.00000000000E+00 0. -1.
         23    2    1    2    0    0  0.41044150608E+02 -0.20404176514E+02  0.53674277541E+02  0.11479146853E+03  0.90527346468E+02 0.  0.
         23    2    1    2    0    0 -0.41044150608E+02  0.20404176514E+02 -0.15196067472E+03  0.19312252780E+03  0.11001505063E+03 0.  0.
          5    1    4    4  502    0 -0.10033655278E+02 -0.25787847914E+02 -0.13030208456E+03  0.13327337685E+03  0.41800000000E+01 0. -1.
         -5    1    4    4    0  502 -0.31010495330E+02  0.46192024427E+02 -0.21658590165E+02  0.59849150948E+02  0.41800000000E+01 0.  1.
        -11    1    3    3    0    0  0.49919943424E+02  0.24467602816E+02  0.26493461823E+02  0.61583827897E+02  0.00000000000E+00 0.  1.
         11    1    3    3    0    0 -0.88757928159E+01 -0.44871779329E+02  0.27180815717E+02  0.53207640630E+02  0.00000000000E+00 0. -1.
</event>
<event>
 8    1  0.1790275E-005  0.9731664E+02  0.7561462E-02  0.1286042E+00
         -2   -1    0    0    0  501 -0.00000000000E+00  0.00000000000E+00  0.11131915117E+02  0.11131915117E+02  0.00000000000E+00 0.  1.
          2   -1    0    0  501    0  0.00000000000E+00 -0.00000000000E+00 -0.12571645899E+04  0.12571645899E+04  0.00000000000E+00 0. -1.
         23    2    1    2    0    0 -0.37102266625E+02 -0.23080834229E+01 -0.36074507335E+03  0.37344264006E+03  0.89109438474E+02 0.  0.
         23    2    1    2    0    0  0.37102266625E+02  0.23080834229E+01 -0.88528760148E+03  0.89485386501E+03  0.12508955574E+03 0.  0.
          5    1    4    4  502    0  0.59242593292E+02 -0.23547963552E+02 -0.23111362540E+03  0.23978150824E+03  0.41800000000E+01 0.  1.
         -5    1    4    4    0  502 -0.22140326668E+02  0.25856046975E+02 -0.65417397608E+03  0.65507235677E+03  0.41800000000E+01 0.  1.
        -11    1    3    3    0    0 -0.51992296149E+02  0.30600584205E+02 -0.21720308043E+03  0.22542575887E+03  0.00000000000E+00 0.  1.
         11    1    3    3    0    0  0.14890029524E+02 -0.32908667628E+02 -0.14354199292E+03  0.14801688119E+03  0.00000000000E+00 0. -1.
</event>
<event>
 7    1  0.1790275E-005  0.3205257E+03  0.7561462E-02  0.1075408E+00
         -1   -1    0    0    0  501 -0.00000000000E+00  0.00000000000E+00  0.10890858680E+03  0.10890858680E+03  0.00000000000E+00 0.  1.
          1   -1    0    0  501    0  0.00000000000E+00 -0.00000000000E+00 -0.12335264809E+04  0.12335264809E+04  0.00000000000E+00 0. -1.
         23    2    1    2    0    0 -0.44239642590E+01  0.12019230108E+03 -0.18497657891E+03  0.23776636677E+03  0.88604456566E+02 0.  0.
          5    1    1    2  502    0 -0.36573731599E+02  0.18818369654E+03 -0.65673967600E+03  0.68416022678E+03  0.41800000000E+01 0. -1.
         -5    1    1    2    0  502  0.40997695858E+02 -0.30837599762E+03 -0.28290163921E+03  0.42050847416E+03  0.41800000000E+01 0.  1.
        -11    1    3    3    0    0 -0.31759939960E+02  0.29091160207E+02 -0.10502397499E+03  0.11351222273E+03  0.00000000000E+00 0. -1.
         11    1    3    3    0    0  0.27335975701E+02  0.91101140873E+02 -0.79952603928E+02  0.12425414404E+03  0.00000000000E+00 0.  1.
</event>
<event>
 8    1  0.1790275E-005  0.1194553E+03  0.7561462E-02  0.1243998E+00
          1   -1    0    0  501    0  0.00000000000E+00  0.00000000000E+00  0.53228206983E+03  0.53228206983E+03  0.00000000000E+00 0. -1.
         -1   -1    0    0    0  501 -0.00000000000E+00 -0.00000000000E+00 -0.51705025794E+02  0.51705025794E+02  0.00000000000E+00 0.  1.
         23    2    1    2    0    0  0.45185883876E+02 -0.46192973121E+02  0.40468826088E+02  0.12190586033E+03  0.95119703686E+02 0.  0.
         23    2    1    2    0    0 -0.45185883876E+02  0.46192973121E+02  0.44010821795E+03  0.46208123530E+03  0.12509304394E+03 0.  0.
          5    1    4    4  502    0  0.19269942230E+02  0.58987414405E+02  0.31092434569E+03  0.31708400602E+03  0.41800000000E+01 0.  1.
         -5    1    4    4    0  502 -0.64455826106E+02 -0.12794441285E+02  0.12918387226E+03  0.14499722928E+03  0.41800000000E+01 0.  1.
        -11    1    3    3    0    0 -0.12269041842E+02  0.19847442328E+02 -0.40787567788E+01  0.23687266865E+02  0.00000000000E+00 0.  1.
         11    1    3    3    0    0  0.57454925718E+02 -0.66040415449E+02  0.44547582867E+02  0.98218593460E+02  0.00000000000E+00 0. -1.
</event>
<event>
 8    1  0.1790275E-005  0.1227238E+03  0.7561462E-02  0.1238670E+00
          1   -1    0    0  501    0  0.00000000000E+00  0.00000000000E+00  0.27504581966E+03  0.27504581966E+03  0.00000000000E+00 0. -1.
         -1   -1    0    0    0  501 -0.00000000000E+00 -0.00000000000E+00 -0.60099074865E+02  0.60099074865E+02  0.00000000000E+00 0.  1.
         23    2    1    2    0    0  0.45324794336E+02 -0.50614533594E+02  0.10287071625E+03  0.15396823194E+03  0.92237000120E+02 0.  0.
         23    2    1    2    0    0 -0.45324794336E+02  0.50614533594E+02  0.11207602855E+03  0.18117666259E+03  0.12509108241E+03 0.  0.
          5    1    4    4  502    0 -0.24334074104E+01  0.81482506195E+02  0.37872999882E+02  0.89984203099E+02  0.41800000000E+01 0.  1.
         -5    1    4    4    0  502 -0.42891386926E+02 -0.30867972600E+02  0.74203028663E+02  0.91192459489E+02  0.41800000000E+01 0.  1.
        -11    1    3    3    0    0 -0.22119573255E+02 -0.35289632897E+02  0.58441910428E+02  0.71764131748E+02  0.00000000000E+00 0.  1.
         11    1    3    3    0    0  0.67444367590E+02 -0.15324900697E+02  0.44428805822E+02  0.82204100189E+02  0.00000000000E+00 0. -1.
</event>
<event>
 8    1  0.1790275E-005  0.6323939E+02  0.7561462E-02  0.1384719E+00
          4   -1    0    0  501    0  0.00000000000E+00  0.00000000000E+00  0.12304949271E+03  0.12304949271E+03  0.00000000000E+00 0. -1.
         -4   -1    0    0    0  501 -0.00000000000E+00 -0.00000000000E+00 -0.10574405905E+03  0.10574405905E+03  0.00000000000E+00 0.  1.
         23    2    1    2    0    0 -0.28577368106E+02 -0.21265612255E+02 -0.17592143673E+01  0.97340332760E+02  0.90571260972E+02 0.  0.
         23    2    1    2    0    0  0.28577368106E+02  0.21265612255E+02  0.19064648024E+02  0.13145321900E+03  0.12509035034E+03 0.  0.
          5    1    4    4  502    0 -0.21050779235E+02  0.15503915530E+02 -0.43716984223E+02  0.51109234124E+02  0.41800000000E+01 0.  1.
         -5    1    4    4    0  502  0.49628147341E+02  0.57616967253E+01  0.62781632247E+02  0.80343984873E+02  0.41800000000E+01 0.  1.
        -11    1    3    3    0    0 -0.13913449156E+02  0.87671115413E+01  0.40354305796E+02  0.43576556868E+02  0.00000000000E+00 0. -1.
         11    1    3    3    0    0 -0.14663918950E+02 -0.30032723797E+02 -0.42113520163E+02  0.53763775892E+02  0.00000000000E+00 0.  1.
</event>
<event>
 8    1  0.1790275E-005  0.2127398E+03  0.7561462E-02  0.1139415E+00
         -2   -1    0    0    0  501 -0.00000000000E+00  0.00000000000E+00  0.12524558852E+03  0.12524558852E+03  0.00000000000E+00 0.  1.
          2   -1    0    0  501    0  0.00000000000E+00 -0.00000000000E+00 -0.65679813588E+03  0.65679813588E+03  0.00000000000E+00 0. -1.
         23    2    1    2    0    0  0.16910892542E+03 -0.11070555159E+03 -0.26082000187E+02  0.22347178871E+03  0.91683268947E+02 0.  0.
         23    2    1    2    0    0 -0.16910892542E+03  0.11070555159E+03 -0.50547054717E+03  0.55857193570E+03  0.12509430635E+03 0.  0.
          5    1    4    4  502    0 -0.12796788777E+03  0.71988166737E+02 -0.20142543444E+03  0.24929451356E+03  0.41800000000E+01 0.  1.
         -5    1    4    4    0  502 -0.41141037646E+02  0.38717384854E+02 -0.30404511273E+03  0.30927742214E+03  0.41800000000E+01 0.  1.
        -11    1    3    3    0    0 -0.11307527137E+02 -0.25446198802E+01 -0.13386937750E+01  0.11667363083E+02  0.00000000000E+00 0. -1.
         11    1    3    3    0    0  0.18041645256E+03 -0.10816093171E+03 -0.24743306412E+02  0.21180442563E+03  0.00000000000E+00 0.  1.
</event>
<event>
 8    1  0.1790275E-005  0.1119009E+03  0.7561462E-02  0.1257090E+00
          1   -1    0    0  501    0  0.00000000000E+00  0.00000000000E+00  0.82615370847E+03  0.82615370847E+03  0.00000000000E+00 0. -1.
         -1   -1    0    0    0  501 -0.00000000000E+00 -0.00000000000E+00 -0.29057685295E+02  0.29057685295E+02  0.00000000000E+00 0.  1.
         23    2    1    2    0    0 -0.57191478434E+02 -0.21695024291E+02  0.12924216149E+03  0.17464620375E+03  0.10028071048E+03 0.  0.
         23    2    1    2    0    0  0.57191478434E+02  0.21695024291E+02  0.66785386169E+03  0.68056519002E+03  0.11575257236E+03 0.  0.
          5    1    4    4  502    0  0.69572093671E+02  0.55576197598E+02  0.55205830726E+03  0.55920911739E+03  0.41800000000E+01 0. -1.
         -5    1    4    4    0  502 -0.12380615238E+02 -0.33881173306E+02  0.11579555443E+03  0.12135607262E+03  0.41800000000E+01 0.  1.
        -11    1    3    3    0    0 -0.67095489999E+02  0.75024092402E+01  0.36153031996E+02  0.76584154008E+02  0.00000000000E+00 0.  1.
         11    1    3    3    0    0  0.99040115649E+01 -0.29197433532E+02  0.93089129495E+02  0.98062049744E+02  0.00000000000E+00 0. -1.
</event>
<event>
 7    1  0.1790275E-005  0.9571740E+02  0.7561462E-02  0.1289568E+00
         -2   -1    0    0    0  501 -0.00000000000E+00  0.00000000000E+00  0.83851830664E+02  0.83851830664E+02  0.00000000000E+00 0.  1.
          2   -1    0    0  501    0  0.00000000000E+00 -0.00000000000E+00 -0.64580197694E+03  0.64580197694E+03  0.00000000000E+00 0. -1.
         23    2    1    2    0    0  0.78186774255E+02 -0.96875524494E+01  0.26735208913E+01  0.11919643669E+03  0.89407060487E+02 0.  0.
          5    1    1    2  502    0  0.25105585150E+00  0.67597115822E+01 -0.52001892013E+03  0.52007971160E+03  0.41800000000E+01 0. -1.
         -5    1    1    2    0  502 -0.78437830107E+02  0.29278408673E+01 -0.44604747038E+02  0.90377659310E+02  0.41800000000E+01 0.  1.
        -11    1    3    3    0    0  0.12580153796E+02  0.26945973193E+02 -0.25272759560E+02  0.39026377191E+02  0.00000000000E+00 0. -1.
         11    1    3    3    0    0  0.65606620459E+02 -0.36633525643E+02  0.27946280452E+02  0.80170059500E+02  0.00000000000E+00 0.  1.
</event>
<event>
 8    1  0.1790275E-005  0.2656836E+03  0.7561462E-02  0.1103776E+00
         -1   -1    0    0    0  501 -0.00000000000E+00  0.00000000000E+00  0.51426217594E+02  0.51426217594E+02  0.00000000000E+00 0.  1.
          1   -1    0    0  501    0  0.00000000000E+00 -0.00000000000E+00 -0.16081037415E+04  0.16081037415E+04  0.00000000000E+00 0. -1.
         23    2    1    2    0    0 -0.15594398042E+03  0.19795048278E+03 -0.50914944437E+03  0.57488010669E+03  0.88040114142E+02 0.  0.
         23    2    1    2    0    0  0.15594398042E+03 -0.19795048278E+03 -0.10475280795E+04  0.10846498524E+04  0.12508919318E+03 0.  0.
          5    1    4    4  502    0 -0.26226343860E+01 -0.54486187895E+02 -0.37397970764E+03  0.37796020559E+03  0.41800000000E+01 0.  1.
         -5    1    4    4    0  502  0.15856661480E+03 -0.14346429489E+03 -0.67354837188E+03  0.70668964681E+03  0.41800000000E+01 0.  1.
        -11    1    3    3    0    0  0.45264230573E+01  0.30576645145E+02 -0.99138399186E+02  0.10384527879E+03  0.00000000000E+00 0. -1.
         11    1    3    3    0    0 -0.16047040347E+03  0.16737383764E+03 -0.41001104519E+03  0.47103482790E+03  0.00000000000E+00 0.  1.
</event>
<event>
 8    1  0.1790275E-005  0.7097292E+02  0.7561462E-02  0.1356816E+00
         -2   -1    0    0    0  501 -0.00000000000E+00  0.00000000000E+00  0.68288732710E+03  0.68288732710E+03  0.00000000000E+00 0.  1.
          2   -1    0    0  501    0  0.00000000000E+00 -0.00000000000E+00 -0.19339885564E+02  0.19339885564E+02  0.00000000000E+00 0. -1.
         23    2    1    2    0    0 -0.30561220579E+02 -0.21249732076E+02  0.27824316142E+03  0.29541705185E+03  0.92013250840E+02 0.  0.
         23    2    1    2    0    0  0.30561220579E+02  0.21249732076E+02  0.38530428012E+03  0.40681016082E+03  0.12509827876E+03 0.  0.
          5    1    4    4  502    0  0.22740221538E+02  0.36544544885E+02  0.38666729388E+03  0.38907799989E+03  0.41800000000E+01 0.  1.
         -5    1    4    4    0  502  0.78209990412E+01 -0.15294812809E+02 -0.13630137610E+01  0.17732160933E+02  0.41800000000E+01 0.  1.
        -11    1    3    3    0    0 -0.10858768562E+02 -0.47203573907E+02  0.24148724744E+03  0.24629693648E+03  0.00000000000E+00 0. -1.
         11    1    3    3    0    0 -0.19702452017E+02  0.25953841831E+02  0.36755913980E+02  0.49120115369E+02  0.00000000000E+00 0.  1.
</event>
<event>
 7    1  0.1790275E-005  0.8146466E+02  0.7561462E-02  0.1324946E+00
          1   -1    0    0  501    0  0.00000000000E+00  0.00000000000E+00  0.19551836013E+04  0.19551836013E+04  0.00000000000E+00 0. -1.
         -1   -1    0    0    0  501 -0.00000000000E+00 -0.00000000000E+00 -0.68706898022E+01  0.68706898022E+01  0.00000000000E+00 0.  1.
         23    2    1    2    0    0 -0.19229189548E+02 -0.40228026202E+02  0.18074847670E+04  0.18120217505E+04  0.12013985810E+03 0.  0.
          5    1    3    3  502    0 -0.49048872373E+02 -0.58533741205E+02  0.15774993036E+04  0.15793522457E+04  0.41800000000E+01 0. -1.
         -5    1    3    3    0  502  0.29819682825E+02  0.18305715003E+02  0.22998546338E+03  0.23266950477E+03  0.41800000000E+01 0.  1.
        -11    1    1    2    0    0 -0.51387609434E+01  0.16164549757E+02  0.37010124126E+02  0.40711777420E+02  0.00000000000E+00 0. -1.
         11    1    1    2    0    0  0.24367950491E+02  0.24063476445E+02  0.10381802035E+03  0.10932076316E+03  0.00000000000E+00 0.  1.
</event>
<event>
 8    1  0.1790275E-005  0.1227634E+03  0.7561462E-02  0.1238607E+00
          1   -1    0    0  501    0  0.00000000000E+00  0.00000000000E+00  0.55602068048E+03  0.55602068048E+03  0.00000000000E+00 0. -1.
         -1   -1    0    0    0  501 -0.00000000000E+00 -0.00000000000E+00 -0.39577230005E+02  0.39577230005E+02  0.00000000000E+00 0.  1.
         23    2    1    2    0    0 -0.71174990593E+02 -0.71409090313E+02  0.24041460386E+03  0.27618044457E+03  0.91166434327E+02 0.  0.
         23    2    1    2    0    0  0.71174990593E+02  0.71409090313E+02  0.27602884661E+03  0.31941746592E+03  0.12518169157E+03 0.  0.
          5    1    4    4  502    0 -0.13451243549E+02  0.63982897254E+01  0.16367672616E+03  0.16440625642E+03  0.41800000000E+01 0. -1.
         -5    1    4    4    0  502  0.84626234142E+02  0.65010800588E+02  0.11235212045E+03  0.15501120949E+03  0.41800000000E+01 0. -1.
        -11    1    3    3    0    0 -0.42945484305E+02 -0.82436930570E+02  0.22210679122E+03  0.24077289891E+03  0.00000000000E+00 0. -1.
         11    1    3    3    0    0 -0.28229506289E+02  0.11027840257E+02  0.18307812646E+02  0.35407545663E+02  0.00000000000E+00 0.  1.
</event>
<event>
 8    1  0.1790275E-005  0.7278181E+02  0.7561462E-02  0.1350881E+00
         -1   -1    0    0    0  501 -0.00000000000E+00  0.00000000000E+00  0.27721543817E+02  0.27721543817E+02  0.00000000000E+00 0.  1.
          1   -1    0    0  501    0  0.00000000000E+00 -0.00000000000E+00 -0.45753854700E+03  0.45753854700E+03  0.00000000000E+00 0. -1.
         23    2    1    2    0    0 -0.21836562464E+01 -0.22215416584E+02 -0.12391223050E+03  0.15584801980E+03  0.91848088269E+02 0.  0.
         23    2    1    2    0    0  0.21836562464E+01  0.22215416584E+02 -0.30590477269E+03  0.32941207102E+03  0.12015111108E+03 0.  0.
          5    1    4    4  502    0  0.15921844472E+02 -0.74868105193E+01 -0.29366821548E+03  0.29422449022E+03  0.41800000000E+01 0. -1.
         -5    1    4    4    0  502 -0.13738188225E+02  0.29702227103E+02 -0.12236557213E+02  0.35187580806E+02  0.41800000000E+01 0.  1.
        -11    1    3    3    0    0 -0.38924325238E+02  0.15443244348E+02 -0.56982979289E+02  0.70715322384E+02  0.00000000000E+00 0.  1.
         11    1    3    3    0    0  0.36740668992E+02 -0.37658660932E+02 -0.66929251209E+02  0.85132697412E+02  0.00000000000E+00 0. -1.
</event>
<event>
 8    1  0.1790275E-005  0.1505724E+03  0.7561462E-02  0.1199771E+00
         -2   -1    0    0    0  501 -0.00000000000E+00  0.00000000000E+00  0.42342901811E+03  0.42342901811E+03  0.00000000000E+00 0.  1.
          2   -1    0    0  501    0  0.00000000000E+00 -0.00000000000E+00 -0.53937773624E+02  0.53937773624E+02  0.00000000000E+00 0. -1.
         23    2    1    2    0    0 -0.63721615555E+02  0.83081629763E+02  0.16388585001E+03  0.21490881776E+03  0.91456145898E+02 0.  0.
         23    2    1    2    0    0  0.63721615555E+02 -0.83081629763E+02  0.20560539447E+03  0.26245797398E+03  0.12509040081E+03 0.  0.
          5    1    4    4  502    0  0.63754718946E+02  0.14274679803E+02  0.76074908419E+02  0.10036580475E+03  0.41800000000E+01 0. -1.
         -5    1    4    4    0  502 -0.33103390889E-01 -0.97356309566E+02  0.12953048605E+03  0.16209216923E+03  0.41800000000E+01 0. -1.
        -11    1    3    3    0    0 -0.64313491794E+02  0.99272818390E+01  0.88629930923E+02  0.10995472162E+03  0.00000000000E+00 0. -1.
         11    1    3    3    0    0  0.59187623911E+00  0.73154347924E+02  0.75255919088E+02  0.10495409613E+03  0.00000000000E+00 0.  1.
</event>
<event>
 8    1  0.1790275E-005  0.9749192E+02  0.7561462E-02  0.1285660E+00
         -1   -1    0    0    0  501 -0.00000000000E+00  0.00000000000E+00  0.12028508936E+02  0.12028508936E+02  0.00000000000E+00 0.  1.
          1   -1    0    0  501    0  0.00000000000E+00 -0.00000000000E+00 -0.11046043519E+04  0.11046043519E+04  0.00000000000E+00 0. -1.
         23    2    1    2    0    0 -0.23004341188E+02 -0.43578198490E+01 -0.27876953195E+03  0.29293509669E+03  0.86892626962E+02 0.  0.
         23    2    1    2    0    0  0.23004341188E+02  0.43578198490E+01 -0.81380631103E+03  0.82369776417E+03  0.12509638089E+03 0.  0.
          5    1    4    4  502    0  0.31125215340E+02 -0.50924548432E+02 -0.24760943572E+03  0.25473514426E+03  0.41800000000E+01 0.  1.
         -5    1    4    4    0  502 -0.81208741519E+01  0.55282368281E+02 -0.56619687531E+03  0.56896261990E+03  0.41800000000E+01 0.  1.
        -11    1    3    3    0    0 -0.18852089572E+00  0.34264258273E+02 -0.19425340158E+03  0.19725227238E+03  0.00000000000E+00 0. -1.
         11    1    3    3    0    0 -0.22815820292E+02 -0.38622078122E+02 -0.84516130370E+02  0.95682824304E+02  0.00000000000E+00 0.  1.
</event>
<event>
 8    1  0.1790275E-005  0.1062065E+03  0.7561462E-02  0.1267761E+00
         -1   -1    0    0    0  501 -0.00000000000E+00  0.00000000000E+00  0.75899509332E+02  0.75899509332E+02  0.00000000000E+00 0.  1.
          1   -1    0    0  501    0  0.00000000000E+00 -0.00000000000E+00 -0.28454683667E+03  0.28454683667E+03  0.00000000000E+00 0. -1.
         23    2    1    2    0    0 -0.17899901872E+02 -0.87139859539E+01  0.22672476432E+02  0.96718217833E+02  0.91891416547E+02 0.  0.
         23    2    1    2    0    0  0.17899901872E+02  0.87139859539E+01 -0.23131980377E+03  0.26372812817E+03  0.12508930383E+03 0.  0.
          5    1    4    4  502    0 -0.25813876867E+02  0.55359448935E+02 -0.13246713772E+03  0.14593162714E+03  0.41800000000E+01 0. -1.
         -5    1    4    4    0  502  0.43713778740E+02 -0.46645462981E+02 -0.98852666047E+02  0.11779650102E+03  0.41800000000E+01 0. -1.
        -11    1    3    3    0    0  0.26031570188E+02 -0.28797974988E+02 -0.78130421603E+01  0.39598101440E+02  0.00000000000E+00 0. -1.
         11    1    3    3    0    0 -0.43931472061E+02  0.20083989034E+02  0.30485518592E+02  0.57120116393E+02  0.00000000000E+00 0.  1.
</event>
<event>
 8    1  0.1790275E-005  0.1360606E+03  0.7561462E-02  0.1218730E+00
          1   -1    0    0  501    0  0.00000000000E+00  0.00000000000E+00  0.87818662358E+03  0.87818662358E+03  0.00000000000E+00 0. -1.
         -1   -1    0    0    0  501 -0.00000000000E+00 -0.00000000000E+00 -0.21584589643E+02  0.21584589643E+02  0.00000000000E+00 0.  1.
         23    2    1    2    0    0 -0.61334767674E+02  0.57408241346E+02  0.41419697854E+03  0.43240870825E+03  0.91435737173E+02 0.  0.
         23    2    1    2    0    0  0.61334767674E+02 -0.57408241346E+02  0.44240505539E+03  0.46736250498E+03  0.12509123918E+03 0.  0.
          5    1    4    4  502    0  0.98605704592E+02 -0.26797995120E+02  0.30205292373E+03  0.31889599975E+03  0.41800000000E+01 0.  1.
         -5    1    4    4    0  502 -0.37270936918E+02 -0.30610246226E+02  0.14035213166E+03  0.14846650523E+03  0.41800000000E+01 0.  1.
        -11    1    3    3    0    0 -0.81759947614E+02  0.29629260093E+02  0.33354982379E+03  0.34469996669E+03  0.00000000000E+00 0.  1.
         11    1    3    3    0    0  0.20425179940E+02  0.27778981253E+02  0.80647154753E+02  0.87708741553E+02  0.00000000000E+00 0. -1.
</event>
<event>
 8    1  0.1790275E-005  0.1197167E+03  0.7561462E-02  0.1243565E+00
         -2   -1    0    0    0  501 -0.00000000000E+00  0.00000000000E+00  0.83771159338E+03  0.83771159338E+03  0.00000000000E+00 0.  1.
          2   -1    0    0  501    0  0.00000000000E+00 -0.00000000000E+00 -0.26867530643E+02  0.26867530643E+02  0.00000000000E+00 0. -1.
         23    2    1    2    0    0  0.74380933183E+02 -0.71979439837E+02  0.35179485359E+03  0.37766314547E+03  0.90312067007E+02 0.  0.
         23    2    1    2    0    0 -0.74380933183E+02  0.71979439837E+02  0.45904920915E+03  0.48691597856E+03  0.12508969094E+03 0.  0.
          5    1    4    4  502    0 -0.36684461479E+02  0.18560774002E+02  0.25747232086E+02  0.48689263762E+02  0.41800000000E+01 0.  1.
         -5    1    4    4    0  502 -0.37696471703E+02  0.53418665835E+02  0.43330197706E+03  0.43822671480E+03  0.41800000000E+01 0.  1.
        -11    1    3    3    0    0  0.69037025135E+02 -0.90211070587E+02  0.32859761600E+03  0.34767879046E+03  0.00000000000E+00 0.  1.
         11    1    3    3    0    0  0.53439080479E+01  0.18231630750E+02  0.23197237595E+02  0.29984355005E+02  0.00000000000E+00 0. -1.
</event>
<event>
 8    1  0.1790275E-005  0.9792386E+02  0.7561462E-02  0.1284723E+00
          2   -1    0    0  501    0  0.00000000000E+00  0.00000000000E+00  0.13642003906E+03  0.13642003906E+03  0.00000000000E+00 0.  1.
         -2   -1    0    0    0  501 -0.00000000000E+00 -0.00000000000E+00 -0.11954121272E+03  0.11954121272E+03  0.00000000000E+00 0. -1.
         23    2    1    2    0    0  0.13011554828E+02 -0.68166620958E+02  0.11357527136E+02  0.11280399015E+03  0.88202936455E+02 0.  0.
         23    2    1    2    0    0 -0.13011554828E+02  0.68166620958E+02  0.55212992111E+01  0.14315726163E+03  0.12509007970E+03 0.  0.
          5    1    4    4  502    0  0.32303000247E+02  0.55163786475E+01  0.45329430083E+02  0.56090497323E+02  0.41800000000E+01 0.  1.
         -5    1    4    4    0  502 -0.45314555076E+02  0.62650242311E+02 -0.39808130872E+02  0.87066764306E+02  0.41800000000E+01 0.  1.
        -11    1    3    3    0    0  0.31620006348E+02 -0.33717385314E+02  0.42486460780E+02  0.62783646147E+02  0.00000000000E+00 0.  1.
         11    1    3    3    0    0 -0.18608451520E+02 -0.34449235644E+02 -0.31128933644E+02  0.50020344004E+02  0.00000000000E+00 0. -1.
</event>
<event>
 8    1  0.1790275E-005  0.1575147E+03  0.7561462E-02  0.1191532E+00
         -2   -1    0    0    0  501 -0.00000000000E+00  0.00000000000E+00  0.48265172034E+02  0.48265172034E+02  0.00000000000E+00 0.  1.
          2   -1    0    0  501    0  0.00000000000E+00 -0.00000000000E+00 -0.84909233535E+03  0.84909233535E+03  0.00000000000E+00 0. -1.
         23    2    1    2    0    0  0.11172621382E+03 -0.70907699868E+02 -0.14463398127E+03  0.21636798423E+03  0.91572197232E+02 0.  0.
         23    2    1    2    0    0 -0.11172621382E+03  0.70907699868E+02 -0.65619318204E+03  0.68098952315E+03  0.12508632911E+03 0.  0.
          5    1    4    4  502    0 -0.13210653206E+03  0.37515603271E+02 -0.56863967442E+03  0.58500265643E+03  0.41800000000E+01 0. -1.
         -5    1    4    4    0  502  0.20380318245E+02  0.33392096596E+02 -0.87553507618E+02  0.95986866722E+02  0.41800000000E+01 0. -1.
        -11    1    3    3    0    0  0.78746021560E+02 -0.69904081225E+02 -0.50817814792E+02  0.11691863318E+03  0.00000000000E+00 0.  1.
         11    1    3    3    0    0  0.32980192258E+02 -0.10036186429E+01 -0.93816166482E+02  0.99449351054E+02  0.00000000000E+00 0. -1.
</event>
<event>
 8    1  0.1790275E-005  0.1163833E+03  0.7561462E-02  0.1249186E+00
          1   -1    0    0  501    0  0.00000000000E+00  0.00000000000E+00  0.30877096743E+02  0.30877096743E+02  0.00000000000E+00 0. -1.
         -1   -1    0    0    0  501 -0.00000000000E+00 -0.00000000000E+00 -0.68618903333E+03  0.68618903333E+03  0.00000000000E+00 0.  1.
         23    2    1    2    0    0  0.11751326699E+02 -0.62398096225E+02 -0.47824005594E+03  0.49115995823E+03  0.92157134126E+02 0.  0.
         23    2    1    2    0    0 -0.11751326699E+02  0.62398096225E+02 -0.17707188065E+03  0.22590617184E+03  0.12509009341E+03 0.  0.
          5    1    4    4  502    0 -0.61062437012E+02  0.28971101664E+02 -0.45975988627E+02  0.81848701124E+02  0.41800000000E+01 0.  1.
         -5    1    4    4    0  502  0.49311110312E+02  0.33426994561E+02 -0.13109589202E+03  0.14405747072E+03  0.41800000000E+01 0.  1.
        -11    1    3    3    0    0  0.38497746112E+02 -0.11690245748E+01 -0.10192812012E+03  0.10896230883E+03  0.00000000000E+00 0. -1.
         11    1    3    3    0    0 -0.26746419412E+02 -0.61229071650E+02 -0.37631193582E+03  0.38219764940E+03  0.00000000000E+00 0.  1.
</event>
<event>
 8    1  0.1790275E-005  0.7788505E+02  0.7561462E-02  0.1335163E+00
         -1   -1    0    0    0  501 -0.00000000000E+00  0.00000000000E+00  0.71977718718E+02  0.71977718718E+02  0.00000000000E+00 0.  1.
          1   -1    0    0  501    0  0.00000000000E+00 -0.00000000000E+00 -0.17321132651E+03  0.17321132651E+03  0.00000000000E+00 0. -1.
         23    2    1    2    0    0 -0.16869880238E+02  0.46757911174E+01 -0.17642267262E+02  0.93725251541E+02  0.90369891559E+02 0.  0.
         23    2    1    2    0    0  0.16869880238E+02 -0.46757911174E+01 -0.83591340528E+02  0.15146379369E+03  0.12508921898E+03 0.  0.
          5    1    4    4  502    0 -0.29868131673E+02  0.55872647070E+01  0.20453380729E+02  0.36866461720E+02  0.41800000000E+01 0.  1.
         -5    1    4    4    0  502  0.46738011911E+02 -0.10263055824E+02 -0.10404472126E+03  0.11459733197E+03  0.41800000000E+01 0.  1.
        -11    1    3    3    0    0 -0.11994089127E+01 -0.34681210950E+02 -0.33746865323E+02  0.48405329189E+02  0.00000000000E+00 0.  1.
         11    1    3    3    0    0 -0.15670471326E+02  0.39357002068E+02  0.16104598061E+02  0.45319922352E+02  0.00000000000E+00 0. -1.
</event>
<event>
 8    1  0.1790275E-005  0.8346341E+02  0.7561462E-02  0.1319500E+00
         -1   -1    0    0    0  501 -0.00000000000E+00  0.00000000000E+00  0.20536778209E+02  0.20536778209E+02  0.00000000000E+00 0.  1.
          1   -1    0    0  501    0  0.00000000000E+00 -0.00000000000E+00 -0.62732160764E+03  0.62732160764E+03  0.00000000000E+00 0. -1.
         23    2    1    2    0    0  0.12234198442E+01 -0.30174110352E+02 -0.23135081433E+03  0.25098214364E+03  0.92503315841E+02 0.  0.
         23    2    1    2    0    0 -0.12234198442E+01  0.30174110352E+02 -0.37543401510E+03  0.39687624222E+03  0.12509227892E+03 0.  0.
          5    1    4    4  502    0 -0.34737382791E+02 -0.11968536627E+02 -0.31056771617E+02  0.48290031015E+02  0.41800000000E+01 0.  1.
         -5    1    4    4    0  502  0.33513962947E+02  0.42142646979E+02 -0.34437724349E+03  0.34858621120E+03  0.41800000000E+01 0.  1.
        -11    1    3    3    0    0 -0.21553749910E+02  0.14375306340E+02 -0.17279938563E+02  0.31141770089E+02  0.00000000000E+00 0.  1.
         11    1    3    3    0    0  0.22777169754E+02 -0.44549416692E+02 -0.21407087577E+03  0.21984037355E+03  0.00000000000E+00 0. -1.
</event>
<event>
 8    1  0.1790275E-005  0.1652422E+03  0.7561462E-02  0.1182902E+00
         -1   -1    0    0    0  501 -0.00000000000E+00  0.00000000000E+00  0.17150853470E+03  0.17150853470E+03  0.00000000000E+00 0.  1.
          1   -1    0    0  501    0  0.00000000000E+00 -0.00000000000E+00 -0.19752875001E+03  0.19752875001E+03  0.00000000000E+00 0. -1.
         23    2    1    2    0    0  0.20481197866E+02 -0.14151184342E+03  0.26290216386E+02  0.17199079552E+03  0.91894379447E+02 0.  0.
         23    2    1    2    0    0 -0.20481197866E+02  0.14151184342E+03 -0.52310431693E+02  0.19704648918E+03  0.12508339755E+03 0.  0.
          5    1    4    4  502    0 -0.69114080402E+02  0.65435326630E+02 -0.59308388115E+01  0.95452529196E+02  0.41800000000E+01 0. -1.
         -5    1    4    4    0  502  0.48632882536E+02  0.76076516787E+02 -0.46379592881E+02  0.10159395999E+03  0.41800000000E+01 0. -1.
        -11    1    3    3    0    0 -0.45543317951E+01 -0.10512522845E+02 -0.26252817156E+02  0.28643768664E+02  0.00000000000E+00 0. -1.
         11    1    3    3    0    0  0.25035529661E+02 -0.13099932057E+03  0.52543033541E+02  0.14334702686E+03  0.00000000000E+00 0.  1.
</event>
<event>
 8    1  0.1790275E-005  0.1144649E+03  0.7561462E-02  0.1252518E+00
         -2   -1    0    0    0  501 -0.00000000000E+00  0.00000000000E+00  0.28704227506E+02  0.28704227506E+02  0.00000000000E+00 0.  1.
          2   -1    0    0  501    0  0.00000000000E+00 -0.00000000000E+00 -0.75181032917E+03  0.75181032917E+03  0.00000000000E+00 0. -1.
         23    2    1    2    0    0  0.36564214082E+02  0.68647745786E+02 -0.16592953729E+03  0.20419547673E+03  0.90076226709E+02 0.  0.
         23    2    1    2    0    0 -0.36564214082E+02 -0.68647745786E+02 -0.55717656438E+03  0.57631907995E+03  0.12509397775E+03 0.  0.
          5    1    4    4  502    0 -0.15106228702E+02 -0.82573029631E+02 -0.53682428147E+03  0.54336386054E+03  0.41800000000E+01 0.  1.
         -5    1    4    4    0  502 -0.21457985380E+02  0.13925283844E+02 -0.20352282910E+02  0.32955219410E+02  0.41800000000E+01 0.  1.
        -11    1    3    3    0    0  0.52536143892E+02  0.82508761768E+02 -0.13420777084E+03  0.16607067152E+03  0.00000000000E+00 0.  1.
         11    1    3    3    0    0 -0.15971929810E+02 -0.13861015981E+02 -0.31721766444E+02  0.38124805209E+02  0.00000000000E+00 0. -1.
</event>
<event>
 8    1  0.1790275E-005  0.6754940E+02  0.7561462E-02  0.1368630E+00
          1   -1    0    0  501    0  0.00000000000E+00  0.00000000000E+00  0.39689972466E+03  0.39689972466E+03  0.00000000000E+00 0. -1.
         -1   -1    0    0    0  501 -0.00000000000E+00 -0.00000000000E+00 -0.30610845718E+02  0.30610845718E+02  0.00000000000E+00 0.  1.
         23    2    1    2    0    0  0.16466147550E+02  0.60344732780E+01  0.98946451871E+02  0.13557489307E+03  0.91008804025E+02 0.  0.
         23    2    1    2    0    0 -0.16466147550E+02 -0.60344732780E+01  0.26734242707E+03  0.29193567731E+03  0.11596084465E+03 0.  0.
          5    1    4    4  502    0 -0.33282158589E+02  0.33073758364E+02  0.43752853629E+02  0.64291213811E+02  0.41800000000E+01 0. -1.
         -5    1    4    4    0  502  0.16816011038E+02 -0.39108231642E+02  0.22358957344E+03  0.22764446350E+03  0.41800000000E+01 0.  1.
        -11    1    3    3    0    0  0.14477161815E+01  0.22721061750E+02 -0.96166911512E+01  0.24714839225E+02  0.00000000000E+00 0.  1.
         11    1    3    3    0    0  0.15018431369E+02 -0.16686588472E+02  0.10856314302E+03  0.11086005384E+03  0.00000000000E+00 0. -1.
</event>
<event>
 8    1  0.1790275E-005  0.9255030E+02  0.7561462E-02  0.1296791E+00
         -1   -1    0    0    0  501 -0.00000000000E+00  0.00000000000E+00  0.26036203185E+03  0.26036203185E+03  0.00000000000E+00 0.  1.
          1   -1    0    0  501    0  0.00000000000E+00 -0.00000000000E+00 -0.64590808052E+02  0.64590808052E+02  0.00000000000E+00 0. -1.
         23    2    1    2    0    0 -0.18971071769E+02  0.66330613193E+02  0.10518007191E+03  0.15579566051E+03  0.91922731126E+02 0.  0.
         23    2    1    2    0    0  0.18971071769E+02 -0.66330613193E+02  0.90591151889E+02  0.16915717939E+03  0.12509093783E+03 0.  0.
          5    1    4    4  502    0 -0.10521939163E+02 -0.45266010148E+01  0.99257904054E+02  0.10000402611E+03  0.41800000000E+01 0. -1.
         -5    1    4    4    0  502  0.29493010933E+02 -0.61804012179E+02 -0.86667521653E+01  0.69153153278E+02  0.41800000000E+01 0. -1.
        -11    1    3    3    0    0 -0.30962201511E+02 -0.55240970393E+01  0.65927205757E+02  0.73044986340E+02  0.00000000000E+00 0.  1.
         11    1    3    3    0    0  0.11991129741E+02  0.71854710233E+02  0.39252866149E+02  0.82750674173E+02  0.00000000000E+00 0. -1.
</event>
<event>
 8    1  0.1790275E-005  0.9360634E+02  0.7561462E-02  0.1294346E+00
          2   -1    0    0  501    0  0.00000000000E+00  0.00000000000E+00  0.73514189722E+03  0.73514189722E+03  0.00000000000E+00 0. -1.
         -2   -1    0    0    0  501 -0.00000000000E+00 -0.00000000000E+00 -0.22172613013E+02  0.22172613013E+02  0.00000000000E+00 0.  1.
         23    2    1    2    0    0  0.37461494518E+01  0.54607259879E+02  0.19082425050E+03  0.21761407179E+03  0.89140356709E+02 0.  0.
         23    2    1    2    0    0 -0.37461494518E+01 -0.54607259879E+02  0.52214503370E+03  0.53970043844E+03  0.12508053631E+03 0.  0.
          5    1    4    4  502    0 -0.36535695279E+02  0.71617286281E+01  0.37348980594E+03  0.37536416308E+03  0.41800000000E+01 0.  1.
         -5    1    4    4    0  502  0.32789545828E+02 -0.61768988507E+02  0.14865522776E+03  0.16433627536E+03  0.41800000000E+01 0.  1.
        -11    1    3    3    0    0 -0.21449985561E+02  0.49547468508E+02  0.47216102130E+02  0.71724569127E+02  0.00000000000E+00 0.  1.
         11    1    3    3    0    0  0.25196135013E+02  0.50597913710E+01  0.14360814837E+03  0.14588950267E+03  0.00000000000E+00 0. -1.
</event>
<event>
 7    1  0.1790275E-005  0.1148579E+03  0.7561462E-02  0.1251829E+00
         -1   -1    0    0    0  501 -0.00000000000E+00  0.00000000000E+00  0.11278883678E+02  0.11278883678E+02  0.00000000000E+00 0.  1.
          1   -1    0    0  501    0  0.00000000000E+00 -0.00000000000E+00 -0.17628413536E+04  0.17628413536E+04  0.00000000000E+00 0. -1.
         23    2    1    2    0    0 -0.18922845415E+02  0.38303997251E+01 -0.25126372157E+03  0.26702746130E+03  0.88303234764E+02 0.  0.
          5    1    1    2  502    0  0.16500410655E+02  0.68243060964E+02 -0.79456132081E+03  0.79766819157E+03  0.41800000000E+01 0. -1.
         -5    1    1    2    0  502  0.24224347607E+01 -0.72073460689E+02 -0.70573742757E+03  0.70942458443E+03  0.41800000000E+01 0.  1.
        -11    1    3    3    0    0 -0.43613537843E+02  0.28614569951E+02 -0.18344596967E+03  0.19071800671E+03  0.00000000000E+00 0.  1.
         11    1    3    3    0    0  0.24690692427E+02 -0.24784170226E+02 -0.67817751900E+02  0.76309454586E+02  0.00000000000E+00 0. -1.
</event>
<event>
 8    1  0.1790275E-005  0.1099023E+03  0.7561462E-02  0.1260751E+00
         -1   -1    0    0    0  501 -0.00000000000E+00  0.00000000000E+00  0.66617123008E+02  0.66617123008E+02  0.00000000000E+00 0.  1.
          1   -1    0    0  501    0  0.00000000000E+00 -0.00000000000E+00 -0.41782157564E+03  0.41782157564E+03  0.00000000000E+00 0. -1.
         23    2    1    2    0    0  0.20919838929E+02 -0.46627709044E+02  0.78850663107E+01  0.10076572536E+03  0.86485687982E+02 0.  0.
         23    2    1    2    0    0 -0.20919838929E+02  0.46627709044E+02 -0.35908951894E+03  0.38367297329E+03  0.12509150612E+03 0.  0.
          5    1    4    4  502    0 -0.88914784215E+01 -0.40721024898E+02 -0.71779916494E+02  0.83108898857E+02  0.41800000000E+01 0.  1.
         -5    1    4    4    0  502 -0.12028360507E+02  0.87348733942E+02 -0.28730960245E+03  0.30056407443E+03  0.41800000000E+01 0.  1.
        -11    1    3    3    0    0 -0.71163099152E+01 -0.58691594030E+02 -0.16854447832E+02  0.61476967136E+02  0.00000000000E+00 0. -1.
         11    1    3    3    0    0  0.28036148844E+02  0.12063884986E+02  0.24739514143E+02  0.39288758226E+02  0.00000000000E+00 0.  1.
</event>
<event>
 8    1  0.1790275E-005  0.2996616E+03  0.7561462E-02  0.1085410E+00
         -2   -1    0    0    0  501 -0.00000000000E+00  0.00000000000E+00  0.47051159417E+02  0.47051159417E+02  0.00000000000E+00 0. -1.
          2   -1    0    0  501    0  0.00000000000E+00 -0.00000000000E+00 -0.28221496680E+04  0.28221496680E+04  0.00000000000E+00 0.  1.
         23    2    1    2    0    0  0.27473239892E+03  0.56403798629E+02 -0.55810443774E+03  0.63103857867E+03  0.89832315021E+02 0.  0.
         23    2    1    2    0    0 -0.27473239892E+03 -0.56403798629E+02 -0.22169940709E+04  0.22381622488E+04  0.12509301367E+03 0.  0.
          5    1    4    4  502    0 -0.45957584924E+02  0.37430304031E+02 -0.38764328598E+03  0.39217077509E+03  0.41800000000E+01 0.  1.
         -5    1    4    4    0  502 -0.22877481400E+03 -0.93834102660E+02 -0.18293507849E+04  0.18459914737E+04  0.41800000000E+01 0.  1.
        -11    1    3    3    0    0  0.18656269991E+03 -0.24708153574E+01 -0.38930882094E+03  0.43170951343E+03  0.00000000000E+00 0. -1.
         11    1    3    3    0    0  0.88169699012E+02  0.58874613987E+02 -0.16879561680E+03  0.19932906523E+03  0.00000000000E+00 0.  1.
</event>
<event>
 7    1  0.1790275E-005  0.1425282E+03  0.7561462E-02  0.1209967E+00
          2   -1    0    0  501    0  0.00000000000E+00  0.00000000000E+00  0.41154164817E+03  0.41154164817E+03  0.00000000000E+00 0. -1.
         -2   -1    0    0    0  501 -0.00000000000E+00 -0.00000000000E+00 -0.35206178327E+03  0.35206178327E+03  0.00000000000E+00 0.  1.
         23    2    1    2    0    0 -0.19454963578E+02 -0.29012178262E+02 -0.27446532510E+03  0.29150574319E+03  0.91783340189E+02 0.  0.
          5    1    1    2  502    0  0.37738905445E+02  0.11135684134E+03  0.36393315661E+03  0.38247795489E+03  0.41800000000E+01 0. -1.
         -5    1    1    2    0  502 -0.18283941868E+02 -0.82344663078E+02 -0.29987966606E+02  0.89619733367E+02  0.41800000000E+01 0.  1.
        -11    1    3    3    0    0 -0.48165478744E+02 -0.23970935185E+02 -0.24185295817E+03  0.24776475223E+03  0.00000000000E+00 0.  1.
         11    1    3    3    0    0  0.28710515166E+02 -0.50412430773E+01 -0.32612366932E+02  0.43740990955E+02  0.00000000000E+00 0. -1.
</event>
<event>
 8    1  0.1790275E-005  0.7499367E+02  0.7561462E-02  0.1343891E+00
         -4   -1    0    0    0  501 -0.00000000000E+00  0.00000000000E+00  0.85238023580E+02  0.85238023580E+02  0.00000000000E+00 0.  1.
          4   -1    0    0  501    0  0.00000000000E+00 -0.00000000000E+00 -0.19988102827E+03  0.19988102827E+03  0.00000000000E+00 0. -1.
         23    2    1    2    0    0 -0.54350536894E+01  0.72423472700E+02 -0.26722631818E+02  0.11584921695E+03  0.86210456504E+02 0.  0.
         23    2    1    2    0    0  0.54350536894E+01 -0.72423472700E+02 -0.87920372871E+02  0.16926983490E+03  0.12509031071E+03 0.  0.
          5    1    4    4  502    0  0.25426280568E-01 -0.82446572250E+00  0.30457784351E+02  0.30754339820E+02  0.41800000000E+01 0.  1.
         -5    1    4    4    0  502  0.54096274088E+01 -0.71599006977E+02 -0.11837815722E+03  0.13851549508E+03  0.41800000000E+01 0.  1.
        -11    1    3    3    0    0  0.32290172561E+01  0.43220723094E+02 -0.57858228762E+02  0.72291300256E+02  0.00000000000E+00 0. -1.
         11    1    3    3    0    0 -0.86640709455E+01  0.29202749605E+02  0.31135596944E+02  0.43557916696E+02  0.00000000000E+00 0.  1.
</event>
<event>
 8    1  0.1790275E-005  0.1036992E+03  0.7561462E-02  0.1272704E+00
          2   -1    0    0  501    0  0.00000000000E+00  0.00000000000E+00  0.11209412203E+03  0.11209412203E+03  0.00000000000E+00 0.  1.
         -2   -1    0    0    0  501 -0.00000000000E+00 -0.00000000000E+00 -0.12341619585E+03  0.12341619585E+03  0.00000000000E+00 0. -1.
         23    2    1    2    0    0 -0.45027445949E+02 -0.18215720310E+02  0.16051291899E+01  0.10070725740E+03  0.88204829223E+02 0.  0.
         23    2    1    2    0    0  0.45027445949E+02  0.18215720310E+02 -0.12927203013E+02  0.13480306048E+03  0.12508184993E+03 0.  0.
          5    1    4    4  502    0 -0.29580260203E+02  0.28380067210E+02  0.27205382608E+02  0.49376363287E+02  0.41800000000E+01 0.  1.
         -5    1    4    4    0  502  0.74607706152E+02 -0.10164346900E+02 -0.40132585621E+02  0.85426697197E+02  0.41800000000E+01 0.  1.
        -11    1    3    3    0    0 -0.27398825078E+02 -0.48519839423E+02  0.22275276174E+02  0.60008819035E+02  0.00000000000E+00 0.  1.
         11    1    3    3    0    0 -0.17628620871E+02  0.30304119113E+02 -0.20670146985E+02  0.40698438365E+02  0.00000000000E+00 0. -1.
</event>
<event>
 7    1  0.1790275E-005  0.1637251E+03  0.7561462E-02  0.1184554E+00
         -2   -1    0    0    0  501 -0.00000000000E+00  0.00000000000E+00  0.13063107452E+02  0.13063107452E+02  0.00000000000E+00 0.  1.
          2   -1    0    0  501    0  0.00000000000E+00 -0.00000000000E+00 -0.28103133943E+04  0.28103133943E+04  0.00000000000E+00 0. -1.
         23    2    1    2    0    0 -0.39889337729E+02  0.55346064782E+02 -0.40648984786E+03  0.42226408130E+03  0.91752993374E+02 0.  0.
          5    1    1    2  502    0  0.85985658059E+02 -0.11122095043E+03 -0.12145512139E+04  0.12226674760E+04  0.41800000000E+01 0. -1.
         -5    1    1    2    0  502 -0.46096320330E+02  0.55874885644E+02 -0.11762092251E+04  0.11784449445E+04  0.41800000000E+01 0.  1.
        -11    1    3    3    0    0  0.16802994550E+02 -0.15944956557E+02 -0.75938600461E+02  0.79393030584E+02  0.00000000000E+00 0. -1.
         11    1    3    3    0    0 -0.56692332279E+02  0.71291021339E+02 -0.33055124740E+03  0.34287105071E+03  0.00000000000E+00 0.  1.
</event>
<event>
 8    1  0.1790275E-005  0.1217893E+03  0.7561462E-02  0.1240174E+00
          2   -1    0    0  501    0  0.00000000000E+00  0.00000000000E+00  0.10838497660E+04  0.10838497660E+04  0.00000000000E+00 0. -1.
         -2   -1    0    0    0  501 -0.00000000000E+00 -0.00000000000E+00 -0.52376765696E+02  0.52376765696E+02  0.00000000000E+00 0.  1.
         23    2    1    2    0    0 -0.47567734153E+02  0.74277714445E+02  0.36934486245E+02  0.13138288122E+03  0.90096820182E+02 0.  0.
         23    2    1    2    0    0  0.47567734153E+02 -0.74277714445E+02  0.99453851409E+03  0.10048436505E+04  0.11324326809E+03 0.  0.
          5    1    4    4  502    0 -0.99558543175E+01 -0.62668652929E+02  0.77350062112E+03  0.77611027720E+03  0.41800000000E+01 0. -1.
         -5    1    4    4    0  502  0.57523588470E+02 -0.11609061516E+02  0.22103789297E+03  0.22873337331E+03  0.41800000000E+01 0.  1.
        -11    1    3    3    0    0 -0.17815563772E+01  0.75334974760E+02  0.49440607234E+01  0.75518051496E+02  0.00000000000E+00 0.  1.
         11    1    3    3    0    0 -0.45786177776E+02 -0.10572603151E+01  0.31990425522E+02  0.55864829721E+02  0.00000000000E+00 0. -1.
</event>
<event>
 7    1  0.1790275E-005  0.1845119E+03  0.7561462E-02  0.1163506E+00
          1   -1    0    0  501    0  0.00000000000E+00  0.00000000000E+00  0.22085009707E+04  0.22085009707E+04  0.00000000000E+00 0. -1.
         -1   -1    0    0    0  501 -0.00000000000E+00 -0.00000000000E+00 -0.26323838464E+02  0.26323838464E+02  0.00000000000E+00 0.  1.
         23    2    1    2    0    0 -0.19646592546E+02  0.37049849121E+02  0.21613919223E+03  0.23861347727E+03  0.91986744679E+02 0.  0.
          5    1    1    2  502    0  0.69234196078E+02 -0.14182526161E+03  0.16821294181E+04  0.16895220124E+04  0.41800000000E+01 0. -1.
         -5    1    1    2    0  502 -0.49587603532E+02  0.10477541249E+03  0.28390852193E+03  0.30668931952E+03  0.41800000000E+01 0.  1.
        -11    1    3    3    0    0  0.13332364273E+02  0.55695410038E+02  0.16712308974E+03  0.17666311942E+03  0.00000000000E+00 0. -1.
         11    1    3    3    0    0 -0.32978956819E+02 -0.18645560917E+02  0.49016102488E+02  0.61950357851E+02  0.00000000000E+00 0.  1.
</event>
<event>
 8    1  0.1790275E-005  0.9659900E+02  0.7561462E-02  0.1287615E+00
         -1   -1    0    0    0  501 -0.00000000000E+00  0.00000000000E+00  0.50871958955E+02  0.50871958955E+02  0.00000000000E+00 0.  1.
          1   -1    0    0  501    0  0.00000000000E+00 -0.00000000000E+00 -0.26997977750E+03  0.26997977750E+03  0.00000000000E+00 0. -1.
         23    2    1    2    0    0 -0.37895436460E+02 -0.23422243947E+02 -0.85815701817E+02  0.13270563858E+03  0.90894368447E+02 0.  0.
         23    2    1    2    0    0  0.37895436460E+02  0.23422243947E+02 -0.13329211673E+03  0.18814609788E+03  0.12508996822E+03 0.  0.
          5    1    4    4  502    0  0.57727149315E+02 -0.43753306167E+01 -0.84554496449E+01  0.58656068013E+02  0.41800000000E+01 0.  1.
         -5    1    4    4    0  502 -0.19831712855E+02  0.27797574563E+02 -0.12483666709E+03  0.12949002987E+03  0.41800000000E+01 0.  1.
        -11    1    3    3    0    0 -0.42315168759E+01 -0.54662914725E+02 -0.40288407982E+02  0.68037458793E+02  0.00000000000E+00 0.  1.
         11    1    3    3    0    0 -0.33663919584E+02  0.31240670778E+02 -0.45527293835E+02  0.64668179783E+02  0.00000000000E+00 0. -1.
</event>
<event>
 8    1  0.1790275E-005  0.9753436E+02  0.7561462E-02  0.1285568E+00
          2   -1    0    0  501    0  0.00000000000E+00  0.00000000000E+00  0.91315129244E+02  0.91315129244E+02  0.00000000000E+00 0.  1.
         -2   -1    0    0    0  501 -0.00000000000E+00 -0.00000000000E+00 -0.15280689496E+03  0.15280689496E+03  0.00000000000E+00 0. -1.
         23    2    1    2    0    0  0.22345108235E+02 -0.63939438026E+01 -0.69237191938E+02  0.11665395577E+03  0.90962466273E+02 0.  0.
         23    2    1    2    0    0 -0.22345108235E+02  0.63939438026E+01  0.77454262170E+01  0.12746806844E+03  0.12509168823E+03 0.  0.
          5    1    4    4  502    0  0.35877734927E+02  0.33173293596E+02  0.32287108575E+02  0.58716343991E+02  0.41800000000E+01 0. -1.
         -5    1    4    4    0  502 -0.58222843162E+02 -0.26779349794E+02 -0.24541682358E+02  0.68751724446E+02  0.41800000000E+01 0. -1.
        -11    1    3    3    0    0 -0.29604324840E+02 -0.23612722397E+01  0.37502358908E+00  0.29700712087E+02  0.00000000000E+00 0.  1.
         11    1    3    3    0    0  0.51949433075E+02 -0.40326715629E+01 -0.69612215527E+02  0.86953243685E+02  0.00000000000E+00 0. -1.
</event>
<event>
 8    1  0.1790275E-005  0.9460419E+02  0.7561462E-02  0.1292070E+00
         -1   -1    0    0    0  501 -0.00000000000E+00  0.00000000000E+00  0.25594783534E+03  0.25594783534E+03  0.00000000000E+00 0. -1.
          1   -1    0    0  501    0  0.00000000000E+00 -0.00000000000E+00 -0.56079558459E+02  0.56079558459E+02  0.00000000000E+00 0.  1.
         23    2    1    2    0    0 -0.43812533554E+02  0.85533791253E+01  0.10840410978E+03  0.15076516113E+03  0.94794432338E+02 0.  0.
         23    2    1    2    0    0  0.43812533554E+02 -0.85533791253E+01  0.91464167099E+02  0.16126223267E+03  0.12508843044E+03 0.  0.
          5    1    4    4  502    0  0.46880872592E+01  0.46796014896E+02 -0.15903894493E+00  0.47215917504E+02  0.41800000000E+01 0.  1.
         -5    1    4    4    0  502  0.39124446294E+02 -0.55349394022E+02  0.91623206044E+02  0.11404631516E+03  0.41800000000E+01 0.  1.
        -11    1    3    3    0    0 -0.34433992377E+00 -0.21330428085E+02 -0.81445435354E+01  0.22835045909E+02  0.00000000000E+00 0.  1.
         11    1    3    3    0    0 -0.43468193630E+02  0.29883807210E+02  0.11654865331E+03  0.12793011522E+03  0.00000000000E+00 0. -1.
</event>
<event>
 8    1  0.1790275E-005  0.2388776E+03  0.7561462E-02  0.1120543E+00
          1   -1    0    0  501    0  0.00000000000E+00  0.00000000000E+00  0.48965624305E+03  0.48965624305E+03  0.00000000000E+00 0. -1.
         -1   -1    0    0    0  501 -0.00000000000E+00 -0.00000000000E+00 -0.14254341346E+03  0.14254341346E+03  0.00000000000E+00 0.  1.
         23    2    1    2    0    0 -0.32250617981E+02 -0.23557430347E+03  0.12507959793E+03  0.28365397480E+03  0.90990751110E+02 0.  0.
         23    2    1    2    0    0  0.32250617981E+02  0.23557430347E+03  0.22203323167E+03  0.34854568171E+03  0.12509988594E+03 0.  0.
          5    1    4    4  502    0  0.41330404376E+01  0.12026719427E+02 -0.15934170260E+02  0.20810915052E+02  0.41800000000E+01 0. -1.
         -5    1    4    4    0  502  0.28117577544E+02  0.22354758404E+03  0.23796740193E+03  0.32773476666E+03  0.41800000000E+01 0. -1.
        -11    1    3    3    0    0 -0.35485212261E+02 -0.18686910936E+03  0.54541957329E+02  0.19787392307E+03  0.00000000000E+00 0.  1.
         11    1    3    3    0    0  0.32345942797E+01 -0.48705194102E+02  0.70537640596E+02  0.85780051723E+02  0.00000000000E+00 0. -1.
</event>
<event>
 8    1  0.1790275E-005  0.1182244E+03  0.7561462E-02  0.1246055E+00
          1   -1    0    0  501    0  0.00000000000E+00  0.00000000000E+00  0.80021132685E+02  0.80021132685E+02  0.00000000000E+00 0. -1.
         -1   -1    0    0    0  501 -0.00000000000E+00 -0.00000000000E+00 -0.31151400545E+03  0.31151400545E+03  0.00000000000E+00 0.  1.
         23    2    1    2    0    0 -0.87429336649E+02 -0.41925411187E+02 -0.18635291401E+03  0.22695138925E+03  0.85894676843E+02 0.  0.
         23    2    1    2    0    0  0.87429336649E+02  0.41925411187E+02 -0.45139958758E+02  0.16458374889E+03  0.12509422654E+03 0.  0.
          5    1    4    4  502    0  0.50881942699E+02  0.64281431315E+02  0.21858019425E+02  0.84948925348E+02  0.41800000000E+01 0.  1.
         -5    1    4    4    0  502  0.36547393950E+02 -0.22356020128E+02 -0.66997978183E+02  0.79634823545E+02  0.41800000000E+01 0.  1.
        -11    1    3    3    0    0 -0.36047807165E+02 -0.47501274333E+02 -0.15601379156E+03  0.16702131188E+03  0.00000000000E+00 0.  1.
         11    1    3    3    0    0 -0.51381529484E+02  0.55758631462E+01 -0.30339122447E+02  0.59930077363E+02  0.00000000000E+00 0. -1.
</event>
<event>
 8    1  0.1790275E-005  0.1263212E+03  0.7561462E-02  0.1233019E+00
          1   -1    0    0  501    0  0.00000000000E+00  0.00000000000E+00  0.44582369189E+03  0.44582369189E+03  0.00000000000E+00 0. -1.
         -1   -1    0    0    0  501 -0.00000000000E+00 -0.00000000000E+00 -0.46540425220E+02  0.46540425220E+02  0.00000000000E+00 0.  1.
         23    2    1    2    0    0 -0.46012168016E+02  0.82685605071E+02  0.18092863528E+03  0.22351493886E+03  0.90938044485E+02 0.  0.
         23    2    1    2    0    0  0.46012168016E+02 -0.82685605071E+02  0.21835463138E+03  0.26884917825E+03  0.12508839557E+03 0.  0.
          5    1    4    4  502    0  0.50033035016E+02 -0.95909360646E+02  0.93152937357E+02  0.14281754861E+03  0.41800000000E+01 0.  1.
         -5    1    4    4    0  502 -0.40208670000E+01  0.13223755574E+02  0.12520169403E+03  0.12603162964E+03  0.41800000000E+01 0.  1.
        -11    1    3    3    0    0  0.27052572208E+02  0.19471851561E+02  0.33563669248E+02  0.47302373722E+02  0.00000000000E+00 0. -1.
         11    1    3    3    0    0 -0.73064740224E+02  0.63213753510E+02  0.14736496603E+03  0.17621256513E+03  0.00000000000E+00 0.  1.
</event>
<event>
 8    1  0.1790275E-005  0.3514757E+03  0.7561462E-02  0.1062011E+00
         -2   -1    0    0    0  501 -0.00000000000E+00  0.00000000000E+00  0.60857757742E+02  0.60857757742E+02  0.00000000000E+00 0.  1.
          2   -1    0    0  501    0  0.00000000000E+00 -0.00000000000E+00 -0.23272636277E+04  0.23272636277E+04  0.00000000000E+00 0. -1.
         23    2    1    2    0    0  0.19762583627E+03  0.28424084526E+03 -0.80444933379E+03  0.88053607483E+03  0.91412357887E+02 0.  0.
         23    2    1    2    0    0 -0.19762583627E+03 -0.28424084526E+03 -0.14619565362E+04  0.15075853106E+04  0.12509087031E+03 0.  0.
          5    1    4    4  502    0 -0.18869236598E+03 -0.23774258941E+03 -0.10531308581E+04  0.10960056681E+04  0.41800000000E+01 0. -1.
         -5    1    4    4    0  502 -0.89334702933E+01 -0.46498255854E+02 -0.40882567807E+03  0.41157964252E+03  0.41800000000E+01 0. -1.
        -11    1    3    3    0    0  0.86041032583E+02  0.72460836624E+02 -0.33837241749E+03  0.35658032061E+03  0.00000000000E+00 0.  1.
         11    1    3    3    0    0  0.11158480369E+03  0.21178000864E+03 -0.46607691630E+03  0.52395575422E+03  0.00000000000E+00 0. -1.
</event>
<event>
 8    1  0.1790275E-005  0.1599530E+03  0.7561462E-02  0.1188750E+00
          1   -1    0    0  501    0  0.00000000000E+00  0.00000000000E+00  0.14799069903E+04  0.14799069903E+04  0.00000000000E+00 0. -1.
         -1   -1    0    0    0  501 -0.00000000000E+00 -0.00000000000E+00 -0.21320730753E+02  0.21320730753E+02  0.00000000000E+00 0.  1.
         23    2    1    2    0    0 -0.86238953504E+02  0.94788555754E+02  0.48979354722E+03  0.51602358242E+03  0.99802762005E+02 0.  0.
         23    2    1    2    0    0  0.86238953504E+02 -0.94788555754E+02  0.96879271237E+03  0.98520413868E+03  0.12508336394E+03 0.  0.
          5    1    4    4  502    0 -0.26045975206E+02 -0.73429788549E+01  0.30969114688E+03  0.31089932618E+03  0.41800000000E+01 0. -1.
         -5    1    4    4    0  502  0.11228492871E+03 -0.87445576899E+02  0.65910156549E+03  0.67430481250E+03  0.41800000000E+01 0. -1.
        -11    1    3    3    0    0 -0.48241543497E+02  0.10072855125E+03  0.43481035718E+03  0.44892486483E+03  0.00000000000E+00 0. -1.
         11    1    3    3    0    0 -0.37997410007E+02 -0.59399954955E+01  0.54983190046E+02  0.67098717583E+02  0.00000000000E+00 0.  1.
</event>
<event>
 8    1  0.1790275E-005  0.1442568E+03  0.7561462E-02  0.1207713E+00
          2   -1    0    0  501    0  0.00000000000E+00  0.00000000000E+00  0.12086609509E+03  0.12086609509E+03  0.00000000000E+00 0. -1.
         -2   -1    0    0    0  501 -0.00000000000E+00 -0.00000000000E+00 -0.22685002228E+03  0.22685002228E+03  0.00000000000E+00 0.  1.
         23    2    1    2    0    0 -0.31616662781E+02 -0.11971130829E+03 -0.28863894406E+02  0.15555802632E+03  0.89636847639E+02 0.  0.
         23    2    1    2    0    0  0.31616662781E+02  0.11971130829E+03 -0.77120032778E+02  0.19215809105E+03  0.12508725675E+03 0.  0.
          5    1    4    4  502    0  0.47951606875E+02  0.10012869859E+03 -0.10589642133E+03  0.15348171661E+03  0.41800000000E+01 0. -1.
         -5    1    4    4    0  502 -0.16334944094E+02  0.19582609702E+02  0.28776388553E+02  0.38676374435E+02  0.41800000000E+01 0. -1.
        -11    1    3    3    0    0  0.26126438318E+02 -0.10735480681E+02 -0.13400275340E+02  0.31263536329E+02  0.00000000000E+00 0.  1.
         11    1    3    3    0    0 -0.57743101099E+02 -0.10897582761E+03 -0.15463619066E+02  0.12429449000E+03  0.00000000000E+00 0. -1.
</event>
<event>
 8    1  0.1790275E-005  0.2013406E+03  0.7561462E-02  0.1148613E+00
         -1   -1    0    0    0  501 -0.00000000000E+00  0.00000000000E+00  0.22719252210E+03  0.22719252210E+03  0.00000000000E+00 0.  1.
          1   -1    0    0  501    0  0.00000000000E+00 -0.00000000000E+00 -0.21371367148E+03  0.21371367148E+03  0.00000000000E+00 0. -1.
         23    2    1    2    0    0 -0.17027694920E+03 -0.86628270137E+02  0.16665274750E+02  0.21252879558E+03  0.91608192605E+02 0.  0.
         23    2    1    2    0    0  0.17027694920E+03  0.86628270137E+02 -0.31864241303E+01  0.22837739801E+03  0.12508951198E+03 0.  0.
          5    1    4    4  502    0  0.15631313542E+03  0.96517288244E+02 -0.39556156119E+02  0.18796687241E+03  0.41800000000E+01 0.  1.
         -5    1    4    4    0  502  0.13963813775E+02 -0.98890181076E+01  0.36369731989E+02  0.40410525600E+02  0.41800000000E+01 0.  1.
        -11    1    3    3    0    0 -0.90879662330E+02 -0.10799409200E+02 -0.25363643012E+02  0.94968703535E+02  0.00000000000E+00 0. -1.
         11    1    3    3    0    0 -0.79397286867E+02 -0.75828860937E+02  0.42028917762E+02  0.11756009204E+03  0.00000000000E+00 0.  1.
</event>
<event>
 8    1  0.1790275E-005  0.1499170E+03  0.7561462E-02  0.1200575E+00
         -1   -1    0    0    0  501 -0.00000000000E+00  0.00000000000E+00  0.51160290506E+03  0.51160290506E+03  0.00000000000E+00 0.  1.
          1   -1    0    0  501    0  0.00000000000E+00 -0.00000000000E+00 -0.56222668360E+02  0.56222668360E+02  0.00000000000E+00 0. -1.
         23    2    1    2    0    0  0.42054354925E+02 -0.11667400354E+03  0.27676794477E+03  0.31696400804E+03  0.92110234363E+02 0.  0.
         23    2    1    2    0    0 -0.42054354925E+02  0.11667400354E+03  0.17861229193E+03  0.25086156538E+03  0.12509109594E+03 0.  0.
          5    1    4    4  502    0 -0.42115010086E+02 -0.12070958483E+02  0.25853716727E+02  0.51041837563E+02  0.41800000000E+01 0. -1.
         -5    1    4    4    0  502  0.60655161018E-01  0.12874496202E+03  0.15275857521E+03  0.19981972781E+03  0.41800000000E+01 0. -1.
        -11    1    3    3    0    0  0.18933308444E+02 -0.19715774500E+02  0.16482007043E+03  0.16707135466E+03  0.00000000000E+00 0.  1.
         11    1    3    3    0    0  0.23121046482E+02 -0.96958229036E+02  0.11194787434E+03  0.14989265338E+03  0.00000000000E+00 0. -1.
</event>
<event>
 8    1  0.1790275E-005  0.1157067E+03  0.7561462E-02  0.1250352E+00
         -4   -1    0    0    0  501 -0.00000000000E+00  0.00000000000E+00  0.44939647225E+02  0.44939647225E+02  0.00000000000E+00 0.  1.
          4   -1    0    0  501    0  0.00000000000E+00 -0.00000000000E+00 -0.34331457573E+03  0.34331457573E+03  0.00000000000E+00 0. -1.
         23    2    1    2    0    0  0.11049136675E+02  0.55804263169E+02 -0.14757077390E+03  0.18423017987E+03  0.94485060479E+02 0.  0.
         23    2    1    2    0    0 -0.11049136675E+02 -0.55804263169E+02 -0.15080415460E+03  0.20402404309E+03  0.12509083861E+03 0.  0.
          5    1    4    4  502    0  0.19430168695E+02  0.27567625526E+02 -0.90385680820E+02  0.96563705034E+02  0.41800000000E+01 0.  1.
         -5    1    4    4    0  502 -0.30479305370E+02 -0.83371888696E+02 -0.60418473779E+02  0.10746033805E+03  0.41800000000E+01 0.  1.
        -11    1    3    3    0    0 -0.13684839473E+02 -0.22560257757E+02 -0.23038215010E+02  0.35028551387E+02  0.00000000000E+00 0.  1.
         11    1    3    3    0    0  0.24733976148E+02  0.78364520926E+02 -0.12453255889E+03  0.14920162848E+03  0.00000000000E+00 0. -1.
</event>
<event>
 8    1  0.1790275E-005  0.1204426E+03  0.7561462E-02  0.1242369E+00
         -1   -1    0    0    0  501 -0.00000000000E+00  0.00000000000E+00  0.29974043491E+02  0.29974043491E+02  0.00000000000E+00 0.  1.
          1   -1    0    0  501    0  0.00000000000E+00 -0.00000000000E+00 -0.84966363281E+03  0.84966363281E+03  0.00000000000E+00 0. -1.
         23    2    1    2    0    0  0.76243080031E+02 -0.80113925579E+02 -0.27896182320E+03  0.31371857033E+03  0.91478927853E+02 0.  0.
         23    2    1    2    0    0 -0.76243080031E+02  0.80113925579E+02 -0.54072776612E+03  0.56591910597E+03  0.12508664649E+03 0.  0.
          5    1    4    4  502    0 -0.42041697678E+01  0.36576299404E+02 -0.28346034686E+02  0.46652661274E+02  0.41800000000E+01 0. -1.
         -5    1    4    4    0  502 -0.72038910263E+02  0.43537626175E+02 -0.51238173143E+03  0.51926644470E+03  0.41800000000E+01 0. -1.
        -11    1    3    3    0    0 -0.55772927236E+01 -0.11466418267E+02  0.22137723018E+01  0.12941627788E+02  0.00000000000E+00 0.  1.
         11    1    3    3    0    0  0.81820372755E+02 -0.68647507312E+02 -0.28117559550E+03  0.30077694254E+03  0.00000000000E+00 0. -1.
</event>
<event>
 8    1  0.1790275E-005  0.1329915E+03  0.7561462E-02  0.1223083E+00
          2   -1    0    0  501    0  0.00000000000E+00  0.00000000000E+00  0.65198184475E+03  0.65198184475E+03  0.00000000000E+00 0. -1.
         -2   -1    0    0    0  501 -0.00000000000E+00 -0.00000000000E+00 -0.30771249165E+02  0.30771249165E+02  0.00000000000E+00 0.  1.
         23    2    1    2    0    0  0.76315104065E+02 -0.36888389869E+02  0.22740808841E+03  0.26095457917E+03  0.95906753150E+02 0.  0.
         23    2    1    2    0    0 -0.76315104065E+02  0.36888389869E+02  0.39380250717E+03  0.42179851474E+03  0.12509525957E+03 0.  0.
          5    1    4    4  502    0  0.21830641903E+02  0.39602492894E+02  0.19256609981E+03  0.19784870372E+03  0.41800000000E+01 0.  1.
         -5    1    4    4    0  502 -0.98145745967E+02 -0.27141030248E+01  0.20123640736E+03  0.22394981102E+03  0.41800000000E+01 0.  1.
        -11    1    3    3    0    0  0.51579935612E+02  0.23766934770E+02  0.67899953240E+02  0.88519831654E+02  0.00000000000E+00 0.  1.
         11    1    3    3    0    0  0.24735168453E+02 -0.60655324639E+02  0.15950813517E+03  0.17243474751E+03  0.00000000000E+00 0. -1.
</event>
<event>
 8    1  0.1790275E-005  0.1552440E+03  0.7561462E-02  0.1194173E+00
          2   -1    0    0  501    0  0.00000000000E+00  0.00000000000E+00  0.51734720754E+03  0.51734720754E+03  0.00000000000E+00 0. -1.
         -2   -1    0    0    0  501 -0.00000000000E+00 -0.00000000000E+00 -0.63044056996E+02  0.63044056996E+02  0.00000000000E+00 0.  1.
         23    2    1    2    0    0  0.13557837691E+03  0.17880790505E+02  0.14071847632E+03  0.21613305688E+03  0.90612304601E+02 0.  0.
         23    2    1    2    0    0 -0.13557837691E+03 -0.17880790505E+02  0.31358467423E+03  0.36425820765E+03  0.12508986760E+03 0.  0.
          5    1    4    4  502    0 -0.33563451453E+02 -0.53145709975E+02  0.18974014618E+03  0.19992440380E+03  0.41800000000E+01 0. -1.
         -5    1    4    4    0  502 -0.10201492546E+03  0.35264919470E+02  0.12384452805E+03  0.16433380385E+03  0.41800000000E+01 0. -1.
        -11    1    3    3    0    0  0.97314975379E+02  0.18263829084E+00  0.14405285887E+03  0.17384321654E+03  0.00000000000E+00 0. -1.
         11    1    3    3    0    0  0.38263401535E+02  0.17698152214E+02 -0.33343825543E+01  0.42289840338E+02  0.00000000000E+00 0.  1.
</event>
<event>
 8    1  0.1790275E-005  0.1178724E+03  0.7561462E-02  0.1246649E+00
         -2   -1    0    0    0  501 -0.00000000000E+00  0.00000000000E+00  0.13442281551E+03  0.13442281551E+03  0.00000000000E+00 0.  1.
          2   -1    0    0  501    0  0.00000000000E+00 -0.00000000000E+00 -0.10840740684E+03  0.10840740684E+03  0.00000000000E+00 0. -1.
         23    2    1    2    0    0 -0.10723776999E+02 -0.50843079152E+02  0.36043940779E+02  0.10700523906E+03  0.86318812713E+02 0.  0.
         23    2    1    2    0    0  0.10723776999E+02  0.50843079152E+02 -0.10028532105E+02  0.13582498329E+03  0.12509131280E+03 0.  0.
          5    1    4    4  502    0 -0.68553923845E+01  0.91023873111E+02 -0.78646635674E+01  0.91715141683E+02  0.41800000000E+01 0.  1.
         -5    1    4    4    0  502  0.17579169383E+02 -0.40180793959E+02 -0.21638685376E+01  0.44109841605E+02  0.41800000000E+01 0.  1.
        -11    1    3    3    0    0 -0.32386770447E+02  0.11455694578E+02  0.17142093706E+02  0.38392541136E+02  0.00000000000E+00 0.  1.
         11    1    3    3    0    0  0.21662993448E+02 -0.62298773730E+02  0.18901847073E+02  0.68612697923E+02  0.00000000000E+00 0. -1.
</event>
<event>
 7    1  0.1790275E-005  0.2850159E+03  0.7561462E-02  0.1092980E+00
         -2   -1    0    0    0  501 -0.00000000000E+00  0.00000000000E+00  0.66012082204E+02  0.66012082204E+02  0.00000000000E+00 0.  1.
          2   -1    0    0  501    0  0.00000000000E+00 -0.00000000000E+00 -0.32676476552E+04  0.32676476552E+04  0.00000000000E+00 0. -1.
         23    2    1    2    0    0 -0.20752564938E+02 -0.43220868098E+02 -0.42935706181E+02  0.14252505874E+03  0.12716605331E+03 0.  0.
          5    1    1    2  502    0  0.13946901737E+03  0.19920394050E+03 -0.21367359681E+04  0.21505329308E+04  0.41800000000E+01 0. -1.
         -5    1    1    2    0  502 -0.11871645244E+03 -0.15598307240E+03 -0.10219638988E+04  0.10406017479E+04  0.41800000000E+01 0.  1.
        -11    1    3    3    0    0  0.16504694963E+02 -0.78036734216E+02 -0.44828784335E+02  0.91497304593E+02  0.00000000000E+00 0.  1.
         11    1    3    3    0    0 -0.37257259901E+02  0.34815866118E+02  0.18930781540E+01  0.51027754152E+02  0.00000000000E+00 0. -1.
</event>
<event>
 8    1  0.1790275E-005  0.7984478E+02  0.7561462E-02  0.1329492E+00
          2   -1    0    0  501    0  0.00000000000E+00  0.00000000000E+00  0.12041397613E+04  0.12041397613E+04  0.00000000000E+00 0. -1.
         -2   -1    0    0    0  501 -0.00000000000E+00 -0.00000000000E+00 -0.12251344586E+02  0.12251344586E+02  0.00000000000E+00 0.  1.
         23    2    1    2    0    0 -0.28169106007E+02  0.29293244545E+02  0.33331787714E+03  0.34780500804E+03  0.90641732597E+02 0.  0.
         23    2    1    2    0    0  0.28169106007E+02 -0.29293244545E+02  0.85857053959E+03  0.86858609786E+03  0.12508735043E+03 0.  0.
          5    1    4    4  502    0  0.42035546649E+02 -0.26221402413E+02  0.12033203731E+03  0.13019915794E+03  0.41800000000E+01 0.  1.
         -5    1    4    4    0  502 -0.13866440642E+02 -0.30718421320E+01  0.73823850228E+03  0.73838693991E+03  0.41800000000E+01 0.  1.
        -11    1    3    3    0    0 -0.28441074867E+02 -0.26795671699E+02  0.18843413412E+03  0.19244304525E+03  0.00000000000E+00 0. -1.
         11    1    3    3    0    0  0.27196886077E+00  0.56088916244E+02  0.14488374302E+03  0.15536196279E+03  0.00000000000E+00 0.  1.
</event>
<event>
 8    1  0.1790275E-005  0.1036829E+03  0.7561462E-02  0.1272737E+00
          1   -1    0    0  501    0  0.00000000000E+00  0.00000000000E+00  0.45357824014E+03  0.45357824014E+03  0.00000000000E+00 0. -1.
         -1   -1    0    0    0  501 -0.00000000000E+00 -0.00000000000E+00 -0.32618108240E+02  0.32618108240E+02  0.00000000000E+00 0.  1.
         23    2    1    2    0    0  0.25403559503E+02  0.10909641881E+02  0.98069045326E+02  0.13882048949E+03  0.94282710659E+02 0.  0.
         23    2    1    2    0    0 -0.25403559503E+02 -0.10909641881E+02  0.32289108657E+03  0.34737585889E+03  0.12508785884E+03 0.  0.
          5    1    4    4  502    0  0.22670767987E+02 -0.44834640965E+02  0.24238474211E+03  0.24757209932E+03  0.41800000000E+01 0.  1.
         -5    1    4    4    0  502 -0.48074327489E+02  0.33924999084E+02  0.80506344461E+02  0.99803759572E+02  0.41800000000E+01 0.  1.
        -11    1    3    3    0    0  0.61302066398E+02  0.42149546868E+01  0.56298361013E+02  0.83337954381E+02  0.00000000000E+00 0. -1.
         11    1    3    3    0    0 -0.35898506895E+02  0.66946871944E+01  0.41770684313E+02  0.55482535107E+02  0.00000000000E+00 0.  1.
</event>
<event>
 8    1  0.1790275E-005  0.3261228E+03  0.7561462E-02  0.1072865E+00
         -1   -1    0    0    0  501 -0.00000000000E+00  0.00000000000E+00  0.26397886767E+03  0.26397886767E+03  0.00000000000E+00 0.  1.
          1   -1    0    0  501    0  0.00000000000E+00 -0.00000000000E+00 -0.46429059594E+03  0.46429059594E+03  0.00000000000E+00 0. -1.
         23    2    1    2    0    0  0.15402684203E+03  0.28543289259E+03 -0.21265817610E+02  0.33724285253E+03  0.89912748500E+02 0.  0.
         23    2    1    2    0    0 -0.15402684203E+03 -0.28543289259E+03 -0.17904591066E+03  0.39102661108E+03  0.12509263851E+03 0.  0.
          5    1    4    4  502    0 -0.84565093102E+02 -0.18640733148E+03 -0.43492303136E+02  0.20930360970E+03  0.41800000000E+01 0.  1.
         -5    1    4    4    0  502 -0.69461748931E+02 -0.99025561108E+02 -0.13555360752E+03  0.18172300138E+03  0.41800000000E+01 0.  1.
        -11    1    3    3    0    0  0.83648699308E+01  0.41756273893E+02 -0.31807598823E+02  0.53153370554E+02  0.00000000000E+00 0. -1.
         11    1    3    3    0    0  0.14566197210E+03  0.24367661870E+03  0.10541781213E+02  0.28408948197E+03  0.00000000000E+00 0.  1.
</event>
<event>
 8    1  0.1790275E-005  0.1113963E+03  0.7561462E-02  0.1258006E+00
         -1   -1    0    0    0  501 -0.00000000000E+00  0.00000000000E+00  0.11044945335E+02  0.11044945335E+02  0.00000000000E+00 0.  1.
          1   -1    0    0  501    0  0.00000000000E+00 -0.00000000000E+00 -0.12964355253E+04  0.12964355253E+04  0.00000000000E+00 0. -1.
         23    2    1    2    0    0  0.68052645288E+01 -0.93602545245E+00 -0.34233832528E+03  0.35614461317E+03  0.97960546978E+02 0.  0.
         23    2    1    2    0    0 -0.68052645288E+01  0.93602545245E+00 -0.94305225468E+03  0.95133585746E+03  0.12508065745E+03 0.  0.
          5    1    4    4  502    0 -0.65733004037E+02  0.33705815805E+01 -0.52341497598E+03  0.52755369217E+03  0.41800000000E+01 0.  1.
         -5    1    4    4    0  502  0.58927739508E+02 -0.24345561281E+01 -0.41963727869E+03  0.42378216529E+03  0.41800000000E+01 0.  1.
        -11    1    3    3    0    0  0.50886467046E+02  0.10966494242E+02 -0.16459470764E+03  0.17262999249E+03  0.00000000000E+00 0.  1.
         11    1    3    3    0    0 -0.44081202517E+02 -0.11902519695E+02 -0.17774361764E+03  0.18351462068E+03  0.00000000000E+00 0. -1.
</event>
<event>
 8    1  0.1790275E-005  0.1082007E+03  0.7561462E-02  0.1263939E+00
          2   -1    0    0  501    0  0.00000000000E+00  0.00000000000E+00  0.28430499916E+04  0.28430499916E+04  0.00000000000E+00 0. -1.
         -2   -1    0    0    0  501 -0.00000000000E+00 -0.00000000000E+00 -0.15212083113E+02  0.15212083113E+02  0.00000000000E+00 0.  1.
         23    2    1    2    0    0  0.28064451126E+02  0.27717816369E+02  0.16989501546E+03  0.19707599460E+03  0.91753695336E+02 0.  0.
         23    2    1    2    0    0 -0.28064451126E+02 -0.27717816369E+02  0.26579428930E+04  0.26611860801E+04  0.12527984533E+03 0.  0.
          5    1    4    4  502    0 -0.76110512799E+02 -0.15534528231E+01  0.16231822864E+04  0.16249718246E+04  0.41800000000E+01 0. -1.
         -5    1    4    4    0  502  0.48046061673E+02 -0.26164363545E+02  0.10347606067E+04  0.10362142556E+04  0.41800000000E+01 0.  1.
        -11    1    3    3    0    0  0.39619884342E+02 -0.13987087603E+02  0.32771301912E+02  0.53285383399E+02  0.00000000000E+00 0.  1.
         11    1    3    3    0    0 -0.11555433216E+02  0.41704903972E+02  0.13712371355E+03  0.14379061120E+03  0.00000000000E+00 0. -1.
</event>
<event>
 8    1  0.1790275E-005  0.1291340E+03  0.7561462E-02  0.1228746E+00
         -1   -1    0    0    0  501 -0.00000000000E+00  0.00000000000E+00  0.12910625309E+02  0.12910625309E+02  0.00000000000E+00 0.  1.
          1   -1    0    0  501    0  0.00000000000E+00 -0.00000000000E+00 -0.14456791350E+04  0.14456791350E+04  0.00000000000E+00 0. -1.
         23    2    1    2    0    0 -0.73292996212E+02  0.10301915862E+02 -0.44493215672E+03  0.46011481592E+03  0.90901193484E+02 0.  0.
         23    2    1    2    0    0  0.73292996212E+02 -0.10301915862E+02 -0.98783635294E+03  0.99847494437E+03  0.12511419410E+03 0.  0.
          5    1    4    4  502    0  0.52072896729E+02 -0.65749898762E+02 -0.49720391492E+03  0.50424581423E+03  0.41800000000E+01 0.  1.
         -5    1    4    4    0  502  0.21220099483E+02  0.55447982900E+02 -0.49063243803E+03  0.49422913013E+03  0.41800000000E+01 0.  1.
        -11    1    3    3    0    0 -0.56084026268E+02 -0.35139774383E+02 -0.20891707820E+03  0.21914964593E+03  0.00000000000E+00 0.  1.
         11    1    3    3    0    0 -0.17208969944E+02  0.45441690245E+02 -0.23601507852E+03  0.24096516999E+03  0.00000000000E+00 0. -1.
</event>
<event>
 8    1  0.1790275E-005  0.1086648E+03  0.7561462E-02  0.1263063E+00
          4   -1    0    0  501    0  0.00000000000E+00  0.00000000000E+00  0.10239947042E+03  0.10239947042E+03  0.00000000000E+00 0. -1.
         -4   -1    0    0    0  501 -0.00000000000E+00 -0.00000000000E+00 -0.18850835413E+03  0.18850835413E+03  0.00000000000E+00 0.  1.
         23    2    1    2    0    0  0.81131831818E+02 -0.95026336998E+01 -0.66222967228E+02  0.14018807738E+03  0.92706749864E+02 0.  0.
         23    2    1    2    0    0 -0.81131831818E+02  0.95026336998E+01 -0.19885916488E+02  0.15071974717E+03  0.12509323855E+03 0.  0.
          5    1    4    4  502    0  0.19893382428E+02  0.13777341481E+01  0.31107560433E+02  0.37185985692E+02  0.41800000000E+01 0.  1.
         -5    1    4    4    0  502 -0.10102521425E+03  0.81248995518E+01 -0.50993476921E+02  0.11353376148E+03  0.41800000000E+01 0.  1.
        -11    1    3    3    0    0  0.68484864884E+02 -0.27265098856E+02 -0.35141039060E+01  0.73796417664E+02  0.00000000000E+00 0. -1.
         11    1    3    3    0    0  0.12646966935E+02  0.17762465156E+02 -0.62708863322E+02  0.66391659719E+02  0.00000000000E+00 0.  1.
</event>
<event>
 7    1  0.1843512E-005  0.6092270E+02  0.7561462E-02  0.1394000E+00
          2   -1    0    0  501    0  0.00000000000E+00  0.00000000000E+00  0.14497316353E+04  0.14497316353E+04  0.00000000000E+00 0. -1.
         -2   -1    0    0    0  501 -0.00000000000E+00 -0.00000000000E+00 -0.56325637467E+01  0.56325637467E+01  0.00000000000E+00 0.  1.
         23    2    1    2    0    0 -0.43466192309E+02  0.76152415687E+01  0.12495877413E+04  0.12557263826E+04  0.11589617373E+03 0.  0.
          5    1    3    3  502    0 -0.88640627221E+01 -0.26571960715E+02  0.10453829826E+04  0.10457665578E+04  0.41800000000E+01 0. -1.
         -5    1    3    3    0  502 -0.34602129587E+02  0.34187202283E+02  0.20420475861E+03  0.20995982475E+03  0.41800000000E+01 0.  1.
        -11    1    1    2    0    0  0.12837986641E+02 -0.56047731402E+01  0.71093209562E+02  0.72460139585E+02  0.00000000000E+00 0. -1.
         11    1    1    2    0    0  0.30628205668E+02 -0.20104684285E+01  0.12341812074E+03  0.12717767686E+03  0.00000000000E+00 0.  1.
</event>
<event>
 8    1  0.1790275E-005  0.1496372E+03  0.7561462E-02  0.1200919E+00
          2   -1    0    0  501    0  0.00000000000E+00  0.00000000000E+00  0.15363402764E+04  0.15363402764E+04  0.00000000000E+00 0. -1.
         -2   -1    0    0    0  501 -0.00000000000E+00 -0.00000000000E+00 -0.20308766080E+02  0.20308766080E+02  0.00000000000E+00 0.  1.
         23    2    1    2    0    0  0.46299793518E+00  0.12628420817E+03  0.45603991285E+03  0.48185702886E+03  0.90916877134E+02 0.  0.
         23    2    1    2    0    0 -0.46299793518E+00 -0.12628420817E+03  0.10599915974E+04  0.10747920136E+04  0.12509104778E+03 0.  0.
          5    1    4    4  502    0  0.45758030493E+02 -0.28885375224E+02  0.59396336940E+03  0.59643785833E+03  0.41800000000E+01 0.  1.
         -5    1    4    4    0  502 -0.46221028429E+02 -0.97398832950E+02  0.46602822804E+03  0.47835415526E+03  0.41800000000E+01 0.  1.
        -11    1    3    3    0    0 -0.26278250693E+02  0.54437250642E+02  0.93774543288E+02  0.11156892796E+03  0.00000000000E+00 0.  1.
         11    1    3    3    0    0  0.26741248629E+02  0.71846957532E+02  0.36226536956E+03  0.37028810090E+03  0.00000000000E+00 0. -1.
</event>
<event>
 8    1  0.1790275E-005  0.1057604E+03  0.7561462E-02  0.1268629E+00
         -1   -1    0    0    0  501 -0.00000000000E+00  0.00000000000E+00  0.68765544236E+02  0.68765544236E+02  0.00000000000E+00 0.  1.
          1   -1    0    0  501    0  0.00000000000E+00 -0.00000000000E+00 -0.63358790171E+03  0.63358790171E+03  0.00000000000E+00 0. -1.
         23    2    1    2    0    0 -0.77459060848E+02  0.34572425627E+02 -0.36304889820E+01  0.12384022883E+03  0.90155771331E+02 0.  0.
         23    2    1    2    0    0  0.77459060848E+02 -0.34572425627E+02 -0.56119186849E+03  0.57851321712E+03  0.11200924248E+03 0.  0.
          5    1    4    4  502    0  0.29590628172E+02 -0.59593001090E+02 -0.44904556302E+03  0.45396731283E+03  0.41800000000E+01 0. -1.
         -5    1    4    4    0  502  0.47868432676E+02  0.25020575463E+02 -0.11214630548E+03  0.12454590429E+03  0.41800000000E+01 0.  1.
        -11    1    3    3    0    0 -0.34105396521E+02 -0.17083358253E+01 -0.43029984195E+02  0.54933378041E+02  0.00000000000E+00 0. -1.
         11    1    3    3    0    0 -0.43353664327E+02  0.36280761453E+02  0.39399495213E+02  0.68906850786E+02  0.00000000000E+00 0.  1.
</event>
<event>
 8    1  0.1790275E-005  0.8090581E+02  0.7561462E-02  0.1326500E+00
          1   -1    0    0  501    0  0.00000000000E+00  0.00000000000E+00  0.38830201351E+03  0.38830201351E+03  0.00000000000E+00 0. -1.
         -1   -1    0    0    0  501 -0.00000000000E+00 -0.00000000000E+00 -0.44847144683E+02  0.44847144683E+02  0.00000000000E+00 0.  1.
         23    2    1    2    0    0  0.28708251280E+02  0.61168432723E+02  0.10283986689E+03  0.15366186978E+03  0.92033641398E+02 0.  0.
         23    2    1    2    0    0 -0.28708251280E+02 -0.61168432723E+02  0.24061500194E+03  0.27948728841E+03  0.12510725148E+03 0.  0.
          5    1    4    4  502    0 -0.62215616980E+01 -0.28006544672E+02  0.23730241629E+03  0.23906690184E+03  0.41800000000E+01 0.  1.
         -5    1    4    4    0  502 -0.22486689582E+02 -0.33161888050E+02  0.33125856431E+01  0.40420386577E+02  0.41800000000E+01 0.  1.
        -11    1    3    3    0    0 -0.11916721623E+02  0.48556456635E+02  0.92325069902E+01  0.50842668306E+02  0.00000000000E+00 0.  1.
         11    1    3    3    0    0  0.40624972903E+02  0.12611976088E+02  0.93607359901E+02  0.10281920147E+03  0.00000000000E+00 0. -1.
</event>
<event>
 8    1  0.1790275E-005  0.8360812E+02  0.7561462E-02  0.1319113E+00
          2   -1    0    0  501    0  0.00000000000E+00  0.00000000000E+00  0.26071639979E+03  0.26071639979E+03  0.00000000000E+00 0. -1.
         -2   -1    0    0    0  501 -0.00000000000E+00 -0.00000000000E+00 -0.47553513999E+02  0.47553513999E+02  0.00000000000E+00 0.  1.
         23    2    1    2    0    0  0.12033935974E+02 -0.18013813628E+02  0.63686443475E+02  0.11215788088E+03  0.89744716080E+02 0.  0.
         23    2    1    2    0    0 -0.12033935974E+02  0.18013813628E+02  0.14947644232E+03  0.19611203291E+03  0.12508960608E+03 0.  0.
          5    1    4    4  502    0 -0.44296971144E+02  0.43713930587E+02  0.29162816658E+02  0.68855440274E+02  0.41800000000E+01 0.  1.
         -5    1    4    4    0  502  0.32263035170E+02 -0.25700116959E+02  0.12031362566E+03  0.12725659264E+03  0.41800000000E+01 0.  1.
        -11    1    3    3    0    0 -0.16678502844E+02  0.12978958724E+02 -0.12850946907E+02  0.24734038552E+02  0.00000000000E+00 0.  1.
         11    1    3    3    0    0  0.28712438818E+02 -0.30992772352E+02  0.76537390381E+02  0.87423842327E+02  0.00000000000E+00 0. -1.
</event>
<event>
 8    1  0.1790275E-005  0.8854630E+02  0.7561462E-02  0.1306411E+00
         -2   -1    0    0    0  501 -0.00000000000E+00  0.00000000000E+00  0.60526537229E+02  0.60526537229E+02  0.00000000000E+00 0.  1.
          2   -1    0    0  501    0  0.00000000000E+00 -0.00000000000E+00 -0.43157548537E+03  0.43157548537E+03  0.00000000000E+00 0. -1.
         23    2    1    2    0    0  0.34177185712E+02  0.10099274797E+02  0.11571881752E+01  0.97824426580E+02  0.91094478300E+02 0.  0.
         23    2    1    2    0    0 -0.34177185712E+02 -0.10099274797E+02 -0.37220613632E+03  0.39427759602E+03  0.12508932583E+03 0.  0.
          5    1    4    4  502    0  0.25598845786E+02  0.22429088243E+02 -0.30679467392E+02  0.46011596630E+02  0.41800000000E+01 0. -1.
         -5    1    4    4    0  502 -0.59776031498E+02 -0.32528363040E+02 -0.34152666892E+03  0.34826599939E+03  0.41800000000E+01 0. -1.
        -11    1    3    3    0    0 -0.10568857927E+02  0.25255100566E+02 -0.30477242701E+02  0.40968075194E+02  0.00000000000E+00 0. -1.
         11    1    3    3    0    0  0.44746043639E+02 -0.15155825769E+02  0.31634430876E+02  0.56856351386E+02  0.00000000000E+00 0.  1.
</event>
<event>
 8    1  0.1790275E-005  0.2830832E+03  0.7561462E-02  0.1094017E+00
          1   -1    0    0  501    0  0.00000000000E+00  0.00000000000E+00  0.49847575788E+03  0.49847575788E+03  0.00000000000E+00 0. -1.
         -1   -1    0    0    0  501 -0.00000000000E+00 -0.00000000000E+00 -0.24483242489E+03  0.24483242489E+03  0.00000000000E+00 0.  1.
         23    2    1    2    0    0  0.19779119544E+03 -0.18433546720E+03 -0.78503772686E+02  0.29713620685E+03  0.95006113682E+02 0.  0.
         23    2    1    2    0    0 -0.19779119544E+03  0.18433546720E+03  0.33214710568E+03  0.44617197591E+03  0.12508721285E+03 0.  0.
          5    1    4    4  502    0 -0.91502519616E+02  0.13739793871E+02  0.14143226610E+03  0.16906227056E+03  0.41800000000E+01 0.  1.
         -5    1    4    4    0  502 -0.10628867582E+03  0.17059567333E+03  0.19071483958E+03  0.27710970536E+03  0.41800000000E+01 0.  1.
        -11    1    3    3    0    0  0.71147118276E+02 -0.89237348181E+02 -0.78927382478E+02  0.13876148044E+03  0.00000000000E+00 0.  1.
         11    1    3    3    0    0  0.12664407716E+03 -0.95098119019E+02  0.42360979171E+00  0.15837472641E+03  0.00000000000E+00 0. -1.
</event>
<event>
 8    1  0.1790275E-005  0.1054580E+03  0.7561462E-02  0.1269220E+00
         -2   -1    0    0    0  501 -0.00000000000E+00  0.00000000000E+00  0.42867435969E+02  0.42867435969E+02  0.00000000000E+00 0. -1.
          2   -1    0    0  501    0  0.00000000000E+00 -0.00000000000E+00 -0.40266858522E+03  0.40266858522E+03  0.00000000000E+00 0.  1.
         23    2    1    2    0    0 -0.63934267567E+02  0.40375424611E+02 -0.17001750306E+03  0.20598890136E+03  0.88361250859E+02 0.  0.
         23    2    1    2    0    0  0.63934267567E+02 -0.40375424611E+02 -0.18978364619E+03  0.23954711983E+03  0.12508886751E+03 0.  0.
          5    1    4    4  502    0  0.75855841273E+02 -0.62383436101E+02 -0.19027324592E+03  0.21416624913E+03  0.41800000000E+01 0.  1.
         -5    1    4    4    0  502 -0.11921573706E+02  0.22008011490E+02  0.48959973207E+00  0.25380870696E+02  0.41800000000E+01 0.  1.
        -11    1    3    3    0    0 -0.30878178918E+02  0.44246850126E+02 -0.16337012184E+03  0.17204953470E+03  0.00000000000E+00 0.  1.
         11    1    3    3    0    0 -0.33056088648E+02 -0.38714255145E+01 -0.66473812218E+01  0.33939366661E+02  0.00000000000E+00 0. -1.
</event>
<event>
 8    1  0.1790275E-005  0.2232157E+03  0.7561462E-02  0.1131508E+00
         -2   -1    0    0    0  501 -0.00000000000E+00  0.00000000000E+00  0.74458896273E+02  0.74458896273E+02  0.00000000000E+00 0.  1.
          2   -1    0    0  501    0  0.00000000000E+00 -0.00000000000E+00 -0.98234625624E+03  0.98234625624E+03  0.00000000000E+00 0. -1.
         23    2    1    2    0    0 -0.17420495269E+03  0.12758903201E+03 -0.20694357178E+03  0.31276466560E+03  0.91486433494E+02 0.  0.
         23    2    1    2    0    0  0.17420495269E+03 -0.12758903201E+03 -0.70094378819E+03  0.74404048692E+03  0.12509086835E+03 0.  0.
          5    1    4    4  502    0  0.87619102348E+02 -0.19982518890E+02 -0.43645956134E+03  0.44563530969E+03  0.41800000000E+01 0. -1.
         -5    1    4    4    0  502  0.86585850341E+02 -0.10760651312E+03 -0.26448422685E+03  0.29840517723E+03  0.41800000000E+01 0. -1.
        -11    1    3    3    0    0 -0.21656488340E+02  0.30695678636E+02 -0.89955509851E+02  0.97484470182E+02  0.00000000000E+00 0. -1.
         11    1    3    3    0    0 -0.15254846435E+03  0.96893353375E+02 -0.11698806193E+03  0.21528019541E+03  0.00000000000E+00 0.  1.
</event>
<event>
 8    1  0.1790275E-005  0.1889329E+03  0.7561462E-02  0.1159427E+00
          2   -1    0    0  501    0  0.00000000000E+00  0.00000000000E+00  0.92847016082E+03  0.92847016082E+03  0.00000000000E+00 0. -1.
         -2   -1    0    0    0  501 -0.00000000000E+00 -0.00000000000E+00 -0.58917008757E+02  0.58917008757E+02  0.00000000000E+00 0.  1.
         23    2    1    2    0    0 -0.16058731972E+03 -0.71455373751E+02  0.19006869306E+03  0.27440727567E+03  0.90989489318E+02 0.  0.
         23    2    1    2    0    0  0.16058731972E+03  0.71455373751E+02  0.67948445900E+03  0.71297989391E+03  0.12548721609E+03 0.  0.
          5    1    4    4  502    0  0.62691549558E+02  0.71522234408E+02  0.49517223399E+03  0.50424069066E+03  0.41800000000E+01 0. -1.
         -5    1    4    4    0  502  0.97895770157E+02 -0.66860656746E-01  0.18431222501E+03  0.20873920325E+03  0.41800000000E+01 0. -1.
        -11    1    3    3    0    0 -0.11191674699E+03 -0.19704242536E+02  0.65932530145E+02  0.13138003639E+03  0.00000000000E+00 0.  1.
         11    1    3    3    0    0 -0.48670572725E+02 -0.51751131215E+02  0.12413616292E+03  0.14302723928E+03  0.00000000000E+00 0. -1.
</event>
<event>
 8    1  0.1790275E-005  0.9135334E+02  0.7561462E-02  0.1299607E+00
         -1   -1    0    0    0  501 -0.00000000000E+00  0.00000000000E+00  0.51730701934E+02  0.51730701934E+02  0.00000000000E+00 0.  1.
          1   -1    0    0  501    0  0.00000000000E+00 -0.00000000000E+00 -0.40133045361E+03  0.40133045361E+03  0.00000000000E+00 0. -1.
         23    2    1    2    0    0 -0.17143316187E+02  0.49961276377E+02 -0.29665160532E+02  0.10762234480E+03  0.88952374470E+02 0.  0.
         23    2    1    2    0    0  0.17143316187E+02 -0.49961276377E+02 -0.31993459114E+03  0.34543881074E+03  0.11907899449E+03 0.  0.
          5    1    4    4  502    0 -0.10306398644E+02 -0.78376984828E+02 -0.13688144540E+03  0.15812392639E+03  0.41800000000E+01 0. -1.
         -5    1    4    4    0  502  0.27449714831E+02  0.28415708451E+02 -0.18305314574E+03  0.18731488435E+03  0.41800000000E+01 0.  1.
        -11    1    3    3    0    0 -0.21367910378E+02  0.99314095341E+01 -0.55155480812E+02  0.59977892201E+02  0.00000000000E+00 0. -1.
         11    1    3    3    0    0  0.42245941913E+01  0.40029866843E+02  0.25490320280E+02  0.47644452600E+02  0.00000000000E+00 0.  1.
</event>
<event>
 8    1  0.1790275E-005  0.1402497E+03  0.7561462E-02  0.1212993E+00
         -1   -1    0    0    0  501 -0.00000000000E+00  0.00000000000E+00  0.36393384913E+03  0.36393384913E+03  0.00000000000E+00 0.  1.
          1   -1    0    0  501    0  0.00000000000E+00 -0.00000000000E+00 -0.73097508912E+02  0.73097508912E+02  0.00000000000E+00 0. -1.
         23    2    1    2    0    0 -0.79658118657E+02 -0.49659710958E+02  0.23902471681E+03  0.27227775704E+03  0.90503364414E+02 0.  0.
         23    2    1    2    0    0  0.79658118657E+02  0.49659710958E+02  0.51811623404E+02  0.16475360100E+03  0.12509117460E+03 0.  0.
          5    1    4    4  502    0  0.17846475314E+02 -0.38399737818E+02  0.36384086595E+02  0.55984914959E+02  0.41800000000E+01 0.  1.
         -5    1    4    4    0  502  0.61811643343E+02  0.88059448776E+02  0.15427536809E+02  0.10876868604E+03  0.41800000000E+01 0.  1.
        -11    1    3    3    0    0 -0.99095607427E+02 -0.49660684929E+02  0.20725589167E+03  0.23503431169E+03  0.00000000000E+00 0.  1.
         11    1    3    3    0    0  0.19437488770E+02  0.97397111051E-03  0.31768825140E+02  0.37243445348E+02  0.00000000000E+00 0. -1.
</event>
<event>
 8    1  0.1790275E-005  0.8651266E+02  0.7561462E-02  0.1311524E+00
          1   -1    0    0  501    0  0.00000000000E+00  0.00000000000E+00  0.85889908506E+02  0.85889908506E+02  0.00000000000E+00 0. -1.
         -1   -1    0    0    0  501 -0.00000000000E+00 -0.00000000000E+00 -0.18817924385E+03  0.18817924385E+03  0.00000000000E+00 0.  1.
         23    2    1    2    0    0 -0.62515806204E+02  0.89574201557E+01 -0.66331624930E+02  0.12940099510E+03  0.91412644993E+02 0.  0.
         23    2    1    2    0    0  0.62515806204E+02 -0.89574201557E+01 -0.35957710413E+02  0.14466815726E+03  0.12508979729E+03 0.  0.
          5    1    4    4  502    0  0.29156637823E+02 -0.21227403282E+02  0.44012343408E+02  0.57054981829E+02  0.41800000000E+01 0. -1.
         -5    1    4    4    0  502  0.33359168381E+02  0.12269983127E+02 -0.79970053821E+02  0.87613175431E+02  0.41800000000E+01 0. -1.
        -11    1    3    3    0    0 -0.40355384629E+02 -0.33885086993E+02 -0.73456321124E+01  0.53204459401E+02  0.00000000000E+00 0. -1.
         11    1    3    3    0    0 -0.22160421575E+02  0.42842507148E+02 -0.58985992817E+02  0.76196535694E+02  0.00000000000E+00 0.  1.
</event>
<event>
 8    1  0.1790275E-005  0.1143736E+03  0.7561462E-02  0.1252679E+00
         -2   -1    0    0    0  501 -0.00000000000E+00  0.00000000000E+00  0.36474591513E+03  0.36474591513E+03  0.00000000000E+00 0.  1.
          2   -1    0    0  501    0  0.00000000000E+00 -0.00000000000E+00 -0.43926586928E+02  0.43926586928E+02  0.00000000000E+00 0. -1.
         23    2    1    2    0    0 -0.50928534414E+02  0.24494836052E+02  0.20231202791E+03  0.22732925871E+03  0.86917907350E+02 0.  0.
         23    2    1    2    0    0  0.50928534414E+02 -0.24494836052E+02  0.11850730028E+03  0.18134324334E+03  0.12509068340E+03 0.  0.
          5    1    4    4  502    0  0.87032052413E+02 -0.18396491338E+02  0.46521660561E+02  0.10047261489E+03  0.41800000000E+01 0. -1.
         -5    1    4    4    0  502 -0.36103517999E+02 -0.60983447140E+01  0.71985639722E+02  0.80870628453E+02  0.41800000000E+01 0. -1.
        -11    1    3    3    0    0 -0.39258770086E+02 -0.28540754291E+02  0.10993580562E+03  0.12017365369E+03  0.00000000000E+00 0.  1.
         11    1    3    3    0    0 -0.11669764328E+02  0.53035590344E+02  0.92376222294E+02  0.10715560502E+03  0.00000000000E+00 0. -1.
</event>
<event>
 8    1  0.1790275E-005  0.1034394E+03  0.7561462E-02  0.1273225E+00
          2   -1    0    0  501    0  0.00000000000E+00  0.00000000000E+00  0.96530653903E+03  0.96530653903E+03  0.00000000000E+00 0. -1.
         -2   -1    0    0    0  501 -0.00000000000E+00 -0.00000000000E+00 -0.18089952260E+02  0.18089952260E+02  0.00000000000E+00 0.  1.
         23    2    1    2    0    0  0.61430181721E+02 -0.14762516061E+02  0.25615452011E+03  0.27826895336E+03  0.88469616971E+02 0.  0.
         23    2    1    2    0    0 -0.61430181721E+02  0.14762516061E+02  0.69106206667E+03  0.70512753793E+03  0.12508583316E+03 0.  0.
          5    1    4    4  502    0 -0.98639430136E+02  0.37364187202E+01  0.54806234465E+03  0.55689631354E+03  0.41800000000E+01 0.  1.
         -5    1    4    4    0  502  0.37209248415E+02  0.11026097340E+02  0.14299972201E+03  0.14823122440E+03  0.41800000000E+01 0.  1.
        -11    1    3    3    0    0  0.49237839634E+02  0.84103980232E+00  0.25355976088E+03  0.25829755039E+03  0.00000000000E+00 0. -1.
         11    1    3    3    0    0  0.12192342087E+02 -0.15603555863E+02  0.25947592244E+01  0.19971402969E+02  0.00000000000E+00 0.  1.
</event>
<event>
 8    1  0.1790275E-005  0.1271309E+03  0.7561462E-02  0.1231776E+00
         -2   -1    0    0    0  501 -0.00000000000E+00  0.00000000000E+00  0.44210136823E+02  0.44210136823E+02  0.00000000000E+00 0.  1.
          2   -1    0    0  501    0  0.00000000000E+00 -0.00000000000E+00 -0.45997154654E+03  0.45997154654E+03  0.00000000000E+00 0. -1.
         23    2    1    2    0    0  0.31403586020E+02  0.77102337602E+02 -0.14400450915E+03  0.19364906650E+03  0.99154962668E+02 0.  0.
         23    2    1    2    0    0 -0.31403586020E+02 -0.77102337602E+02 -0.27175690056E+03  0.31053261686E+03  0.12509091675E+03 0.  0.
          5    1    4    4  502    0 -0.33978083527E+02 -0.99700817118E+02 -0.26681613887E+03  0.28688514680E+03  0.41800000000E+01 0.  1.
         -5    1    4    4    0  502  0.25744975075E+01  0.22598479516E+02 -0.49407616866E+01  0.23647470053E+02  0.41800000000E+01 0.  1.
        -11    1    3    3    0    0 -0.17272527830E+02 -0.14130123966E+02 -0.46244858632E+02  0.51347712420E+02  0.00000000000E+00 0.  1.
         11    1    3    3    0    0  0.48676113849E+02  0.91232461568E+02 -0.97759650523E+02  0.14230135408E+03  0.00000000000E+00 0. -1.
</event>
<event>
 8    1  0.2754677E-005  0.9969015E+02  0.7561462E-02  0.1280949E+00
         -1   -1    0    0    0  501 -0.00000000000E+00  0.00000000000E+00  0.16937020068E+02  0.16937020068E+02  0.00000000000E+00 0.  1.
          1   -1    0    0  501    0  0.00000000000E+00 -0.00000000000E+00 -0.94804231021E+03  0.94804231021E+03  0.00000000000E+00 0. -1.
         23    2    1    2    0    0  0.31727063565E+02 -0.55141245426E+01 -0.24550440728E+03  0.26731681899E+03  0.10074152861E+03 0.  0.
         23    2    1    2    0    0 -0.31727063565E+02  0.55141245426E+01 -0.68560088286E+03  0.69766251129E+03  0.12508955573E+03 0.  0.
          5    1    4    4  502    0  0.32707918056E+02 -0.13045976088E+02 -0.70625429137E+02  0.79028026905E+02  0.41800000000E+01 0. -1.
         -5    1    4    4    0  502 -0.64434981621E+02  0.18560100631E+02 -0.61497545372E+03  0.61863448439E+03  0.41800000000E+01 0. -1.
        -11    1    3    3    0    0  0.35125951083E+02 -0.45009161144E+02 -0.87983042030E+02  0.10488409179E+03  0.00000000000E+00 0.  1.
         11    1    3    3    0    0 -0.33988875182E+01  0.39495036602E+02 -0.15752136525E+03  0.16243272720E+03  0.00000000000E+00 0. -1.
</event>
<event>
 8    1  0.1790275E-005  0.1251027E+03  0.7561462E-02  0.1234909E+00
          1   -1    0    0  501    0  0.00000000000E+00  0.00000000000E+00  0.12184347662E+04  0.12184347662E+04  0.00000000000E+00 0. -1.
         -1   -1    0    0    0  501 -0.00000000000E+00 -0.00000000000E+00 -0.13810542513E+02  0.13810542513E+02  0.00000000000E+00 0.  1.
         23    2    1    2    0    0  0.18011261305E+02 -0.66090758873E+02  0.45058770590E+03  0.46483872117E+03  0.91396728884E+02 0.  0.
         23    2    1    2    0    0 -0.18011261305E+02  0.66090758873E+02  0.75403651782E+03  0.76740658757E+03  0.12509758792E+03 0.  0.
          5    1    4    4  502    0 -0.65252477338E+02  0.13899356487E+02  0.26448594074E+03  0.27280279170E+03  0.41800000000E+01 0.  1.
         -5    1    4    4    0  502  0.47241216033E+02  0.52191402386E+02  0.48955057708E+03  0.49460379587E+03  0.41800000000E+01 0.  1.
        -11    1    3    3    0    0  0.51889963218E+02 -0.58351186945E+02  0.27640513360E+03  0.28722330543E+03  0.00000000000E+00 0.  1.
         11    1    3    3    0    0 -0.33878701913E+02 -0.77395719274E+01  0.17418257230E+03  0.17761541574E+03  0.00000000000E+00 0. -1.
</event>
<event>
 8    1  0.1790275E-005  0.1119266E+03  0.7561462E-02  0.1257043E+00
          2   -1    0    0  501    0  0.00000000000E+00  0.00000000000E+00  0.63656780989E+03  0.63656780989E+03  0.00000000000E+00 0. -1.
         -2   -1    0    0    0  501 -0.00000000000E+00 -0.00000000000E+00 -0.37441454911E+02  0.37441454911E+02  0.00000000000E+00 0.  1.
         23    2    1    2    0    0  0.77445128975E+02  0.31391577229E+02  0.12237402943E+03  0.17408664363E+03  0.91365076961E+02 0.  0.
         23    2    1    2    0    0 -0.77445128975E+02 -0.31391577229E+02  0.47675232555E+03  0.49992262117E+03  0.12508664245E+03 0.  0.
          5    1    4    4  502    0  0.18343237882E+02  0.15556494449E+02  0.22701938867E+03  0.22832817200E+03  0.41800000000E+01 0. -1.
         -5    1    4    4    0  502 -0.95788366857E+02 -0.46948071679E+02  0.24973293688E+03  0.27159444918E+03  0.41800000000E+01 0. -1.
        -11    1    3    3    0    0  0.55954020320E+02  0.40774349432E+02  0.24498284920E+02  0.73440900904E+02  0.00000000000E+00 0.  1.
         11    1    3    3    0    0  0.21491108655E+02 -0.93827722026E+01  0.97875744506E+02  0.10064574272E+03  0.00000000000E+00 0. -1.
</event>
<event>
 8    1  0.1790275E-005  0.1181236E+03  0.7561462E-02  0.1246225E+00
         -1   -1    0    0    0  501 -0.00000000000E+00  0.00000000000E+00  0.12090372431E+02  0.12090372431E+02  0.00000000000E+00 0.  1.
          1   -1    0    0  501    0  0.00000000000E+00 -0.00000000000E+00 -0.20353632290E+04  0.20353632290E+04  0.00000000000E+00 0. -1.
         23    2    1    2    0    0 -0.60084166543E+02 -0.37172742038E+02 -0.37915142457E+03  0.39706735796E+03  0.94418028885E+02 0.  0.
         23    2    1    2    0    0  0.60084166543E+02  0.37172742038E+02 -0.16441214320E+04  0.16503862434E+04  0.12509016620E+03 0.  0.
          5    1    4    4  502    0  0.77954957944E+02  0.65439403383E+02 -0.94972130559E+03  0.95516873990E+03  0.41800000000E+01 0. -1.
         -5    1    4    4    0  502 -0.17870791400E+02 -0.28266661345E+02 -0.69440012636E+03  0.69521750353E+03  0.41800000000E+01 0. -1.
        -11    1    3    3    0    0  0.36820862467E+01  0.16761902649E+02 -0.13047658056E+02  0.21558305135E+02  0.00000000000E+00 0.  1.
         11    1    3    3    0    0 -0.63766252790E+02 -0.53934644687E+02 -0.36610376652E+03  0.37550905282E+03  0.00000000000E+00 0. -1.
</event>
<event>
 8    1  0.1790275E-005  0.8755519E+02  0.7561462E-02  0.1308883E+00
          3   -1    0    0  501    0  0.00000000000E+00  0.00000000000E+00  0.75912963356E+02  0.75912963356E+02  0.00000000000E+00 0. -1.
         -3   -1    0    0    0  501 -0.00000000000E+00 -0.00000000000E+00 -0.16950670116E+03  0.16950670116E+03  0.00000000000E+00 0.  1.
         23    2    1    2    0    0 -0.13783640438E+01  0.85791686896E+01 -0.76087885287E+02  0.11881922528E+03  0.90846794037E+02 0.  0.
         23    2    1    2    0    0  0.13783640438E+01 -0.85791686896E+01 -0.17505852520E+02  0.12660043924E+03  0.12508282983E+03 0.  0.
          5    1    4    4  502    0  0.15089787662E+02 -0.63250009175E+02 -0.24578542713E+02  0.69640810694E+02  0.41800000000E+01 0.  1.
         -5    1    4    4    0  502 -0.13711423618E+02  0.54670840485E+02  0.70726901926E+01  0.56959628541E+02  0.41800000000E+01 0.  1.
        -11    1    3    3    0    0 -0.95994783237E+01 -0.20808663528E+02 -0.84184080332E+02  0.87247405940E+02  0.00000000000E+00 0.  1.
         11    1    3    3    0    0  0.82211142798E+01  0.29387832218E+02  0.80961950457E+01  0.31571819344E+02  0.00000000000E+00 0. -1.
</event>
<event>
 6    1  0.1790275E-005  0.1086947E+03  0.7561462E-02  0.1263006E+00
         -2   -1    0    0    0  501 -0.00000000000E+00  0.00000000000E+00  0.10830054945E+03  0.10830054945E+03  0.00000000000E+00 0.  1.
          2   -1    0    0  501    0  0.00000000000E+00 -0.00000000000E+00 -0.12610600676E+03  0.12610600676E+03  0.00000000000E+00 0. -1.
          5    1    1    2  502    0  0.77132115652E+02  0.92492263553E+01 -0.46859018691E+02  0.90819334317E+02  0.41800000000E+01 0. -1.
         -5    1    1    2    0  502 -0.80365848152E+02  0.21769930558E+02  0.23015582977E+02  0.86485772734E+02  0.41800000000E+01 0.  1.
        -11    1    1    2    0    0  0.18678776023E+02  0.29493946892E+01  0.58207863633E+01  0.19785781678E+02  0.00000000000E+00 0. -1.
         11    1    1    2    0    0 -0.15445043523E+02 -0.33968551603E+02  0.21719204384E+00  0.37315667484E+02  0.00000000000E+00 0.  1.
</event>
<event>
 8    1  0.1790275E-005  0.1343436E+03  0.7561462E-02  0.1221149E+00
          1   -1    0    0  501    0  0.00000000000E+00  0.00000000000E+00  0.55634597103E+03  0.55634597103E+03  0.00000000000E+00 0. -1.
         -1   -1    0    0    0  501 -0.00000000000E+00 -0.00000000000E+00 -0.50876761361E+02  0.50876761361E+02  0.00000000000E+00 0.  1.
         23    2    1    2    0    0 -0.34838983937E+01  0.11134533919E+03  0.11879837251E+03  0.18583040726E+03  0.89498406928E+02 0.  0.
         23    2    1    2    0    0  0.34838983937E+01 -0.11134533919E+03  0.38667083716E+03  0.42139232514E+03  0.12508890146E+03 0.  0.
          5    1    4    4  502    0  0.43230330418E+02 -0.99547277997E+01  0.20290831095E+03  0.20774314219E+03  0.41800000000E+01 0. -1.
         -5    1    4    4    0  502 -0.39746432024E+02 -0.10139061139E+03  0.18376252620E+03  0.21364918294E+03  0.41800000000E+01 0. -1.
        -11    1    3    3    0    0 -0.16411088991E+02  0.61759948457E+02  0.88316467443E+01  0.64510565487E+02  0.00000000000E+00 0.  1.
         11    1    3    3    0    0  0.12927190597E+02  0.49585390730E+02  0.10996672577E+03  0.12131984177E+03  0.00000000000E+00 0. -1.
</event>
<event>
 8    1  0.1790275E-005  0.9419635E+02  0.7561462E-02  0.1292996E+00
         -2   -1    0    0    0  501 -0.00000000000E+00  0.00000000000E+00  0.45626545095E+02  0.45626545095E+02  0.00000000000E+00 0. -1.
          2   -1    0    0  501    0  0.00000000000E+00 -0.00000000000E+00 -0.24959417634E+03  0.24959417634E+03  0.00000000000E+00 0.  1.
         23    2    1    2    0    0  0.17372285196E+02  0.13273187628E+02 -0.43118498431E+02  0.90287945967E+02  0.76254406281E+02 0.  0.
         23    2    1    2    0    0 -0.17372285196E+02 -0.13273187628E+02 -0.16084913281E+03  0.20493277547E+03  0.12508806950E+03 0.  0.
          5    1    4    4  502    0 -0.61965933449E+02 -0.16337087478E+02 -0.14274567347E+03  0.15652628223E+03  0.41800000000E+01 0. -1.
         -5    1    4    4    0  502  0.44593648253E+02  0.30638998504E+01 -0.18103459341E+02  0.48406493231E+02  0.41800000000E+01 0. -1.
        -11    1    3    3    0    0  0.33500041318E+02  0.37430984487E+02 -0.28814976687E+02  0.57910571137E+02  0.00000000000E+00 0. -1.
         11    1    3    3    0    0 -0.16127756122E+02 -0.24157796859E+02 -0.14303521744E+02  0.32377374830E+02  0.00000000000E+00 0.  1.
</event>
<event>
 8    1  0.1790275E-005  0.1014160E+03  0.7561462E-02  0.1277346E+00
          4   -1    0    0  501    0  0.00000000000E+00  0.00000000000E+00  0.13132224666E+03  0.13132224666E+03  0.00000000000E+00 0.  1.
         -4   -1    0    0    0  501 -0.00000000000E+00 -0.00000000000E+00 -0.13985871503E+03  0.13985871503E+03  0.00000000000E+00 0. -1.
         23    2    1    2    0    0 -0.56115779307E+02  0.55412855428E+02  0.14483947850E+02  0.12150041715E+03  0.91285274763E+02 0.  0.
         23    2    1    2    0    0  0.56115779307E+02 -0.55412855428E+02 -0.23020416228E+02  0.14968054454E+03  0.12511898583E+03 0.  0.
          5    1    4    4  502    0  0.16051157540E+02 -0.35663445957E+01  0.49220057956E+02  0.52061934053E+02  0.41800000000E+01 0.  1.
         -5    1    4    4    0  502  0.40064621767E+02 -0.51846510832E+02 -0.72240474184E+02  0.97618610485E+02  0.41800000000E+01 0.  1.
        -11    1    3    3    0    0  0.25232763388E+02  0.15308222775E+02  0.79657215892E+01  0.30569376068E+02  0.00000000000E+00 0. -1.
         11    1    3    3    0    0 -0.81348542695E+02  0.40104632652E+02  0.65182262608E+01  0.90931041083E+02  0.00000000000E+00 0.  1.
</event>
<event>
 8    1  0.1790275E-005  0.8555261E+02  0.7561462E-02  0.1313994E+00
          1   -1    0    0  501    0  0.00000000000E+00  0.00000000000E+00  0.13517589028E+04  0.13517589028E+04  0.00000000000E+00 0. -1.
         -1   -1    0    0    0  501 -0.00000000000E+00 -0.00000000000E+00 -0.13438549434E+02  0.13438549434E+02  0.00000000000E+00 0.  1.
         23    2    1    2    0    0 -0.49070077378E+00  0.63261649718E+02  0.33674668903E+03  0.35386206717E+03  0.88418057522E+02 0.  0.
         23    2    1    2    0    0  0.49070077378E+00 -0.63261649718E+02  0.10015736643E+04  0.10113353850E+04  0.12508868406E+03 0.  0.
          5    1    4    4  502    0 -0.93667721183E+00 -0.34453336357E+02  0.95964186294E+03  0.96026969506E+03  0.41800000000E+01 0.  1.
         -5    1    4    4    0  502  0.14273779856E+01 -0.28808313361E+02  0.41931801374E+02  0.51065689980E+02  0.41800000000E+01 0.  1.
        -11    1    3    3    0    0  0.12179135580E+02  0.82944313682E+02  0.23650837919E+03  0.25092688964E+03  0.00000000000E+00 0. -1.
         11    1    3    3    0    0 -0.12669836354E+02 -0.19682663964E+02  0.10023830984E+03  0.10293517753E+03  0.00000000000E+00 0.  1.
</event>
<event>
 8    1  0.1790275E-005  0.1216162E+03  0.7561462E-02  0.1240454E+00
         -1   -1    0    0    0  501 -0.00000000000E+00  0.00000000000E+00  0.33474825817E+03  0.33474825817E+03  0.00000000000E+00 0.  1.
          1   -1    0    0  501    0  0.00000000000E+00 -0.00000000000E+00 -0.51474860996E+02  0.51474860996E+02  0.00000000000E+00 0. -1.
         23    2    1    2    0    0 -0.50332643500E+02  0.40655524688E+02  0.18031538998E+03  0.21176731683E+03  0.90252478770E+02 0.  0.
         23    2    1    2    0    0  0.50332643500E+02 -0.40655524688E+02  0.10295800720E+03  0.17445580234E+03  0.12509288163E+03 0.  0.
          5    1    4    4  502    0  0.72002946274E+02  0.17567686706E+02  0.34317612281E+02  0.81781530928E+02  0.41800000000E+01 0. -1.
         -5    1    4    4    0  502 -0.21670302774E+02 -0.58223211394E+02  0.68640394915E+02  0.92674271410E+02  0.41800000000E+01 0. -1.
        -11    1    3    3    0    0 -0.69292990397E+02  0.90557933951E+01  0.88027393036E+02  0.11239371796E+03  0.00000000000E+00 0. -1.
         11    1    3    3    0    0  0.18960346897E+02  0.31599731293E+02  0.92287996946E+02  0.99373598871E+02  0.00000000000E+00 0.  1.
</event>
<event>
 8    1  0.1790275E-005  0.2991441E+03  0.7561462E-02  0.1085669E+00
         -1   -1    0    0    0  501 -0.00000000000E+00  0.00000000000E+00  0.14800473074E+03  0.14800473074E+03  0.00000000000E+00 0.  1.
          1   -1    0    0  501    0  0.00000000000E+00 -0.00000000000E+00 -0.70971483357E+03  0.70971483357E+03  0.00000000000E+00 0. -1.
         23    2    1    2    0    0 -0.20583052503E+03 -0.19830156023E+03 -0.41793629064E+03  0.51420075794E+03  0.89676990397E+02 0.  0.
         23    2    1    2    0    0  0.20583052503E+03  0.19830156023E+03 -0.14377381219E+03  0.34351880636E+03  0.12507816528E+03 0.  0.
          5    1    4    4  502    0  0.16165767436E+03  0.85806642281E+02 -0.12368371293E+03  0.22093238057E+03  0.41800000000E+01 0. -1.
         -5    1    4    4    0  502  0.44172850672E+02  0.11249491795E+03 -0.20090099257E+02  0.12258642579E+03  0.41800000000E+01 0. -1.
        -11    1    3    3    0    0 -0.11593094740E+03 -0.15750146949E+03 -0.32073265540E+03  0.37565427417E+03  0.00000000000E+00 0.  1.
         11    1    3    3    0    0 -0.89899577633E+02 -0.40800090737E+02 -0.97203635240E+02  0.13854648378E+03  0.00000000000E+00 0. -1.
</event>
<event>
 8    1  0.1790275E-005  0.1284127E+03  0.7561462E-02  0.1229830E+00
         -1   -1    0    0    0  501 -0.00000000000E+00  0.00000000000E+00  0.29111601112E+03  0.29111601112E+03  0.00000000000E+00 0.  1.
          1   -1    0    0  501    0  0.00000000000E+00 -0.00000000000E+00 -0.69368437340E+02  0.69368437340E+02  0.00000000000E+00 0. -1.
         23    2    1    2    0    0  0.17612022327E+02  0.62797252838E+02  0.17817261163E+03  0.21283668039E+03  0.96438035497E+02 0.  0.
         23    2    1    2    0    0 -0.17612022327E+02 -0.62797252838E+02  0.43574962154E+02  0.14764776807E+03  0.12508959907E+03 0.  0.
          5    1    4    4  502    0  0.52134839341E+02 -0.10988016337E+02  0.97931079946E+01  0.54333740349E+02  0.41800000000E+01 0. -1.
         -5    1    4    4    0  502 -0.69746861668E+02 -0.51809236501E+02  0.33781854160E+02  0.93314027723E+02  0.41800000000E+01 0. -1.
        -11    1    3    3    0    0  0.56099762970E+02  0.21860029602E+02  0.89977164673E+02  0.10826326460E+03  0.00000000000E+00 0. -1.
         11    1    3    3    0    0 -0.38487740643E+02  0.40937223236E+02  0.88195446953E+02  0.10457341579E+03  0.00000000000E+00 0.  1.
</event>
<event>
 8    1  0.1790275E-005  0.1361721E+03  0.7561462E-02  0.1218575E+00
          2   -1    0    0  501    0  0.00000000000E+00  0.00000000000E+00  0.78306607843E+03  0.78306607843E+03  0.00000000000E+00 0.  1.
         -2   -1    0    0    0  501 -0.00000000000E+00 -0.00000000000E+00 -0.29549840984E+02  0.29549840984E+02  0.00000000000E+00 0. -1.
         23    2    1    2    0    0 -0.91201503336E+02  0.54884829094E+02  0.34045784461E+03  0.36809926337E+03  0.90859589826E+02 0.  0.
         23    2    1    2    0    0  0.91201503336E+02 -0.54884829094E+02  0.41305839284E+03  0.44451665604E+03  0.12509101859E+03 0.  0.
          5    1    4    4  502    0  0.11423916990E+03 -0.13746024686E+02  0.32054709469E+03  0.34059866918E+03  0.41800000000E+01 0. -1.
         -5    1    4    4    0  502 -0.23037666560E+02 -0.41138804408E+02  0.92511298147E+02  0.10391798686E+03  0.41800000000E+01 0. -1.
        -11    1    3    3    0    0 -0.48192249769E+02  0.44566263413E+02  0.30333305891E+03  0.31035397435E+03  0.00000000000E+00 0.  1.
         11    1    3    3    0    0 -0.43009253567E+02  0.10318565681E+02  0.37124785701E+02  0.57745289015E+02  0.00000000000E+00 0. -1.
</event>
<event>
 8    1  0.1790275E-005  0.1015120E+03  0.7561462E-02  0.1277148E+00
          2   -1    0    0  501    0  0.00000000000E+00  0.00000000000E+00  0.86081771746E+03  0.86081771746E+03  0.00000000000E+00 0. -1.
         -2   -1    0    0    0  501 -0.00000000000E+00 -0.00000000000E+00 -0.21992075991E+02  0.21992075991E+02  0.00000000000E+00 0.  1.
         23    2    1    2    0    0  0.21559891984E+02 -0.64558880949E+02  0.21199180203E+03  0.24000228337E+03  0.89598514743E+02 0.  0.
         23    2    1    2    0    0 -0.21559891984E+02  0.64558880949E+02  0.62683383944E+03  0.64280751008E+03  0.12509258450E+03 0.  0.
          5    1    4    4  502    0 -0.39833746895E+02  0.22278245021E+02  0.67643495496E+02  0.81707787118E+02  0.41800000000E+01 0. -1.
         -5    1    4    4    0  502  0.18273854911E+02  0.42280635928E+02  0.55919034394E+03  0.56109972296E+03  0.41800000000E+01 0. -1.
        -11    1    3    3    0    0  0.26056591564E+02 -0.85573341418E+02  0.18507480144E+03  0.20555881118E+03  0.00000000000E+00 0. -1.
         11    1    3    3    0    0 -0.44966995800E+01  0.21014460469E+02  0.26917000586E+02  0.34443472190E+02  0.00000000000E+00 0.  1.
</event>
<event>
 8    1  0.1790275E-005  0.1050556E+03  0.7561462E-02  0.1270010E+00
          2   -1    0    0  501    0  0.00000000000E+00  0.00000000000E+00  0.12421921119E+03  0.12421921119E+03  0.00000000000E+00 0. -1.
         -2   -1    0    0    0  501 -0.00000000000E+00 -0.00000000000E+00 -0.13186465343E+03  0.13186465343E+03  0.00000000000E+00 0.  1.
         23    2    1    2    0    0  0.30975011122E+02 -0.56549069849E+02 -0.29658391282E+02  0.11364347819E+03  0.88757936811E+02 0.  0.
         23    2    1    2    0    0 -0.30975011122E+02  0.56549069849E+02  0.22012949039E+02  0.14244038643E+03  0.12508974837E+03 0.  0.
          5    1    4    4  502    0  0.27515923047E+02  0.74381591968E+02  0.11247006570E+02  0.80210440727E+02  0.41800000000E+01 0.  1.
         -5    1    4    4    0  502 -0.58490934170E+02 -0.17832522118E+02  0.10765942469E+02  0.62229945704E+02  0.41800000000E+01 0.  1.
        -11    1    3    3    0    0  0.20793574492E+02 -0.55377959632E+02 -0.58403051914E+02  0.83126455632E+02  0.00000000000E+00 0.  1.
         11    1    3    3    0    0  0.10181436630E+02 -0.11711102179E+01  0.28744660632E+02  0.30517022558E+02  0.00000000000E+00 0. -1.
</event>
<event>
 8    1  0.1790275E-005  0.2178708E+03  0.7561462E-02  0.1135480E+00
         -2   -1    0    0    0  501 -0.00000000000E+00  0.00000000000E+00  0.50793383733E+02  0.50793383733E+02  0.00000000000E+00 0. -1.
          2   -1    0    0  501    0  0.00000000000E+00 -0.00000000000E+00 -0.10586400550E+04  0.10586400550E+04  0.00000000000E+00 0.  1.
         23    2    1    2    0    0 -0.16763964312E+03  0.11021278064E+03 -0.39541664906E+03  0.45295167164E+03  0.92525583084E+02 0.  0.
         23    2    1    2    0    0  0.16763964312E+03 -0.11021278064E+03 -0.61243002219E+03  0.65648176708E+03  0.12509145240E+03 0.  0.
          5    1    4    4  502    0  0.42883975190E+02  0.25586523509E+02 -0.99753422696E+02  0.11163298461E+03  0.41800000000E+01 0. -1.
         -5    1    4    4    0  502  0.12475566793E+03 -0.13579930415E+03 -0.51267659949E+03  0.54484878247E+03  0.41800000000E+01 0. -1.
        -11    1    3    3    0    0 -0.19099154858E+02  0.18584893551E+02 -0.14675372595E+03  0.14915371958E+03  0.00000000000E+00 0.  1.
         11    1    3    3    0    0 -0.14854048826E+03  0.91627887092E+02 -0.24866292311E+03  0.30379795206E+03  0.00000000000E+00 0. -1.
</event>
<event>
 8    1  0.1790275E-005  0.1279861E+03  0.7561462E-02  0.1230475E+00
          2   -1    0    0  501    0  0.00000000000E+00  0.00000000000E+00  0.20315673608E+04  0.20315673608E+04  0.00000000000E+00 0. -1.
         -2   -1    0    0    0  501 -0.00000000000E+00 -0.00000000000E+00 -0.60091206642E+02  0.60091206642E+02  0.00000000000E+00 0.  1.
         23    2    1    2    0    0  0.43830973097E+02  0.83341672790E+02  0.17798207708E+02  0.13171682341E+03  0.90363470193E+02 0.  0.
         23    2    1    2    0    0 -0.43830973097E+02 -0.83341672790E+02  0.19536779464E+04  0.19599417440E+04  0.12508850040E+03 0.  0.
          5    1    4    4  502    0 -0.38868754493E+02 -0.11589672531E+03  0.14353692236E+04  0.14405711060E+04  0.41800000000E+01 0. -1.
         -5    1    4    4    0  502 -0.49622186034E+01  0.32555052521E+02  0.51830872283E+03  0.51937063800E+03  0.41800000000E+01 0. -1.
        -11    1    3    3    0    0  0.12946429216E+02  0.60968033192E+02 -0.31139859471E+02  0.69673538368E+02  0.00000000000E+00 0.  1.
         11    1    3    3    0    0  0.30884543881E+02  0.22373639598E+02  0.48938067178E+02  0.62043285041E+02  0.00000000000E+00 0. -1.
</event>
<event>
 8    1  0.1790275E-005  0.1147667E+03  0.7561462E-02  0.1251989E+00
          1   -1    0    0  501    0  0.00000000000E+00  0.00000000000E+00  0.10057718017E+03  0.10057718017E+03  0.00000000000E+00 0.  1.
         -1   -1    0    0    0  501 -0.00000000000E+00 -0.00000000000E+00 -0.18998638445E+03  0.18998638445E+03  0.00000000000E+00 0. -1.
         23    2    1    2    0    0 -0.44025272907E+02 -0.67640245102E+02 -0.70181816807E+02  0.14046293856E+03  0.91054501736E+02 0.  0.
         23    2    1    2    0    0  0.44025272907E+02  0.67640245102E+02 -0.19227387468E+02  0.15010062606E+03  0.12508828123E+03 0.  0.
          5    1    4    4  502    0 -0.17192540547E+02 -0.29061597771E+02 -0.85204331325E+01  0.35074636081E+02  0.41800000000E+01 0.  1.
         -5    1    4    4    0  502  0.61217813454E+02  0.96701842873E+02 -0.10706954336E+02  0.11502598998E+03  0.41800000000E+01 0.  1.
        -11    1    3    3    0    0 -0.16821401232E+02 -0.20106593063E+02  0.21342016060E+02  0.33804086639E+02  0.00000000000E+00 0.  1.
         11    1    3    3    0    0 -0.27203871675E+02 -0.47533652039E+02 -0.91523832867E+02  0.10665885192E+03  0.00000000000E+00 0. -1.
</event>
<event>
 8    1  0.1790275E-005  0.8844467E+02  0.7561462E-02  0.1306662E+00
         -3   -1    0    0    0  501 -0.00000000000E+00  0.00000000000E+00  0.65247637413E+02  0.65247637413E+02  0.00000000000E+00 0.  1.
          3   -1    0    0  501    0  0.00000000000E+00 -0.00000000000E+00 -0.22786963778E+03  0.22786963778E+03  0.00000000000E+00 0. -1.
         23    2    1    2    0    0  0.14218460567E+02  0.40611200633E+01 -0.33970235291E+02  0.11306483705E+03  0.10682239079E+03 0.  0.
         23    2    1    2    0    0 -0.14218460567E+02 -0.40611200633E+01 -0.12865176507E+03  0.18005243814E+03  0.12509574935E+03 0.  0.
          5    1    4    4  502    0  0.29647827833E+02 -0.50762515676E+02 -0.80630144129E+02  0.99872514914E+02  0.41800000000E+01 0.  1.
         -5    1    4    4    0  502 -0.43866288400E+02  0.46701395613E+02 -0.48021620943E+02  0.80179923224E+02  0.41800000000E+01 0.  1.
        -11    1    3    3    0    0  0.16797651440E+01  0.27293954174E+02  0.31950007888E+02  0.42054542554E+02  0.00000000000E+00 0.  1.
         11    1    3    3    0    0  0.12538695423E+02 -0.23232834110E+02 -0.65920243179E+02  0.71010294497E+02  0.00000000000E+00 0. -1.
</event>
<event>
 8    1  0.1790275E-005  0.1006824E+03  0.7561462E-02  0.1278867E+00
         -1   -1    0    0    0  501 -0.00000000000E+00  0.00000000000E+00  0.14255525966E+02  0.14255525966E+02  0.00000000000E+00 0.  1.
          1   -1    0    0  501    0  0.00000000000E+00 -0.00000000000E+00 -0.10920231854E+04  0.10920231854E+04  0.00000000000E+00 0. -1.
         23    2    1    2    0    0  0.27358943428E+02 -0.35669425649E+02 -0.31035771544E+03  0.32744143274E+03  0.94208070929E+02 0.  0.
         23    2    1    2    0    0 -0.27358943428E+02  0.35669425649E+02 -0.76740994400E+03  0.77883727863E+03  0.12509462310E+03 0.  0.
          5    1    4    4  502    0  0.13492657275E+02 -0.29282082622E+02 -0.48714044034E+03  0.48822410139E+03  0.41800000000E+01 0. -1.
         -5    1    4    4    0  502 -0.40851600703E+02  0.64951508270E+02 -0.28026950366E+03  0.29061317724E+03  0.41800000000E+01 0. -1.
        -11    1    3    3    0    0  0.30425858231E+02  0.19899973787E+02 -0.53903827313E+02  0.65018185185E+02  0.00000000000E+00 0.  1.
         11    1    3    3    0    0 -0.30669148031E+01 -0.55569399436E+02 -0.25645388813E+03  0.26242324755E+03  0.00000000000E+00 0. -1.
</event>
<event>
 7    1  0.1790275E-005  0.1186970E+03  0.7561462E-02  0.1245262E+00
         -1   -1    0    0    0  501 -0.00000000000E+00  0.00000000000E+00  0.17461206861E+02  0.17461206861E+02  0.00000000000E+00 0.  1.
          1   -1    0    0  501    0  0.00000000000E+00 -0.00000000000E+00 -0.11026001175E+04  0.11026001175E+04  0.00000000000E+00 0. -1.
         23    2    1    2    0    0 -0.23324415027E+02 -0.26502079250E+01 -0.24577888057E+03  0.26318217792E+03  0.91140269376E+02 0.  0.
          5    1    1    2  502    0  0.89492316869E+02  0.45436138333E+01 -0.65165297099E+03  0.65779828686E+03  0.41800000000E+01 0. -1.
         -5    1    1    2    0  502 -0.66167901842E+02 -0.18934059083E+01 -0.18770705906E+03  0.19908085955E+03  0.41800000000E+01 0.  1.
        -11    1    3    3    0    0 -0.52468869898E+01  0.37218425466E+02 -0.18190235131E+03  0.18574500378E+03  0.00000000000E+00 0. -1.
         11    1    3    3    0    0 -0.18077528037E+02 -0.39868633391E+02 -0.63876529260E+02  0.77437174139E+02  0.00000000000E+00 0.  1.
</event>
<event>
 8    1  0.1790275E-005  0.1144335E+03  0.7561462E-02  0.1252573E+00
          1   -1    0    0  501    0  0.00000000000E+00  0.00000000000E+00  0.42294544703E+03  0.42294544703E+03  0.00000000000E+00 0. -1.
         -1   -1    0    0    0  501 -0.00000000000E+00 -0.00000000000E+00 -0.47485929901E+02  0.47485929901E+02  0.00000000000E+00 0.  1.
         23    2    1    2    0    0 -0.88532290455E+02  0.40321079819E+01  0.10313624684E+03  0.15792968236E+03  0.80314848015E+02 0.  0.
         23    2    1    2    0    0  0.88532290455E+02 -0.40321079819E+01  0.27232327029E+03  0.31250169457E+03  0.12507246387E+03 0.  0.
          5    1    4    4  502    0 -0.55553611250E+00  0.18026190635E+02  0.18442885079E+03  0.18535567316E+03  0.41800000000E+01 0.  1.
         -5    1    4    4    0  502  0.89087826567E+02 -0.22058298617E+02  0.87894419501E+02  0.12714602141E+03  0.41800000000E+01 0.  1.
        -11    1    3    3    0    0 -0.10939383447E+02  0.33683703210E+02  0.41109745130E+02  0.54261156611E+02  0.00000000000E+00 0. -1.
         11    1    3    3    0    0 -0.77592907008E+02 -0.29651595228E+02  0.62026501708E+02  0.10366852575E+03  0.00000000000E+00 0.  1.
</event>
<event>
 8    1  0.1790275E-005  0.1171713E+03  0.7561462E-02  0.1247838E+00
          1   -1    0    0  501    0  0.00000000000E+00  0.00000000000E+00  0.11781655321E+04  0.11781655321E+04  0.00000000000E+00 0. -1.
         -1   -1    0    0    0  501 -0.00000000000E+00 -0.00000000000E+00 -0.15203119941E+02  0.15203119941E+02  0.00000000000E+00 0.  1.
         23    2    1    2    0    0 -0.34123307480E+02  0.27958176822E+02  0.23924409110E+03  0.26017572587E+03  0.92236724994E+02 0.  0.
         23    2    1    2    0    0  0.34123307480E+02 -0.27958176822E+02  0.92371832105E+03  0.93319292616E+03  0.12508973197E+03 0.  0.
          5    1    4    4  502    0 -0.47047337484E+02 -0.28402667450E+01  0.35819040164E+03  0.36130230460E+03  0.41800000000E+01 0.  1.
         -5    1    4    4    0  502  0.81170644964E+02 -0.25117910077E+02  0.56552791941E+03  0.57189062157E+03  0.41800000000E+01 0.  1.
        -11    1    3    3    0    0 -0.62709632885E+02  0.35934216721E+02  0.17821027053E+03  0.19230877908E+03  0.00000000000E+00 0. -1.
         11    1    3    3    0    0  0.28586325405E+02 -0.79760398997E+01  0.61033820567E+02  0.67866946783E+02  0.00000000000E+00 0.  1.
</event>
<event>
 8    1  0.1790275E-005  0.8817819E+02  0.7561462E-02  0.1307324E+00
         -1   -1    0    0    0  501 -0.00000000000E+00  0.00000000000E+00  0.15348470571E+03  0.15348470571E+03  0.00000000000E+00 0.  1.
          1   -1    0    0  501    0  0.00000000000E+00 -0.00000000000E+00 -0.16879858494E+03  0.16879858494E+03  0.00000000000E+00 0. -1.
         23    2    1    2    0    0  0.39805345996E+02 -0.30517736311E+02  0.10060218382E+03  0.14452543232E+03  0.90835033989E+02 0.  0.
         23    2    1    2    0    0 -0.39805345996E+02  0.30517736311E+02 -0.11591606305E+03  0.17775785833E+03  0.12508207195E+03 0.  0.
          5    1    4    4  502    0 -0.40612153736E+02  0.46396169533E+02 -0.13742739861E+03  0.15068415268E+03  0.41800000000E+01 0.  1.
         -5    1    4    4    0  502  0.80680773979E+00 -0.15878433222E+02  0.21511335558E+02  0.27073705653E+02  0.41800000000E+01 0.  1.
        -11    1    3    3    0    0  0.14687027322E+02 -0.58615360327E+02  0.83667769765E+02  0.10320738799E+03  0.00000000000E+00 0.  1.
         11    1    3    3    0    0  0.25118318674E+02  0.28097624017E+02  0.16934414055E+02  0.41318044336E+02  0.00000000000E+00 0. -1.
</event>
<event>
 8    1  0.1790275E-005  0.1404155E+03  0.7561462E-02  0.1212771E+00
         -3   -1    0    0    0  501 -0.00000000000E+00  0.00000000000E+00  0.43046205578E+02  0.43046205578E+02  0.00000000000E+00 0. -1.
          3   -1    0    0  501    0  0.00000000000E+00 -0.00000000000E+00 -0.75517155161E+03  0.75517155161E+03  0.00000000000E+00 0.  1.
         23    2    1    2    0    0 -0.42163199188E+02 -0.94587618262E+02 -0.11565666911E+03  0.18003766646E+03  0.91173150322E+02 0.  0.
         23    2    1    2    0    0  0.42163199188E+02  0.94587618262E+02 -0.59646867693E+03  0.61818009073E+03  0.12508872504E+03 0.  0.
          5    1    4    4  502    0  0.76558910855E+02  0.48517361416E+02 -0.23078292605E+03  0.24797869374E+03  0.41800000000E+01 0. -1.
         -5    1    4    4    0  502 -0.34395711667E+02  0.46070256846E+02 -0.36568575087E+03  0.37020139700E+03  0.41800000000E+01 0. -1.
        -11    1    3    3    0    0  0.23114537078E+02 -0.44595369701E+02 -0.20428386258E+02  0.54224973843E+02  0.00000000000E+00 0.  1.
         11    1    3    3    0    0 -0.65277736266E+02 -0.49992248561E+02 -0.95228282850E+02  0.12581269261E+03  0.00000000000E+00 0. -1.
</event>
<event>
 8    1  0.1790275E-005  0.2220125E+03  0.7561462E-02  0.1132392E+00
          2   -1    0    0  501    0  0.00000000000E+00  0.00000000000E+00  0.65102318142E+03  0.65102318142E+03  0.00000000000E+00 0. -1.
         -2   -1    0    0    0  501 -0.00000000000E+00 -0.00000000000E+00 -0.98643154439E+02  0.98643154439E+02  0.00000000000E+00 0.  1.
         23    2    1    2    0    0 -0.18091355611E+03 -0.95979827070E+02  0.11786974832E+03  0.25329194851E+03  0.91223306356E+02 0.  0.
         23    2    1    2    0    0  0.18091355611E+03  0.95979827070E+02  0.43451027867E+03  0.49637438735E+03  0.12508600308E+03 0.  0.
          5    1    4    4  502    0  0.79036063103E+02 -0.22702484718E+02  0.12718762363E+03  0.15151325383E+03  0.41800000000E+01 0.  1.
         -5    1    4    4    0  502  0.10187749301E+03  0.11868231179E+03  0.30732265504E+03  0.34486113352E+03  0.41800000000E+01 0.  1.
        -11    1    3    3    0    0 -0.17031313043E+03 -0.86603477340E+02  0.70182912606E+02  0.20354941883E+03  0.00000000000E+00 0.  1.
         11    1    3    3    0    0 -0.10600425684E+02 -0.93763497301E+01  0.47686835714E+02  0.49742529684E+02  0.00000000000E+00 0. -1.
</event>
<event>
 8    1  0.1790275E-005  0.8571812E+02  0.7561462E-02  0.1313565E+00
         -1   -1    0    0    0  501 -0.00000000000E+00  0.00000000000E+00  0.59072522113E+02  0.59072522113E+02  0.00000000000E+00 0.  1.
          1   -1    0    0  501    0  0.00000000000E+00 -0.00000000000E+00 -0.30776506186E+03  0.30776506186E+03  0.00000000000E+00 0. -1.
         23    2    1    2    0    0  0.39874931035E+02 -0.29928898184E+02 -0.27096202370E+02  0.10753812301E+03  0.91348205491E+02 0.  0.
         23    2    1    2    0    0 -0.39874931035E+02  0.29928898184E+02 -0.22159633738E+03  0.25929946097E+03  0.12508207164E+03 0.  0.
          5    1    4    4  502    0  0.35698482356E+02  0.27522654963E+02 -0.32862743957E+02  0.55940240607E+02  0.41800000000E+01 0.  1.
         -5    1    4    4    0  502 -0.75573413391E+02  0.24062432211E+01 -0.18873359342E+03  0.20335922036E+03  0.41800000000E+01 0.  1.
        -11    1    3    3    0    0  0.64884778307E+01 -0.87825831698E+01 -0.56964039267E+02  0.58001171379E+02  0.00000000000E+00 0. -1.
         11    1    3    3    0    0  0.33386453204E+02 -0.21146315014E+02  0.29867836897E+02  0.49536951633E+02  0.00000000000E+00 0.  1.
</event>
<event>
 8    1  0.1790275E-005  0.1286912E+03  0.7561462E-02  0.1229411E+00
          1   -1    0    0  501    0  0.00000000000E+00  0.00000000000E+00  0.10214139204E+04  0.10214139204E+04  0.00000000000E+00 0. -1.
         -1   -1    0    0    0  501 -0.00000000000E+00 -0.00000000000E+00 -0.23227242649E+02  0.23227242649E+02  0.00000000000E+00 0.  1.
         23    2    1    2    0    0  0.90856349567E+02  0.61745071561E+02  0.43639126265E+03  0.45869870582E+03  0.88881035591E+02 0.  0.
         23    2    1    2    0    0 -0.90856349567E+02 -0.61745071561E+02  0.56179541511E+03  0.58594245724E+03  0.12508854717E+03 0.  0.
          5    1    4    4  502    0 -0.70064022164E+01  0.94428987849E+01  0.32031726766E+03  0.32056026324E+03  0.41800000000E+01 0.  1.
         -5    1    4    4    0  502 -0.83849947350E+02 -0.71187970346E+02  0.24147814746E+03  0.26538219400E+03  0.41800000000E+01 0.  1.
        -11    1    3    3    0    0  0.51432491512E+01  0.47697310508E+02  0.22688657403E+03  0.23190300541E+03  0.00000000000E+00 0. -1.
         11    1    3    3    0    0  0.85713100416E+02  0.14047761052E+02  0.20950468861E+03  0.22679570041E+03  0.00000000000E+00 0.  1.
</event>
<event>
 8    1  0.1790275E-005  0.1180808E+03  0.7561462E-02  0.1246297E+00
         -1   -1    0    0    0  501 -0.00000000000E+00  0.00000000000E+00  0.27921423684E+03  0.27921423684E+03  0.00000000000E+00 0.  1.
          1   -1    0    0  501    0  0.00000000000E+00 -0.00000000000E+00 -0.73569614740E+02  0.73569614740E+02  0.00000000000E+00 0. -1.
         23    2    1    2    0    0  0.52196676716E+02 -0.14831995136E+02  0.18806086015E+03  0.21530041185E+03  0.89682211636E+02 0.  0.
         23    2    1    2    0    0 -0.52196676716E+02  0.14831995136E+02  0.17583761948E+02  0.13748343973E+03  0.12509207159E+03 0.  0.
          5    1    4    4  502    0  0.39408472199E+02  0.19820468309E+02  0.92945377749E+01  0.45274048610E+02  0.41800000000E+01 0. -1.
         -5    1    4    4    0  502 -0.91605148916E+02 -0.49884731731E+01  0.82892241735E+01  0.92209391115E+02  0.41800000000E+01 0. -1.
        -11    1    3    3    0    0  0.19976182174E+02 -0.49082468183E+02  0.13130531163E+03  0.14159527323E+03  0.00000000000E+00 0.  1.
         11    1    3    3    0    0  0.32220494543E+02  0.34250473046E+02  0.56755548515E+02  0.73705138624E+02  0.00000000000E+00 0. -1.
</event>
<event>
 8    1  0.1790275E-005  0.1246218E+03  0.7561462E-02  0.1235662E+00
          1   -1    0    0  501    0  0.00000000000E+00  0.00000000000E+00  0.25822116492E+03  0.25822116492E+03  0.00000000000E+00 0. -1.
         -1   -1    0    0    0  501 -0.00000000000E+00 -0.00000000000E+00 -0.76661910823E+02  0.76661910823E+02  0.00000000000E+00 0.  1.
         23    2    1    2    0    0  0.81050215208E+02 -0.26758310239E+02  0.50175243796E+02  0.13439744834E+03  0.90884401735E+02 0.  0.
         23    2    1    2    0    0 -0.81050215208E+02  0.26758310239E+02  0.13138401030E+03  0.20048562740E+03  0.12509030370E+03 0.  0.
          5    1    4    4  502    0 -0.97938928287E+02  0.55841801850E+02  0.12007108514E+03  0.16475702836E+03  0.41800000000E+01 0.  1.
         -5    1    4    4    0  502  0.16888713079E+02 -0.29083491611E+02  0.11312925165E+02  0.35728599042E+02  0.41800000000E+01 0.  1.
        -11    1    3    3    0    0  0.41931570987E+02 -0.43107933874E+02  0.65865211793E+02  0.89189555066E+02  0.00000000000E+00 0. -1.
         11    1    3    3    0    0  0.39118644220E+02  0.16349623635E+02 -0.15689967997E+02  0.45207893275E+02  0.00000000000E+00 0.  1.
</event>
<event>
 8    1  0.1790275E-005  0.9942115E+02  0.7561462E-02  0.1281518E+00
          1   -1    0    0  501    0  0.00000000000E+00  0.00000000000E+00  0.31500267188E+03  0.31500267188E+03  0.00000000000E+00 0. -1.
         -1   -1    0    0    0  501 -0.00000000000E+00 -0.00000000000E+00 -0.40574905585E+02  0.40574905585E+02  0.00000000000E+00 0.  1.
         23    2    1    2    0    0 -0.47679118674E+01  0.32435672248E+01  0.66774480035E+02  0.11309024467E+03  0.91089618202E+02 0.  0.
         23    2    1    2    0    0  0.47679118674E+01 -0.32435672248E+01  0.20765328626E+03  0.24248733279E+03  0.12508783137E+03 0.  0.
          5    1    4    4  502    0  0.66922966311E+01  0.52355857743E+02  0.41666674019E+02  0.67375862132E+02  0.41800000000E+01 0. -1.
         -5    1    4    4    0  502 -0.19243847637E+01 -0.55599424968E+02  0.16598661224E+03  0.17511147066E+03  0.41800000000E+01 0. -1.
        -11    1    3    3    0    0 -0.19166745444E+02 -0.40093426443E+02  0.41953900629E+02  0.61114456169E+02  0.00000000000E+00 0. -1.
         11    1    3    3    0    0  0.14398833576E+02  0.43336993668E+02  0.24820579405E+02  0.51975788503E+02  0.00000000000E+00 0.  1.
</event>
<event>
 8    1  0.1790275E-005  0.1090838E+03  0.7561462E-02  0.1262276E+00
         -2   -1    0    0    0  501 -0.00000000000E+00  0.00000000000E+00  0.60627500731E+02  0.60627500731E+02  0.00000000000E+00 0. -1.
          2   -1    0    0  501    0  0.00000000000E+00 -0.00000000000E+00 -0.36225418669E+03  0.36225418669E+03  0.00000000000E+00 0.  1.
         23    2    1    2    0    0 -0.10160638587E+03  0.14681209372E+02 -0.14401838166E+03  0.19698819482E+03  0.86739028621E+02 0.  0.
         23    2    1    2    0    0  0.10160638587E+03 -0.14681209372E+02 -0.15760830431E+03  0.22589349260E+03  0.12509235330E+03 0.  0.
          5    1    4    4  502    0  0.45223026349E+02 -0.99715656623E+01 -0.16243079415E+03  0.16895499259E+03  0.41800000000E+01 0. -1.
         -5    1    4    4    0  502  0.56383359523E+02 -0.47096437098E+01  0.48224898438E+01  0.56938500009E+02  0.41800000000E+01 0. -1.
        -11    1    3    3    0    0 -0.23278465517E+02 -0.18633501678E+02 -0.93200223532E+02  0.97853850246E+02  0.00000000000E+00 0.  1.
         11    1    3    3    0    0 -0.78327920355E+02  0.33314711050E+02 -0.50818158125E+02  0.99134344577E+02  0.00000000000E+00 0. -1.
</event>
<event>
 8    1  0.1790275E-005  0.9253902E+02  0.7561462E-02  0.1296817E+00
          2   -1    0    0  501    0  0.00000000000E+00  0.00000000000E+00  0.24380580442E+03  0.24380580442E+03  0.00000000000E+00 0.  1.
         -2   -1    0    0    0  501 -0.00000000000E+00 -0.00000000000E+00 -0.70602670854E+02  0.70602670854E+02  0.00000000000E+00 0. -1.
         23    2    1    2    0    0  0.42829392880E+02 -0.39567341960E+02  0.30202821750E+02  0.11567129171E+03  0.95224502307E+02 0.  0.
         23    2    1    2    0    0 -0.42829392880E+02  0.39567341960E+02  0.14300031181E+03  0.19873718356E+03  0.12508975780E+03 0.  0.
          5    1    4    4  502    0  0.76638369281E+01 -0.11761927343E+02 -0.17473604316E+02  0.22800802159E+02  0.41800000000E+01 0.  1.
         -5    1    4    4    0  502 -0.50493229808E+02  0.51329269304E+02  0.16047391613E+03  0.17593638140E+03  0.41800000000E+01 0.  1.
        -11    1    3    3    0    0  0.30432855898E+02  0.20682401286E+02  0.38902377252E+02  0.53547319232E+02  0.00000000000E+00 0.  1.
         11    1    3    3    0    0  0.12396536981E+02 -0.60249743246E+02 -0.86995555012E+01  0.62123972477E+02  0.00000000000E+00 0. -1.
</event>
<event>
 8    1  0.1790275E-005  0.1891957E+03  0.7561462E-02  0.1159189E+00
          1   -1    0    0  501    0  0.00000000000E+00  0.00000000000E+00  0.52223643019E+03  0.52223643019E+03  0.00000000000E+00 0. -1.
         -1   -1    0    0    0  501 -0.00000000000E+00 -0.00000000000E+00 -0.75989683481E+02  0.75989683481E+02  0.00000000000E+00 0.  1.
         23    2    1    2    0    0 -0.14800383772E+03  0.70579888842E+02  0.23535130561E+03  0.30325041470E+03  0.98406911710E+02 0.  0.
         23    2    1    2    0    0  0.14800383772E+03 -0.70579888842E+02  0.21089544110E+03  0.29497569897E+03  0.12508844558E+03 0.  0.
          5    1    4    4  502    0 -0.16362440947E+02 -0.78380803449E+01 -0.20402242041E+01  0.18729652748E+02  0.41800000000E+01 0. -1.
         -5    1    4    4    0  502  0.16436627867E+03 -0.62741808497E+02  0.21293566530E+03  0.27624604622E+03  0.41800000000E+01 0. -1.
        -11    1    3    3    0    0 -0.90020929537E+02  0.85248306974E+02  0.19509143089E+03  0.23115299696E+03  0.00000000000E+00 0. -1.
         11    1    3    3    0    0 -0.57982908185E+02 -0.14668418132E+02  0.40259874722E+02  0.72097417739E+02  0.00000000000E+00 0.  1.
</event>
<event>
 8    1  0.1790275E-005  0.1593805E+03  0.7561462E-02  0.1189398E+00
         -1   -1    0    0    0  501 -0.00000000000E+00  0.00000000000E+00  0.10842257798E+03  0.10842257798E+03  0.00000000000E+00 0.  1.
          1   -1    0    0  501    0  0.00000000000E+00 -0.00000000000E+00 -0.28761756212E+03  0.28761756212E+03  0.00000000000E+00 0. -1.
         23    2    1    2    0    0 -0.11853426815E+03 -0.53477278329E+02 -0.35523135364E+02  0.16539214684E+03  0.95825242327E+02 0.  0.
         23    2    1    2    0    0  0.11853426815E+03  0.53477278329E+02 -0.14367184877E+03  0.23064799326E+03  0.12508678844E+03 0.  0.
          5    1    4    4  502    0  0.13167139913E+01 -0.19297075641E+02 -0.72880445733E+02  0.75519154088E+02  0.41800000000E+01 0. -1.
         -5    1    4    4    0  502  0.11721755416E+03  0.72774353970E+02 -0.70791403037E+02  0.15512883917E+03  0.41800000000E+01 0. -1.
        -11    1    3    3    0    0 -0.12509148530E+03 -0.19824829074E+02 -0.33694438230E+02  0.13105807381E+03  0.00000000000E+00 0. -1.
         11    1    3    3    0    0  0.65572171531E+01 -0.33652449255E+02 -0.18286971336E+01  0.34334073030E+02  0.00000000000E+00 0.  1.
</event>
<event>
 8    1  0.1790275E-005  0.1174751E+03  0.7561462E-02  0.1247321E+00
          2   -1    0    0  501    0  0.00000000000E+00  0.00000000000E+00  0.61147715793E+03  0.61147715793E+03  0.00000000000E+00 0. -1.
         -2   -1    0    0    0  501 -0.00000000000E+00 -0.00000000000E+00 -0.36287265426E+02  0.36287265426E+02  0.00000000000E+00 0.  1.
         23    2    1    2    0    0  0.51687810302E+02  0.16916156174E+02  0.79419219734E+02  0.13357176177E+03  0.92607866872E+02 0.  0.
         23    2    1    2    0    0 -0.51687810302E+02 -0.16916156174E+02  0.49577067277E+03  0.51419266159E+03  0.12509095560E+03 0.  0.
          5    1    4    4  502    0 -0.51204399685E+02 -0.65651595251E+02  0.24790360300E+03  0.26154481697E+03  0.41800000000E+01 0.  1.
         -5    1    4    4    0  502 -0.48341061719E+00  0.48735439077E+02  0.24786706978E+03  0.25264784461E+03  0.41800000000E+01 0.  1.
        -11    1    3    3    0    0  0.75196724086E+02  0.28009535540E+01  0.39070763595E+02  0.84787482696E+02  0.00000000000E+00 0.  1.
         11    1    3    3    0    0 -0.23508913784E+02  0.14115202620E+02  0.40348456139E+02  0.48784279078E+02  0.00000000000E+00 0. -1.
</event>
<event>
 8    1  0.1790275E-005  0.1988360E+03  0.7561462E-02  0.1150725E+00
          1   -1    0    0  501    0  0.00000000000E+00  0.00000000000E+00  0.14266288837E+04  0.14266288837E+04  0.00000000000E+00 0. -1.
         -1   -1    0    0    0  501 -0.00000000000E+00 -0.00000000000E+00 -0.31504065314E+02  0.31504065314E+02  0.00000000000E+00 0.  1.
         23    2    1    2    0    0  0.18053779399E+03  0.11052865395E+02  0.75309639076E+03  0.77948424997E+03  0.87894603230E+02 0.  0.
         23    2    1    2    0    0 -0.18053779399E+03 -0.11052865395E+02  0.64202842764E+03  0.67864869906E+03  0.12508994343E+03 0.  0.
          5    1    4    4  502    0 -0.90194411481E+02  0.33902272024E+02  0.46445356184E+03  0.47436165467E+03  0.41800000000E+01 0. -1.
         -5    1    4    4    0  502 -0.90343382512E+02 -0.44955137419E+02  0.17757486580E+03  0.20428704439E+03  0.41800000000E+01 0. -1.
        -11    1    3    3    0    0  0.22320276122E+02 -0.29408689211E+02  0.11272130806E+03  0.11861348581E+03  0.00000000000E+00 0.  1.
         11    1    3    3    0    0  0.15821751787E+03  0.40461554606E+02  0.64037508270E+03  0.66087076415E+03  0.00000000000E+00 0. -1.
</event>
<event>
 8    1  0.1790275E-005  0.1121320E+03  0.7561462E-02  0.1256672E+00
          2   -1    0    0  501    0  0.00000000000E+00  0.00000000000E+00  0.49986242347E+03  0.49986242347E+03  0.00000000000E+00 0. -1.
         -2   -1    0    0    0  501 -0.00000000000E+00 -0.00000000000E+00 -0.66055649379E+02  0.66055649379E+02  0.00000000000E+00 0.  1.
         23    2    1    2    0    0  0.18964549763E+02 -0.77259001345E+02  0.13814427731E+02  0.12053166718E+03  0.89489870612E+02 0.  0.
         23    2    1    2    0    0 -0.18964549763E+02  0.77259001345E+02  0.41999234636E+03  0.44538640567E+03  0.12508745709E+03 0.  0.
          5    1    4    4  502    0  0.34749291890E+02  0.38415798196E+02  0.60260683963E+02  0.79574551645E+02  0.41800000000E+01 0.  1.
         -5    1    4    4    0  502 -0.53713841653E+02  0.38843203149E+02  0.35973166240E+03  0.36581185403E+03  0.41800000000E+01 0.  1.
        -11    1    3    3    0    0 -0.25444391184E+02 -0.42280857689E+02  0.34636356701E+02  0.60289013718E+02  0.00000000000E+00 0. -1.
         11    1    3    3    0    0  0.44408940946E+02 -0.34978143656E+02 -0.20821928970E+02  0.60242653458E+02  0.00000000000E+00 0.  1.
</event>
<event>
 8    1  0.1790275E-005  0.9953442E+02  0.7561462E-02  0.1281278E+00
          2   -1    0    0  501    0  0.00000000000E+00  0.00000000000E+00  0.24272098072E+03  0.24272098072E+03  0.00000000000E+00 0. -1.
         -2   -1    0    0    0  501 -0.00000000000E+00 -0.00000000000E+00 -0.58369795015E+02  0.58369795015E+02  0.00000000000E+00 0.  1.
         23    2    1    2    0    0 -0.41228047518E+02  0.15879900336E+02  0.56067766361E+02  0.11654970932E+03  0.92132063805E+02 0.  0.
         23    2    1    2    0    0  0.41228047518E+02 -0.15879900336E+02  0.12828341934E+03  0.18454106641E+03  0.12508735499E+03 0.  0.
          5    1    4    4  502    0  0.74722665288E+02 -0.31843749181E+02  0.44261854040E+02  0.92596356260E+02  0.41800000000E+01 0. -1.
         -5    1    4    4    0  502 -0.33494617770E+02  0.15963848844E+02  0.84021565301E+02  0.91944710153E+02  0.41800000000E+01 0. -1.
        -11    1    3    3    0    0 -0.59805413881E+02  0.84942465754E+01  0.69790489037E+02  0.92301419893E+02  0.00000000000E+00 0. -1.
         11    1    3    3    0    0  0.18577366363E+02  0.73856537608E+01 -0.13722722676E+02  0.24248289426E+02  0.00000000000E+00 0.  1.
</event>
<event>
 8    1  0.1790275E-005  0.1129095E+03  0.7561462E-02  0.1255275E+00
          1   -1    0    0  501    0  0.00000000000E+00  0.00000000000E+00  0.24292034040E+03  0.24292034040E+03  0.00000000000E+00 0. -1.
         -1   -1    0    0    0  501 -0.00000000000E+00 -0.00000000000E+00 -0.64645421372E+02  0.64645421372E+02  0.00000000000E+00 0.  1.
         23    2    1    2    0    0  0.35121804718E+02  0.16566895107E+01  0.18811379335E+02  0.10187233388E+03  0.93743365797E+02 0.  0.
         23    2    1    2    0    0 -0.35121804718E+02 -0.16566895107E+01  0.15946353969E+03  0.20569342789E+03  0.12507949472E+03 0.  0.
          5    1    4    4  502    0  0.31149314736E+02 -0.38551449123E+02  0.89638374773E+02  0.10251343653E+03  0.41800000000E+01 0.  1.
         -5    1    4    4    0  502 -0.66271119454E+02  0.36894759612E+02  0.69825164919E+02  0.10317999136E+03  0.41800000000E+01 0.  1.
        -11    1    3    3    0    0  0.65038043719E+02  0.15942728313E+02  0.12120546418E+02  0.68051637469E+02  0.00000000000E+00 0.  1.
         11    1    3    3    0    0 -0.29916239000E+02 -0.14286038802E+02  0.66908329175E+01  0.33820696411E+02  0.00000000000E+00 0. -1.
</event>
<event>
 8    1  0.2832825E-005  0.1467219E+03  0.7561462E-02  0.1204560E+00
          1   -1    0    0  501    0  0.00000000000E+00  0.00000000000E+00  0.78527582167E+03  0.78527582167E+03  0.00000000000E+00 0. -1.
         -1   -1    0    0    0  501 -0.00000000000E+00 -0.00000000000E+00 -0.37162466452E+02  0.37162466452E+02  0.00000000000E+00 0.  1.
         23    2    1    2    0    0 -0.63432245201E+02  0.12119042419E+03  0.27118160655E+03  0.31075221966E+03  0.65701671572E+02 0.  0.
         23    2    1    2    0    0  0.63432245201E+02 -0.12119042419E+03  0.47693174867E+03  0.51168606846E+03  0.12509185073E+03 0.  0.
          5    1    4    4  502    0  0.43848061056E+02 -0.29678719473E+02  0.34957896343E+03  0.35359072799E+03  0.41800000000E+01 0.  1.
         -5    1    4    4    0  502  0.19584184145E+02 -0.91511704722E+02  0.12735278524E+03  0.15809534047E+03  0.41800000000E+01 0.  1.
        -11    1    3    3    0    0 -0.28394496012E+02  0.10365421170E+03  0.23021182460E+03  0.25406284103E+03  0.00000000000E+00 0. -1.
         11    1    3    3    0    0 -0.35037749189E+02  0.17536212495E+02  0.40969781952E+02  0.56689378636E+02  0.00000000000E+00 0.  1.
</event>
<event>
 8    1  0.1790275E-005  0.1480868E+03  0.7561462E-02  0.1202844E+00
          2   -1    0    0  501    0  0.00000000000E+00  0.00000000000E+00  0.10189463191E+04  0.10189463191E+04  0.00000000000E+00 0.  1.
         -2   -1    0    0    0  501 -0.00000000000E+00 -0.00000000000E+00 -0.22690587700E+02  0.22690587700E+02  0.00000000000E+00 0. -1.
         23    2    1    2    0    0  0.70045208845E+02 -0.77290685297E+02  0.40066074485E+03  0.42416898280E+03  0.92250269335E+02 0.  0.
         23    2    1    2    0    0 -0.70045208845E+02  0.77290685297E+02  0.59559498660E+03  0.61746792405E+03  0.12511222102E+03 0.  0.
          5    1    4    4  502    0 -0.93316522411E+02  0.18671867677E+02  0.42487427878E+03  0.43542190709E+03  0.41800000000E+01 0. -1.
         -5    1    4    4    0  502  0.23271313566E+02  0.58618817620E+02  0.17072070781E+03  0.18204601696E+03  0.41800000000E+01 0. -1.
        -11    1    3    3    0    0  0.39832290749E+02  0.13472081968E+02  0.15309536574E+03  0.15876491864E+03  0.00000000000E+00 0.  1.
         11    1    3    3    0    0  0.30212918096E+02 -0.90762767265E+02  0.24756537910E+03  0.26540406416E+03  0.00000000000E+00 0. -1.
</event>
<event>
 7    1  0.1790275E-005  0.8728224E+02  0.7561462E-02  0.1309570E+00
         -2   -1    0    0    0  501 -0.00000000000E+00  0.00000000000E+00  0.66590073836E+02  0.66590073836E+02  0.00000000000E+00 0.  1.
          2   -1    0    0  501    0  0.00000000000E+00 -0.00000000000E+00 -0.29165492507E+03  0.29165492507E+03  0.00000000000E+00 0. -1.
         23    2    1    2    0    0  0.28055496122E+02 -0.62966188511E+02 -0.35018569245E+02  0.11840160058E+03  0.89670435878E+02 0.  0.
          5    1    1    2  502    0 -0.16512099235E+02 -0.25600896490E+01 -0.16908390601E+03  0.16995894549E+03  0.41800000000E+01 0. -1.
         -5    1    1    2    0  502 -0.11543396887E+02  0.65526278160E+02 -0.20962375978E+02  0.69884452833E+02  0.41800000000E+01 0.  1.
        -11    1    3    3    0    0  0.46070546404E+02 -0.37096145098E+02 -0.55253347854E+02  0.80941656001E+02  0.00000000000E+00 0.  1.
         11    1    3    3    0    0 -0.18015050282E+02 -0.25870043412E+02  0.20234778609E+02  0.37459944583E+02  0.00000000000E+00 0. -1.
</event>
<event>
 8    1  0.1790275E-005  0.1261887E+03  0.7561462E-02  0.1233223E+00
          1   -1    0    0  501    0  0.00000000000E+00  0.00000000000E+00  0.32701613603E+02  0.32701613603E+02  0.00000000000E+00 0. -1.
         -1   -1    0    0    0  501 -0.00000000000E+00 -0.00000000000E+00 -0.53293409101E+03  0.53293409101E+03  0.00000000000E+00 0.  1.
         23    2    1    2    0    0  0.47137663549E+02  0.57984104846E+02 -0.20876826013E+03  0.23977540830E+03  0.91235652298E+02 0.  0.
         23    2    1    2    0    0 -0.47137663549E+02 -0.57984104846E+02 -0.29146421728E+03  0.32586029631E+03  0.12509766991E+03 0.  0.
          5    1    4    4  502    0 -0.85387897342E+02 -0.13441916009E+02 -0.16281948890E+03  0.18438936109E+03  0.41800000000E+01 0.  1.
         -5    1    4    4    0  502  0.38250233793E+02 -0.44542188837E+02 -0.12864472838E+03  0.14147093522E+03  0.41800000000E+01 0.  1.
        -11    1    3    3    0    0 -0.18043279664E+02 -0.23029962977E+01 -0.72802159762E+01  0.19592480130E+02  0.00000000000E+00 0. -1.
         11    1    3    3    0    0  0.65180943213E+02  0.60287101144E+02 -0.20148804415E+03  0.22018292817E+03  0.00000000000E+00 0.  1.
</event>
<event>
 8    1  0.1790275E-005  0.9817285E+02  0.7561462E-02  0.1284186E+00
          2   -1    0    0  501    0  0.00000000000E+00  0.00000000000E+00  0.73322145572E+03  0.73322145572E+03  0.00000000000E+00 0. -1.
         -2   -1    0    0    0  501 -0.00000000000E+00 -0.00000000000E+00 -0.17302753276E+02  0.17302753276E+02  0.00000000000E+00 0.  1.
         23    2    1    2    0    0  0.31158202206E+02  0.79369052316E+00  0.29343908140E+03  0.31066715013E+03  0.97139694117E+02 0.  0.
         23    2    1    2    0    0 -0.31158202206E+02 -0.79369052316E+00  0.42247962104E+03  0.43985705886E+03  0.11837963727E+03 0.  0.
          5    1    4    4  502    0 -0.59265332798E+02  0.28134177838E+02  0.35575142388E+03  0.36177404499E+03  0.41800000000E+01 0. -1.
         -5    1    4    4    0  502  0.28107130593E+02 -0.28927868361E+02  0.66728197159E+02  0.78083013865E+02  0.41800000000E+01 0.  1.
        -11    1    3    3    0    0  0.60187600819E+02 -0.52170777030E+01  0.11620499091E+03  0.13097085594E+03  0.00000000000E+00 0.  1.
         11    1    3    3    0    0 -0.29029398614E+02  0.60107682262E+01  0.17723409049E+03  0.17969629420E+03  0.00000000000E+00 0. -1.
</event>
<event>
 8    1  0.1790275E-005  0.4129354E+03  0.7561462E-02  0.1039390E+00
          1   -1    0    0  501    0  0.00000000000E+00  0.00000000000E+00  0.17844413011E+03  0.17844413011E+03  0.00000000000E+00 0. -1.
         -1   -1    0    0    0  501 -0.00000000000E+00 -0.00000000000E+00 -0.10003338018E+04  0.10003338018E+04  0.00000000000E+00 0.  1.
         23    2    1    2    0    0 -0.24920775712E+03  0.32118852669E+03 -0.45737679273E+03  0.61861432611E+03  0.90683945957E+02 0.  0.
         23    2    1    2    0    0  0.24920775712E+03 -0.32118852669E+03 -0.36451287897E+03  0.56016360580E+03  0.12508817069E+03 0.  0.
          5    1    4    4  502    0  0.19073596800E+03 -0.30217788464E+03 -0.34173799717E+03  0.49446336018E+03  0.41800000000E+01 0. -1.
         -5    1    4    4    0  502  0.58471789115E+02 -0.19010642053E+02 -0.22774881800E+02  0.65700245621E+02  0.41800000000E+01 0. -1.
        -11    1    3    3    0    0 -0.12124182991E+03  0.17002407918E+03 -0.30060686122E+03  0.36602220402E+03  0.00000000000E+00 0.  1.
         11    1    3    3    0    0 -0.12796592721E+03  0.15116444751E+03 -0.15676993151E+03  0.25259212209E+03  0.00000000000E+00 0. -1.
</event>
<event>
 8    1  0.1790275E-005  0.1066367E+03  0.7561462E-02  0.1266928E+00
          1   -1    0    0  501    0  0.00000000000E+00  0.00000000000E+00  0.17988047588E+03  0.17988047588E+03  0.00000000000E+00 0. -1.
         -1   -1    0    0    0  501 -0.00000000000E+00 -0.00000000000E+00 -0.11209961409E+03  0.11209961409E+03  0.00000000000E+00 0.  1.
         23    2    1    2    0    0  0.17641144859E+02  0.76033500478E+02 -0.28589942163E+02  0.11584328735E+03  0.80684442391E+02 0.  0.
         23    2    1    2    0    0 -0.17641144859E+02 -0.76033500478E+02  0.96370803944E+02  0.17613680262E+03  0.12507812838E+03 0.  0.
          5    1    4    4  502    0 -0.35017096461E+02  0.15137154327E+02 -0.49199206805E+01  0.38691194155E+02  0.41800000000E+01 0. -1.
         -5    1    4    4    0  502  0.17375951602E+02 -0.91170654805E+02  0.10129072462E+03  0.13744560847E+03  0.41800000000E+01 0. -1.
        -11    1    3    3    0    0 -0.63125862137E+01  0.21951929508E+02  0.26519255638E+02  0.35000098191E+02  0.00000000000E+00 0. -1.
         11    1    3    3    0    0  0.23953731072E+02  0.54081570970E+02 -0.55109197800E+02  0.80843189157E+02  0.00000000000E+00 0.  1.
</event>
<event>
 8    1  0.1790275E-005  0.1074873E+03  0.7561462E-02  0.1265295E+00
          4   -1    0    0  501    0  0.00000000000E+00  0.00000000000E+00  0.16111639501E+02  0.16111639501E+02  0.00000000000E+00 0.  1.
         -4   -1    0    0    0  501 -0.00000000000E+00 -0.00000000000E+00 -0.74939713872E+03  0.74939713872E+03  0.00000000000E+00 0. -1.
         23    2    1    2    0    0 -0.48219109993E+01 -0.29133686169E+01 -0.37536834867E+03  0.38631999563E+03  0.91159219464E+02 0.  0.
         23    2    1    2    0    0  0.48219109993E+01  0.29133686169E+01 -0.35791715055E+03  0.37918878259E+03  0.12509079761E+03 0.  0.
          5    1    4    4  502    0 -0.33683178435E+02 -0.49479415871E+02 -0.16568543457E+03  0.17621550650E+03  0.41800000000E+01 0.  1.
         -5    1    4    4    0  502  0.38505089434E+02  0.52392784488E+02 -0.19223171598E+03  0.20297327609E+03  0.41800000000E+01 0.  1.
        -11    1    3    3    0    0  0.18023075771E+02 -0.41348755733E+02 -0.15344398751E+03  0.15993626282E+03  0.00000000000E+00 0. -1.
         11    1    3    3    0    0 -0.22844986771E+02  0.38435387116E+02 -0.22192436116E+03  0.22638373281E+03  0.00000000000E+00 0.  1.
</event>
<event>
 8    1  0.1790275E-005  0.6591103E+02  0.7561462E-02  0.1374577E+00
          1   -1    0    0  501    0  0.00000000000E+00  0.00000000000E+00  0.14759318833E+03  0.14759318833E+03  0.00000000000E+00 0. -1.
         -1   -1    0    0    0  501 -0.00000000000E+00 -0.00000000000E+00 -0.10028899017E+03  0.10028899017E+03  0.00000000000E+00 0.  1.
         23    2    1    2    0    0  0.23249968946E+02 -0.53890268677E+02  0.20083718417E+02  0.10704608282E+03  0.87239818814E+02 0.  0.
         23    2    1    2    0    0 -0.23249968946E+02  0.53890268677E+02  0.27220479743E+02  0.14083609568E+03  0.12509647962E+03 0.  0.
          5    1    4    4  502    0 -0.27582591833E+02  0.17220003688E+02  0.74091691961E+02  0.81020856061E+02  0.41800000000E+01 0.  1.
         -5    1    4    4    0  502  0.43326228875E+01  0.36670264990E+02 -0.46871212217E+02  0.59815239615E+02  0.41800000000E+01 0.  1.
        -11    1    3    3    0    0  0.70232189347E+01 -0.39712479152E+02 -0.31480371786E+02  0.51160731156E+02  0.00000000000E+00 0.  1.
         11    1    3    3    0    0  0.16226750011E+02 -0.14177789525E+02  0.51564090202E+02  0.55885351660E+02  0.00000000000E+00 0. -1.
</event>
<event>
 8    1  0.1790275E-005  0.1012883E+03  0.7561462E-02  0.1277610E+00
          2   -1    0    0  501    0  0.00000000000E+00  0.00000000000E+00  0.44579201595E+03  0.44579201595E+03  0.00000000000E+00 0. -1.
         -2   -1    0    0    0  501 -0.00000000000E+00 -0.00000000000E+00 -0.38186923122E+02  0.38186923122E+02  0.00000000000E+00 0.  1.
         23    2    1    2    0    0 -0.61561877455E+02 -0.13402738637E+01  0.11597775178E+03  0.16073603018E+03  0.92701517782E+02 0.  0.
         23    2    1    2    0    0  0.61561877455E+02  0.13402738637E+01  0.29162734104E+03  0.32324290889E+03  0.12509121078E+03 0.  0.
          5    1    4    4  502    0  0.27242899595E+02  0.46334337151E+02  0.24177079853E+03  0.24770877618E+03  0.41800000000E+01 0.  1.
         -5    1    4    4    0  502  0.34318977859E+02 -0.44994063288E+02  0.49856542515E+02  0.75534132708E+02  0.41800000000E+01 0.  1.
        -11    1    3    3    0    0 -0.31380175963E+02  0.33449287166E+02  0.10321022751E+03  0.11294211490E+03  0.00000000000E+00 0. -1.
         11    1    3    3    0    0 -0.30181701491E+02 -0.34789561030E+02  0.12767524274E+02  0.47793915278E+02  0.00000000000E+00 0.  1.
</event>
<event>
 7    1  0.1790275E-005  0.8988826E+02  0.7561462E-02  0.1303123E+00
          2   -1    0    0  501    0  0.00000000000E+00  0.00000000000E+00  0.22573108276E+04  0.22573108276E+04  0.00000000000E+00 0. -1.
         -2   -1    0    0    0  501 -0.00000000000E+00 -0.00000000000E+00 -0.13808543640E+02  0.13808543640E+02  0.00000000000E+00 0.  1.
         23    2    1    2    0    0 -0.15443804966E+01  0.20470680784E+02  0.41553131300E+03  0.42588190590E+03  0.91036760736E+02 0.  0.
          5    1    1    2  502    0  0.18440286695E+02 -0.50442357411E+02  0.17997123545E+04  0.18005183995E+04  0.41800000000E+01 0. -1.
         -5    1    1    2    0  502 -0.16895906198E+02  0.29971676627E+02  0.28258616477E+02  0.44719065859E+02  0.41800000000E+01 0.  1.
        -11    1    3    3    0    0 -0.12958904663E+02 -0.33585883725E+02  0.12217052766E+03  0.12736397695E+03  0.00000000000E+00 0.  1.
         11    1    3    3    0    0  0.11414524167E+02  0.54056564510E+02  0.29336078534E+03  0.29851792895E+03  0.00000000000E+00 0. -1.
</event>
<event>
 8    1  0.1790275E-005  0.1497256E+03  0.7561462E-02  0.1200811E+00
         -2   -1    0    0    0  501 -0.00000000000E+00  0.00000000000E+00  0.91630139059E+02  0.91630139059E+02  0.00000000000E+00 0.  1.
          2   -1    0    0  501    0  0.00000000000E+00 -0.00000000000E+00 -0.25028430120E+03  0.25028430120E+03  0.00000000000E+00 0. -1.
         23    2    1    2    0    0 -0.25418828795E+02  0.10050788423E+03 -0.92559487343E+02  0.16651923696E+03  0.91724838139E+02 0.  0.
         23    2    1    2    0    0  0.25418828795E+02 -0.10050788423E+03 -0.66094674797E+02  0.17539520330E+03  0.12508804761E+03 0.  0.
          5    1    4    4  502    0 -0.40984776829E+02 -0.31813127487E+00 -0.85894845473E+01  0.42084495767E+02  0.41800000000E+01 0. -1.
         -5    1    4    4    0  502  0.66403605624E+02 -0.10018975295E+03 -0.57505190250E+02  0.13331070753E+03  0.41800000000E+01 0. -1.
        -11    1    3    3    0    0 -0.13880114971E+02  0.11701888894E+03 -0.74127631024E+02  0.13921560129E+03  0.00000000000E+00 0.  1.
         11    1    3    3    0    0 -0.11538713824E+02 -0.16511004716E+02 -0.18431856319E+02  0.27303635671E+02  0.00000000000E+00 0. -1.
</event>
<event>
 8    1  0.1790275E-005  0.1154831E+03  0.7561462E-02  0.1250740E+00
          2   -1    0    0  501    0  0.00000000000E+00  0.00000000000E+00  0.23309179360E+03  0.23309179360E+03  0.00000000000E+00 0. -1.
         -2   -1    0    0    0  501 -0.00000000000E+00 -0.00000000000E+00 -0.93494560398E+02  0.93494560398E+02  0.00000000000E+00 0.  1.
         23    2    1    2    0    0 -0.89568275127E+02  0.41096406723E+02  0.76500583850E+02  0.15529843165E+03  0.92487150405E+02 0.  0.
         23    2    1    2    0    0  0.89568275127E+02 -0.41096406723E+02  0.63096649352E+02  0.17128792234E+03  0.12508786762E+03 0.  0.
          5    1    4    4  502    0  0.66034597714E+01 -0.95808587725E+01  0.79912362545E+02  0.80863196964E+02  0.41800000000E+01 0. -1.
         -5    1    4    4    0  502  0.82964815356E+02 -0.31515547950E+02 -0.16815713193E+02  0.90424725379E+02  0.41800000000E+01 0. -1.
        -11    1    3    3    0    0  0.49662717710E+01 -0.17729314010E+02 -0.27710492691E+01  0.18619106977E+02  0.00000000000E+00 0.  1.
         11    1    3    3    0    0 -0.94534546898E+02  0.58825720733E+02  0.79271633119E+02  0.13667932468E+03  0.00000000000E+00 0. -1.
</event>
<event>
 8    1  0.1790275E-005  0.1167928E+03  0.7561462E-02  0.1248484E+00
          1   -1    0    0  501    0  0.00000000000E+00  0.00000000000E+00  0.58790749104E+03  0.58790749104E+03  0.00000000000E+00 0. -1.
         -1   -1    0    0    0  501 -0.00000000000E+00 -0.00000000000E+00 -0.25845604752E+02  0.25845604752E+02  0.00000000000E+00 0.  1.
         23    2    1    2    0    0  0.35896873095E+02  0.45381687305E+02  0.28440302025E+03  0.30425463702E+03  0.91311133931E+02 0.  0.
         23    2    1    2    0    0 -0.35896873095E+02 -0.45381687305E+02  0.27765886604E+03  0.30949845877E+03  0.12388206913E+03 0.  0.
          5    1    4    4  502    0 -0.75791586443E+02  0.25713354063E+00  0.14963045079E+03  0.16778311863E+03  0.41800000000E+01 0. -1.
         -5    1    4    4    0  502  0.39894713347E+02 -0.45638820846E+02  0.12802841525E+03  0.14171534015E+03  0.41800000000E+01 0.  1.
        -11    1    3    3    0    0 -0.15646976801E+01  0.57517400174E+02  0.23004784637E+03  0.23713437376E+03  0.00000000000E+00 0. -1.
         11    1    3    3    0    0  0.37461570775E+02 -0.12135712869E+02  0.54355173881E+02  0.67120263255E+02  0.00000000000E+00 0.  1.
</event>
<event>
 8    1  0.1790275E-005  0.1828172E+03  0.7561462E-02  0.1165104E+00
         -1   -1    0    0    0  501 -0.00000000000E+00  0.00000000000E+00  0.12748371193E+03  0.12748371193E+03  0.00000000000E+00 0.  1.
          1   -1    0    0  501    0  0.00000000000E+00 -0.00000000000E+00 -0.35555706454E+03  0.35555706454E+03  0.00000000000E+00 0. -1.
         23    2    1    2    0    0 -0.13252935563E+03 -0.11742964407E+03 -0.16182054768E+03  0.25634427282E+03  0.90403236365E+02 0.  0.
         23    2    1    2    0    0  0.13252935563E+03  0.11742964407E+03 -0.66252804928E+02  0.22669650365E+03  0.12509244259E+03 0.  0.
          5    1    4    4  502    0  0.82591441794E+02  0.75458924067E+02  0.24747004811E+02  0.11465287666E+03  0.41800000000E+01 0. -1.
         -5    1    4    4    0  502  0.49937913840E+02  0.41970720005E+02 -0.90999809739E+02  0.11204362699E+03  0.41800000000E+01 0. -1.
        -11    1    3    3    0    0 -0.12768965975E+02 -0.48466272566E+02 -0.10116905362E+02  0.51130987108E+02  0.00000000000E+00 0.  1.
         11    1    3    3    0    0 -0.11976038966E+03 -0.68963371505E+02 -0.15170364232E+03  0.20521328572E+03  0.00000000000E+00 0. -1.
</event>
<event>
 8    1  0.1790275E-005  0.7232060E+02  0.7561462E-02  0.1352375E+00
          4   -1    0    0  501    0  0.00000000000E+00  0.00000000000E+00  0.36061286842E+02  0.36061286842E+02  0.00000000000E+00 0. -1.
         -4   -1    0    0    0  501 -0.00000000000E+00 -0.00000000000E+00 -0.32252596358E+03  0.32252596358E+03  0.00000000000E+00 0.  1.
         23    2    1    2    0    0 -0.20558573153E+01 -0.16715555686E+02 -0.17912328308E+03  0.20114945914E+03  0.89957312212E+02 0.  0.
         23    2    1    2    0    0  0.20558573153E+01  0.16715555686E+02 -0.10734139366E+03  0.15743779128E+03  0.11393352000E+03 0.  0.
          5    1    4    4  502    0  0.59992194573E+01 -0.25323309064E+02 -0.11171581337E+03  0.11478308226E+03  0.41800000000E+01 0. -1.
         -5    1    4    4    0  502 -0.39433621419E+01  0.42038864750E+02  0.43744197049E+01  0.42654709027E+02  0.41800000000E+01 0.  1.
        -11    1    3    3    0    0 -0.80675628697E+01  0.28817460831E+02 -0.13198864946E+03  0.13533859466E+03  0.00000000000E+00 0.  1.
         11    1    3    3    0    0  0.60117055544E+01 -0.45533016517E+02 -0.47134633620E+02  0.65810864477E+02  0.00000000000E+00 0. -1.
</event>
<event>
 8    1  0.1790275E-005  0.1294510E+03  0.7561462E-02  0.1228273E+00
          2   -1    0    0  501    0  0.00000000000E+00  0.00000000000E+00  0.16074894772E+04  0.16074894772E+04  0.00000000000E+00 0. -1.
         -2   -1    0    0    0  501 -0.00000000000E+00 -0.00000000000E+00 -0.27113240218E+02  0.27113240218E+02  0.00000000000E+00 0.  1.
         23    2    1    2    0    0 -0.33433802925E+02  0.68507508206E+02  0.12998675162E+03  0.17675881200E+03  0.92390606461E+02 0.  0.
         23    2    1    2    0    0  0.33433802925E+02 -0.68507508206E+02  0.14503894854E+04  0.14578439054E+04  0.12596862894E+03 0.  0.
          5    1    4    4  502    0  0.78205746477E+02 -0.36715914807E+02  0.67826783109E+03  0.68376086483E+03  0.41800000000E+01 0. -1.
         -5    1    4    4    0  502 -0.44771943552E+02 -0.31791593400E+02  0.77212165429E+03  0.77408304061E+03  0.41800000000E+01 0.  1.
        -11    1    3    3    0    0 -0.15864670412E+02 -0.20888016986E+02  0.45441217421E+02  0.52468097560E+02  0.00000000000E+00 0. -1.
         11    1    3    3    0    0 -0.17569132513E+02  0.89395525192E+02  0.84545534202E+02  0.12429071444E+03  0.00000000000E+00 0.  1.
</event>
<event>
 8    1  0.4148122E-005  0.2352163E+03  0.7561462E-02  0.1123021E+00
         -2   -1    0    0    0  501 -0.00000000000E+00  0.00000000000E+00  0.18362119668E+03  0.18362119668E+03  0.00000000000E+00 0.  1.
          2   -1    0    0  501    0  0.00000000000E+00 -0.00000000000E+00 -0.35811518869E+03  0.35811518869E+03  0.00000000000E+00 0. -1.
         23    2    1    2    0    0  0.10183455291E+03 -0.20408125974E+03 -0.36262282079E+02  0.24716005312E+03  0.88055107839E+02 0.  0.
         23    2    1    2    0    0 -0.10183455291E+03  0.20408125974E+03 -0.13823170993E+03  0.29457633225E+03  0.12509105943E+03 0.  0.
          5    1    4    4  502    0 -0.79765779425E+02  0.10589199243E+03 -0.14130393904E+03  0.19380394530E+03  0.41800000000E+01 0.  1.
         -5    1    4    4    0  502 -0.22068773481E+02  0.98189267314E+02  0.30722291141E+01  0.10077238694E+03  0.41800000000E+01 0.  1.
        -11    1    3    3    0    0 -0.91763388560E+01 -0.21666672375E+02  0.14543049632E+02  0.27661348109E+02  0.00000000000E+00 0.  1.
         11    1    3    3    0    0  0.11101089176E+03 -0.18241458736E+03 -0.50805331711E+02  0.21949870502E+03  0.00000000000E+00 0. -1.
</event>
<event>
 8    1  0.1790275E-005  0.7336690E+02  0.7561462E-02  0.1349004E+00
         -2   -1    0    0    0  501 -0.00000000000E+00  0.00000000000E+00  0.65014717123E+03  0.65014717123E+03  0.00000000000E+00 0.  1.
          2   -1    0    0  501    0  0.00000000000E+00 -0.00000000000E+00 -0.21094523367E+02  0.21094523367E+02  0.00000000000E+00 0. -1.
         23    2    1    2    0    0  0.23000617371E+02  0.11089664102E+02  0.37652844632E+03  0.38828040062E+03  0.91301640592E+02 0.  0.
         23    2    1    2    0    0 -0.23000617371E+02 -0.11089664102E+02  0.25252420155E+03  0.28296129397E+03  0.12508642001E+03 0.  0.
          5    1    4    4  502    0  0.14259817454E+02 -0.50220247418E+01  0.24339200975E+03  0.24389691662E+03  0.41800000000E+01 0.  1.
         -5    1    4    4    0  502 -0.37260434825E+02 -0.60676393599E+01  0.91321917948E+01  0.39064377350E+02  0.41800000000E+01 0.  1.
        -11    1    3    3    0    0  0.53402961622E+02  0.25781005173E+02  0.20239739317E+03  0.21090576403E+03  0.00000000000E+00 0. -1.
         11    1    3    3    0    0 -0.30402344252E+02 -0.14691341071E+02  0.17413105315E+03  0.17737463660E+03  0.00000000000E+00 0.  1.
</event>
<event>
 8    1  0.1790275E-005  0.1233622E+03  0.7561462E-02  0.1237651E+00
          2   -1    0    0  501    0  0.00000000000E+00  0.00000000000E+00  0.43085199383E+03  0.43085199383E+03  0.00000000000E+00 0. -1.
         -2   -1    0    0    0  501 -0.00000000000E+00 -0.00000000000E+00 -0.40527720319E+02  0.40527720319E+02  0.00000000000E+00 0.  1.
         23    2    1    2    0    0  0.56403245183E+02 -0.23304401044E+02  0.10149135945E+03  0.15077626231E+03  0.93319687410E+02 0.  0.
         23    2    1    2    0    0 -0.56403245183E+02  0.23304401044E+02  0.28883291406E+03  0.32060345184E+03  0.12505078932E+03 0.  0.
          5    1    4    4  502    0 -0.70794778454E+02 -0.32590675307E+02  0.13089580843E+03  0.15239828686E+03  0.41800000000E+01 0.  1.
         -5    1    4    4    0  502  0.14391533271E+02  0.55895076351E+02  0.15793710564E+03  0.16820516498E+03  0.41800000000E+01 0.  1.
        -11    1    3    3    0    0  0.79812056765E+02 -0.31786210914E+02  0.71297096641E+02  0.11164051056E+03  0.00000000000E+00 0. -1.
         11    1    3    3    0    0 -0.23408811581E+02  0.84818098704E+01  0.30194262806E+02  0.39135751746E+02  0.00000000000E+00 0.  1.
</event>
<event>
 8    1  0.1790275E-005  0.7873937E+02  0.7561462E-02  0.1332667E+00
         -3   -1    0    0    0  501 -0.00000000000E+00  0.00000000000E+00  0.56757596522E+02  0.56757596522E+02  0.00000000000E+00 0.  1.
          3   -1    0    0  501    0  0.00000000000E+00 -0.00000000000E+00 -0.21320812792E+03  0.21320812792E+03  0.00000000000E+00 0. -1.
         23    2    1    2    0    0 -0.83426963111E+01 -0.16698152871E+02 -0.37549051963E+02  0.96320032659E+02  0.86713254449E+02 0.  0.
         23    2    1    2    0    0  0.83426963111E+01  0.16698152871E+02 -0.11890147943E+03  0.17364569178E+03  0.12516723042E+03 0.  0.
          5    1    4    4  502    0  0.58283014374E+02 -0.22508362862E+02 -0.64995052281E+02  0.90251678013E+02  0.41800000000E+01 0. -1.
         -5    1    4    4    0  502 -0.49940318062E+02  0.39206515732E+02 -0.53906427153E+02  0.83394013769E+02  0.41800000000E+01 0. -1.
        -11    1    3    3    0    0 -0.14064392427E+02 -0.52267551355E+00  0.26503880608E+02  0.30008932192E+02  0.00000000000E+00 0.  1.
         11    1    3    3    0    0  0.57216961158E+01 -0.16175477357E+02 -0.64052932571E+02  0.66311100467E+02  0.00000000000E+00 0. -1.
</event>
<event>
 8    1  0.1790275E-005  0.1292074E+03  0.7561462E-02  0.1228637E+00
          3   -1    0    0  501    0  0.00000000000E+00  0.00000000000E+00  0.28575738271E+03  0.28575738271E+03  0.00000000000E+00 0. -1.
         -3   -1    0    0    0  501 -0.00000000000E+00 -0.00000000000E+00 -0.10925132197E+03  0.10925132197E+03  0.00000000000E+00 0.  1.
         23    2    1    2    0    0 -0.74317406940E+02  0.28156842497E+02 -0.45374211559E+02  0.12818582390E+03  0.89760245210E+02 0.  0.
         23    2    1    2    0    0  0.74317406940E+02 -0.28156842497E+02  0.22188027230E+03  0.26682288078E+03  0.12509080589E+03 0.  0.
          5    1    4    4  502    0  0.88219520461E+02 -0.57913904140E+02  0.20268783538E+03  0.22855313407E+03  0.41800000000E+01 0.  1.
         -5    1    4    4    0  502 -0.13902113521E+02  0.29757061643E+02  0.19192436915E+02  0.38269746703E+02  0.41800000000E+01 0.  1.
        -11    1    3    3    0    0 -0.20869315290E+02  0.55759728939E+02 -0.26219087754E+02  0.65054717390E+02  0.00000000000E+00 0.  1.
         11    1    3    3    0    0 -0.53448091650E+02 -0.27602886442E+02 -0.19155123805E+02  0.63131106508E+02  0.00000000000E+00 0. -1.
</event>
<event>
 8    1  0.1790275E-005  0.1277313E+03  0.7561462E-02  0.1230861E+00
          1   -1    0    0  501    0  0.00000000000E+00  0.00000000000E+00  0.31836964167E+03  0.31836964167E+03  0.00000000000E+00 0. -1.
         -1   -1    0    0    0  501 -0.00000000000E+00 -0.00000000000E+00 -0.63668864208E+02  0.63668864208E+02  0.00000000000E+00 0.  1.
         23    2    1    2    0    0 -0.45368071724E+02  0.79397959646E+02  0.98786863675E+02  0.16222566477E+03  0.90531894647E+02 0.  0.
         23    2    1    2    0    0  0.45368071724E+02 -0.79397959646E+02  0.15591391378E+03  0.21981284110E+03  0.12508492585E+03 0.  0.
          5    1    4    4  502    0  0.33532481509E+02  0.11253825434E+02 -0.37160895549E+01  0.35810021287E+02  0.41800000000E+01 0.  1.
         -5    1    4    4    0  502  0.11835590216E+02 -0.90651785079E+02  0.15963000334E+03  0.18400281982E+03  0.41800000000E+01 0.  1.
        -11    1    3    3    0    0  0.15678033691E+02  0.63277233892E+02  0.44202797818E+02  0.78763547434E+02  0.00000000000E+00 0.  1.
         11    1    3    3    0    0 -0.61046105415E+02  0.16120725753E+02  0.54584065857E+02  0.83462117339E+02  0.00000000000E+00 0. -1.
</event>
<event>
 8    1  0.1790275E-005  0.1592317E+03  0.7561462E-02  0.1189567E+00
          2   -1    0    0  501    0  0.00000000000E+00  0.00000000000E+00  0.72753738780E+03  0.72753738780E+03  0.00000000000E+00 0. -1.
         -2   -1    0    0    0  501 -0.00000000000E+00 -0.00000000000E+00 -0.50435173661E+02  0.50435173661E+02  0.00000000000E+00 0.  1.
         23    2    1    2    0    0  0.22821879584E+02  0.14733810960E+03  0.22069700800E+03  0.28180123847E+03  0.92062000480E+02 0.  0.
         23    2    1    2    0    0 -0.22821879584E+02 -0.14733810960E+03  0.45640520614E+03  0.49617132299E+03  0.12510360842E+03 0.  0.
          5    1    4    4  502    0 -0.23628535775E+02 -0.11443119473E+03  0.16136431163E+03  0.19927046820E+03  0.41800000000E+01 0.  1.
         -5    1    4    4    0  502  0.80665619086E+00 -0.32906914873E+02  0.29504089451E+03  0.29690085479E+03  0.41800000000E+01 0.  1.
        -11    1    3    3    0    0 -0.28589761520E+02  0.68679015090E+02  0.13731165761E+03  0.15616873212E+03  0.00000000000E+00 0. -1.
         11    1    3    3    0    0  0.51411641104E+02  0.78659094515E+02  0.83385350392E+02  0.12563250635E+03  0.00000000000E+00 0.  1.
</event>
<event>
 8    1  0.1790275E-005  0.2225725E+03  0.7561462E-02  0.1131980E+00
          1   -1    0    0  501    0  0.00000000000E+00  0.00000000000E+00  0.19436026698E+04  0.19436026698E+04  0.00000000000E+00 0. -1.
         -1   -1    0    0    0  501 -0.00000000000E+00 -0.00000000000E+00 -0.36772738961E+02  0.36772738961E+02  0.00000000000E+00 0.  1.
         23    2    1    2    0    0  0.18743258175E+03 -0.10067484373E+03  0.48673422816E+03  0.53899328681E+03  0.91308036340E+02 0.  0.
         23    2    1    2    0    0 -0.18743258175E+03  0.10067484373E+03  0.14200957027E+04  0.14413821220E+04  0.12507685579E+03 0.  0.
          5    1    4    4  502    0 -0.17622376212E+03  0.96562479422E+02  0.94590333921E+03  0.96702105783E+03  0.41800000000E+01 0.  1.
         -5    1    4    4    0  502 -0.11208819629E+02  0.41123643101E+01  0.47419236350E+03  0.47436106415E+03  0.41800000000E+01 0.  1.
        -11    1    3    3    0    0  0.12242230819E+03 -0.11151462189E+03  0.34507170710E+03  0.38274954668E+03  0.00000000000E+00 0.  1.
         11    1    3    3    0    0  0.65010273559E+02  0.10839778154E+02  0.14166252106E+03  0.15624374013E+03  0.00000000000E+00 0. -1.
</event>
<event>
 8    1  0.1790275E-005  0.8398386E+02  0.7561462E-02  0.1318111E+00
         -2   -1    0    0    0  501 -0.00000000000E+00  0.00000000000E+00  0.12698334314E+02  0.12698334314E+02  0.00000000000E+00 0.  1.
          2   -1    0    0  501    0  0.00000000000E+00 -0.00000000000E+00 -0.10027365349E+04  0.10027365349E+04  0.00000000000E+00 0. -1.
         23    2    1    2    0    0 -0.31905836597E+02 -0.14041796660E+02 -0.30204577098E+03  0.31667442975E+03  0.88520575194E+02 0.  0.
         23    2    1    2    0    0  0.31905836597E+02  0.14041796660E+02 -0.68799242961E+03  0.69876043946E+03  0.11712136480E+03 0.  0.
          5    1    4    4  502    0  0.40537066625E+02  0.32879472734E+02 -0.66671425083E+03  0.66876728251E+03  0.41800000000E+01 0. -1.
         -5    1    4    4    0  502 -0.86312300281E+01 -0.18837676074E+02 -0.21278178782E+02  0.29993156952E+02  0.41800000000E+01 0.  1.
        -11    1    3    3    0    0 -0.42552437148E+02  0.28105347610E+02 -0.14418964358E+03  0.15294206023E+03  0.00000000000E+00 0.  1.
         11    1    3    3    0    0  0.10646600552E+02 -0.42147144270E+02 -0.15785612739E+03  0.16373236952E+03  0.00000000000E+00 0. -1.
</event>
<event>
 8    1  0.1790275E-005  0.1121256E+03  0.7561462E-02  0.1256684E+00
         -2   -1    0    0    0  501 -0.00000000000E+00  0.00000000000E+00  0.20149994271E+02  0.20149994271E+02  0.00000000000E+00 0. -1.
          2   -1    0    0  501    0  0.00000000000E+00 -0.00000000000E+00 -0.71605652578E+03  0.71605652578E+03  0.00000000000E+00 0.  1.
         23    2    1    2    0    0 -0.38759149119E+02  0.33945568379E+02 -0.23875250773E+03  0.25945191080E+03  0.87509775542E+02 0.  0.
         23    2    1    2    0    0  0.38759149119E+02 -0.33945568379E+02 -0.45715402378E+03  0.47675460925E+03  0.12510228909E+03 0.  0.
          5    1    4    4  502    0  0.37753839807E+02  0.41408605530E+02 -0.14259512659E+03  0.15326730754E+03  0.41800000000E+01 0. -1.
         -5    1    4    4    0  502  0.10053093121E+01 -0.75354173910E+02 -0.31455889719E+03  0.32348730172E+03  0.41800000000E+01 0. -1.
        -11    1    3    3    0    0  0.23644048865E+02  0.74753106967E+01 -0.25015244375E+02  0.35223341237E+02  0.00000000000E+00 0. -1.
         11    1    3    3    0    0 -0.62403197983E+02  0.26470257683E+02 -0.21373726335E+03  0.22422856956E+03  0.00000000000E+00 0.  1.
</event>
<event>
 8    1  0.1790275E-005  0.1039640E+03  0.7561462E-02  0.1272174E+00
          4   -1    0    0  501    0  0.00000000000E+00  0.00000000000E+00  0.60701641635E+03  0.60701641635E+03  0.00000000000E+00 0. -1.
         -4   -1    0    0    0  501 -0.00000000000E+00 -0.00000000000E+00 -0.32615205825E+02  0.32615205825E+02  0.00000000000E+00 0.  1.
         23    2    1    2    0    0  0.14428082607E+02 -0.79437255682E+02  0.17833178994E+03  0.21650333126E+03  0.92482528013E+02 0.  0.
         23    2    1    2    0    0 -0.14428082607E+02  0.79437255682E+02  0.39606942059E+03  0.42312829091E+03  0.12509243577E+03 0.  0.
          5    1    4    4  502    0  0.42174697048E+02  0.34900970731E+02  0.68901160822E+02  0.88100086218E+02  0.41800000000E+01 0. -1.
         -5    1    4    4    0  502 -0.56602779655E+02  0.44536284952E+02  0.32716825977E+03  0.33502820469E+03  0.41800000000E+01 0. -1.
        -11    1    3    3    0    0  0.13504504910E+02 -0.63638971847E+02  0.18732575474E+03  0.19830085421E+03  0.00000000000E+00 0. -1.
         11    1    3    3    0    0  0.92357769750E+00 -0.15798283835E+02 -0.89939648058E+01  0.18202477052E+02  0.00000000000E+00 0.  1.
</event>
<event>
 8    1  0.1886767E-005  0.1954764E+03  0.7561462E-02  0.1153613E+00
          2   -1    0    0  501    0  0.00000000000E+00  0.00000000000E+00  0.57858122884E+03  0.57858122884E+03  0.00000000000E+00 0.  1.
         -2   -1    0    0    0  501 -0.00000000000E+00 -0.00000000000E+00 -0.83331407466E+02  0.83331407466E+02  0.00000000000E+00 0. -1.
         23    2    1    2    0    0 -0.12235929311E+03  0.13062551639E+03  0.14084311252E+03  0.24563602083E+03  0.92007881409E+02 0.  0.
         23    2    1    2    0    0  0.12235929311E+03 -0.13062551639E+03  0.35440670886E+03  0.41627661548E+03  0.12508910091E+03 0.  0.
          5    1    4    4  502    0  0.40589451228E+02 -0.12239029712E+03  0.26517447185E+03  0.29489296583E+03  0.41800000000E+01 0. -1.
         -5    1    4    4    0  502  0.81769841886E+02 -0.82352192713E+01  0.89232237014E+02  0.12138364964E+03  0.41800000000E+01 0. -1.
        -11    1    3    3    0    0 -0.82013651813E+02  0.76600034834E+02  0.13837724645E+03  0.17816303420E+03  0.00000000000E+00 0.  1.
         11    1    3    3    0    0 -0.40345641302E+02  0.54025481557E+02  0.24658660697E+01  0.67472986631E+02  0.00000000000E+00 0. -1.
</event>
<event>
 7    1  0.1790275E-005  0.1613384E+03  0.7561462E-02  0.1187194E+00
         -2   -1    0    0    0  501 -0.00000000000E+00  0.00000000000E+00  0.56813679745E+03  0.56813679745E+03  0.00000000000E+00 0.  1.
          2   -1    0    0  501    0  0.00000000000E+00 -0.00000000000E+00 -0.10229655126E+03  0.10229655126E+03  0.00000000000E+00 0. -1.
         23    2    1    2    0    0  0.68168475010E+02 -0.13211784026E+03  0.37615296187E+03  0.41459874437E+03  0.91098866123E+02 0.  0.
          5    1    1    2  502    0 -0.42418946608E+02  0.68840890274E+02 -0.53557113249E+02  0.97078689652E+02  0.41800000000E+01 0. -1.
         -5    1    1    2    0  502 -0.25749528402E+02  0.63276949986E+02  0.14324439757E+03  0.15875591468E+03  0.41800000000E+01 0.  1.
        -11    1    3    3    0    0  0.56515065258E+02 -0.19111083701E+02  0.15229895550E+03  0.16356698312E+03  0.00000000000E+00 0. -1.
         11    1    3    3    0    0  0.11653409752E+02 -0.11300675656E+03  0.22385400637E+03  0.25103176125E+03  0.00000000000E+00 0.  1.
</event>
<event>
 8    1  0.1790275E-005  0.7742580E+02  0.7561462E-02  0.1336520E+00
          2   -1    0    0  501    0  0.00000000000E+00  0.00000000000E+00  0.10839627202E+03  0.10839627202E+03  0.00000000000E+00 0. -1.
         -2   -1    0    0    0  501 -0.00000000000E+00 -0.00000000000E+00 -0.13877580092E+03  0.13877580092E+03  0.00000000000E+00 0.  1.
         23    2    1    2    0    0 -0.42730847743E+02  0.15082234412E+02 -0.48997943341E+02  0.11283017536E+03  0.90975001386E+02 0.  0.
         23    2    1    2    0    0  0.42730847743E+02 -0.15082234412E+02  0.18618414447E+02  0.13434189758E+03  0.12509077082E+03 0.  0.
          5    1    4    4  502    0 -0.27899587852E+02  0.15668119175E+02  0.42700933488E+02  0.53523070554E+02  0.41800000000E+01 0.  1.
         -5    1    4    4    0  502  0.70630435595E+02 -0.30750353588E+02 -0.24082519041E+02  0.80818827023E+02  0.41800000000E+01 0.  1.
        -11    1    3    3    0    0 -0.14307359501E+02  0.67151218657E+01 -0.73004653017E+02  0.74695868425E+02  0.00000000000E+00 0.  1.
         11    1    3    3    0    0 -0.28423488242E+02  0.83671125466E+01  0.24006709676E+02  0.38134306939E+02  0.00000000000E+00 0. -1.
</event>
<event>
 8    1  0.1790275E-005  0.1685460E+03  0.7561462E-02  0.1179373E+00
          3   -1    0    0  501    0  0.00000000000E+00  0.00000000000E+00  0.99741524126E+02  0.99741524126E+02  0.00000000000E+00 0. -1.
         -3   -1    0    0    0  501 -0.00000000000E+00 -0.00000000000E+00 -0.36906845899E+03  0.36906845899E+03  0.00000000000E+00 0.  1.
         23    2    1    2    0    0 -0.42660763344E+02  0.13099399362E+03 -0.22293910736E+03  0.27707573290E+03  0.89943032420E+02 0.  0.
         23    2    1    2    0    0  0.42660763344E+02 -0.13099399362E+03 -0.46387827507E+02  0.19173425022E+03  0.12502329812E+03 0.  0.
          5    1    4    4  502    0 -0.24687484952E+02  0.16630358296E+01  0.16636100492E+02  0.30107637586E+02  0.41800000000E+01 0. -1.
         -5    1    4    4    0  502  0.67348248296E+02 -0.13265702945E+03 -0.63023927999E+02  0.16162661263E+03  0.41800000000E+01 0. -1.
        -11    1    3    3    0    0 -0.35792061504E+02  0.40327504447E+01 -0.35431181558E+02  0.50524284947E+02  0.00000000000E+00 0. -1.
         11    1    3    3    0    0 -0.68687018403E+01  0.12696124317E+03 -0.18750792580E+03  0.22655144795E+03  0.00000000000E+00 0.  1.
</event>
<event>
 8    1  0.1790275E-005  0.1041787E+03  0.7561462E-02  0.1271746E+00
          1   -1    0    0  501    0  0.00000000000E+00  0.00000000000E+00  0.75096038409E+02  0.75096038409E+02  0.00000000000E+00 0. -1.
         -1   -1    0    0    0  501 -0.00000000000E+00 -0.00000000000E+00 -0.20655142008E+03  0.20655142008E+03  0.00000000000E+00 0.  1.
         23    2    1    2    0    0  0.41805327499E+02 -0.24972910273E+02 -0.94402416879E+02  0.14239186320E+03  0.94827710809E+02 0.  0.
         23    2    1    2    0    0 -0.41805327499E+02  0.24972910273E+02 -0.37052964796E+02  0.13925559530E+03  0.12509143442E+03 0.  0.
          5    1    4    4  502    0  0.22244668755E+02 -0.19415075329E+02 -0.51861429742E+02  0.59823496495E+02  0.41800000000E+01 0.  1.
         -5    1    4    4    0  502 -0.64049996253E+02  0.44387985602E+02  0.14808464946E+02  0.79432098801E+02  0.41800000000E+01 0.  1.
        -11    1    3    3    0    0  0.63280110017E+02  0.51659413108E+01 -0.81255626487E+02  0.10311903854E+03  0.00000000000E+00 0. -1.
         11    1    3    3    0    0 -0.21474782519E+02 -0.30138851584E+02 -0.13146790393E+02  0.39272824659E+02  0.00000000000E+00 0.  1.
</event>
<event>
 8    1  0.1790275E-005  0.1098754E+03  0.7561462E-02  0.1260801E+00
         -1   -1    0    0    0  501 -0.00000000000E+00  0.00000000000E+00  0.33628141718E+02  0.33628141718E+02  0.00000000000E+00 0.  1.
          1   -1    0    0  501    0  0.00000000000E+00 -0.00000000000E+00 -0.39686433828E+03  0.39686433828E+03  0.00000000000E+00 0. -1.
         23    2    1    2    0    0  0.37621963464E+02  0.36296611945E+01 -0.12839508105E+03  0.16174315792E+03  0.90812805928E+02 0.  0.
         23    2    1    2    0    0 -0.37621963464E+02 -0.36296611945E+01 -0.23484111552E+03  0.26874932208E+03  0.12508901633E+03 0.  0.
          5    1    4    4  502    0 -0.80990809675E+02  0.78774086479E+01 -0.11691870820E+03  0.14250972439E+03  0.41800000000E+01 0.  1.
         -5    1    4    4    0  502  0.43368846211E+02 -0.11507069842E+02 -0.11792240731E+03  0.12623959769E+03  0.41800000000E+01 0.  1.
        -11    1    3    3    0    0  0.36236602577E+02 -0.37445537138E+02 -0.96687236664E+02  0.10983479117E+03  0.00000000000E+00 0. -1.
         11    1    3    3    0    0  0.13853608877E+01  0.41075198332E+02 -0.31707844382E+02  0.51908366746E+02  0.00000000000E+00 0.  1.
</event>
<event>
 8    1  0.1790275E-005  0.1453796E+03  0.7561462E-02  0.1206268E+00
          2   -1    0    0  501    0  0.00000000000E+00  0.00000000000E+00  0.93135816498E+02  0.93135816498E+02  0.00000000000E+00 0. -1.
         -2   -1    0    0    0  501 -0.00000000000E+00 -0.00000000000E+00 -0.25822112324E+03  0.25822112324E+03  0.00000000000E+00 0.  1.
         23    2    1    2    0    0 -0.85030061433E+02  0.69867095897E+02 -0.94591878166E+02  0.17044700683E+03  0.89403782275E+02 0.  0.
         23    2    1    2    0    0  0.85030061433E+02 -0.69867095897E+02 -0.70493428580E+02  0.18090993291E+03  0.12509019913E+03 0.  0.
          5    1    4    4  502    0  0.11200350640E+03 -0.65101213412E+02 -0.79160593733E+02  0.15187766602E+03  0.41800000000E+01 0. -1.
         -5    1    4    4    0  502 -0.26973444971E+02 -0.47658824848E+01  0.86671651528E+01  0.29032266898E+02  0.41800000000E+01 0. -1.
        -11    1    3    3    0    0 -0.26004991024E+02  0.69716945873E+02 -0.80779230840E+02  0.10982711976E+03  0.00000000000E+00 0.  1.
         11    1    3    3    0    0 -0.59025070408E+02  0.15015002460E+00 -0.13812647326E+02  0.60619887066E+02  0.00000000000E+00 0. -1.
</event>
<event>
 8    1  0.1790275E-005  0.1156640E+03  0.7561462E-02  0.1250427E+00
         -4   -1    0    0    0  501 -0.00000000000E+00  0.00000000000E+00  0.53360509670E+03  0.53360509670E+03  0.00000000000E+00 0.  1.
          4   -1    0    0  501    0  0.00000000000E+00 -0.00000000000E+00 -0.28755575296E+02  0.28755575296E+02  0.00000000000E+00 0. -1.
         23    2    1    2    0    0  0.55196680844E+02  0.17968693409E+02  0.19362529218E+03  0.22195381768E+03  0.91668947262E+02 0.  0.
         23    2    1    2    0    0 -0.55196680844E+02 -0.17968693409E+02  0.31122422922E+03  0.34040685431E+03  0.12508700208E+03 0.  0.
          5    1    4    4  502    0 -0.88061654598E+02 -0.16832441904E+02  0.14215214679E+03  0.16811570822E+03  0.41800000000E+01 0. -1.
         -5    1    4    4    0  502  0.32864973754E+02 -0.11362515046E+01  0.16907208242E+03  0.17229114609E+03  0.41800000000E+01 0. -1.
        -11    1    3    3    0    0 -0.25744858401E+02  0.12496030493E+01  0.49658033954E+02  0.55948901491E+02  0.00000000000E+00 0.  1.
         11    1    3    3    0    0  0.80941539245E+02  0.16719090360E+02  0.14396725823E+03  0.16600491619E+03  0.00000000000E+00 0. -1.
</event>
<event>
 8    1  0.1790275E-005  0.1170555E+03  0.7561462E-02  0.1248035E+00
          1   -1    0    0  501    0  0.00000000000E+00  0.00000000000E+00  0.12619981236E+04  0.12619981236E+04  0.00000000000E+00 0. -1.
         -1   -1    0    0    0  501 -0.00000000000E+00 -0.00000000000E+00 -0.29573066403E+02  0.29573066403E+02  0.00000000000E+00 0.  1.
         23    2    1    2    0    0 -0.44318380347E+02 -0.40726324172E+02  0.81463448561E+02  0.13226852384E+03  0.85064191241E+02 0.  0.
         23    2    1    2    0    0  0.44318380347E+02  0.40726324172E+02  0.11509616087E+04  0.11593026662E+04  0.12508914778E+03 0.  0.
          5    1    4    4  502    0 -0.28981873233E+02 -0.25639204304E+02  0.38852550876E+03  0.39047005152E+03  0.41800000000E+01 0.  1.
         -5    1    4    4    0  502  0.73300253580E+02  0.66365528476E+02  0.76243609989E+03  0.76883261466E+03  0.41800000000E+01 0.  1.
        -11    1    3    3    0    0 -0.55649144962E+02 -0.17979591773E+01  0.21077280305E+02  0.59534122462E+02  0.00000000000E+00 0.  1.
         11    1    3    3    0    0  0.11330764615E+02 -0.38928364995E+02  0.60386168256E+02  0.72734401383E+02  0.00000000000E+00 0. -1.
</event>
<event>
 8    1  0.1790275E-005  0.1431546E+03  0.7561462E-02  0.1209146E+00
          2   -1    0    0  501    0  0.00000000000E+00  0.00000000000E+00  0.61623455987E+02  0.61623455987E+02  0.00000000000E+00 0. -1.
         -2   -1    0    0    0  501 -0.00000000000E+00 -0.00000000000E+00 -0.44004916292E+03  0.44004916292E+03  0.00000000000E+00 0.  1.
         23    2    1    2    0    0 -0.68495903332E+02  0.10635318117E+03 -0.18533795381E+03  0.23912245840E+03  0.82623877112E+02 0.  0.
         23    2    1    2    0    0  0.68495903332E+02 -0.10635318117E+03 -0.19308775313E+03  0.26255016052E+03  0.12508804284E+03 0.  0.
          5    1    4    4  502    0 -0.88615337720E+01 -0.72421113724E+02 -0.15171138809E+03  0.16839584962E+03  0.41800000000E+01 0. -1.
         -5    1    4    4    0  502  0.77357437104E+02 -0.33932067442E+02 -0.41376365036E+02  0.94154310893E+02  0.41800000000E+01 0. -1.
        -11    1    3    3    0    0 -0.40842614536E+02  0.41875419377E+02 -0.24068042876E+02  0.63252988847E+02  0.00000000000E+00 0. -1.
         11    1    3    3    0    0 -0.27653288796E+02  0.64477761788E+02 -0.16126991093E+03  0.17586946955E+03  0.00000000000E+00 0.  1.
</event>
<event>
 7    1  0.1790275E-005  0.1025814E+03  0.7561462E-02  0.1274959E+00
          3   -1    0    0  501    0  0.00000000000E+00  0.00000000000E+00  0.16267201819E+03  0.16267201819E+03  0.00000000000E+00 0. -1.
         -3   -1    0    0    0  501 -0.00000000000E+00 -0.00000000000E+00 -0.84521135065E+02  0.84521135065E+02  0.00000000000E+00 0.  1.
         23    2    1    2    0    0 -0.27589130108E+02  0.16879429337E+02  0.24725342548E+02  0.99064061753E+02  0.90312073014E+02 0.  0.
          5    1    1    2  502    0  0.66230098022E+02 -0.39174506709E+02  0.66139938207E+02  0.10155309786E+03  0.41800000000E+01 0. -1.
         -5    1    1    2    0  502 -0.38640967913E+02  0.22295077371E+02 -0.12714397630E+02  0.46575993638E+02  0.41800000000E+01 0.  1.
        -11    1    3    3    0    0 -0.14007638425E+02 -0.30736985657E+02  0.34839775246E+02  0.48526138943E+02  0.00000000000E+00 0. -1.
         11    1    3    3    0    0 -0.13581491684E+02  0.47616414994E+02 -0.10114432698E+02  0.50537922811E+02  0.00000000000E+00 0.  1.
</event>
<event>
 8    1  0.1790275E-005  0.9319333E+02  0.7561462E-02  0.1295298E+00
         -1   -1    0    0    0  501 -0.00000000000E+00  0.00000000000E+00  0.22023308525E+02  0.22023308525E+02  0.00000000000E+00 0.  1.
          1   -1    0    0  501    0  0.00000000000E+00 -0.00000000000E+00 -0.67496724706E+03  0.67496724706E+03  0.00000000000E+00 0. -1.
         23    2    1    2    0    0 -0.49642969661E+02  0.63433990887E+01 -0.20121165653E+03  0.22563988866E+03  0.89008794400E+02 0.  0.
         23    2    1    2    0    0  0.49642969661E+02 -0.63433990887E+01 -0.45173228200E+03  0.47135066692E+03  0.12491890753E+03 0.  0.
          5    1    4    4  502    0  0.73065057410E+02  0.38696399340E+02 -0.30465202794E+03  0.31569961113E+03  0.41800000000E+01 0.  1.
         -5    1    4    4    0  502 -0.23422087749E+02 -0.45039798428E+02 -0.14708025406E+03  0.15565105580E+03  0.41800000000E+01 0.  1.
        -11    1    3    3    0    0 -0.99487216666E+01 -0.53327846743E+01  0.70495366935E+01  0.13308329075E+02  0.00000000000E+00 0.  1.
         11    1    3    3    0    0 -0.39694247995E+02  0.11676183763E+02 -0.20826119323E+03  0.21233155959E+03  0.00000000000E+00 0. -1.
</event>
<event>
 8    1  0.1790275E-005  0.1284486E+03  0.7561462E-02  0.1229776E+00
          1   -1    0    0  501    0  0.00000000000E+00  0.00000000000E+00  0.10413068776E+03  0.10413068776E+03  0.00000000000E+00 0. -1.
         -1   -1    0    0    0  501 -0.00000000000E+00 -0.00000000000E+00 -0.28039558397E+03  0.28039558397E+03  0.00000000000E+00 0.  1.
         23    2    1    2    0    0  0.96736584619E+02  0.34136135996E+02 -0.17488389789E+03  0.22274512992E+03  0.92237587675E+02 0.  0.
         23    2    1    2    0    0 -0.96736584619E+02 -0.34136135996E+02 -0.13809983257E+01  0.16178114180E+03  0.12509191861E+03 0.  0.
          5    1    4    4  502    0 -0.14989896585E+02 -0.35464395197E+02  0.51414654341E+02  0.64368932004E+02  0.41800000000E+01 0.  1.
         -5    1    4    4    0  502 -0.81746688034E+02  0.13282592011E+01 -0.52795652667E+02  0.97412209797E+02  0.41800000000E+01 0.  1.
        -11    1    3    3    0    0  0.59295909169E+02  0.64854042105E+02 -0.12859534296E+03  0.15575241202E+03  0.00000000000E+00 0.  1.
         11    1    3    3    0    0  0.37440675450E+02 -0.30717906109E+02 -0.46288554932E+02  0.66992717899E+02  0.00000000000E+00 0. -1.
</event>
<event>
 7    1  0.1790275E-005  0.1433714E+03  0.7561462E-02  0.1208863E+00
          2   -1    0    0  501    0  0.00000000000E+00  0.00000000000E+00  0.85981936067E+03  0.85981936067E+03  0.00000000000E+00 0. -1.
         -2   -1    0    0    0  501 -0.00000000000E+00 -0.00000000000E+00 -0.41954718138E+02  0.41954718138E+02  0.00000000000E+00 0.  1.
         23    2    1    2    0    0  0.29632914456E+02  0.58424949477E+02  0.18645635519E+03  0.21800217046E+03  0.92018419861E+02 0.  0.
          5    1    1    2  502    0  0.69877485500E+02 -0.56682274679E+01  0.52197061396E+03  0.52667426937E+03  0.41800000000E+01 0. -1.
         -5    1    1    2    0  502 -0.99510399956E+02 -0.52756722009E+02  0.10943767339E+03  0.15709763898E+03  0.41800000000E+01 0.  1.
        -11    1    3    3    0    0  0.56881258401E+02  0.29539817193E+02  0.15369079628E+03  0.16652008653E+03  0.00000000000E+00 0.  1.
         11    1    3    3    0    0 -0.27248343945E+02  0.28885132284E+02  0.32765558904E+02  0.51482083924E+02  0.00000000000E+00 0. -1.
</event>
<event>
 8    1  0.1790275E-005  0.1437316E+03  0.7561462E-02  0.1208394E+00
          2   -1    0    0  501    0  0.00000000000E+00  0.00000000000E+00  0.27108433880E+03  0.27108433880E+03  0.00000000000E+00 0. -1.
         -2   -1    0    0    0  501 -0.00000000000E+00 -0.00000000000E+00 -0.99664847639E+02  0.99664847639E+02  0.00000000000E+00 0.  1.
         23    2    1    2    0    0  0.11130550858E+03  0.48215228928E+02  0.77517651230E+02  0.17280822462E+03  0.95603722232E+02 0.  0.
         23    2    1    2    0    0 -0.11130550858E+03 -0.48215228928E+02  0.93901839930E+02  0.19794096182E+03  0.12509773892E+03 0.  0.
          5    1    4    4  502    0 -0.12846401155E+03 -0.44878447174E+02  0.10905323804E+03  0.17443382244E+03  0.41800000000E+01 0. -1.
         -5    1    4    4    0  502  0.17158502978E+02 -0.33367817540E+01 -0.15151398109E+02  0.23507139375E+02  0.41800000000E+01 0. -1.
        -11    1    3    3    0    0  0.59842838611E+02 -0.40759180255E+01 -0.75702760015E+01  0.60457319817E+02  0.00000000000E+00 0.  1.
         11    1    3    3    0    0  0.51462669965E+02  0.52291146954E+02  0.85087927232E+02  0.11235090480E+03  0.00000000000E+00 0. -1.
</event>
<event>
 8    1  0.1790275E-005  0.1114872E+03  0.7561462E-02  0.1257840E+00
         -1   -1    0    0    0  501 -0.00000000000E+00  0.00000000000E+00  0.26620684913E+02  0.26620684913E+02  0.00000000000E+00 0.  1.
          1   -1    0    0  501    0  0.00000000000E+00 -0.00000000000E+00 -0.71035352172E+03  0.71035352172E+03  0.00000000000E+00 0. -1.
         23    2    1    2    0    0  0.55759624107E+02 -0.62119151200E+02 -0.31528944954E+03  0.33902275443E+03  0.92526030952E+02 0.  0.
         23    2    1    2    0    0 -0.55759624107E+02  0.62119151200E+02 -0.36844338727E+03  0.39795145221E+03  0.12508758557E+03 0.  0.
          5    1    4    4  502    0 -0.95420601015E+01  0.80580034942E+02 -0.12255445656E+03  0.14704169533E+03  0.41800000000E+01 0.  1.
         -5    1    4    4    0  502 -0.46217564006E+02 -0.18460883742E+02 -0.24588893071E+03  0.25090975688E+03  0.41800000000E+01 0.  1.
        -11    1    3    3    0    0  0.10255161595E+02 -0.39794519744E+02 -0.34386543818E+02  0.53583640570E+02  0.00000000000E+00 0.  1.
         11    1    3    3    0    0  0.45504462512E+02 -0.22324631456E+02 -0.28090290572E+03  0.28543911386E+03  0.00000000000E+00 0. -1.
</event>
<event>
 8    1  0.1790275E-005  0.1034215E+03  0.7561462E-02  0.1273261E+00
         -2   -1    0    0    0  501 -0.00000000000E+00  0.00000000000E+00  0.56203108201E+02  0.56203108201E+02  0.00000000000E+00 0.  1.
          2   -1    0    0  501    0  0.00000000000E+00 -0.00000000000E+00 -0.23616592549E+03  0.23616592549E+03  0.00000000000E+00 0. -1.
         23    2    1    2    0    0 -0.12370803958E+01  0.26931286693E+02 -0.42688554557E+02  0.10470395524E+03  0.91726664505E+02 0.  0.
         23    2    1    2    0    0  0.12370803958E+01 -0.26931286693E+02 -0.13727426273E+03  0.18766507846E+03  0.12508850423E+03 0.  0.
          5    1    4    4  502    0  0.53318184835E+02 -0.30462014905E+02 -0.11565016020E+03  0.13100837813E+03  0.41800000000E+01 0.  1.
         -5    1    4    4    0  502 -0.52081104440E+02  0.35307282115E+01 -0.21624102536E+02  0.56656700326E+02  0.41800000000E+01 0.  1.
        -11    1    3    3    0    0  0.43777112738E+02  0.15950573142E+02 -0.90920246264E+01  0.47471268100E+02  0.00000000000E+00 0.  1.
         11    1    3    3    0    0 -0.45014193133E+02  0.10980713551E+02 -0.33596529930E+02  0.57232687137E+02  0.00000000000E+00 0. -1.
</event>
<event>
 8    1  0.1790275E-005  0.2184687E+03  0.7561462E-02  0.1135030E+00
          1   -1    0    0  501    0  0.00000000000E+00  0.00000000000E+00  0.80475124681E+03  0.80475124681E+03  0.00000000000E+00 0. -1.
         -1   -1    0    0    0  501 -0.00000000000E+00 -0.00000000000E+00 -0.19743137955E+03  0.19743137955E+03  0.00000000000E+00 0.  1.
         23    2    1    2    0    0  0.70660405515E+02 -0.18073559045E+03 -0.11496474253E+03  0.24389456793E+03  0.92786969336E+02 0.  0.
         23    2    1    2    0    0 -0.70660405515E+02  0.18073559045E+03  0.72228460979E+03  0.75828805842E+03  0.12508986946E+03 0.  0.
          5    1    4    4  502    0 -0.10361244369E+03  0.11022130758E+03  0.51740090393E+03  0.53907832726E+03  0.41800000000E+01 0.  1.
         -5    1    4    4    0  502  0.32952038180E+02  0.70514282875E+02  0.20488370586E+03  0.21920973116E+03  0.41800000000E+01 0.  1.
        -11    1    3    3    0    0  0.40014726255E+02 -0.17082632793E+03 -0.11815898647E+03  0.21152862386E+03  0.00000000000E+00 0.  1.
         11    1    3    3    0    0  0.30645679260E+02 -0.99092625269E+01  0.31942439413E+01  0.32365944069E+02  0.00000000000E+00 0. -1.
</event>
<event>
 8    1  0.1790275E-005  0.1664732E+03  0.7561462E-02  0.1181576E+00
         -2   -1    0    0    0  501 -0.00000000000E+00  0.00000000000E+00  0.10586446570E+03  0.10586446570E+03  0.00000000000E+00 0.  1.
          2   -1    0    0  501    0  0.00000000000E+00 -0.00000000000E+00 -0.31429527275E+03  0.31429527275E+03  0.00000000000E+00 0. -1.
         23    2    1    2    0    0  0.57432471780E+02 -0.13202941687E+03 -0.77025430336E+02  0.18854648314E+03  0.94268784081E+02 0.  0.
         23    2    1    2    0    0 -0.57432471780E+02  0.13202941687E+03 -0.13140537671E+03  0.23161325530E+03  0.12508825392E+03 0.  0.
          5    1    4    4  502    0  0.10748631107E+02 -0.69239517436E+01  0.13850925282E+02  0.19307892417E+02  0.41800000000E+01 0.  1.
         -5    1    4    4    0  502 -0.68181102887E+02  0.13895336862E+03 -0.14525630199E+03  0.21230536289E+03  0.41800000000E+01 0.  1.
        -11    1    3    3    0    0 -0.18193238382E+02 -0.91309217135E+01  0.70443593606E+01  0.21540442265E+02  0.00000000000E+00 0.  1.
         11    1    3    3    0    0  0.75625710162E+02 -0.12289849516E+03 -0.84069789697E+02  0.16700604088E+03  0.00000000000E+00 0. -1.
</event>
<event>
 6    1  0.3828951E-005  0.8394877E+02  0.7561462E-02  0.1318205E+00
         -2   -1    0    0    0  501 -0.00000000000E+00  0.00000000000E+00  0.13567414047E+03  0.13567414047E+03  0.00000000000E+00 0.  1.
          2   -1    0    0  501    0  0.00000000000E+00 -0.00000000000E+00 -0.39529401486E+03  0.39529401486E+03  0.00000000000E+00 0. -1.
          5    1    1    2  502    0  0.55344788743E+02  0.35953757475E+02 -0.36415190529E+03  0.37010782327E+03  0.41800000000E+01 0. -1.
         -5    1    1    2    0  502 -0.31670179877E+02  0.21375342191E+02  0.10569008633E+01  0.38451202668E+02  0.41800000000E+01 0.  1.
        -11    1    1    2    0    0 -0.29893986417E+01 -0.23422986019E+02  0.54196107219E+02  0.59116755797E+02  0.00000000000E+00 0. -1.
         11    1    1    2    0    0 -0.20685210225E+02 -0.33906113647E+02  0.49279022820E+02  0.63292373591E+02  0.00000000000E+00 0.  1.
</event>
<event>
 8    1  0.1790275E-005  0.9315020E+02  0.7561462E-02  0.1295397E+00
          2   -1    0    0  501    0  0.00000000000E+00  0.00000000000E+00  0.28993127836E+03  0.28993127836E+03  0.00000000000E+00 0. -1.
         -2   -1    0    0    0  501 -0.00000000000E+00 -0.00000000000E+00 -0.48070915363E+02  0.48070915363E+02  0.00000000000E+00 0.  1.
         23    2    1    2    0    0  0.25592811337E+02  0.29774958282E+02  0.59815421378E+02  0.11365880698E+03  0.88311378859E+02 0.  0.
         23    2    1    2    0    0 -0.25592811337E+02 -0.29774958282E+02  0.18204494162E+03  0.22434338675E+03  0.12509218311E+03 0.  0.
          5    1    4    4  502    0 -0.40271344229E+02 -0.57014493968E+02  0.43567703626E+02  0.82389628520E+02  0.41800000000E+01 0.  1.
         -5    1    4    4    0  502  0.14678532892E+02  0.27239535685E+02  0.13847723800E+03  0.14195375823E+03  0.41800000000E+01 0.  1.
        -11    1    3    3    0    0 -0.62960231028E+01  0.48005507729E+02  0.64077072474E+01  0.48838789824E+02  0.00000000000E+00 0.  1.
         11    1    3    3    0    0  0.31888834440E+02 -0.18230549447E+02  0.53407714131E+02  0.64820017153E+02  0.00000000000E+00 0. -1.
</event>
<event>
 8    1  0.1790275E-005  0.1136424E+03  0.7561462E-02  0.1253970E+00
         -1   -1    0    0    0  501 -0.00000000000E+00  0.00000000000E+00  0.30932726710E+03  0.30932726710E+03  0.00000000000E+00 0.  1.
          1   -1    0    0  501    0  0.00000000000E+00 -0.00000000000E+00 -0.45780443337E+02  0.45780443337E+02  0.00000000000E+00 0. -1.
         23    2    1    2    0    0  0.39672354637E+02  0.32580547471E+01  0.15953508099E+03  0.18762021429E+03  0.90362559174E+02 0.  0.
         23    2    1    2    0    0 -0.39672354637E+02 -0.32580547471E+01  0.10401174278E+03  0.16748749615E+03  0.12509639519E+03 0.  0.
          5    1    4    4  502    0  0.61182116194E+01  0.54506414929E+02  0.60587082585E+02  0.81833054190E+02  0.41800000000E+01 0. -1.
         -5    1    4    4    0  502 -0.45790566257E+02 -0.57764469676E+02  0.43424660194E+02  0.85654441963E+02  0.41800000000E+01 0. -1.
        -11    1    3    3    0    0  0.29759201252E+02  0.45880287685E+02  0.95772804252E+02  0.11028617725E+03  0.00000000000E+00 0. -1.
         11    1    3    3    0    0  0.99131533849E+01 -0.42622232938E+02  0.63762276734E+02  0.77334037040E+02  0.00000000000E+00 0.  1.
</event>
<event>
 8    1  0.1790275E-005  0.1353321E+03  0.7561462E-02  0.1219752E+00
          1   -1    0    0  501    0  0.00000000000E+00  0.00000000000E+00  0.32692004328E+03  0.32692004328E+03  0.00000000000E+00 0. -1.
         -1   -1    0    0    0  501 -0.00000000000E+00 -0.00000000000E+00 -0.80497232074E+02  0.80497232074E+02  0.00000000000E+00 0.  1.
         23    2    1    2    0    0  0.24206858711E+02  0.84060300897E+02  0.10620261700E+02  0.12652625886E+03  0.90796464833E+02 0.  0.
         23    2    1    2    0    0 -0.24206858711E+02 -0.84060300897E+02  0.23580254951E+03  0.28089101650E+03  0.12507923329E+03 0.  0.
          5    1    4    4  502    0  0.16702743151E+02 -0.10162271241E+03  0.12910333345E+03  0.16520078818E+03  0.41800000000E+01 0.  1.
         -5    1    4    4    0  502 -0.40909601863E+02  0.17562411509E+02  0.10669921606E+03  0.11569022832E+03  0.41800000000E+01 0.  1.
        -11    1    3    3    0    0 -0.12113377200E+02 -0.13878140681E+02 -0.85780990183E+01  0.20320444846E+02  0.00000000000E+00 0.  1.
         11    1    3    3    0    0  0.36320235912E+02  0.97938441578E+02  0.19198360719E+02  0.10620581401E+03  0.00000000000E+00 0. -1.
</event>
<event>
 8    1  0.1790275E-005  0.1431543E+03  0.7561462E-02  0.1209147E+00
         -2   -1    0    0    0  501 -0.00000000000E+00  0.00000000000E+00  0.25568338624E+03  0.25568338624E+03  0.00000000000E+00 0.  1.
          2   -1    0    0  501    0  0.00000000000E+00 -0.00000000000E+00 -0.89737088836E+02  0.89737088836E+02  0.00000000000E+00 0. -1.
         23    2    1    2    0    0  0.49841274137E+02 -0.90672528660E+02  0.96158200945E+02  0.16871892881E+03  0.92271432567E+02 0.  0.
         23    2    1    2    0    0 -0.49841274137E+02  0.90672528660E+02  0.69788096455E+02  0.17670154626E+03  0.12508955985E+03 0.  0.
          5    1    4    4  502    0 -0.28187809296E+02 -0.28840429780E+02  0.21861647292E+02  0.46062207993E+02  0.41800000000E+01 0. -1.
         -5    1    4    4    0  502 -0.21653464841E+02  0.11951295844E+03  0.47926449163E+02  0.13063933827E+03  0.41800000000E+01 0. -1.
        -11    1    3    3    0    0  0.67171565231E+02 -0.76837473637E+02  0.42306410412E+02  0.11048008369E+03  0.00000000000E+00 0. -1.
         11    1    3    3    0    0 -0.17330291094E+02 -0.13835055023E+02  0.53851790534E+02  0.58238845117E+02  0.00000000000E+00 0.  1.
</event>
<event>
 8    1  0.1790275E-005  0.1089800E+03  0.7561462E-02  0.1262470E+00
          2   -1    0    0  501    0  0.00000000000E+00  0.00000000000E+00  0.45030735096E+03  0.45030735096E+03  0.00000000000E+00 0. -1.
         -2   -1    0    0    0  501 -0.00000000000E+00 -0.00000000000E+00 -0.31573339356E+02  0.31573339356E+02  0.00000000000E+00 0.  1.
         23    2    1    2    0    0 -0.15305113258E+02  0.46600934755E+02  0.18483619819E+03  0.21213760266E+03  0.91826187365E+02 0.  0.
         23    2    1    2    0    0  0.15305113258E+02 -0.46600934755E+02  0.23389781341E+03  0.26974308766E+03  0.12508897877E+03 0.  0.
          5    1    4    4  502    0  0.64334128410E+02 -0.31089103014E+00  0.89288162355E+02  0.11013094510E+03  0.41800000000E+01 0.  1.
         -5    1    4    4    0  502 -0.49029015152E+02 -0.46290043725E+02  0.14460965105E+03  0.15961214256E+03  0.41800000000E+01 0.  1.
        -11    1    3    3    0    0  0.25952450219E+02  0.34038819879E+02  0.15205724271E+03  0.15796700918E+03  0.00000000000E+00 0. -1.
         11    1    3    3    0    0 -0.41257563478E+02  0.12562114876E+02  0.32778955489E+02  0.54170593473E+02  0.00000000000E+00 0.  1.
</event>
<event>
 8    1  0.1790275E-005  0.1774122E+03  0.7561462E-02  0.1170331E+00
         -2   -1    0    0    0  501 -0.00000000000E+00  0.00000000000E+00  0.21923595079E+02  0.21923595079E+02  0.00000000000E+00 0.  1.
          2   -1    0    0  501    0  0.00000000000E+00 -0.00000000000E+00 -0.24990475142E+04  0.24990475142E+04  0.00000000000E+00 0. -1.
         23    2    1    2    0    0 -0.11791224077E+03 -0.79048761502E+02 -0.38612396725E+03  0.42142805997E+03  0.91421487769E+02 0.  0.
         23    2    1    2    0    0  0.11791224077E+03  0.79048761502E+02 -0.20909999518E+04  0.20995430493E+04  0.12509282138E+03 0.  0.
          5    1    4    4  502    0  0.44547595567E+02 -0.30466447333E+02 -0.79823310427E+03  0.80006640590E+03  0.41800000000E+01 0.  1.
         -5    1    4    4    0  502  0.73364645205E+02  0.10951520884E+03 -0.12927668476E+04  0.12994766434E+04  0.41800000000E+01 0.  1.
        -11    1    3    3    0    0 -0.93030361025E+02 -0.78186735223E+01 -0.21806543542E+03  0.23720943036E+03  0.00000000000E+00 0. -1.
         11    1    3    3    0    0 -0.24881879747E+02 -0.71230087980E+02 -0.16805853184E+03  0.18421862961E+03  0.00000000000E+00 0.  1.
</event>
<event>
 8    1  0.1790275E-005  0.9200091E+02  0.7561462E-02  0.1298077E+00
         -2   -1    0    0    0  501 -0.00000000000E+00  0.00000000000E+00  0.38061622386E+02  0.38061622386E+02  0.00000000000E+00 0.  1.
          2   -1    0    0  501    0  0.00000000000E+00 -0.00000000000E+00 -0.38784604814E+03  0.38784604814E+03  0.00000000000E+00 0. -1.
         23    2    1    2    0    0  0.41297618383E+02  0.34968000672E+02 -0.12036896389E+03  0.16400323509E+03  0.97365904179E+02 0.  0.
         23    2    1    2    0    0 -0.41297618383E+02 -0.34968000672E+02 -0.22941546186E+03  0.26190443544E+03  0.11416752955E+03 0.  0.
          5    1    4    4  502    0  0.18106339461E+02 -0.14452091852E+02 -0.18083366092E+03  0.18235950156E+03  0.41800000000E+01 0. -1.
         -5    1    4    4    0  502 -0.59403957844E+02 -0.20515908820E+02 -0.48581800943E+02  0.79544933875E+02  0.41800000000E+01 0.  1.
        -11    1    3    3    0    0  0.44321250452E+02  0.58698984411E+02 -0.48115189062E+02  0.87892066940E+02  0.00000000000E+00 0.  1.
         11    1    3    3    0    0 -0.30236320690E+01 -0.23730983740E+02 -0.72253774825E+02  0.76111168147E+02  0.00000000000E+00 0. -1.
</event>
<event>
 8    1  0.1790275E-005  0.1163042E+03  0.7561462E-02  0.1249321E+00
         -1   -1    0    0    0  501 -0.00000000000E+00  0.00000000000E+00  0.66586037687E+02  0.66586037687E+02  0.00000000000E+00 0. -1.
          1   -1    0    0  501    0  0.00000000000E+00 -0.00000000000E+00 -0.30390030408E+03  0.30390030408E+03  0.00000000000E+00 0.  1.
         23    2    1    2    0    0  0.55533689743E+02 -0.63124923989E+02 -0.61390313234E+02  0.13882851246E+03  0.91846821325E+02 0.  0.
         23    2    1    2    0    0 -0.55533689743E+02  0.63124923989E+02 -0.17592395316E+03  0.23165782931E+03  0.12508943145E+03 0.  0.
          5    1    4    4  502    0 -0.10313569289E+02  0.61711798646E+02 -0.15045798446E+02  0.64486930881E+02  0.41800000000E+01 0.  1.
         -5    1    4    4    0  502 -0.45220120455E+02  0.14131253430E+01 -0.16087815471E+03  0.16717089843E+03  0.41800000000E+01 0.  1.
        -11    1    3    3    0    0  0.81270152387E+02 -0.44123425713E+02 -0.43863632620E+02  0.10235102653E+03  0.00000000000E+00 0.  1.
         11    1    3    3    0    0 -0.25736462644E+02 -0.19001498276E+02 -0.17526680614E+02  0.36477485926E+02  0.00000000000E+00 0. -1.
</event>
<event>
 8    1  0.1790275E-005  0.1080469E+03  0.7561462E-02  0.1264230E+00
         -3   -1    0    0    0  501 -0.00000000000E+00  0.00000000000E+00  0.16828997033E+03  0.16828997033E+03  0.00000000000E+00 0.  1.
          3   -1    0    0  501    0  0.00000000000E+00 -0.00000000000E+00 -0.92630359116E+02  0.92630359116E+02  0.00000000000E+00 0. -1.
         23    2    1    2    0    0  0.32985608531E+02 -0.50430705856E+02  0.39931103854E+02  0.11754807464E+03  0.92691695063E+02 0.  0.
         23    2    1    2    0    0 -0.32985608531E+02  0.50430705856E+02  0.35728507361E+02  0.14337225481E+03  0.12509104983E+03 0.  0.
          5    1    4    4  502    0 -0.28214390200E+02  0.77043314146E+02  0.63917886192E+02  0.10408982969E+03  0.41800000000E+01 0. -1.
         -5    1    4    4    0  502 -0.47712183314E+01 -0.26612608290E+02 -0.28189378831E+02  0.39282425119E+02  0.41800000000E+01 0. -1.
        -11    1    3    3    0    0 -0.25141053188E+02  0.56984381487E+01  0.23933889859E+02  0.35176353372E+02  0.00000000000E+00 0.  1.
         11    1    3    3    0    0  0.58126661720E+02 -0.56129144004E+02  0.15997213995E+02  0.82371721270E+02  0.00000000000E+00 0. -1.
</event>
<event>
 8    1  0.1790275E-005  0.1237721E+03  0.7561462E-02  0.1237001E+00
          2   -1    0    0  501    0  0.00000000000E+00  0.00000000000E+00  0.62977274147E+03  0.62977274147E+03  0.00000000000E+00 0. -1.
         -2   -1    0    0    0  501 -0.00000000000E+00 -0.00000000000E+00 -0.32572927888E+02  0.32572927888E+02  0.00000000000E+00 0.  1.
         23    2    1    2    0    0 -0.67250806263E+02  0.53007303993E+02  0.35457392590E+03  0.37625524725E+03  0.92265361527E+02 0.  0.
         23    2    1    2    0    0  0.67250806263E+02 -0.53007303993E+02  0.24262588768E+03  0.28609042210E+03  0.12509181838E+03 0.  0.
          5    1    4    4  502    0  0.69952871847E+02  0.12943634411E+02  0.18542533413E+03  0.19864785145E+03  0.41800000000E+01 0.  1.
         -5    1    4    4    0  502 -0.27020655834E+01 -0.65950938404E+02  0.57200553553E+02  0.87442570648E+02  0.41800000000E+01 0.  1.
        -11    1    3    3    0    0 -0.65011166230E+02  0.84831117395E+01  0.11333905601E+03  0.13093569619E+03  0.00000000000E+00 0.  1.
         11    1    3    3    0    0 -0.22396400333E+01  0.44524192254E+02  0.24123486989E+03  0.24531955106E+03  0.00000000000E+00 0. -1.
</event>
<event>
 8    1  0.1790275E-005  0.8580416E+02  0.7561462E-02  0.1313343E+00
         -1   -1    0    0    0  501 -0.00000000000E+00  0.00000000000E+00  0.20791592831E+03  0.20791592831E+03  0.00000000000E+00 0.  1.
          1   -1    0    0  501    0  0.00000000000E+00 -0.00000000000E+00 -0.51604497787E+02  0.51604497787E+02  0.00000000000E+00 0. -1.
         23    2    1    2    0    0  0.23825482704E+02  0.20515346415E+02  0.97164943771E+02  0.11757513829E+03  0.58261082911E+02 0.  0.
         23    2    1    2    0    0 -0.23825482704E+02 -0.20515346415E+02  0.59146486749E+02  0.14194528780E+03  0.12514641333E+03 0.  0.
          5    1    4    4  502    0 -0.30909669837E+02 -0.70952320075E+02  0.29959660233E+02  0.83094482697E+02  0.41800000000E+01 0. -1.
         -5    1    4    4    0  502  0.70841871325E+01  0.50436973660E+02  0.29186826516E+02  0.58850805104E+02  0.41800000000E+01 0. -1.
        -11    1    3    3    0    0  0.15206883858E+02  0.27817932904E+02  0.10083195141E+03  0.10569848217E+03  0.00000000000E+00 0.  1.
         11    1    3    3    0    0  0.86185988467E+01 -0.73025864897E+01 -0.36670076433E+01  0.11876656119E+02  0.00000000000E+00 0. -1.
</event>
<event>
 8    1  0.1790275E-005  0.1103136E+03  0.7561462E-02  0.1259990E+00
         -2   -1    0    0    0  501 -0.00000000000E+00  0.00000000000E+00  0.14796080373E+03  0.14796080373E+03  0.00000000000E+00 0.  1.
          2   -1    0    0  501    0  0.00000000000E+00 -0.00000000000E+00 -0.13062362414E+03  0.13062362414E+03  0.00000000000E+00 0. -1.
         23    2    1    2    0    0  0.70375852245E+02  0.45300202532E+02  0.27117542655E+02  0.12775902667E+03  0.92639834022E+02 0.  0.
         23    2    1    2    0    0 -0.70375852245E+02 -0.45300202532E+02 -0.97803630668E+01  0.15082540120E+03  0.12509107569E+03 0.  0.
          5    1    4    4  502    0 -0.59563851040E+02  0.10923539999E+02  0.41758574860E+02  0.73677859979E+02  0.41800000000E+01 0. -1.
         -5    1    4    4    0  502 -0.10812001205E+02 -0.56223742531E+02 -0.51538937927E+02  0.77147541224E+02  0.41800000000E+01 0. -1.
        -11    1    3    3    0    0 -0.11895539552E+01  0.29124728628E+02  0.43707838741E+02  0.52536083064E+02  0.00000000000E+00 0.  1.
         11    1    3    3    0    0  0.71565406201E+02  0.16175473904E+02 -0.16590296087E+02  0.75222943607E+02  0.00000000000E+00 0. -1.
</event>
<event>
 8    1  0.1790275E-005  0.6817426E+02  0.7561462E-02  0.1366414E+00
          2   -1    0    0  501    0  0.00000000000E+00  0.00000000000E+00  0.42329384577E+03  0.42329384577E+03  0.00000000000E+00 0. -1.
         -2   -1    0    0    0  501 -0.00000000000E+00 -0.00000000000E+00 -0.42318513660E+02  0.42318513660E+02  0.00000000000E+00 0.  1.
         23    2    1    2    0    0  0.89536212512E+01 -0.17588913152E+02  0.39980440574E+02  0.10186609218E+03  0.91589998956E+02 0.  0.
         23    2    1    2    0    0 -0.89536212512E+01  0.17588913152E+02  0.34099489154E+03  0.36374626725E+03  0.12507715092E+03 0.  0.
          5    1    4    4  502    0 -0.13254011924E+02  0.48849329908E+02  0.32342548932E+03  0.32738882908E+03  0.41800000000E+01 0.  1.
         -5    1    4    4    0  502  0.43003906731E+01 -0.31260416756E+02  0.17569402214E+02  0.36357438164E+02  0.41800000000E+01 0.  1.
        -11    1    3    3    0    0  0.16944676080E+02 -0.32590924913E+02  0.63194324294E+02  0.73094548751E+02  0.00000000000E+00 0. -1.
         11    1    3    3    0    0 -0.79910548284E+01  0.15002011760E+02 -0.23213883720E+02  0.28771543433E+02  0.00000000000E+00 0.  1.
</event>
<event>
 8    1  0.1790275E-005  0.1186415E+03  0.7561462E-02  0.1245355E+00
         -2   -1    0    0    0  501 -0.00000000000E+00  0.00000000000E+00  0.24449276142E+03  0.24449276142E+03  0.00000000000E+00 0. -1.
          2   -1    0    0  501    0  0.00000000000E+00 -0.00000000000E+00 -0.80148772436E+02  0.80148772436E+02  0.00000000000E+00 0.  1.
         23    2    1    2    0    0  0.83360136481E+02 -0.36353507406E+01  0.78331642587E+02  0.15141355512E+03  0.99136725357E+02 0.  0.
         23    2    1    2    0    0 -0.83360136481E+02  0.36353507406E+01  0.86012346401E+02  0.17322797874E+03  0.12509069012E+03 0.  0.
          5    1    4    4  502    0 -0.66535623915E+02  0.41133541662E+02  0.10227742495E+03  0.12882973862E+03  0.41800000000E+01 0.  1.
         -5    1    4    4    0  502 -0.16824512566E+02 -0.37498190922E+02 -0.16265078546E+02  0.44398240118E+02  0.41800000000E+01 0.  1.
        -11    1    3    3    0    0  0.92021387651E+02  0.18503419936E+02  0.85098233502E+02  0.12669657328E+03  0.00000000000E+00 0. -1.
         11    1    3    3    0    0 -0.86612511701E+01 -0.22138770677E+02 -0.67665909143E+01  0.24716981845E+02  0.00000000000E+00 0.  1.
</event>
<event>
 8    1  0.1790275E-005  0.1416945E+03  0.7561462E-02  0.1211067E+00
         -1   -1    0    0    0  501 -0.00000000000E+00  0.00000000000E+00  0.56122512029E+03  0.56122512029E+03  0.00000000000E+00 0.  1.
          1   -1    0    0  501    0  0.00000000000E+00 -0.00000000000E+00 -0.63344710871E+02  0.63344710871E+02  0.00000000000E+00 0. -1.
         23    2    1    2    0    0  0.69517058063E+02 -0.92735435375E+02  0.40459065886E+03  0.43019089978E+03  0.89096165362E+02 0.  0.
         23    2    1    2    0    0 -0.69517058063E+02  0.92735435375E+02  0.93289750560E+02  0.19437893138E+03  0.12509080330E+03 0.  0.
          5    1    4    4  502    0 -0.49085411844E+02 -0.19193125170E+02  0.49400366178E+02  0.72357600073E+02  0.41800000000E+01 0. -1.
         -5    1    4    4    0  502 -0.20431646219E+02  0.11192856055E+03  0.43889384382E+02  0.12202133131E+03  0.41800000000E+01 0. -1.
        -11    1    3    3    0    0  0.34058274354E+02 -0.56461594890E+02  0.34800646189E+03  0.35419821466E+03  0.00000000000E+00 0.  1.
         11    1    3    3    0    0  0.35458783709E+02 -0.36273840485E+02  0.56584196971E+02  0.75992685125E+02  0.00000000000E+00 0. -1.
</event>
<event>
 8    1  0.1790275E-005  0.9938278E+02  0.7561462E-02  0.1281599E+00
         -2   -1    0    0    0  501 -0.00000000000E+00  0.00000000000E+00  0.84133304039E+02  0.84133304039E+02  0.00000000000E+00 0.  1.
          2   -1    0    0  501    0  0.00000000000E+00 -0.00000000000E+00 -0.14618770480E+03  0.14618770480E+03  0.00000000000E+00 0. -1.
         23    2    1    2    0    0  0.78407414363E+01 -0.15949172516E+02 -0.84185407120E+01  0.93053858115E+02  0.90952159689E+02 0.  0.
         23    2    1    2    0    0 -0.78407414363E+01  0.15949172516E+02 -0.53635860051E+02  0.13726715073E+03  0.12509840868E+03 0.  0.
          5    1    4    4  502    0  0.41537978714E+02 -0.21025731511E+02 -0.58922881090E+02  0.75212122541E+02  0.41800000000E+01 0.  1.
         -5    1    4    4    0  502 -0.49378720151E+02  0.36974904027E+02  0.52870210386E+01  0.62055028185E+02  0.41800000000E+01 0.  1.
        -11    1    3    3    0    0 -0.12892834184E+02  0.33864815105E+02  0.70676669799E+01  0.36918867695E+02  0.00000000000E+00 0. -1.
         11    1    3    3    0    0  0.20733575620E+02 -0.49813987621E+02 -0.15486207692E+02  0.56134990419E+02  0.00000000000E+00 0.  1.
</event>
<event>
 8    1  0.1790275E-005  0.1118292E+03  0.7561462E-02  0.1257219E+00
         -1   -1    0    0    0  501 -0.00000000000E+00  0.00000000000E+00  0.32934758687E+02  0.32934758687E+02  0.00000000000E+00 0.  1.
          1   -1    0    0  501    0  0.00000000000E+00 -0.00000000000E+00 -0.14409511271E+04  0.14409511271E+04  0.00000000000E+00 0. -1.
         23    2    1    2    0    0  0.66822999725E+02  0.38158017811E+02 -0.96982657821E+02  0.15557063040E+03  0.94208478975E+02 0.  0.
         23    2    1    2    0    0 -0.66822999725E+02 -0.38158017811E+02 -0.13110337106E+04  0.13183152554E+04  0.11499728105E+03 0.  0.
          5    1    4    4  502    0 -0.72968762983E+02  0.22582344577E+02 -0.66293479974E+03  0.66733381734E+03  0.41800000000E+01 0. -1.
         -5    1    4    4    0  502  0.61457632578E+01 -0.60740362389E+02 -0.64809891087E+03  0.65098143806E+03  0.41800000000E+01 0.  1.
        -11    1    3    3    0    0  0.58009669541E+02  0.13190915572E+02 -0.48260478975E+01  0.59685951045E+02  0.00000000000E+00 0.  1.
         11    1    3    3    0    0  0.88133301839E+01  0.24967102239E+02 -0.92156609924E+02  0.95884679359E+02  0.00000000000E+00 0. -1.
</event>
<event>
 8    1  0.1790275E-005  0.1552844E+03  0.7561462E-02  0.1194126E+00
         -1   -1    0    0    0  501 -0.00000000000E+00  0.00000000000E+00  0.64543180655E+02  0.64543180655E+02  0.00000000000E+00 0.  1.
          1   -1    0    0  501    0  0.00000000000E+00 -0.00000000000E+00 -0.44374215480E+03  0.44374215480E+03  0.00000000000E+00 0. -1.
         23    2    1    2    0    0 -0.12620002118E+03  0.32379613274E+02 -0.17702885859E+03  0.23717980932E+03  0.89107578079E+02 0.  0.
         23    2    1    2    0    0  0.12620002118E+03 -0.32379613274E+02 -0.20217011555E+03  0.27110552614E+03  0.12510222211E+03 0.  0.
          5    1    4    4  502    0  0.14742448413E+03 -0.21747071028E+02 -0.14033942793E+03  0.20474262149E+03  0.41800000000E+01 0.  1.
         -5    1    4    4    0  502 -0.21224462951E+02 -0.10632542246E+02 -0.61830687619E+02  0.66362904650E+02  0.41800000000E+01 0.  1.
        -11    1    3    3    0    0 -0.92845034452E+02  0.43085870986E+02 -0.17418660822E+03  0.20203357935E+03  0.00000000000E+00 0. -1.
         11    1    3    3    0    0 -0.33354986732E+02 -0.10706257712E+02 -0.28422503751E+01  0.35146229972E+02  0.00000000000E+00 0.  1.
</event>
<event>
 8    1  0.1790275E-005  0.1011468E+03  0.7561462E-02  0.1277903E+00
          1   -1    0    0  501    0  0.00000000000E+00  0.00000000000E+00  0.15689988374E+04  0.15689988374E+04  0.00000000000E+00 0. -1.
         -1   -1    0    0    0  501 -0.00000000000E+00 -0.00000000000E+00 -0.11912468750E+02  0.11912468750E+02  0.00000000000E+00 0.  1.
         23    2    1    2    0    0 -0.23142785357E+02  0.97364824518E+01  0.25850439495E+03  0.27607683740E+03  0.93613622582E+02 0.  0.
         23    2    1    2    0    0  0.23142785357E+02 -0.97364824518E+01  0.12985819737E+04  0.13048344687E+04  0.12508981106E+03 0.  0.
          5    1    4    4  502    0  0.62103186740E+02  0.96244194243E+01  0.37765902155E+03  0.38287497204E+03  0.41800000000E+01 0. -1.
         -5    1    4    4    0  502 -0.38960401383E+02 -0.19360901876E+02  0.92092295213E+03  0.92195949670E+03  0.41800000000E+01 0. -1.
        -11    1    3    3    0    0  0.35919538265E+02  0.13084716437E+01  0.76055211467E+02  0.84120868507E+02  0.00000000000E+00 0.  1.
         11    1    3    3    0    0 -0.59062323622E+02  0.84280108080E+01  0.18244918349E+03  0.19195596889E+03  0.00000000000E+00 0. -1.
</event>
<event>
 8    1  0.1790275E-005  0.1259793E+03  0.7561462E-02  0.1233547E+00
         -2   -1    0    0    0  501 -0.00000000000E+00  0.00000000000E+00  0.13351063098E+02  0.13351063098E+02  0.00000000000E+00 0.  1.
          2   -1    0    0  501    0  0.00000000000E+00 -0.00000000000E+00 -0.15412787072E+04  0.15412787072E+04  0.00000000000E+00 0. -1.
         23    2    1    2    0    0  0.33471783529E+02  0.60459060241E+02 -0.33380359523E+03  0.35198434396E+03  0.87706783933E+02 0.  0.
         23    2    1    2    0    0 -0.33471783529E+02 -0.60459060241E+02 -0.11941240489E+04  0.12026454264E+04  0.12509244236E+03 0.  0.
          5    1    4    4  502    0  0.20074430270E+02  0.30527523113E+02 -0.35343748070E+03  0.35534551858E+03  0.41800000000E+01 0. -1.
         -5    1    4    4    0  502 -0.53546213799E+02 -0.90986583354E+02 -0.84068656821E+03  0.84729990778E+03  0.41800000000E+01 0. -1.
        -11    1    3    3    0    0  0.44027994388E+02 -0.40005017426E+01 -0.16957222144E+03  0.17524042509E+03  0.00000000000E+00 0. -1.
         11    1    3    3    0    0 -0.10556210859E+02  0.64459561984E+02 -0.16423137379E+03  0.17674391887E+03  0.00000000000E+00 0.  1.
</event>
<event>
 8    1  0.1790275E-005  0.1274727E+03  0.7561462E-02  0.1231255E+00
         -1   -1    0    0    0  501 -0.00000000000E+00  0.00000000000E+00  0.81227442212E+02  0.81227442212E+02  0.00000000000E+00 0.  1.
          1   -1    0    0  501    0  0.00000000000E+00 -0.00000000000E+00 -0.23263829428E+03  0.23263829428E+03  0.00000000000E+00 0. -1.
         23    2    1    2    0    0  0.11285804898E+02  0.82779746818E+02 -0.78122523419E+02  0.14653583590E+03  0.91595669457E+02 0.  0.
         23    2    1    2    0    0 -0.11285804898E+02 -0.82779746818E+02 -0.73288328648E+02  0.16732990059E+03  0.12509300795E+03 0.  0.
          5    1    4    4  502    0 -0.31040730833E+02  0.13184388125E+02  0.13314849346E+02  0.36498118773E+02  0.41800000000E+01 0.  1.
         -5    1    4    4    0  502  0.19754925935E+02 -0.95964134944E+02 -0.86603177994E+02  0.13083178181E+03  0.41800000000E+01 0.  1.
        -11    1    3    3    0    0 -0.39767546967E+02  0.35125210611E+02 -0.43368689998E+02  0.68527961332E+02  0.00000000000E+00 0.  1.
         11    1    3    3    0    0  0.51053351865E+02  0.47654536207E+02 -0.34753833421E+02  0.78007874572E+02  0.00000000000E+00 0. -1.
</event>
<event>
 8    1  0.1790275E-005  0.1123528E+03  0.7561462E-02  0.1256274E+00
         -2   -1    0    0    0  501 -0.00000000000E+00  0.00000000000E+00  0.25987131146E+02  0.25987131146E+02  0.00000000000E+00 0.  1.
          2   -1    0    0  501    0  0.00000000000E+00 -0.00000000000E+00 -0.80471695213E+03  0.80471695213E+03  0.00000000000E+00 0. -1.
         23    2    1    2    0    0  0.66512513501E+02 -0.50561709509E+02 -0.17931198528E+03  0.21269995449E+03  0.78154217132E+02 0.  0.
         23    2    1    2    0    0 -0.66512513501E+02  0.50561709509E+02 -0.59941783571E+03  0.61800412879E+03  0.12508781120E+03 0.  0.
          5    1    4    4  502    0 -0.14306006105E+02  0.78092954322E+02 -0.45569550085E+03  0.46257867787E+03  0.41800000000E+01 0. -1.
         -5    1    4    4    0  502 -0.52206507396E+02 -0.27531244814E+02 -0.14372233486E+03  0.15542545092E+03  0.41800000000E+01 0. -1.
        -11    1    3    3    0    0  0.55710994681E+02 -0.50559386901E+02 -0.18555333411E+03  0.20022488939E+03  0.00000000000E+00 0. -1.
         11    1    3    3    0    0  0.10801518820E+02 -0.23226076623E-02  0.62413488265E+01  0.12475065106E+02  0.00000000000E+00 0.  1.
</event>
<event>
 8    1  0.1790275E-005  0.1030944E+03  0.7561462E-02  0.1273920E+00
          2   -1    0    0  501    0  0.00000000000E+00  0.00000000000E+00  0.37239548607E+03  0.37239548607E+03  0.00000000000E+00 0. -1.
         -2   -1    0    0    0  501 -0.00000000000E+00 -0.00000000000E+00 -0.55653613069E+02  0.55653613069E+02  0.00000000000E+00 0.  1.
         23    2    1    2    0    0  0.58025209825E+01  0.11855545661E+02 -0.13391212807E+00  0.87763070535E+02  0.86764712900E+02 0.  0.
         23    2    1    2    0    0 -0.58025209825E+01 -0.11855545661E+02  0.31687578513E+03  0.34028602860E+03  0.12332921328E+03 0.  0.
          5    1    4    4  502    0  0.12705244519E+02  0.53051342808E+02  0.17008106354E+03  0.17866423477E+03  0.41800000000E+01 0. -1.
         -5    1    4    4    0  502 -0.18507765502E+02 -0.64906888470E+02  0.14679472159E+03  0.16162179383E+03  0.41800000000E+01 0.  1.
        -11    1    3    3    0    0 -0.17596931378E+02  0.42091184360E+02  0.12831972366E+02  0.47391764153E+02  0.00000000000E+00 0. -1.
         11    1    3    3    0    0  0.23399452360E+02 -0.30235638699E+02 -0.12965884494E+02  0.40371306382E+02  0.00000000000E+00 0.  1.
</event>
<event>
 8    1  0.1790275E-005  0.1235987E+03  0.7561462E-02  0.1237276E+00
          1   -1    0    0  501    0  0.00000000000E+00  0.00000000000E+00  0.10255817741E+03  0.10255817741E+03  0.00000000000E+00 0. -1.
         -1   -1    0    0    0  501 -0.00000000000E+00 -0.00000000000E+00 -0.20760436771E+03  0.20760436771E+03  0.00000000000E+00 0.  1.
         23    2    1    2    0    0  0.22163558245E+02  0.56362352792E+02 -0.12848609150E+03  0.16922190263E+03  0.91975205883E+02 0.  0.
         23    2    1    2    0    0 -0.22163558245E+02 -0.56362352792E+02  0.23439901204E+02  0.14094064249E+03  0.12508755977E+03 0.  0.
          5    1    4    4  502    0 -0.15476675443E+02 -0.96522233344E+02  0.20016416904E+02  0.99870908468E+02  0.41800000000E+01 0.  1.
         -5    1    4    4    0  502 -0.66868828011E+01  0.40159880552E+02  0.34234843002E+01  0.41069734018E+02  0.41800000000E+01 0.  1.
        -11    1    3    3    0    0 -0.28426059561E+02  0.49895768341E+02 -0.53156321609E+02  0.78251026112E+02  0.00000000000E+00 0.  1.
         11    1    3    3    0    0  0.50589617806E+02  0.64665844508E+01 -0.75329769887E+02  0.90970876523E+02  0.00000000000E+00 0. -1.
</event>
<event>
 8    1  0.1790275E-005  0.5932522E+02  0.7561462E-02  0.1400685E+00
         -3   -1    0    0    0  501 -0.00000000000E+00  0.00000000000E+00  0.40479173090E+02  0.40479173090E+02  0.00000000000E+00 0.  1.
          3   -1    0    0  501    0  0.00000000000E+00 -0.00000000000E+00 -0.39012840016E+03  0.39012840016E+03  0.00000000000E+00 0. -1.
         23    2    1    2    0    0 -0.20482330058E+02  0.55075283392E+02 -0.10210808813E+03  0.14709314347E+03  0.88076776222E+02 0.  0.
         23    2    1    2    0    0  0.20482330058E+02 -0.55075283392E+02 -0.24754113894E+03  0.28351442978E+03  0.12510397171E+03 0.  0.
          5    1    4    4  502    0  0.81649854236E+01 -0.15656764504E+02 -0.24077456745E+03  0.24145737924E+03  0.41800000000E+01 0. -1.
         -5    1    4    4    0  502  0.12317344635E+02 -0.39418518888E+02 -0.67665714982E+01  0.42057050539E+02  0.41800000000E+01 0. -1.
        -11    1    3    3    0    0 -0.59506557288E+01  0.23417381036E+02  0.12573899761E+02  0.27237602563E+02  0.00000000000E+00 0.  1.
         11    1    3    3    0    0 -0.14531674330E+02  0.31657902356E+02 -0.11468198789E+03  0.11985554091E+03  0.00000000000E+00 0. -1.
</event>
<event>
 8    1  0.1790275E-005  0.1185819E+03  0.7561462E-02  0.1245455E+00
          2   -1    0    0  501    0  0.00000000000E+00  0.00000000000E+00  0.36614105602E+03  0.36614105602E+03  0.00000000000E+00 0. -1.
         -2   -1    0    0    0  501 -0.00000000000E+00 -0.00000000000E+00 -0.90352213437E+02  0.90352213437E+02  0.00000000000E+00 0.  1.
         23    2    1    2    0    0  0.67484989569E+02 -0.52425534684E+02 -0.16897065425E+02  0.12692599528E+03  0.92314879375E+02 0.  0.
         23    2    1    2    0    0 -0.67484989569E+02  0.52425534684E+02  0.29268590800E+03  0.32956727417E+03  0.12508751719E+03 0.  0.
          5    1    4    4  502    0  0.17308500544E+02 -0.11673976915E+02  0.15046475879E+03  0.15196375214E+03  0.41800000000E+01 0.  1.
         -5    1    4    4    0  502 -0.84793490113E+02  0.64099511599E+02  0.14222114921E+03  0.17760352203E+03  0.41800000000E+01 0.  1.
        -11    1    3    3    0    0  0.64350119447E+02 -0.78707009468E+01 -0.40467570316E+02  0.76423229803E+02  0.00000000000E+00 0.  1.
         11    1    3    3    0    0  0.31348701211E+01 -0.44554833737E+02  0.23570504891E+02  0.50502765477E+02  0.00000000000E+00 0. -1.
</event>
<event>
 8    1  0.1790275E-005  0.1176880E+03  0.7561462E-02  0.1246961E+00
          4   -1    0    0  501    0  0.00000000000E+00  0.00000000000E+00  0.11625337850E+03  0.11625337850E+03  0.00000000000E+00 0. -1.
         -4   -1    0    0    0  501 -0.00000000000E+00 -0.00000000000E+00 -0.19640343624E+03  0.19640343624E+03  0.00000000000E+00 0.  1.
         23    2    1    2    0    0  0.73723959328E+01 -0.90138799585E+02  0.18690757329E+02  0.12936354098E+03  0.90588221705E+02 0.  0.
         23    2    1    2    0    0 -0.73723959328E+01  0.90138799585E+02 -0.98840815078E+02  0.18329327377E+03  0.12509021572E+03 0.  0.
          5    1    4    4  502    0 -0.10466672985E+02 -0.13094687858E+02 -0.75333849652E+02  0.77289607302E+02  0.41800000000E+01 0.  1.
         -5    1    4    4    0  502  0.30942770525E+01  0.10323348744E+03 -0.23506965426E+02  0.10600366646E+03  0.41800000000E+01 0.  1.
        -11    1    3    3    0    0 -0.82314409190E+01  0.10246746411E+02  0.24290296652E+02  0.27618308114E+02  0.00000000000E+00 0. -1.
         11    1    3    3    0    0  0.15603836852E+02 -0.10038554600E+03 -0.55995393231E+01  0.10174523286E+03  0.00000000000E+00 0.  1.
</event>
<event>
 8    1  0.1790275E-005  0.1068474E+03  0.7561462E-02  0.1266522E+00
         -1   -1    0    0    0  501 -0.00000000000E+00  0.00000000000E+00  0.33960724634E+02  0.33960724634E+02  0.00000000000E+00 0.  1.
          1   -1    0    0  501    0  0.00000000000E+00 -0.00000000000E+00 -0.43936905339E+03  0.43936905339E+03  0.00000000000E+00 0. -1.
         23    2    1    2    0    0 -0.30137893155E+02 -0.48453995997E+02 -0.18832041328E+03  0.21635927564E+03  0.89948183774E+02 0.  0.
         23    2    1    2    0    0  0.30137893155E+02  0.48453995997E+02 -0.21708791548E+03  0.25697050239E+03  0.12510233299E+03 0.  0.
          5    1    4    4  502    0  0.63599757709E+02  0.56792322429E+02 -0.20161306149E+03  0.21894199238E+03  0.41800000000E+01 0.  1.
         -5    1    4    4    0  502 -0.33461864554E+02 -0.83383264326E+01 -0.15474853993E+02  0.38028510005E+02  0.41800000000E+01 0.  1.
        -11    1    3    3    0    0 -0.53020787691E+02 -0.19070638675E+02 -0.58170975973E+02  0.80986144694E+02  0.00000000000E+00 0.  1.
         11    1    3    3    0    0  0.22882894536E+02 -0.29383357322E+02 -0.13014943731E+03  0.13537313094E+03  0.00000000000E+00 0. -1.
</event>
<event>
 8    1  0.1790275E-005  0.1676114E+03  0.7561462E-02  0.1180362E+00
         -4   -1    0    0    0  501 -0.00000000000E+00  0.00000000000E+00  0.29450734541E+03  0.29450734541E+03  0.00000000000E+00 0.  1.
          4   -1    0    0  501    0  0.00000000000E+00 -0.00000000000E+00 -0.11043702178E+03  0.11043702178E+03  0.00000000000E+00 0. -1.
         23    2    1    2    0    0  0.10096233479E+03  0.99228550095E+02  0.11669148923E+03  0.20437913657E+03  0.90079018684E+02 0.  0.
         23    2    1    2    0    0 -0.10096233479E+03 -0.99228550095E+02  0.67378834396E+02  0.20056523061E+03  0.12508719441E+03 0.  0.
          5    1    4    4  502    0  0.21847433262E+02  0.91728072035E+01  0.15771669390E+02  0.28769231611E+02  0.41800000000E+01 0. -1.
         -5    1    4    4    0  502 -0.12280976805E+03 -0.10840135730E+03  0.51607165006E+02  0.17179599900E+03  0.41800000000E+01 0. -1.
        -11    1    3    3    0    0  0.52929607936E+02  0.79201873157E+02  0.24253632702E+02  0.98299129229E+02  0.00000000000E+00 0. -1.
         11    1    3    3    0    0  0.48032726851E+02  0.20026676938E+02  0.92437856533E+02  0.10608000734E+03  0.00000000000E+00 0.  1.
</event>
<event>
 7    1  0.1790275E-005  0.1055680E+03  0.7561462E-02  0.1269005E+00
          1   -1    0    0  501    0  0.00000000000E+00  0.00000000000E+00  0.88722211277E+03  0.88722211277E+03  0.00000000000E+00 0. -1.
         -1   -1    0    0    0  501 -0.00000000000E+00 -0.00000000000E+00 -0.28059960284E+02  0.28059960284E+02  0.00000000000E+00 0.  1.
         23    2    1    2    0    0  0.39650209912E+02 -0.36371632177E+02  0.13931852167E+03  0.17931098424E+03  0.99235799063E+02 0.  0.
          5    1    1    2  502    0 -0.57349383767E+02 -0.14806389310E+00  0.66569393642E+03  0.66817277940E+03  0.41800000000E+01 0. -1.
         -5    1    1    2    0  502  0.17699173855E+02  0.36519696070E+02  0.54149694393E+02  0.67798309411E+02  0.41800000000E+01 0.  1.
        -11    1    3    3    0    0 -0.27631420195E+02  0.11843859346E+02  0.39433135020E+02  0.49585729033E+02  0.00000000000E+00 0. -1.
         11    1    3    3    0    0  0.67281630106E+02 -0.48215491523E+02  0.99885386645E+02  0.12972525520E+03  0.00000000000E+00 0.  1.
</event>
<event>
 8    1  0.1790275E-005  0.1204272E+03  0.7561462E-02  0.1242394E+00
         -2   -1    0    0    0  501 -0.00000000000E+00  0.00000000000E+00  0.26874461434E+02  0.26874461434E+02  0.00000000000E+00 0.  1.
          2   -1    0    0  501    0  0.00000000000E+00 -0.00000000000E+00 -0.83329424178E+03  0.83329424178E+03  0.00000000000E+00 0. -1.
         23    2    1    2    0    0 -0.50574803707E+02  0.43615460306E+02 -0.14341845343E+03  0.18217237704E+03  0.90320557042E+02 0.  0.
         23    2    1    2    0    0  0.50574803707E+02 -0.43615460306E+02 -0.66300132692E+03  0.67799632618E+03  0.12509252442E+03 0.  0.
          5    1    4    4  502    0  0.90148600088E+02 -0.16360481425E+02 -0.48383786485E+03  0.49245404589E+03  0.41800000000E+01 0.  1.
         -5    1    4    4    0  502 -0.39573796380E+02 -0.27254978881E+02 -0.17916346206E+03  0.18554228028E+03  0.41800000000E+01 0.  1.
        -11    1    3    3    0    0 -0.67274144538E+02  0.16841156549E+02 -0.13107174058E+03  0.14828768073E+03  0.00000000000E+00 0. -1.
         11    1    3    3    0    0  0.16699340830E+02  0.26774303757E+02 -0.12346712847E+02  0.33884696309E+02  0.00000000000E+00 0.  1.
</event>
<event>
 8    1  0.1790275E-005  0.9596999E+02  0.7561462E-02  0.1289006E+00
         -1   -1    0    0    0  501 -0.00000000000E+00  0.00000000000E+00  0.86713653567E+03  0.86713653567E+03  0.00000000000E+00 0.  1.
          1   -1    0    0  501    0  0.00000000000E+00 -0.00000000000E+00 -0.20305430605E+02  0.20305430605E+02  0.00000000000E+00 0. -1.
         23    2    1    2    0    0 -0.65376783505E+02 -0.50204825466E+01  0.50732153212E+03  0.51972802883E+03  0.91884481454E+02 0.  0.
         23    2    1    2    0    0  0.65376783505E+02  0.50204825466E+01  0.33950957294E+03  0.36771393744E+03  0.12508981015E+03 0.  0.
          5    1    4    4  502    0  0.66185098280E+02 -0.76061134567E+01  0.34635822244E+03  0.35273192491E+03  0.41800000000E+01 0.  1.
         -5    1    4    4    0  502 -0.80831477489E+00  0.12626596003E+02 -0.68486495046E+01  0.14982012530E+02  0.41800000000E+01 0.  1.
        -11    1    3    3    0    0 -0.62788273688E+02 -0.41518287909E+02  0.37251332983E+03  0.38004251926E+03  0.00000000000E+00 0. -1.
         11    1    3    3    0    0 -0.25885098169E+01  0.36497805362E+02  0.13480820229E+03  0.13968550957E+03  0.00000000000E+00 0.  1.
</event>
<event>
 8    1  0.1790275E-005  0.1269841E+03  0.7561462E-02  0.1232001E+00
          2   -1    0    0  501    0  0.00000000000E+00  0.00000000000E+00  0.19726307801E+03  0.19726307801E+03  0.00000000000E+00 0.  1.
         -2   -1    0    0    0  501 -0.00000000000E+00 -0.00000000000E+00 -0.89631362000E+02  0.89631362000E+02  0.00000000000E+00 0. -1.
         23    2    1    2    0    0  0.52546310588E+02 -0.55757660917E+02  0.50182388248E+02  0.12935973214E+03  0.91354456388E+02 0.  0.
         23    2    1    2    0    0 -0.52546310588E+02  0.55757660917E+02  0.57449327764E+02  0.15753470787E+03  0.12508687947E+03 0.  0.
          5    1    4    4  502    0  0.18732195735E+02  0.65207818293E+02  0.44627755541E+01  0.68120066714E+02  0.41800000000E+01 0. -1.
         -5    1    4    4    0  502 -0.71278506323E+02 -0.94501573752E+01  0.52986552210E+02  0.89414641157E+02  0.41800000000E+01 0. -1.
        -11    1    3    3    0    0 -0.17913084864E+02 -0.36920791942E+02  0.36979475773E+02  0.55240430080E+02  0.00000000000E+00 0.  1.
         11    1    3    3    0    0  0.70459395452E+02 -0.18836868976E+02  0.13202912475E+02  0.74119302061E+02  0.00000000000E+00 0. -1.
</event>
<event>
 8    1  0.4441257E-005  0.2521034E+03  0.7561462E-02  0.1111983E+00
          1   -1    0    0  501    0  0.00000000000E+00  0.00000000000E+00  0.65424439686E+03  0.65424439686E+03  0.00000000000E+00 0. -1.
         -1   -1    0    0    0  501 -0.00000000000E+00 -0.00000000000E+00 -0.99079548147E+02  0.99079548147E+02  0.00000000000E+00 0.  1.
         23    2    1    2    0    0 -0.45704624605E+02 -0.22540401894E+03  0.26895042274E+03  0.36542910940E+03  0.91149435745E+02 0.  0.
         23    2    1    2    0    0  0.45704624605E+02  0.22540401894E+03  0.28621442598E+03  0.38789483561E+03  0.12509125227E+03 0.  0.
          5    1    4    4  502    0 -0.40234241881E+02  0.42835206449E+02  0.50666762573E+02  0.77706128207E+02  0.41800000000E+01 0. -1.
         -5    1    4    4    0  502  0.85938866486E+02  0.18256881249E+03  0.23554766340E+03  0.31018870741E+03  0.41800000000E+01 0. -1.
        -11    1    3    3    0    0 -0.50746944917E+02 -0.62619496831E+02  0.59872899420E+02  0.10040526822E+03  0.00000000000E+00 0.  1.
         11    1    3    3    0    0  0.50423203121E+01 -0.16278452211E+03  0.20907752332E+03  0.26502384117E+03  0.00000000000E+00 0. -1.
</event>
<event>
 8    1  0.1790275E-005  0.8464124E+02  0.7561462E-02  0.1316373E+00
         -2   -1    0    0    0  501 -0.00000000000E+00  0.00000000000E+00  0.42918668988E+03  0.42918668988E+03  0.00000000000E+00 0.  1.
          2   -1    0    0  501    0  0.00000000000E+00 -0.00000000000E+00 -0.28999215919E+02  0.28999215919E+02  0.00000000000E+00 0. -1.
         23    2    1    2    0    0 -0.15868145973E+02 -0.16870720201E+01  0.20765728016E+03  0.22803385177E+03  0.92861441287E+02 0.  0.
         23    2    1    2    0    0  0.15868145973E+02  0.16870720201E+01  0.19253019379E+03  0.23015205403E+03  0.12508976050E+03 0.  0.
          5    1    4    4  502    0 -0.41140528341E+02 -0.21500701631E+01  0.15719850090E+02  0.44291669203E+02  0.41800000000E+01 0.  1.
         -5    1    4    4    0  502  0.57008674314E+02  0.38371421832E+01  0.17681034370E+03  0.18586038483E+03  0.41800000000E+01 0.  1.
        -11    1    3    3    0    0  0.12252037797E+02 -0.28938602362E+02  0.22170959732E+02  0.38459154856E+02  0.00000000000E+00 0. -1.
         11    1    3    3    0    0 -0.28120183770E+02  0.27251530342E+02  0.18548632043E+03  0.18957469691E+03  0.00000000000E+00 0.  1.
</event>
<event>
 8    1  0.1790275E-005  0.1770905E+03  0.7561462E-02  0.1170649E+00
         -2   -1    0    0    0  501 -0.00000000000E+00  0.00000000000E+00  0.23444073172E+03  0.23444073172E+03  0.00000000000E+00 0.  1.
          2   -1    0    0  501    0  0.00000000000E+00 -0.00000000000E+00 -0.14311001961E+03  0.14311001961E+03  0.00000000000E+00 0. -1.
         23    2    1    2    0    0 -0.53528694725E+02 -0.13688255727E+03  0.56641041976E+02  0.18144326404E+03  0.90062726951E+02 0.  0.
         23    2    1    2    0    0  0.53528694725E+02  0.13688255727E+03  0.34689670132E+02  0.19610748730E+03  0.12511042210E+03 0.  0.
          5    1    4    4  502    0  0.29871372087E+02  0.15585612823E+03  0.14439726929E+02  0.15940329259E+03  0.41800000000E+01 0.  1.
         -5    1    4    4    0  502  0.23657322638E+02 -0.18973570958E+02  0.20249943202E+02  0.36704194706E+02  0.41800000000E+01 0.  1.
        -11    1    3    3    0    0  0.17650097499E+02 -0.46752806265E+02 -0.64825488988E+01  0.50392204512E+02  0.00000000000E+00 0. -1.
         11    1    3    3    0    0 -0.71178792223E+02 -0.90129751002E+02  0.63123590874E+02  0.13105105953E+03  0.00000000000E+00 0.  1.
</event>
<event>
 8    1  0.1790275E-005  0.6778139E+02  0.7561462E-02  0.1367804E+00
         -1   -1    0    0    0  501 -0.00000000000E+00  0.00000000000E+00  0.12115561603E+03  0.12115561603E+03  0.00000000000E+00 0.  1.
          1   -1    0    0  501    0  0.00000000000E+00 -0.00000000000E+00 -0.25394018911E+03  0.25394018911E+03  0.00000000000E+00 0. -1.
         23    2    1    2    0    0 -0.35878251534E+01  0.73861344663E+01  0.86122759183E+02  0.12735523395E+03  0.93460143874E+02 0.  0.
         23    2    1    2    0    0  0.35878251534E+01 -0.73861344663E+01 -0.21890733226E+03  0.24774057119E+03  0.11570455058E+03 0.  0.
          5    1    4    4  502    0 -0.20551447040E+02 -0.60830608350E+01 -0.22194808510E+03  0.22301970873E+03  0.41800000000E+01 0. -1.
         -5    1    4    4    0  502  0.24139272193E+02 -0.13030736313E+01  0.30407528380E+01  0.24720862459E+02  0.41800000000E+01 0.  1.
        -11    1    3    3    0    0 -0.44497503905E+02  0.16181788503E+02  0.65179966123E+02  0.80562436140E+02  0.00000000000E+00 0.  1.
         11    1    3    3    0    0  0.40909678752E+02 -0.87956540372E+01  0.20942793059E+02  0.46792797808E+02  0.00000000000E+00 0. -1.
</event>
<event>
 8    1  0.1790275E-005  0.9756727E+02  0.7561462E-02  0.1285496E+00
          2   -1    0    0  501    0  0.00000000000E+00  0.00000000000E+00  0.43374446515E+03  0.43374446515E+03  0.00000000000E+00 0. -1.
         -2   -1    0    0    0  501 -0.00000000000E+00 -0.00000000000E+00 -0.41274924279E+02  0.41274924279E+02  0.00000000000E+00 0.  1.
         23    2    1    2    0    0 -0.13335254207E+02  0.67692187578E+02  0.10506806949E+03  0.15513597780E+03  0.90927504744E+02 0.  0.
         23    2    1    2    0    0  0.13335254207E+02 -0.67692187578E+02  0.28740147138E+03  0.31988341162E+03  0.12233450052E+03 0.  0.
          5    1    4    4  502    0  0.10548833873E+02  0.19436280687E+02  0.18042553227E+03  0.18182379382E+03  0.41800000000E+01 0. -1.
         -5    1    4    4    0  502  0.27864203340E+01 -0.87128468265E+02  0.10697593911E+03  0.13805961781E+03  0.41800000000E+01 0.  1.
        -11    1    3    3    0    0 -0.31454135252E+02  0.29683733498E+02  0.10442276858E+03  0.11302478160E+03  0.00000000000E+00 0.  1.
         11    1    3    3    0    0  0.18118881045E+02  0.38008454080E+02  0.64530090611E+00  0.42111196197E+02  0.00000000000E+00 0. -1.
</event>
<event>
 7    1  0.1790275E-005  0.8956681E+02  0.7561462E-02  0.1303904E+00
         -1   -1    0    0    0  501 -0.00000000000E+00  0.00000000000E+00  0.47110710635E+02  0.47110710635E+02  0.00000000000E+00 0.  1.
          1   -1    0    0  501    0  0.00000000000E+00 -0.00000000000E+00 -0.57437936697E+03  0.57437936697E+03  0.00000000000E+00 0. -1.
         23    2    1    2    0    0  0.90115197463E+01 -0.21353146193E+02 -0.56363285157E+02  0.10996243680E+03  0.91530067476E+02 0.  0.
          5    1    1    2  502    0 -0.47647732976E+02 -0.60818175584E+00 -0.46388074349E+03  0.46634053322E+03  0.41800000000E+01 0. -1.
         -5    1    1    2    0  502  0.38636213229E+02  0.21961327949E+02 -0.70246276879E+01  0.45187107587E+02  0.41800000000E+01 0.  1.
        -11    1    3    3    0    0  0.46053844579E+02 -0.18076174339E+02 -0.99083850303E+01  0.50456721783E+02  0.00000000000E+00 0.  1.
         11    1    3    3    0    0 -0.37042324832E+02 -0.32769718535E+01 -0.46454900126E+02  0.59505715013E+02  0.00000000000E+00 0. -1.
</event>
<event>
 8    1  0.1790275E-005  0.1171507E+03  0.7561462E-02  0.1247873E+00
         -1   -1    0    0    0  501 -0.00000000000E+00  0.00000000000E+00  0.38887550314E+03  0.38887550314E+03  0.00000000000E+00 0.  1.
          1   -1    0    0  501    0  0.00000000000E+00 -0.00000000000E+00 -0.43851038012E+02  0.43851038012E+02  0.00000000000E+00 0. -1.
         23    2    1    2    0    0 -0.64283674422E+02  0.31365961402E+02  0.17457988606E+03  0.20953472655E+03  0.91161673309E+02 0.  0.
         23    2    1    2    0    0  0.64283674422E+02 -0.31365961402E+02  0.17044457906E+03  0.22319181460E+03  0.12508803796E+03 0.  0.
          5    1    4    4  502    0 -0.34603875715E+02  0.10791123078E+02  0.41306701605E+02  0.55114358830E+02  0.41800000000E+01 0. -1.
         -5    1    4    4    0  502  0.98887550138E+02 -0.42157084480E+02  0.12913787746E+03  0.16807745577E+03  0.41800000000E+01 0. -1.
        -11    1    3    3    0    0 -0.35854168117E+02  0.45948893447E+02  0.16674413765E+03  0.17663643345E+03  0.00000000000E+00 0.  1.
         11    1    3    3    0    0 -0.28429506305E+02 -0.14582932046E+02  0.78357484131E+01  0.32898293102E+02  0.00000000000E+00 0. -1.
</event>
<event>
 8    1  0.1790275E-005  0.1055148E+03  0.7561462E-02  0.1269109E+00
          1   -1    0    0  501    0  0.00000000000E+00  0.00000000000E+00  0.46035658453E+03  0.46035658453E+03  0.00000000000E+00 0. -1.
         -1   -1    0    0    0  501 -0.00000000000E+00 -0.00000000000E+00 -0.53875085531E+02  0.53875085531E+02  0.00000000000E+00 0.  1.
         23    2    1    2    0    0  0.40366251054E+02  0.29494895142E+02  0.17770754844E+02  0.10284350816E+03  0.88099968103E+02 0.  0.
         23    2    1    2    0    0 -0.40366251054E+02 -0.29494895142E+02  0.38871074415E+03  0.41138816190E+03  0.12507915120E+03 0.  0.
          5    1    4    4  502    0 -0.30258959936E+02  0.46470925252E+02  0.20208517850E+03  0.20959733614E+03  0.41800000000E+01 0.  1.
         -5    1    4    4    0  502 -0.10107291118E+02 -0.75965820394E+02  0.18662556566E+03  0.20179082575E+03  0.41800000000E+01 0.  1.
        -11    1    3    3    0    0  0.50661307252E+02  0.39555594877E+02  0.40477771868E+02  0.75958298782E+02  0.00000000000E+00 0. -1.
         11    1    3    3    0    0 -0.10295056197E+02 -0.10060699735E+02 -0.22707017024E+02  0.26885209380E+02  0.00000000000E+00 0.  1.
</event>
<event>
 8    1  0.1790275E-005  0.1530551E+03  0.7561462E-02  0.1196768E+00
         -2   -1    0    0    0  501 -0.00000000000E+00  0.00000000000E+00  0.13204707182E+03  0.13204707182E+03  0.00000000000E+00 0.  1.
          2   -1    0    0  501    0  0.00000000000E+00 -0.00000000000E+00 -0.18327587748E+03  0.18327587748E+03  0.00000000000E+00 0. -1.
         23    2    1    2    0    0  0.10603752033E+03 -0.18142838271E+02  0.92373801779E+00  0.14229043810E+03  0.93126780169E+02 0.  0.
         23    2    1    2    0    0 -0.10603752033E+03  0.18142838271E+02 -0.52152543674E+02  0.17303251121E+03  0.12508894365E+03 0.  0.
          5    1    4    4  502    0  0.72039566954E+01  0.47257842188E+02 -0.15393648889E+02  0.50394815869E+02  0.41800000000E+01 0.  1.
         -5    1    4    4    0  502 -0.11324147702E+03 -0.29115003917E+02 -0.36758894785E+02  0.12263769534E+03  0.41800000000E+01 0.  1.
        -11    1    3    3    0    0  0.72313954921E+02 -0.55233782227E+02  0.92868814004E+01  0.91467616901E+02  0.00000000000E+00 0.  1.
         11    1    3    3    0    0  0.33723565408E+02  0.37090943956E+02 -0.83631433826E+01  0.50822821199E+02  0.00000000000E+00 0. -1.
</event>
<event>
 8    1  0.1790275E-005  0.2252591E+03  0.7561462E-02  0.1130022E+00
         -2   -1    0    0    0  501 -0.00000000000E+00  0.00000000000E+00  0.15003375257E+03  0.15003375257E+03  0.00000000000E+00 0.  1.
          2   -1    0    0  501    0  0.00000000000E+00 -0.00000000000E+00 -0.38881617016E+03  0.38881617016E+03  0.00000000000E+00 0. -1.
         23    2    1    2    0    0  0.80428051466E+01  0.21327090010E+03 -0.85564733724E+02  0.24785996417E+03  0.92542285667E+02 0.  0.
         23    2    1    2    0    0 -0.80428051466E+01 -0.21327090010E+03 -0.15321768387E+03  0.29098995857E+03  0.12510129415E+03 0.  0.
          5    1    4    4  502    0  0.40965885808E+02 -0.15163094520E+03 -0.14114905189E+03  0.21121239213E+03  0.41800000000E+01 0. -1.
         -5    1    4    4    0  502 -0.49008690955E+02 -0.61639954901E+02 -0.12068631980E+02  0.79777566441E+02  0.41800000000E+01 0. -1.
        -11    1    3    3    0    0 -0.69696567989E+01  0.10473769608E+03 -0.89904140899E+02  0.13820750938E+03  0.00000000000E+00 0. -1.
         11    1    3    3    0    0  0.15012461946E+02  0.10853320401E+03  0.43394071755E+01  0.10965245479E+03  0.00000000000E+00 0.  1.
</event>
<event>
 8    1  0.1790275E-005  0.9856557E+02  0.7561462E-02  0.1283342E+00
         -1   -1    0    0    0  501 -0.00000000000E+00  0.00000000000E+00  0.32112897879E+02  0.32112897879E+02  0.00000000000E+00 0.  1.
          1   -1    0    0  501    0  0.00000000000E+00 -0.00000000000E+00 -0.44180119430E+03  0.44180119430E+03  0.00000000000E+00 0. -1.
         23    2    1    2    0    0 -0.13100602011E+02  0.17041981662E+02 -0.82167130755E+02  0.12266967866E+03  0.88511907527E+02 0.  0.
         23    2    1    2    0    0  0.13100602011E+02 -0.17041981662E+02 -0.32752116567E+03  0.35124441352E+03  0.12506186132E+03 0.  0.
          5    1    4    4  502    0 -0.49135644357E+01  0.50855886505E+02 -0.90649589538E+02  0.10414069709E+03  0.41800000000E+01 0. -1.
         -5    1    4    4    0  502  0.18014166446E+02 -0.67897868166E+02 -0.23687157613E+03  0.24710371643E+03  0.41800000000E+01 0. -1.
        -11    1    3    3    0    0 -0.43317463271E+02  0.93235280415E+01 -0.79945505566E+02  0.91403581219E+02  0.00000000000E+00 0. -1.
         11    1    3    3    0    0  0.30216861261E+02  0.77184536204E+01 -0.22216251891E+01  0.31266097442E+02  0.00000000000E+00 0.  1.
</event>
<event>
 8    1  0.1790275E-005  0.9625131E+02  0.7561462E-02  0.1288382E+00
         -2   -1    0    0    0  501 -0.00000000000E+00  0.00000000000E+00  0.20937062491E+02  0.20937062491E+02  0.00000000000E+00 0.  1.
          2   -1    0    0  501    0  0.00000000000E+00 -0.00000000000E+00 -0.73970595809E+03  0.73970595809E+03  0.00000000000E+00 0. -1.
         23    2    1    2    0    0  0.40005259384E+01 -0.34973163587E+02 -0.16164893288E+03  0.18856865656E+03  0.90491073342E+02 0.  0.
         23    2    1    2    0    0 -0.40005259384E+01  0.34973163587E+02 -0.55711996271E+03  0.57207436402E+03  0.12508916315E+03 0.  0.
          5    1    4    4  502    0  0.42443743170E+02  0.12192449754E+02 -0.45842119688E+03  0.46056225781E+03  0.41800000000E+01 0. -1.
         -5    1    4    4    0  502 -0.46444269109E+02  0.22780713833E+02 -0.98698765834E+02  0.11151210622E+03  0.41800000000E+01 0. -1.
        -11    1    3    3    0    0 -0.42818703539E+02 -0.15482429065E+02 -0.64113174411E+02  0.78636162899E+02  0.00000000000E+00 0.  1.
         11    1    3    3    0    0  0.46819229478E+02 -0.19490734522E+02 -0.97535758471E+02  0.10993249366E+03  0.00000000000E+00 0. -1.
</event>
<event>
 8    1  0.1790275E-005  0.1223903E+03  0.7561462E-02  0.1239205E+00
          1   -1    0    0  501    0  0.00000000000E+00  0.00000000000E+00  0.31587668891E+03  0.31587668891E+03  0.00000000000E+00 0. -1.
         -1   -1    0    0    0  501 -0.00000000000E+00 -0.00000000000E+00 -0.49188166754E+02  0.49188166754E+02  0.00000000000E+00 0.  1.
         23    2    1    2    0    0  0.59475641262E+02  0.22980421548E+02  0.95758921649E+02  0.14386608546E+03  0.86384187171E+02 0.  0.
         23    2    1    2    0    0 -0.59475641262E+02 -0.22980421548E+02  0.17092960051E+03  0.22119877020E+03  0.12508603411E+03 0.  0.
          5    1    4    4  502    0  0.34231778388E+01 -0.64578508011E+02  0.82410178647E+02  0.10483802644E+03  0.41800000000E+01 0.  1.
         -5    1    4    4    0  502 -0.62898819101E+02  0.41598086463E+02  0.88519421861E+02  0.11636074376E+03  0.41800000000E+01 0.  1.
        -11    1    3    3    0    0 -0.14674572244E+02  0.26418918978E+02  0.13598761239E+02  0.33139533155E+02  0.00000000000E+00 0.  1.
         11    1    3    3    0    0  0.74150213507E+02 -0.34384974297E+01  0.82160160409E+02  0.11072655231E+03  0.00000000000E+00 0. -1.
</event>
<event>
 8    1  0.1790275E-005  0.1055873E+03  0.7561462E-02  0.1268967E+00
         -1   -1    0    0    0  501 -0.00000000000E+00  0.00000000000E+00  0.56048308218E+03  0.56048308218E+03  0.00000000000E+00 0.  1.
          1   -1    0    0  501    0  0.00000000000E+00 -0.00000000000E+00 -0.39513892855E+02  0.39513892855E+02  0.00000000000E+00 0. -1.
         23    2    1    2    0    0 -0.86320170199E+02 -0.58822198697E+02  0.23256552355E+03  0.26873378351E+03  0.84969999490E+02 0.  0.
         23    2    1    2    0    0  0.86320170199E+02  0.58822198697E+02  0.28840366577E+03  0.33126319152E+03  0.12508958703E+03 0.  0.
          5    1    4    4  502    0  0.85854112389E+01  0.98286629416E+01 -0.11300431992E+02  0.17761871088E+02  0.41800000000E+01 0. -1.
         -5    1    4    4    0  502  0.77734758960E+02  0.48993535756E+02  0.29970409777E+03  0.31350132043E+03  0.41800000000E+01 0. -1.
        -11    1    3    3    0    0 -0.34641112679E+02 -0.32471763066E+02  0.25908602158E+02  0.54089534570E+02  0.00000000000E+00 0. -1.
         11    1    3    3    0    0 -0.51679057520E+02 -0.26350435631E+02  0.20665692139E+03  0.21464424894E+03  0.00000000000E+00 0.  1.
</event>
<event>
 8    1  0.1790275E-005  0.1082112E+03  0.7561462E-02  0.1263919E+00
          3   -1    0    0  501    0  0.00000000000E+00  0.00000000000E+00  0.84211702661E+03  0.84211702661E+03  0.00000000000E+00 0. -1.
         -3   -1    0    0    0  501 -0.00000000000E+00 -0.00000000000E+00 -0.16340695862E+02  0.16340695862E+02  0.00000000000E+00 0.  1.
         23    2    1    2    0    0 -0.84192567298E+01 -0.14292338382E+02  0.21274087718E+03  0.23257075218E+03  0.92494968112E+02 0.  0.
         23    2    1    2    0    0  0.84192567298E+01  0.14292338382E+02  0.61303545356E+03  0.62588697029E+03  0.12508747910E+03 0.  0.
          5    1    4    4  502    0  0.23446561185E+02  0.65350186713E+02  0.41466881395E+03  0.42046175308E+03  0.41800000000E+01 0.  1.
         -5    1    4    4    0  502 -0.15027304455E+02 -0.51057848332E+02  0.19836663961E+03  0.20542521721E+03  0.41800000000E+01 0.  1.
        -11    1    3    3    0    0  0.26570405047E+02 -0.41417716601E+02  0.10008266788E+03  0.11152557592E+03  0.00000000000E+00 0. -1.
         11    1    3    3    0    0 -0.34989661777E+02  0.27125378219E+02  0.11265820930E+03  0.12104517626E+03  0.00000000000E+00 0.  1.
</event>
<event>
 7    1  0.1790275E-005  0.2026612E+03  0.7561462E-02  0.1147513E+00
         -2   -1    0    0    0  501 -0.00000000000E+00  0.00000000000E+00  0.24810283593E+03  0.24810283593E+03  0.00000000000E+00 0.  1.
          2   -1    0    0  501    0  0.00000000000E+00 -0.00000000000E+00 -0.40479511759E+03  0.40479511759E+03  0.00000000000E+00 0. -1.
         23    2    1    2    0    0  0.17018827600E+03 -0.17388994750E+02  0.17139197988E+03  0.25884167018E+03  0.91418668933E+02 0.  0.
          5    1    1    2  502    0 -0.18590030618E+03 -0.59772059097E+01 -0.30562443700E+03  0.35779661782E+03  0.41800000000E+01 0. -1.
         -5    1    1    2    0  502  0.15712030186E+02  0.23366200660E+02 -0.22459824529E+02  0.36259665522E+02  0.41800000000E+01 0.  1.
        -11    1    3    3    0    0  0.81032479932E+02  0.34034698097E+02  0.10234255617E+03  0.13490226937E+03  0.00000000000E+00 0. -1.
         11    1    3    3    0    0  0.89155796066E+02 -0.51423692848E+02  0.69049423713E+02  0.12393940081E+03  0.00000000000E+00 0.  1.
</event>
<event>
 8    1  0.1790275E-005  0.8088726E+02  0.7561462E-02  0.1326552E+00
         -2   -1    0    0    0  501 -0.00000000000E+00  0.00000000000E+00  0.32150994697E+02  0.32150994697E+02  0.00000000000E+00 0.  1.
          2   -1    0    0  501    0  0.00000000000E+00 -0.00000000000E+00 -0.38529529516E+03  0.38529529516E+03  0.00000000000E+00 0. -1.
         23    2    1    2    0    0  0.63001065378E+01 -0.47280564409E+01 -0.11297762861E+03  0.14653860587E+03  0.92992325406E+02 0.  0.
         23    2    1    2    0    0 -0.63001065378E+01  0.47280564409E+01 -0.24016667186E+03  0.27090768399E+03  0.12509555193E+03 0.  0.
          5    1    4    4  502    0  0.51979984029E+02  0.15729530079E+02 -0.17218043952E+03  0.18059045658E+03  0.41800000000E+01 0.  1.
         -5    1    4    4    0  502 -0.58280090567E+02 -0.11001473638E+02 -0.67986232340E+02  0.90317227407E+02  0.41800000000E+01 0.  1.
        -11    1    3    3    0    0 -0.19508448121E+02 -0.93452290266E+01  0.77645707117E+01  0.22982632834E+02  0.00000000000E+00 0.  1.
         11    1    3    3    0    0  0.25808554659E+02  0.46171725857E+01 -0.12074219932E+03  0.12355597304E+03  0.00000000000E+00 0. -1.
</event>
<event>
 8    1  0.1790275E-005  0.1057862E+03  0.7561462E-02  0.1268578E+00
          1   -1    0    0  501    0  0.00000000000E+00  0.00000000000E+00  0.24702648078E+03  0.24702648078E+03  0.00000000000E+00 0. -1.
         -1   -1    0    0    0  501 -0.00000000000E+00 -0.00000000000E+00 -0.48046300565E+02  0.48046300565E+02  0.00000000000E+00 0.  1.
         23    2    1    2    0    0  0.21340313251E+02 -0.13916623968E+02  0.91052917107E+02  0.12790694012E+03  0.86142151272E+02 0.  0.
         23    2    1    2    0    0 -0.21340313251E+02  0.13916623968E+02  0.10792726311E+03  0.16716584123E+03  0.12508814076E+03 0.  0.
          5    1    4    4  502    0 -0.37020406804E+02  0.64182003483E+02  0.71106385515E+02  0.10277855103E+03  0.41800000000E+01 0.  1.
         -5    1    4    4    0  502  0.15680093553E+02 -0.50265379516E+02  0.36820877597E+02  0.64387290195E+02  0.41800000000E+01 0.  1.
        -11    1    3    3    0    0  0.32312196541E+02  0.27044209548E+02  0.67019780345E+02  0.79165132937E+02  0.00000000000E+00 0.  1.
         11    1    3    3    0    0 -0.10971883291E+02 -0.40960833515E+02  0.24033136762E+02  0.48741807187E+02  0.00000000000E+00 0. -1.
</event>
<event>
 8    1  0.1790275E-005  0.6465685E+02  0.7561462E-02  0.1379267E+00
          1   -1    0    0  501    0  0.00000000000E+00  0.00000000000E+00  0.34506366747E+03  0.34506366747E+03  0.00000000000E+00 0. -1.
         -1   -1    0    0    0  501 -0.00000000000E+00 -0.00000000000E+00 -0.97896572049E+02  0.97896572049E+02  0.00000000000E+00 0.  1.
         23    2    1    2    0    0 -0.15691898155E+02 -0.26141270239E+02 -0.57628970001E+02  0.11130281686E+03  0.90208742259E+02 0.  0.
         23    2    1    2    0    0  0.15691898155E+02  0.26141270239E+02  0.30479606542E+03  0.33165742266E+03  0.12714716997E+03 0.  0.
          5    1    4    4  502    0  0.32629141392E+02  0.49283000525E+02  0.29526189543E+03  0.30114869135E+03  0.41800000000E+01 0. -1.
         -5    1    4    4    0  502 -0.16937243237E+02 -0.23141730286E+02  0.95341699990E+01  0.30508731319E+02  0.41800000000E+01 0.  1.
        -11    1    3    3    0    0  0.78595936591E+01 -0.90121144328E+01  0.22810090594E+02  0.25754449168E+02  0.00000000000E+00 0. -1.
         11    1    3    3    0    0 -0.23551491814E+02 -0.17129155806E+02 -0.80439060594E+02  0.85548367691E+02  0.00000000000E+00 0.  1.
</event>
<event>
 8    1  0.2566769E-005  0.1109851E+03  0.7561462E-02  0.1258756E+00
          1   -1    0    0  501    0  0.00000000000E+00  0.00000000000E+00  0.65406532127E+02  0.65406532127E+02  0.00000000000E+00 0.  1.
         -1   -1    0    0    0  501 -0.00000000000E+00 -0.00000000000E+00 -0.22879593737E+03  0.22879593737E+03  0.00000000000E+00 0. -1.
         23    2    1    2    0    0 -0.33805053342E+02  0.29116557215E+02 -0.11493906530E+03  0.15283180705E+03  0.90310669238E+02 0.  0.
         23    2    1    2    0    0  0.33805053342E+02 -0.29116557215E+02 -0.48450339942E+02  0.14137066245E+03  0.12509066002E+03 0.  0.
          5    1    4    4  502    0  0.68335118433E+02  0.13360681839E+02 -0.25353301124E+01  0.69800404936E+02  0.41800000000E+01 0. -1.
         -5    1    4    4    0  502 -0.34530065091E+02 -0.42477239055E+02 -0.45915009830E+02  0.71570257514E+02  0.41800000000E+01 0. -1.
        -11    1    3    3    0    0  0.78933915807E+01  0.50041907682E+02 -0.39963893498E+02  0.64526048528E+02  0.00000000000E+00 0.  1.
         11    1    3    3    0    0 -0.41698444923E+02 -0.20925350467E+02 -0.74975171807E+02  0.88305758524E+02  0.00000000000E+00 0. -1.
</event>
<event>
 8    1  0.1790275E-005  0.1695269E+03  0.7561462E-02  0.1178342E+00
         -2   -1    0    0    0  501 -0.00000000000E+00  0.00000000000E+00  0.11701682513E+03  0.11701682513E+03  0.00000000000E+00 0.  1.
          2   -1    0    0  501    0  0.00000000000E+00 -0.00000000000E+00 -0.35204991707E+03  0.35204991707E+03  0.00000000000E+00 0. -1.
         23    2    1    2    0    0  0.64726272413E+02 -0.15104499742E+03 -0.12527801565E+03  0.23518716495E+03  0.11231357784E+03 0.  0.
         23    2    1    2    0    0 -0.64726272413E+02  0.15104499742E+03 -0.10975507629E+03  0.23387957725E+03  0.12509755512E+03 0.  0.
          5    1    4    4  502    0 -0.72591899553E+02  0.10579306497E+03 -0.13072447906E+03  0.18321604270E+03  0.41800000000E+01 0. -1.
         -5    1    4    4    0  502  0.78656271393E+01  0.45251932448E+02  0.20969402771E+02  0.50663534550E+02  0.41800000000E+01 0. -1.
        -11    1    3    3    0    0  0.46397483146E+02 -0.97729898699E+02 -0.12245927170E+02  0.10887526016E+03  0.00000000000E+00 0.  1.
         11    1    3    3    0    0  0.18328789268E+02 -0.53315098719E+02 -0.11303208848E+03  0.12631190480E+03  0.00000000000E+00 0. -1.
</event>
<event>
 8    1  0.1790275E-005  0.1158656E+03  0.7561462E-02  0.1250078E+00
         -2   -1    0    0    0  501 -0.00000000000E+00  0.00000000000E+00  0.11885302762E+02  0.11885302762E+02  0.00000000000E+00 0. -1.
          2   -1    0    0  501    0  0.00000000000E+00 -0.00000000000E+00 -0.11710938920E+04  0.11710938920E+04  0.00000000000E+00 0.  1.
         23    2    1    2    0    0 -0.41068207910E+02 -0.19963363299E+02 -0.39662091549E+03  0.40885206297E+03  0.88129025964E+02 0.  0.
         23    2    1    2    0    0  0.41068207910E+02  0.19963363299E+02 -0.76258767375E+03  0.77412713179E+03  0.12509085676E+03 0.  0.
          5    1    4    4  502    0  0.25208335034E+01  0.69450904470E+02 -0.36167681547E+03  0.36831694772E+03  0.41800000000E+01 0. -1.
         -5    1    4    4    0  502  0.38547374407E+02 -0.49487541171E+02 -0.40091085828E+03  0.40581018407E+03  0.41800000000E+01 0. -1.
        -11    1    3    3    0    0 -0.58599477887E+02  0.14683507398E+02 -0.23788102067E+03  0.24543203579E+03  0.00000000000E+00 0.  1.
         11    1    3    3    0    0  0.17531269977E+02 -0.34646870697E+02 -0.15873989482E+03  0.16342002718E+03  0.00000000000E+00 0. -1.
</event>
<event>
 8    1  0.1790275E-005  0.8688206E+02  0.7561462E-02  0.1310583E+00
          1   -1    0    0  501    0  0.00000000000E+00  0.00000000000E+00  0.10429996338E+04  0.10429996338E+04  0.00000000000E+00 0. -1.
         -1   -1    0    0    0  501 -0.00000000000E+00 -0.00000000000E+00 -0.13614935325E+02  0.13614935325E+02  0.00000000000E+00 0.  1.
         23    2    1    2    0    0  0.35178462024E+02  0.24668258163E+02  0.33151647905E+03  0.34632284719E+03  0.90500229016E+02 0.  0.
         23    2    1    2    0    0 -0.35178462024E+02 -0.24668258163E+02  0.69786821945E+03  0.71029172196E+03  0.12509289116E+03 0.  0.
          5    1    4    4  502    0 -0.35050659963E+01 -0.47111329702E+02  0.63159343996E+03  0.63337154079E+03  0.41800000000E+01 0. -1.
         -5    1    4    4    0  502 -0.31673396028E+02  0.22443071539E+02  0.66274779489E+02  0.76920181177E+02  0.41800000000E+01 0. -1.
        -11    1    3    3    0    0  0.36156480584E+01  0.47942579141E+02  0.26316128822E+03  0.26751715351E+03  0.00000000000E+00 0. -1.
         11    1    3    3    0    0  0.31562813966E+02 -0.23274320978E+02  0.68355190829E+02  0.78805693676E+02  0.00000000000E+00 0.  1.
</event>
<event>
 8    1  0.1790275E-005  0.1010435E+03  0.7561462E-02  0.1278117E+00
         -2   -1    0    0    0  501 -0.00000000000E+00  0.00000000000E+00  0.33109826435E+02  0.33109826435E+02  0.00000000000E+00 0.  1.
          2   -1    0    0  501    0  0.00000000000E+00 -0.00000000000E+00 -0.67212090174E+03  0.67212090174E+03  0.00000000000E+00 0. -1.
         23    2    1    2    0    0 -0.55095279704E+02  0.19020302190E+02 -0.11251567766E+03  0.16094963570E+03  0.99235808923E+02 0.  0.
         23    2    1    2    0    0  0.55095279704E+02 -0.19020302190E+02 -0.52649539765E+03  0.54428109247E+03  0.12508893692E+03 0.  0.
          5    1    4    4  502    0  0.70538600188E+02 -0.30626745358E+02 -0.16331120676E+03  0.18055944811E+03  0.41800000000E+01 0. -1.
         -5    1    4    4    0  502 -0.15443320484E+02  0.11606443168E+02 -0.36318419088E+03  0.36372164436E+03  0.41800000000E+01 0. -1.
        -11    1    3    3    0    0 -0.70115166594E+02 -0.11725666321E+02 -0.41997340865E+02  0.82567575215E+02  0.00000000000E+00 0.  1.
         11    1    3    3    0    0  0.15019886891E+02  0.30745968511E+02 -0.70518336797E+02  0.78382060489E+02  0.00000000000E+00 0. -1.
</event>
<event>
 8    1  0.1790275E-005  0.9360270E+02  0.7561462E-02  0.1294355E+00
         -3   -1    0    0    0  501 -0.00000000000E+00  0.00000000000E+00  0.11281311432E+03  0.11281311432E+03  0.00000000000E+00 0.  1.
          3   -1    0    0  501    0  0.00000000000E+00 -0.00000000000E+00 -0.16969940255E+03  0.16969940255E+03  0.00000000000E+00 0. -1.
         23    2    1    2    0    0 -0.37345071070E+02 -0.59820048037E+02  0.24969366113E+02  0.11720562047E+03  0.90225250048E+02 0.  0.
         23    2    1    2    0    0  0.37345071070E+02  0.59820048037E+02 -0.81855654339E+02  0.16530689640E+03  0.12511166760E+03 0.  0.
          5    1    4    4  502    0  0.36914791354E+02  0.51786097690E+02  0.17059356512E+02  0.65977236827E+02  0.41800000000E+01 0. -1.
         -5    1    4    4    0  502  0.43027971632E+00  0.80339503468E+01 -0.98915010851E+02  0.99329659571E+02  0.41800000000E+01 0. -1.
        -11    1    3    3    0    0 -0.10884952119E+02  0.24083080091E+02  0.79441456252E+01  0.27596854513E+02  0.00000000000E+00 0.  1.
         11    1    3    3    0    0 -0.26460118951E+02 -0.83903128128E+02  0.17025220488E+02  0.89608765962E+02  0.00000000000E+00 0. -1.
</event>
<event>
 8    1  0.1790275E-005  0.5154785E+02  0.7561462E-02  0.1437167E+00
         -2   -1    0    0    0  501 -0.00000000000E+00  0.00000000000E+00  0.26441904043E+02  0.26441904043E+02  0.00000000000E+00 0.  1.
          2   -1    0    0  501    0  0.00000000000E+00 -0.00000000000E+00 -0.46330396893E+03  0.46330396893E+03  0.00000000000E+00 0. -1.
         23    2    1    2    0    0  0.20051928101E+02 -0.94283087891E+01 -0.18952201634E+03  0.21169077982E+03  0.91670162851E+02 0.  0.
         23    2    1    2    0    0 -0.20051928101E+02  0.94283087891E+01 -0.24734004855E+03  0.27805509315E+03  0.12508621980E+03 0.  0.
          5    1    4    4  502    0 -0.21163184714E+02  0.36065540378E+01  0.74926183231E+01  0.23119241956E+02  0.41800000000E+01 0. -1.
         -5    1    4    4    0  502  0.11112566137E+01  0.58217547513E+01 -0.25483266688E+03  0.25493585120E+03  0.41800000000E+01 0. -1.
        -11    1    3    3    0    0  0.34817308066E+02  0.20638759048E+02 -0.34781635245E+02  0.53366332705E+02  0.00000000000E+00 0.  1.
         11    1    3    3    0    0 -0.14765379966E+02 -0.30067067837E+02 -0.15474038109E+03  0.15832444712E+03  0.00000000000E+00 0. -1.
</event>
<event>
 8    1  0.1790275E-005  0.2373885E+03  0.7561462E-02  0.1121545E+00
          3   -1    0    0  501    0  0.00000000000E+00  0.00000000000E+00  0.12501239062E+03  0.12501239062E+03  0.00000000000E+00 0. -1.
         -3   -1    0    0    0  501 -0.00000000000E+00 -0.00000000000E+00 -0.48819380487E+03  0.48819380487E+03  0.00000000000E+00 0.  1.
         23    2    1    2    0    0 -0.78540472695E+02 -0.20696050183E+03 -0.15975154908E+03  0.28758089761E+03  0.90448659830E+02 0.  0.
         23    2    1    2    0    0  0.78540472695E+02  0.20696050183E+03 -0.20342986517E+03  0.32562529788E+03  0.12508744704E+03 0.  0.
          5    1    4    4  502    0  0.17190239959E+02 -0.21225862694E+01  0.10128377408E+02  0.20495515393E+02  0.41800000000E+01 0. -1.
         -5    1    4    4    0  502  0.61350232736E+02  0.20908308810E+03 -0.21355824258E+03  0.30512978249E+03  0.41800000000E+01 0. -1.
        -11    1    3    3    0    0 -0.98710661576E+02 -0.16135385780E+03 -0.12288140262E+03  0.22556307598E+03  0.00000000000E+00 0. -1.
         11    1    3    3    0    0  0.20170188881E+02 -0.45606644030E+02 -0.36870146457E+02  0.62017821624E+02  0.00000000000E+00 0.  1.
</event>
<event>
 8    1  0.1790275E-005  0.6094364E+02  0.7561462E-02  0.1393914E+00
         -2   -1    0    0    0  501 -0.00000000000E+00  0.00000000000E+00  0.14992119597E+02  0.14992119597E+02  0.00000000000E+00 0.  1.
          2   -1    0    0  501    0  0.00000000000E+00 -0.00000000000E+00 -0.11606198020E+04  0.11606198020E+04  0.00000000000E+00 0. -1.
         23    2    1    2    0    0  0.44956367499E+01  0.13149138252E+02 -0.24426540407E+03  0.26550510094E+03  0.10312255044E+03 0.  0.
         23    2    1    2    0    0 -0.44956367499E+01 -0.13149138252E+02 -0.90136227834E+03  0.91010682067E+03  0.12508939855E+03 0.  0.
          5    1    4    4  502    0 -0.43946961469E+01 -0.20083087398E+01  0.19780040439E+01  0.66881655344E+01  0.41800000000E+01 0. -1.
         -5    1    4    4    0  502 -0.10094060304E+00 -0.11140829512E+02 -0.90334028238E+03  0.90341865514E+03  0.41800000000E+01 0. -1.
        -11    1    3    3    0    0 -0.45913348210E+01 -0.44752977628E+02 -0.11852018485E+03  0.12677122536E+03  0.00000000000E+00 0. -1.
         11    1    3    3    0    0  0.90869715709E+01  0.57902115880E+02 -0.12574521922E+03  0.13873387558E+03  0.00000000000E+00 0.  1.
</event>
<event>
 8    1  0.1790275E-005  0.2549021E+03  0.7561462E-02  0.1110245E+00
         -3   -1    0    0    0  501 -0.00000000000E+00  0.00000000000E+00  0.13877422871E+03  0.13877422871E+03  0.00000000000E+00 0.  1.
          3   -1    0    0  501    0  0.00000000000E+00 -0.00000000000E+00 -0.55409027881E+03  0.55409027881E+03  0.00000000000E+00 0. -1.
         23    2    1    2    0    0  0.25414561318E+03 -0.11733049572E+02 -0.21489809976E+03  0.34567452492E+03  0.92639228974E+02 0.  0.
         23    2    1    2    0    0 -0.25414561318E+03  0.11733049572E+02 -0.20041795034E+03  0.34718998261E+03  0.12508346036E+03 0.  0.
          5    1    4    4  502    0 -0.39321520174E+02  0.80031470375E+01 -0.10419611818E+03  0.11173421927E+03  0.41800000000E+01 0. -1.
         -5    1    4    4    0  502 -0.21482409300E+03  0.37299025349E+01 -0.96221832160E+02  0.23545576334E+03  0.41800000000E+01 0. -1.
        -11    1    3    3    0    0  0.67363124873E+02 -0.69208665523E+01 -0.10127401859E+02  0.68470820463E+02  0.00000000000E+00 0.  1.
         11    1    3    3    0    0  0.18678248830E+03 -0.48121830201E+01 -0.20477069791E+03  0.27720370445E+03  0.00000000000E+00 0. -1.
</event>
<event>
 7    1  0.1790275E-005  0.1811883E+03  0.7561462E-02  0.1166658E+00
         -2   -1    0    0    0  501 -0.00000000000E+00  0.00000000000E+00  0.23849548126E+03  0.23849548126E+03  0.00000000000E+00 0.  1.
          2   -1    0    0  501    0  0.00000000000E+00 -0.00000000000E+00 -0.27276297778E+03  0.27276297778E+03  0.00000000000E+00 0. -1.
         23    2    1    2    0    0 -0.39707214794E+02 -0.38999195221E+02  0.11439164056E+03  0.15701086888E+03  0.92029155070E+02 0.  0.
          5    1    1    2  502    0 -0.40479053990E+02  0.14516131916E+03 -0.16100492399E+03  0.22056840286E+03  0.41800000000E+01 0. -1.
         -5    1    1    2    0  502  0.80186268784E+02 -0.10616212394E+03  0.12345786916E+02  0.13367918729E+03  0.41800000000E+01 0.  1.
        -11    1    3    3    0    0 -0.33672104835E+02  0.50516425341E+01  0.10655544915E+03  0.11186328030E+03  0.00000000000E+00 0. -1.
         11    1    3    3    0    0 -0.60351099584E+01 -0.44050837755E+02  0.78361914129E+01  0.45147588585E+02  0.00000000000E+00 0.  1.
</event>
<event>
 8    1  0.1790275E-005  0.9192460E+02  0.7561462E-02  0.1298257E+00
          1   -1    0    0  501    0  0.00000000000E+00  0.00000000000E+00  0.65637441138E+02  0.65637441138E+02  0.00000000000E+00 0. -1.
         -1   -1    0    0    0  501 -0.00000000000E+00 -0.00000000000E+00 -0.26967763105E+03  0.26967763105E+03  0.00000000000E+00 0.  1.
         23    2    1    2    0    0  0.51382107610E+02  0.16790003857E+01 -0.16470084671E+03  0.19446477828E+03  0.89706415928E+02 0.  0.
         23    2    1    2    0    0 -0.51382107610E+02 -0.16790003857E+01 -0.39339343194E+02  0.14085029390E+03  0.12509309072E+03 0.  0.
          5    1    4    4  502    0 -0.30633258702E+02  0.34474600465E+02  0.33271487718E+02  0.57020688446E+02  0.41800000000E+01 0. -1.
         -5    1    4    4    0  502 -0.20748848908E+02 -0.36153600850E+02 -0.72610830912E+02  0.83829605457E+02  0.41800000000E+01 0. -1.
        -11    1    3    3    0    0  0.54796349235E+01  0.37203580738E+02 -0.31096337306E+02  0.48796670096E+02  0.00000000000E+00 0. -1.
         11    1    3    3    0    0  0.45902472687E+02 -0.35524580352E+02 -0.13360450941E+03  0.14566810819E+03  0.00000000000E+00 0.  1.
</event>
<event>
 8    1  0.1790275E-005  0.1439562E+03  0.7561462E-02  0.1208103E+00
         -3   -1    0    0    0  501 -0.00000000000E+00  0.00000000000E+00  0.13936868633E+03  0.13936868633E+03  0.00000000000E+00 0.  1.
          3   -1    0    0  501    0  0.00000000000E+00 -0.00000000000E+00 -0.19568590041E+03  0.19568590041E+03  0.00000000000E+00 0. -1.
         23    2    1    2    0    0  0.68103565318E+02  0.96597853945E+02  0.10785639685E+02  0.15034043289E+03  0.92285831746E+02 0.  0.
         23    2    1    2    0    0 -0.68103565318E+02 -0.96597853945E+02 -0.67102853758E+02  0.18471415386E+03  0.12508910686E+03 0.  0.
          5    1    4    4  502    0 -0.16303593453E+01 -0.10254182912E+03 -0.56020924101E+02  0.11693289156E+03  0.41800000000E+01 0.  1.
         -5    1    4    4    0  502 -0.66473205973E+02  0.59439751790E+01 -0.11081929657E+02  0.67781262294E+02  0.41800000000E+01 0.  1.
        -11    1    3    3    0    0  0.57513974565E+02  0.76766010529E+02  0.47693767166E+02  0.10712410125E+03  0.00000000000E+00 0.  1.
         11    1    3    3    0    0  0.10589590753E+02  0.19831843417E+02 -0.36908127481E+02  0.43216331633E+02  0.00000000000E+00 0. -1.
</event>
<event>
 8    1  0.1790275E-005  0.1071380E+03  0.7561462E-02  0.1265964E+00
         -1   -1    0    0    0  501 -0.00000000000E+00  0.00000000000E+00  0.17259254494E+03  0.17259254494E+03  0.00000000000E+00 0.  1.
          1   -1    0    0  501    0  0.00000000000E+00 -0.00000000000E+00 -0.91674583580E+02  0.91674583580E+02  0.00000000000E+00 0. -1.
         23    2    1    2    0    0 -0.18114807967E+02 -0.52065050938E+02  0.69599869115E+02  0.12710205088E+03  0.90949842004E+02 0.  0.
         23    2    1    2    0    0  0.18114807967E+02  0.52065050938E+02  0.11318092245E+02  0.13716507764E+03  0.12508894242E+03 0.  0.
          5    1    4    4  502    0  0.57193754474E+02  0.15777960492E+02  0.44442621503E+02  0.74247482073E+02  0.41800000000E+01 0.  1.
         -5    1    4    4    0  502 -0.39078946507E+02  0.36287090446E+02 -0.33124529259E+02  0.62917595565E+02  0.41800000000E+01 0.  1.
        -11    1    3    3    0    0 -0.48049768426E+02 -0.52763581996E+02  0.29895667194E+02  0.77372648577E+02  0.00000000000E+00 0. -1.
         11    1    3    3    0    0  0.29934960459E+02  0.69853105835E+00  0.39704201922E+02  0.49729402304E+02  0.00000000000E+00 0.  1.
</event>
<event>
 7    1  0.1790275E-005  0.1200207E+03  0.7561462E-02  0.1243063E+00
         -1   -1    0    0    0  501 -0.00000000000E+00  0.00000000000E+00  0.32511777653E+02  0.32511777653E+02  0.00000000000E+00 0.  1.
          1   -1    0    0  501    0  0.00000000000E+00 -0.00000000000E+00 -0.61370811749E+03  0.61370811749E+03  0.00000000000E+00 0. -1.
         23    2    1    2    0    0  0.69624775001E+02  0.82112808663E+01 -0.14033248017E+03  0.18160968770E+03  0.91508684006E+02 0.  0.
          5    1    1    2  502    0 -0.69516242503E+02 -0.57021083853E+02 -0.20783844692E+03  0.22649106913E+03  0.41800000000E+01 0. -1.
         -5    1    1    2    0  502 -0.10853249770E+00  0.48809802987E+02 -0.23302541275E+03  0.23811913832E+03  0.41800000000E+01 0.  1.
        -11    1    3    3    0    0  0.34710885619E+02 -0.32404339618E+02 -0.11057232054E+03  0.12033754558E+03  0.00000000000E+00 0. -1.
         11    1    3    3    0    0  0.34913889382E+02  0.40615620484E+02 -0.29760159635E+02  0.61272142125E+02  0.00000000000E+00 0.  1.
</event>
<event>
 8    1  0.1790275E-005  0.1239008E+03  0.7561462E-02  0.1236797E+00
          2   -1    0    0  501    0  0.00000000000E+00  0.00000000000E+00  0.21448535641E+03  0.21448535641E+03  0.00000000000E+00 0. -1.
         -2   -1    0    0    0  501 -0.00000000000E+00 -0.00000000000E+00 -0.80910537971E+02  0.80910537971E+02  0.00000000000E+00 0.  1.
         23    2    1    2    0    0 -0.18617322612E+01 -0.62283455414E+02  0.18981118265E+02  0.11466617761E+03  0.94368186224E+02 0.  0.
         23    2    1    2    0    0  0.18617322612E+01  0.62283455414E+02  0.11459370017E+03  0.18072971677E+03  0.12509524187E+03 0.  0.
          5    1    4    4  502    0 -0.45620483634E+02  0.72716946416E+02  0.95111099051E+02  0.12818961107E+03  0.41800000000E+01 0. -1.
         -5    1    4    4    0  502  0.47482215895E+02 -0.10433491002E+02  0.19482601120E+02  0.52540105702E+02  0.41800000000E+01 0. -1.
        -11    1    3    3    0    0 -0.46346481125E+02 -0.16419607069E+02  0.93664614072E+01  0.50053275700E+02  0.00000000000E+00 0. -1.
         11    1    3    3    0    0  0.44484748864E+02 -0.45863848345E+02  0.96146568573E+01  0.64612901908E+02  0.00000000000E+00 0.  1.
</event>
<event>
 8    1  0.1790275E-005  0.1378598E+03  0.7561462E-02  0.1216238E+00
         -2   -1    0    0    0  501 -0.00000000000E+00  0.00000000000E+00  0.77584101048E+02  0.77584101048E+02  0.00000000000E+00 0.  1.
          2   -1    0    0  501    0  0.00000000000E+00 -0.00000000000E+00 -0.39116558698E+03  0.39116558698E+03  0.00000000000E+00 0. -1.
         23    2    1    2    0    0  0.92938864461E+02  0.54069162582E+02 -0.37285751675E+02  0.14695993473E+03  0.92983268753E+02 0.  0.
         23    2    1    2    0    0 -0.92938864461E+02 -0.54069162582E+02 -0.27629573426E+03  0.32178975330E+03  0.12509278832E+03 0.  0.
          5    1    4    4  502    0 -0.38756208019E+02  0.30003792435E+02 -0.34480139722E+02  0.60071820813E+02  0.41800000000E+01 0. -1.
         -5    1    4    4    0  502 -0.54182656442E+02 -0.84072955017E+02 -0.24181559453E+03  0.26171793249E+03  0.41800000000E+01 0. -1.
        -11    1    3    3    0    0  0.63294531286E+02  0.68658020101E+02 -0.56101626814E+02  0.10893811980E+03  0.00000000000E+00 0. -1.
         11    1    3    3    0    0  0.29644333174E+02 -0.14588857519E+02  0.18815875139E+02  0.38021814927E+02  0.00000000000E+00 0.  1.
</event>
<event>
 8    1  0.1790275E-005  0.9342746E+02  0.7561462E-02  0.1294758E+00
          1   -1    0    0  501    0  0.00000000000E+00  0.00000000000E+00  0.64483946982E+02  0.64483946982E+02  0.00000000000E+00 0. -1.
         -1   -1    0    0    0  501 -0.00000000000E+00 -0.00000000000E+00 -0.28159883801E+03  0.28159883801E+03  0.00000000000E+00 0.  1.
         23    2    1    2    0    0 -0.70421780169E+02  0.30375091828E+02 -0.15373117217E+03  0.19456873381E+03  0.91333704379E+02 0.  0.
         23    2    1    2    0    0  0.70421780169E+02 -0.30375091828E+02 -0.63383718857E+02  0.15151405118E+03  0.11426783695E+03 0.  0.
          5    1    4    4  502    0  0.86339276154E+02 -0.15699111190E+02 -0.37503364165E+01  0.87934464928E+02  0.41800000000E+01 0. -1.
         -5    1    4    4    0  502 -0.15917495985E+02 -0.14675980638E+02 -0.59633382440E+02  0.63579586247E+02  0.41800000000E+01 0.  1.
        -11    1    3    3    0    0 -0.28727328021E+02  0.90539283068E+01 -0.14350969906E+03  0.14663651222E+03  0.00000000000E+00 0.  1.
         11    1    3    3    0    0 -0.41694452149E+02  0.21321163521E+02 -0.10221473107E+02  0.47932221588E+02  0.00000000000E+00 0. -1.
</event>
<event>
 8    1  0.1790275E-005  0.1441228E+03  0.7561462E-02  0.1207887E+00
          2   -1    0    0  501    0  0.00000000000E+00  0.00000000000E+00  0.62104770026E+03  0.62104770026E+03  0.00000000000E+00 0. -1.
         -2   -1    0    0    0  501 -0.00000000000E+00 -0.00000000000E+00 -0.38933166198E+02  0.38933166198E+02  0.00000000000E+00 0.  1.
         23    2    1    2    0    0 -0.93881508889E+02 -0.60938700441E+02  0.29503279568E+03  0.32744648473E+03  0.87461916934E+02 0.  0.
         23    2    1    2    0    0  0.93881508889E+02  0.60938700441E+02  0.28708173838E+03  0.33253438173E+03  0.12504370274E+03 0.  0.
          5    1    4    4  502    0  0.11679642386E+03  0.42179607193E+02  0.27200887430E+03  0.29904318080E+03  0.41800000000E+01 0. -1.
         -5    1    4    4    0  502 -0.22914914969E+02  0.18759093248E+02  0.15072864086E+02  0.33491200923E+02  0.41800000000E+01 0. -1.
        -11    1    3    3    0    0 -0.90168553829E+02 -0.19206834215E+02  0.24735034626E+03  0.26397246897E+03  0.00000000000E+00 0. -1.
         11    1    3    3    0    0 -0.37129550601E+01 -0.41731866225E+02  0.47682449417E+02  0.63474015757E+02  0.00000000000E+00 0.  1.
</event>
<event>
 8    1  0.1790275E-005  0.2010260E+03  0.7561462E-02  0.1148876E+00
         -2   -1    0    0    0  501 -0.00000000000E+00  0.00000000000E+00  0.58307940784E+03  0.58307940784E+03  0.00000000000E+00 0.  1.
          2   -1    0    0  501    0  0.00000000000E+00 -0.00000000000E+00 -0.79861972820E+02  0.79861972820E+02  0.00000000000E+00 0. -1.
         23    2    1    2    0    0 -0.16879672875E+03 -0.57575496688E+02  0.31547899258E+03  0.37536574508E+03  0.97801709429E+02 0.  0.
         23    2    1    2    0    0  0.16879672875E+03  0.57575496688E+02  0.18773844244E+03  0.28757563557E+03  0.12508696955E+03 0.  0.
          5    1    4    4  502    0  0.16591451350E+03  0.12941369004E+02  0.11588230857E+03  0.20283314981E+03  0.41800000000E+01 0. -1.
         -5    1    4    4    0  502  0.28822152459E+01  0.44634127684E+02  0.71856133871E+02  0.84742485765E+02  0.41800000000E+01 0. -1.
        -11    1    3    3    0    0 -0.98144904522E+02 -0.67778474778E+02  0.12900264084E+03  0.17569298583E+03  0.00000000000E+00 0. -1.
         11    1    3    3    0    0 -0.70651824227E+02  0.10202978089E+02  0.18647635174E+03  0.19967275925E+03  0.00000000000E+00 0.  1.
</event>
<event>
 8    1  0.1790275E-005  0.5952196E+02  0.7561462E-02  0.1399849E+00
         -1   -1    0    0    0  501 -0.00000000000E+00  0.00000000000E+00  0.46042761121E+02  0.46042761121E+02  0.00000000000E+00 0.  1.
          1   -1    0    0  501    0  0.00000000000E+00 -0.00000000000E+00 -0.26741829585E+03  0.26741829585E+03  0.00000000000E+00 0. -1.
         23    2    1    2    0    0  0.10894564548E+02 -0.18447810877E+02 -0.83327930633E+02  0.12593972337E+03  0.91968780774E+02 0.  0.
         23    2    1    2    0    0 -0.10894564548E+02  0.18447810877E+02 -0.13804760410E+03  0.18752133360E+03  0.12509235107E+03 0.  0.
          5    1    4    4  502    0  0.18042121519E+01  0.32379911185E+02  0.13041631331E+02  0.35203272257E+02  0.41800000000E+01 0.  1.
         -5    1    4    4    0  502 -0.12698776700E+02 -0.13932100308E+02 -0.15108923543E+03  0.15231806135E+03  0.41800000000E+01 0.  1.
        -11    1    3    3    0    0  0.31685476241E+02 -0.29671781384E+02 -0.44942109414E+01  0.43641516325E+02  0.00000000000E+00 0.  1.
         11    1    3    3    0    0 -0.20790911693E+02  0.11223970508E+02 -0.78833719692E+02  0.82298207049E+02  0.00000000000E+00 0. -1.
</event>
<event>
 8    1  0.1790275E-005  0.1979682E+03  0.7561462E-02  0.1151465E+00
         -2   -1    0    0    0  501 -0.00000000000E+00  0.00000000000E+00  0.11741357800E+04  0.11741357800E+04  0.00000000000E+00 0.  1.
          2   -1    0    0  501    0  0.00000000000E+00 -0.00000000000E+00 -0.38522722357E+02  0.38522722357E+02  0.00000000000E+00 0. -1.
         23    2    1    2    0    0  0.20082617588E+01 -0.16604286505E+03  0.76082859171E+03  0.78407357190E+03  0.91306922204E+02 0.  0.
         23    2    1    2    0    0 -0.20082617588E+01  0.16604286505E+03  0.37478446595E+03  0.42858493047E+03  0.12508949020E+03 0.  0.
          5    1    4    4  502    0  0.60061342221E+02  0.10207522053E+03  0.22208763854E+03  0.25172824050E+03  0.41800000000E+01 0. -1.
         -5    1    4    4    0  502 -0.62069603980E+02  0.63967644528E+02  0.15269682741E+03  0.17685668996E+03  0.41800000000E+01 0. -1.
        -11    1    3    3    0    0 -0.40415592446E+02 -0.11460623823E+03  0.53371252572E+03  0.54737288028E+03  0.00000000000E+00 0.  1.
         11    1    3    3    0    0  0.42423854205E+02 -0.51436626827E+02  0.22711606599E+03  0.23670069163E+03  0.00000000000E+00 0. -1.
</event>
<event>
 7    1  0.1790275E-005  0.1489421E+03  0.7561462E-02  0.1201779E+00
          1   -1    0    0  501    0  0.00000000000E+00  0.00000000000E+00  0.77138160147E+03  0.77138160147E+03  0.00000000000E+00 0. -1.
         -1   -1    0    0    0  501 -0.00000000000E+00 -0.00000000000E+00 -0.37027860909E+02  0.37027860909E+02  0.00000000000E+00 0.  1.
         23    2    1    2    0    0 -0.38604331620E+02 -0.40287076474E+02  0.19863079756E+03  0.22532908893E+03  0.90585107087E+02 0.  0.
          5    1    1    2  502    0 -0.37186050172E+02  0.11664002935E+03  0.28920442074E+03  0.31407700990E+03  0.41800000000E+01 0. -1.
         -5    1    1    2    0  502  0.75790381792E+02 -0.76352952874E+02  0.24651852226E+03  0.26900336355E+03  0.41800000000E+01 0.  1.
        -11    1    3    3    0    0  0.39564182681E+01 -0.20341038324E+02 -0.49794075813E+00  0.20728218220E+02  0.00000000000E+00 0.  1.
         11    1    3    3    0    0 -0.42560749888E+02 -0.19946038150E+02  0.19912873832E+03  0.20460087071E+03  0.00000000000E+00 0. -1.
</event>
<event>
 7    1  0.1790275E-005  0.1751259E+03  0.7561462E-02  0.1172605E+00
          1   -1    0    0  501    0  0.00000000000E+00  0.00000000000E+00  0.57797067319E+03  0.57797067319E+03  0.00000000000E+00 0. -1.
         -1   -1    0    0    0  501 -0.00000000000E+00 -0.00000000000E+00 -0.85955660372E+02  0.85955660372E+02  0.00000000000E+00 0.  1.
         23    2    1    2    0    0 -0.42249376266E+02 -0.15828108297E+03  0.86261244887E+02  0.20591617343E+03  0.90125230047E+02 0.  0.
          5    1    1    2  502    0  0.43637055488E+02  0.10058054702E+03  0.37843167567E+03  0.39401604612E+03  0.41800000000E+01 0. -1.
         -5    1    1    2    0  502 -0.13876792226E+01  0.57700535950E+02  0.27322092265E+02  0.63994114013E+02  0.41800000000E+01 0.  1.
        -11    1    3    3    0    0 -0.10267805637E+02 -0.14901497716E+03  0.86522703066E+02  0.17261827655E+03  0.00000000000E+00 0.  1.
         11    1    3    3    0    0 -0.31981570629E+02 -0.92661058040E+01 -0.26145817937E+00  0.33297896886E+02  0.00000000000E+00 0. -1.
</event>
<event>
 8    1  0.1790275E-005  0.1119199E+03  0.7561462E-02  0.1257055E+00
          2   -1    0    0  501    0  0.00000000000E+00  0.00000000000E+00  0.77957226570E+02  0.77957226570E+02  0.00000000000E+00 0. -1.
         -2   -1    0    0    0  501 -0.00000000000E+00 -0.00000000000E+00 -0.21679601441E+03  0.21679601441E+03  0.00000000000E+00 0.  1.
         23    2    1    2    0    0  0.40323288430E+02 -0.50288024124E+00 -0.12844269860E+03  0.16290522540E+03  0.91729848803E+02 0.  0.
         23    2    1    2    0    0 -0.40323288430E+02  0.50288024124E+00 -0.10396089236E+02  0.13184801557E+03  0.12509836154E+03 0.  0.
          5    1    4    4  502    0  0.97378833909E+01  0.53414020712E+02 -0.20511461070E+02  0.58190002722E+02  0.41800000000E+01 0.  1.
         -5    1    4    4    0  502 -0.50061171821E+02 -0.52911140471E+02  0.10115371833E+02  0.73658012852E+02  0.41800000000E+01 0.  1.
        -11    1    3    3    0    0 -0.92990828964E+01 -0.34853533734E+02 -0.27751710393E+02  0.45512626668E+02  0.00000000000E+00 0.  1.
         11    1    3    3    0    0  0.49622371327E+02  0.34350653493E+02 -0.10069098821E+03  0.11739259874E+03  0.00000000000E+00 0. -1.
</event>
<event>
 8    1  0.1790275E-005  0.1508596E+03  0.7561462E-02  0.1199421E+00
         -1   -1    0    0    0  501 -0.00000000000E+00  0.00000000000E+00  0.23757238053E+02  0.23757238053E+02  0.00000000000E+00 0.  1.
          1   -1    0    0  501    0  0.00000000000E+00 -0.00000000000E+00 -0.12211941495E+04  0.12211941495E+04  0.00000000000E+00 0. -1.
         23    2    1    2    0    0 -0.25288144609E+02  0.11510434393E+03 -0.34956089714E+03  0.37983244482E+03  0.90506160466E+02 0.  0.
         23    2    1    2    0    0  0.25288144609E+02 -0.11510434393E+03 -0.84787601429E+03  0.86511894271E+03  0.12509416127E+03 0.  0.
          5    1    4    4  502    0  0.36943713668E+02 -0.13272446559E+03 -0.80916771402E+03  0.82082305253E+03  0.41800000000E+01 0.  1.
         -5    1    4    4    0  502 -0.11655569059E+02  0.17620121665E+02 -0.38708300266E+02  0.44295890182E+02  0.41800000000E+01 0.  1.
        -11    1    3    3    0    0  0.54237920274E+01  0.11126688705E+03 -0.31122877208E+03  0.33056479886E+03  0.00000000000E+00 0. -1.
         11    1    3    3    0    0 -0.30711936637E+02  0.38374568773E+01 -0.38332125057E+02  0.49267645962E+02  0.00000000000E+00 0.  1.
</event>
<event>
 8    1  0.1790275E-005  0.1130265E+03  0.7561462E-02  0.1255066E+00
          2   -1    0    0  501    0  0.00000000000E+00  0.00000000000E+00  0.60931415390E+03  0.60931415390E+03  0.00000000000E+00 0. -1.
         -2   -1    0    0    0  501 -0.00000000000E+00 -0.00000000000E+00 -0.22877602246E+02  0.22877602246E+02  0.00000000000E+00 0.  1.
         23    2    1    2    0    0 -0.20693251619E+02 -0.37461534533E+02  0.19857984032E+03  0.22242073014E+03  0.90583944391E+02 0.  0.
         23    2    1    2    0    0  0.20693251619E+02  0.37461534533E+02  0.38785671133E+03  0.40977102600E+03  0.12509151848E+03 0.  0.
          5    1    4    4  502    0 -0.23233635696E+01 -0.44767715734E+02  0.10419072211E+03  0.11350209410E+03  0.41800000000E+01 0.  1.
         -5    1    4    4    0  502  0.23016615188E+02  0.82229250267E+02  0.28366598921E+03  0.29626893190E+03  0.41800000000E+01 0.  1.
        -11    1    3    3    0    0  0.22293870916E+02  0.15629153386E+02  0.90991237597E+02  0.94977325902E+02  0.00000000000E+00 0. -1.
         11    1    3    3    0    0 -0.42987122535E+02 -0.53090687918E+02  0.10758860272E+03  0.12744340424E+03  0.00000000000E+00 0.  1.
</event>
<event>
 8    1  0.1790275E-005  0.1065960E+03  0.7561462E-02  0.1267007E+00
         -2   -1    0    0    0  501 -0.00000000000E+00  0.00000000000E+00  0.73391336302E+02  0.73391336302E+02  0.00000000000E+00 0.  1.
          2   -1    0    0  501    0  0.00000000000E+00 -0.00000000000E+00 -0.22720920197E+03  0.22720920197E+03  0.00000000000E+00 0. -1.
         23    2    1    2    0    0  0.40460261719E+02 -0.39828657507E+02 -0.18722951864E+02  0.10793251319E+03  0.89863917902E+02 0.  0.
         23    2    1    2    0    0 -0.40460261719E+02  0.39828657507E+02 -0.13509491380E+03  0.19266802508E+03  0.12508787877E+03 0.  0.
          5    1    4    4  502    0 -0.71552911510E+02  0.35264012067E+02 -0.34171301196E+02  0.86882218652E+02  0.41800000000E+01 0. -1.
         -5    1    4    4    0  502  0.31092649791E+02  0.45646454403E+01 -0.10092361261E+03  0.10578580642E+03  0.41800000000E+01 0. -1.
        -11    1    3    3    0    0 -0.18689023939E+02 -0.38097271546E+02 -0.23602995430E+02  0.48557008848E+02  0.00000000000E+00 0. -1.
         11    1    3    3    0    0  0.59149285657E+02 -0.17313859613E+01  0.48800435662E+01  0.59375504346E+02  0.00000000000E+00 0.  1.
</event>
<event>
 8    1  0.1790275E-005  0.1308073E+03  0.7561462E-02  0.1226263E+00
         -1   -1    0    0    0  501 -0.00000000000E+00  0.00000000000E+00  0.43791772939E+03  0.43791772939E+03  0.00000000000E+00 0.  1.
          1   -1    0    0  501    0  0.00000000000E+00 -0.00000000000E+00 -0.52338045723E+02  0.52338045723E+02  0.00000000000E+00 0. -1.
         23    2    1    2    0    0  0.95551340117E+02  0.62037580247E+01  0.25282645470E+03  0.28424592730E+03  0.87783744395E+02 0.  0.
         23    2    1    2    0    0 -0.95551340117E+02 -0.62037580247E+01  0.13275322897E+03  0.20600984782E+03  0.12509233543E+03 0.  0.
          5    1    4    4  502    0 -0.12065930714E+03 -0.97146868850E+01  0.74138538715E+02  0.14201069982E+03  0.41800000000E+01 0. -1.
         -5    1    4    4    0  502  0.25107967027E+02  0.35109288603E+01  0.58614690257E+02  0.63999147992E+02  0.41800000000E+01 0. -1.
        -11    1    3    3    0    0  0.67519471509E+02  0.33760680852E+02  0.93647058585E+02  0.12028480447E+03  0.00000000000E+00 0.  1.
         11    1    3    3    0    0  0.28031868608E+02 -0.27556922827E+02  0.15917939611E+03  0.16396112283E+03  0.00000000000E+00 0. -1.
</event>
<event>
 8    1  0.1790275E-005  0.1175812E+03  0.7561462E-02  0.1247141E+00
         -2   -1    0    0    0  501 -0.00000000000E+00  0.00000000000E+00  0.81487072811E+02  0.81487072811E+02  0.00000000000E+00 0.  1.
          2   -1    0    0  501    0  0.00000000000E+00 -0.00000000000E+00 -0.46022361247E+03  0.46022361247E+03  0.00000000000E+00 0. -1.
         23    2    1    2    0    0  0.43322624109E+02 -0.55087685376E+02  0.24436615576E+02  0.11380139010E+03  0.86267638006E+02 0.  0.
         23    2    1    2    0    0 -0.43322624109E+02  0.55087685376E+02 -0.40317315523E+03  0.42790929518E+03  0.12508504692E+03 0.  0.
          5    1    4    4  502    0  0.37354951595E+02  0.98533350921E+01 -0.53101199599E+02  0.65800383129E+02  0.41800000000E+01 0. -1.
         -5    1    4    4    0  502 -0.80677575704E+02  0.45234350284E+02 -0.35007195563E+03  0.36210891205E+03  0.41800000000E+01 0. -1.
        -11    1    3    3    0    0  0.58256380414E+02 -0.63825207550E+02  0.32880938313E+01  0.86477017402E+02  0.00000000000E+00 0. -1.
         11    1    3    3    0    0 -0.14933756305E+02  0.87375221735E+01  0.21148521745E+02  0.27324372694E+02  0.00000000000E+00 0.  1.
</event>
<event>
 8    1  0.1790275E-005  0.9031255E+02  0.7561462E-02  0.1302097E+00
         -1   -1    0    0    0  501 -0.00000000000E+00  0.00000000000E+00  0.13618219598E+03  0.13618219598E+03  0.00000000000E+00 0.  1.
          1   -1    0    0  501    0  0.00000000000E+00 -0.00000000000E+00 -0.98018924629E+02  0.98018924629E+02  0.00000000000E+00 0. -1.
         23    2    1    2    0    0  0.34377222312E+02  0.11591695779E+02  0.14509428008E+02  0.10182396940E+03  0.94028912667E+02 0.  0.
         23    2    1    2    0    0 -0.34377222312E+02 -0.11591695779E+02  0.23653843344E+02  0.13237715121E+03  0.12509214617E+03 0.  0.
          5    1    4    4  502    0 -0.32401157992E+02  0.40021163637E+02 -0.28377738133E+02  0.58943167540E+02  0.41800000000E+01 0. -1.
         -5    1    4    4    0  502 -0.19760643199E+01 -0.51612859416E+02  0.52031581477E+02  0.73433983675E+02  0.41800000000E+01 0. -1.
        -11    1    3    3    0    0 -0.93493525576E+01  0.28703378315E+02 -0.25975715571E+02  0.39825018762E+02  0.00000000000E+00 0. -1.
         11    1    3    3    0    0  0.43726574870E+02 -0.17111682536E+02  0.40485143580E+02  0.61998950634E+02  0.00000000000E+00 0.  1.
</event>
<event>
 8    1  0.1790275E-005  0.6809226E+02  0.7561462E-02  0.1366703E+00
          2   -1    0    0  501    0  0.00000000000E+00  0.00000000000E+00  0.69318627623E+03  0.69318627623E+03  0.00000000000E+00 0.  1.
         -2   -1    0    0    0  501 -0.00000000000E+00 -0.00000000000E+00 -0.34091875482E+02  0.34091875482E+02  0.00000000000E+00 0. -1.
         23    2    1    2    0    0  0.57027184541E+02 -0.46156889894E+00  0.89615643570E+02  0.14144055732E+03  0.93392477535E+02 0.  0.
         23    2    1    2    0    0 -0.57027184541E+02  0.46156889894E+00  0.56947875718E+03  0.58583759439E+03  0.12508924535E+03 0.  0.
          5    1    4    4  502    0 -0.65730389848E+02  0.86609240031E+01  0.56930700540E+03  0.57316963854E+03  0.41800000000E+01 0. -1.
         -5    1    4    4    0  502  0.87032053072E+01 -0.81993551042E+01  0.17175178385E+00  0.12667955850E+02  0.41800000000E+01 0. -1.
        -11    1    3    3    0    0  0.27809580666E+02 -0.15166705298E+01 -0.15817270911E+02  0.32029035662E+02  0.00000000000E+00 0. -1.
         11    1    3    3    0    0  0.29217603875E+02  0.10551016309E+01  0.10543291448E+03  0.10941152166E+03  0.00000000000E+00 0.  1.
</event>
<event>
 8    1  0.1790275E-005  0.1132669E+03  0.7561462E-02  0.1254637E+00
         -2   -1    0    0    0  501 -0.00000000000E+00  0.00000000000E+00  0.31769727339E+02  0.31769727339E+02  0.00000000000E+00 0.  1.
          2   -1    0    0  501    0  0.00000000000E+00 -0.00000000000E+00 -0.88834277214E+03  0.88834277214E+03  0.00000000000E+00 0. -1.
         23    2    1    2    0    0  0.91817230727E+02  0.93695032245E+01 -0.15238747041E+03  0.19897242388E+03  0.88599621193E+02 0.  0.
         23    2    1    2    0    0 -0.91817230727E+02 -0.93695032245E+01 -0.70418557438E+03  0.72114007560E+03  0.12508994370E+03 0.  0.
          5    1    4    4  502    0 -0.95035830506E+02  0.21066438359E+01 -0.26148067163E+03  0.27825502882E+03  0.41800000000E+01 0. -1.
         -5    1    4    4    0  502  0.32185997789E+01 -0.11476147060E+02 -0.44270490276E+03  0.44288504678E+03  0.41800000000E+01 0. -1.
        -11    1    3    3    0    0  0.69587013028E+02 -0.28211637192E+02 -0.12944766575E+03  0.14964941371E+03  0.00000000000E+00 0. -1.
         11    1    3    3    0    0  0.22230217699E+02  0.37581140417E+02 -0.22939804660E+02  0.49323010166E+02  0.00000000000E+00 0.  1.
</event>
<event>
 8    1  0.1790275E-005  0.9840426E+02  0.7561462E-02  0.1283688E+00
         -2   -1    0    0    0  501 -0.00000000000E+00  0.00000000000E+00  0.22293516730E+02  0.22293516730E+02  0.00000000000E+00 0.  1.
          2   -1    0    0  501    0  0.00000000000E+00 -0.00000000000E+00 -0.50162838009E+03  0.50162838009E+03  0.00000000000E+00 0. -1.
         23    2    1    2    0    0 -0.93872096529E+01  0.18216601957E+01 -0.20999782567E+03  0.22711175836E+03  0.85960606356E+02 0.  0.
         23    2    1    2    0    0  0.93872096529E+01 -0.18216601957E+01 -0.26933703769E+03  0.29681013847E+03  0.12434781974E+03 0.  0.
          5    1    4    4  502    0  0.47834372091E+02  0.35916639216E+02 -0.80402673468E+02  0.10030052057E+03  0.41800000000E+01 0.  1.
         -5    1    4    4    0  502 -0.38447162438E+02 -0.37738299411E+02 -0.18893436422E+03  0.19650961790E+03  0.41800000000E+01 0.  1.
        -11    1    3    3    0    0 -0.45600712217E+02 -0.52832974584E+01 -0.14806037578E+03  0.15501358993E+03  0.00000000000E+00 0. -1.
         11    1    3    3    0    0  0.36213502564E+02  0.71049576541E+01 -0.61937449898E+02  0.72098168431E+02  0.00000000000E+00 0.  1.
</event>
<event>
 8    1  0.1790275E-005  0.1481543E+03  0.7561462E-02  0.1202760E+00
          1   -1    0    0  501    0  0.00000000000E+00  0.00000000000E+00  0.24047946386E+02  0.24047946386E+02  0.00000000000E+00 0. -1.
         -1   -1    0    0    0  501 -0.00000000000E+00 -0.00000000000E+00 -0.12430599166E+04  0.12430599166E+04  0.00000000000E+00 0.  1.
         23    2    1    2    0    0 -0.13370599620E+03 -0.11618642969E+02 -0.54202195925E+03  0.56569830065E+03  0.90633750698E+02 0.  0.
         23    2    1    2    0    0  0.13370599620E+03  0.11618642969E+02 -0.67699001094E+03  0.70140956231E+03  0.12509041891E+03 0.  0.
          5    1    4    4  502    0  0.66196086306E+02  0.23836156990E+01 -0.97704277680E+02  0.11811520538E+03  0.41800000000E+01 0. -1.
         -5    1    4    4    0  502  0.67509909899E+02  0.92350272700E+01 -0.57928573326E+03  0.58329435693E+03  0.41800000000E+01 0. -1.
        -11    1    3    3    0    0 -0.72987364588E+02  0.38880166784E+02 -0.26073845597E+03  0.27353859907E+03  0.00000000000E+00 0.  1.
         11    1    3    3    0    0 -0.60718631616E+02 -0.50498809753E+02 -0.28128350328E+03  0.29215970158E+03  0.00000000000E+00 0. -1.
</event>
<event>
 8    1  0.1790275E-005  0.2250409E+03  0.7561462E-02  0.1130180E+00
         -2   -1    0    0    0  501 -0.00000000000E+00  0.00000000000E+00  0.20391407920E+03  0.20391407920E+03  0.00000000000E+00 0. -1.
          2   -1    0    0  501    0  0.00000000000E+00 -0.00000000000E+00 -0.27921824267E+03  0.27921824267E+03  0.00000000000E+00 0.  1.
         23    2    1    2    0    0  0.68657461342E+02  0.20095651360E+03 -0.20275630484E+02  0.23059673617E+03  0.87557901912E+02 0.  0.
         23    2    1    2    0    0 -0.68657461342E+02 -0.20095651360E+03 -0.55028532987E+02  0.25253558569E+03  0.12509482501E+03 0.  0.
          5    1    4    4  502    0 -0.41054331331E+02 -0.18954872434E+03 -0.83374474619E+02  0.21114675569E+03  0.41800000000E+01 0.  1.
         -5    1    4    4    0  502 -0.27603130011E+02 -0.11407789260E+02  0.28345941633E+02  0.41388830006E+02  0.41800000000E+01 0.  1.
        -11    1    3    3    0    0  0.23514943684E+02  0.39777105209E+01 -0.15522213832E+02  0.28455471876E+02  0.00000000000E+00 0.  1.
         11    1    3    3    0    0  0.45142517658E+02  0.19697880308E+03 -0.47534166528E+01  0.20214126430E+03  0.00000000000E+00 0. -1.
</event>
<event>
 8    1  0.1790275E-005  0.1094030E+03  0.7561462E-02  0.1261679E+00
          4   -1    0    0  501    0  0.00000000000E+00  0.00000000000E+00  0.13280722933E+03  0.13280722933E+03  0.00000000000E+00 0.  1.
         -4   -1    0    0    0  501 -0.00000000000E+00 -0.00000000000E+00 -0.15178342428E+03  0.15178342428E+03  0.00000000000E+00 0. -1.
         23    2    1    2    0    0  0.88530803227E+02 -0.13693109638E+02 -0.19177688494E+02  0.13072888542E+03  0.93257993627E+02 0.  0.
         23    2    1    2    0    0 -0.88530803227E+02  0.13693109638E+02  0.20149355041E+00  0.15386176819E+03  0.12509276054E+03 0.  0.
          5    1    4    4  502    0 -0.68606135887E+02  0.40903892776E+02 -0.49196800471E+02  0.93902757692E+02  0.41800000000E+01 0. -1.
         -5    1    4    4    0  502 -0.19924667340E+02 -0.27210783138E+02  0.49398294021E+02  0.59959010497E+02  0.41800000000E+01 0. -1.
        -11    1    3    3    0    0  0.27167143895E+02  0.21008362259E+02  0.29324786933E+02  0.45159142163E+02  0.00000000000E+00 0.  1.
         11    1    3    3    0    0  0.61363659333E+02 -0.34701471897E+02 -0.48502475427E+02  0.85569743257E+02  0.00000000000E+00 0. -1.
</event>
<event>
 8    1  0.1790275E-005  0.1013487E+03  0.7561462E-02  0.1277485E+00
         -2   -1    0    0    0  501 -0.00000000000E+00  0.00000000000E+00  0.31572836008E+02  0.31572836008E+02  0.00000000000E+00 0.  1.
          2   -1    0    0  501    0  0.00000000000E+00 -0.00000000000E+00 -0.54213497140E+03  0.54213497140E+03  0.00000000000E+00 0. -1.
         23    2    1    2    0    0 -0.73968020269E+01  0.37161961146E+02 -0.92892002492E+02  0.13606407231E+03  0.91917265030E+02 0.  0.
         23    2    1    2    0    0  0.73968020269E+01 -0.37161961146E+02 -0.41767013290E+03  0.43764373509E+03  0.12509186590E+03 0.  0.
          5    1    4    4  502    0  0.42164489037E+02 -0.68923917566E+02 -0.22019474442E+03  0.23458803980E+03  0.41800000000E+01 0. -1.
         -5    1    4    4    0  502 -0.34767687010E+02  0.31761956420E+02 -0.19747538848E+03  0.20305569529E+03  0.41800000000E+01 0. -1.
        -11    1    3    3    0    0  0.28556272737E+02  0.18261419243E+02 -0.89027881032E+02  0.95262289215E+02  0.00000000000E+00 0. -1.
         11    1    3    3    0    0 -0.35953074764E+02  0.18900541903E+02 -0.38641214598E+01  0.40801783097E+02  0.00000000000E+00 0.  1.
</event>
<event>
 8    1  0.1790275E-005  0.1244319E+03  0.7561462E-02  0.1235960E+00
          2   -1    0    0  501    0  0.00000000000E+00  0.00000000000E+00  0.83759318849E+03  0.83759318849E+03  0.00000000000E+00 0. -1.
         -2   -1    0    0    0  501 -0.00000000000E+00 -0.00000000000E+00 -0.23777044169E+02  0.23777044169E+02  0.00000000000E+00 0.  1.
         23    2    1    2    0    0  0.80098142817E+00  0.64478287055E+02  0.17937192461E+03  0.21150570716E+03  0.91663982833E+02 0.  0.
         23    2    1    2    0    0 -0.80098142817E+00 -0.64478287055E+02  0.63444421971E+03  0.64986452550E+03  0.12508534091E+03 0.  0.
          5    1    4    4  502    0 -0.38866795255E+02 -0.87585805460E+02  0.42179241401E+03  0.43256006983E+03  0.41800000000E+01 0. -1.
         -5    1    4    4    0  502  0.38065813827E+02  0.23107518405E+02  0.21265180570E+03  0.21730445567E+03  0.41800000000E+01 0. -1.
        -11    1    3    3    0    0  0.23458743143E+02  0.78262630932E+02  0.15624343116E+03  0.17631608495E+03  0.00000000000E+00 0. -1.
         11    1    3    3    0    0 -0.22657761714E+02 -0.13784343877E+02  0.23128493450E+02  0.35189622210E+02  0.00000000000E+00 0.  1.
</event>
<event>
 7    1  0.1790275E-005  0.1468595E+03  0.7561462E-02  0.1204386E+00
          1   -1    0    0  501    0  0.00000000000E+00  0.00000000000E+00  0.46052526998E+03  0.46052526998E+03  0.00000000000E+00 0. -1.
         -1   -1    0    0    0  501 -0.00000000000E+00 -0.00000000000E+00 -0.11327610418E+03  0.11327610418E+03  0.00000000000E+00 0.  1.
         23    2    1    2    0    0  0.87614787664E+02 -0.29820985861E+02 -0.40862574784E+02  0.13669319968E+03  0.91921915813E+02 0.  0.
          5    1    1    2  502    0 -0.11372893233E+03 -0.43975311933E+02  0.21846441107E+03  0.25022443808E+03  0.41800000000E+01 0. -1.
         -5    1    1    2    0  502  0.26114144663E+02  0.73796297794E+02  0.16964732951E+03  0.18688373640E+03  0.41800000000E+01 0.  1.
        -11    1    3    3    0    0  0.18835456457E+02 -0.11775028186E+02  0.29319773914E+02  0.36784165765E+02  0.00000000000E+00 0. -1.
         11    1    3    3    0    0  0.68779331207E+02 -0.18045957676E+02 -0.70182348698E+02  0.99909033918E+02  0.00000000000E+00 0.  1.
</event>
<event>
 8    1  0.1790275E-005  0.2431143E+03  0.7561462E-02  0.1117735E+00
         -2   -1    0    0    0  501 -0.00000000000E+00  0.00000000000E+00  0.10540364098E+03  0.10540364098E+03  0.00000000000E+00 0. -1.
          2   -1    0    0  501    0  0.00000000000E+00 -0.00000000000E+00 -0.61756953574E+03  0.61756953574E+03  0.00000000000E+00 0.  1.
         23    2    1    2    0    0  0.19645096724E+03  0.11833866673E+03 -0.27284477964E+03  0.36868774647E+03  0.94283392202E+02 0.  0.
         23    2    1    2    0    0 -0.19645096724E+03 -0.11833866673E+03 -0.23932111512E+03  0.35428543025E+03  0.12508615982E+03 0.  0.
          5    1    4    4  502    0 -0.47104784065E+01 -0.32313325298E+02  0.35205038380E+01  0.33109000980E+02  0.41800000000E+01 0. -1.
         -5    1    4    4    0  502 -0.19174048883E+03 -0.86025341428E+02 -0.24284161896E+03  0.32117642927E+03  0.41800000000E+01 0. -1.
        -11    1    3    3    0    0  0.18140960126E+02  0.48203490698E+02 -0.90794743998E+02  0.10438561437E+03  0.00000000000E+00 0.  1.
         11    1    3    3    0    0  0.17831000711E+03  0.70135176028E+02 -0.18205003565E+03  0.26430213210E+03  0.00000000000E+00 0. -1.
</event>
<event>
 8    1  0.1790275E-005  0.9624155E+02  0.7561462E-02  0.1288404E+00
         -1   -1    0    0    0  501 -0.00000000000E+00  0.00000000000E+00  0.19441459365E+02  0.19441459365E+02  0.00000000000E+00 0.  1.
          1   -1    0    0  501    0  0.00000000000E+00 -0.00000000000E+00 -0.69898723684E+03  0.69898723684E+03  0.00000000000E+00 0. -1.
         23    2    1    2    0    0  0.13010875623E+02  0.34276768765E+02 -0.26867160035E+03  0.28737313572E+03  0.95156242766E+02 0.  0.
         23    2    1    2    0    0 -0.13010875623E+02 -0.34276768765E+02 -0.41087417712E+03  0.43105556048E+03  0.12508847683E+03 0.  0.
          5    1    4    4  502    0 -0.46826698024E+02 -0.61399669285E+01 -0.55714630010E+02  0.73157578137E+02  0.41800000000E+01 0. -1.
         -5    1    4    4    0  502  0.33815822402E+02 -0.28136801836E+02 -0.35515954711E+03  0.35789798234E+03  0.41800000000E+01 0. -1.
        -11    1    3    3    0    0  0.53791888509E+02  0.23500167384E+02 -0.17656859646E+03  0.18607067042E+03  0.00000000000E+00 0.  1.
         11    1    3    3    0    0 -0.40781012887E+02  0.10776601381E+02 -0.92103003899E+02  0.10130246530E+03  0.00000000000E+00 0. -1.
</event>
<event>
 8    1  0.1790275E-005  0.9483768E+02  0.7561462E-02  0.1291542E+00
         -2   -1    0    0    0  501 -0.00000000000E+00  0.00000000000E+00  0.53181447510E+02  0.53181447510E+02  0.00000000000E+00 0.  1.
          2   -1    0    0  501    0  0.00000000000E+00 -0.00000000000E+00 -0.34545346569E+03  0.34545346569E+03  0.00000000000E+00 0. -1.
         23    2    1    2    0    0  0.37228962212E+02 -0.36566886185E+02 -0.40658397033E+02  0.11283479787E+03  0.91408170137E+02 0.  0.
         23    2    1    2    0    0 -0.37228962212E+02  0.36566886185E+02 -0.25161362114E+03  0.28580011533E+03  0.12509659781E+03 0.  0.
          5    1    4    4  502    0 -0.67186538217E+02  0.64914109679E+02 -0.16180355555E+03  0.18688428383E+03  0.41800000000E+01 0. -1.
         -5    1    4    4    0  502  0.29957576005E+02 -0.28347223494E+02 -0.89810065592E+02  0.98915831501E+02  0.41800000000E+01 0. -1.
        -11    1    3    3    0    0  0.12835972323E+02 -0.24111075395E+02  0.27877354187E+02  0.39028874166E+02  0.00000000000E+00 0.  1.
         11    1    3    3    0    0  0.24392989890E+02 -0.12455810789E+02 -0.68535751220E+02  0.73805923702E+02  0.00000000000E+00 0. -1.
</event>
<event>
 8    1  0.1790275E-005  0.7827348E+02  0.7561462E-02  0.1334024E+00
          3   -1    0    0  501    0  0.00000000000E+00  0.00000000000E+00  0.85364763808E+02  0.85364763808E+02  0.00000000000E+00 0. -1.
         -3   -1    0    0    0  501 -0.00000000000E+00 -0.00000000000E+00 -0.13413715029E+03  0.13413715029E+03  0.00000000000E+00 0.  1.
         23    2    1    2    0    0  0.71242214720E+00 -0.14195564590E+02 -0.41910226473E+02  0.10356582782E+03  0.93634352722E+02 0.  0.
         23    2    1    2    0    0 -0.71242214720E+00  0.14195564590E+02 -0.68621600060E+01  0.11593608627E+03  0.11485671622E+03 0.  0.
          5    1    4    4  502    0 -0.15774835547E+02  0.49153249704E+02 -0.39885642566E+02  0.65369903441E+02  0.41800000000E+01 0. -1.
         -5    1    4    4    0  502  0.15062413399E+02 -0.34957685114E+02  0.33023482560E+02  0.50566182833E+02  0.41800000000E+01 0.  1.
        -11    1    3    3    0    0  0.28895897177E+02  0.86710938049E+01  0.16809223950E+02  0.34535644647E+02  0.00000000000E+00 0. -1.
         11    1    3    3    0    0 -0.28183475029E+02 -0.22866658395E+02 -0.58719450422E+02  0.69030183172E+02  0.00000000000E+00 0.  1.
</event>
<event>
 8    1  0.1790275E-005  0.1056711E+03  0.7561462E-02  0.1268803E+00
          2   -1    0    0  501    0  0.00000000000E+00  0.00000000000E+00  0.73144918646E+03  0.73144918646E+03  0.00000000000E+00 0.  1.
         -2   -1    0    0    0  501 -0.00000000000E+00 -0.00000000000E+00 -0.79510144676E+02  0.79510144676E+02  0.00000000000E+00 0. -1.
         23    2    1    2    0    0  0.57987037609E+02  0.33621098919E+02 -0.27141580599E+02  0.11721082829E+03  0.92243363168E+02 0.  0.
         23    2    1    2    0    0 -0.57987037609E+02 -0.33621098919E+02  0.67908062238E+03  0.69374850285E+03  0.12507445254E+03 0.  0.
          5    1    4    4  502    0 -0.36170246096E+02 -0.59949711393E+02  0.62938437886E+03  0.63328068292E+03  0.41800000000E+01 0.  1.
         -5    1    4    4    0  502 -0.21816791513E+02  0.26328612475E+02  0.49696243521E+02  0.60467819928E+02  0.41800000000E+01 0.  1.
        -11    1    3    3    0    0 -0.25268825987E+01 -0.23442418020E+02  0.10626235695E+02  0.25862114827E+02  0.00000000000E+00 0. -1.
         11    1    3    3    0    0  0.60513920208E+02  0.57063516938E+02 -0.37767816293E+02  0.91348713466E+02  0.00000000000E+00 0.  1.
</event>
<event>
 8    1  0.1790275E-005  0.1093091E+03  0.7561462E-02  0.1261855E+00
          1   -1    0    0  501    0  0.00000000000E+00  0.00000000000E+00  0.37231808052E+02  0.37231808052E+02  0.00000000000E+00 0. -1.
         -1   -1    0    0    0  501 -0.00000000000E+00 -0.00000000000E+00 -0.46634013559E+03  0.46634013559E+03  0.00000000000E+00 0.  1.
         23    2    1    2    0    0 -0.85270757951E+01 -0.74238412980E+02 -0.20622745031E+03  0.23728718615E+03  0.90506322801E+02 0.  0.
         23    2    1    2    0    0  0.85270757951E+01  0.74238412980E+02 -0.22288087723E+03  0.26628475749E+03  0.12509050186E+03 0.  0.
          5    1    4    4  502    0  0.60396332460E+01  0.92823118404E+02 -0.22810390856E+03  0.24637669122E+03  0.41800000000E+01 0.  1.
         -5    1    4    4    0  502  0.24874425491E+01 -0.18584705424E+02  0.52230313305E+01  0.19908066265E+02  0.41800000000E+01 0.  1.
        -11    1    3    3    0    0 -0.31614518001E+02 -0.34100127894E+01 -0.11600363282E+03  0.12028278665E+03  0.00000000000E+00 0.  1.
         11    1    3    3    0    0  0.23087442206E+02 -0.70828400191E+02 -0.90223817486E+02  0.11700439950E+03  0.00000000000E+00 0. -1.
</event>
<event>
 8    1  0.1790275E-005  0.1674584E+03  0.7561462E-02  0.1180525E+00
         -3   -1    0    0    0  501 -0.00000000000E+00  0.00000000000E+00  0.11173663053E+03  0.11173663053E+03  0.00000000000E+00 0.  1.
          3   -1    0    0  501    0  0.00000000000E+00 -0.00000000000E+00 -0.29657539853E+03  0.29657539853E+03  0.00000000000E+00 0. -1.
         23    2    1    2    0    0 -0.68735585563E+01 -0.13003527290E+03 -0.16625574289E+02  0.16153834066E+03  0.94137175317E+02 0.  0.
         23    2    1    2    0    0  0.68735585563E+01  0.13003527290E+03 -0.16821319372E+03  0.24677368840E+03  0.12508060099E+03 0.  0.
          5    1    4    4  502    0 -0.54497254151E+02  0.65143738509E+02 -0.50320433798E+02  0.98809290224E+02  0.41800000000E+01 0.  1.
         -5    1    4    4    0  502  0.61370812708E+02  0.64891534389E+02 -0.11789275992E+03  0.14796439818E+03  0.41800000000E+01 0.  1.
        -11    1    3    3    0    0  0.15832398027E+02  0.99191887828E+01 -0.46252090630E+01  0.19247017750E+02  0.00000000000E+00 0.  1.
         11    1    3    3    0    0 -0.22705956584E+02 -0.13995446168E+03 -0.12000365226E+02  0.14229132291E+03  0.00000000000E+00 0. -1.
</event>
<event>
 8    1  0.1790275E-005  0.2404479E+03  0.7561462E-02  0.1119495E+00
          1   -1    0    0  501    0  0.00000000000E+00  0.00000000000E+00  0.75102685725E+03  0.75102685725E+03  0.00000000000E+00 0. -1.
         -1   -1    0    0    0  501 -0.00000000000E+00 -0.00000000000E+00 -0.96331055023E+02  0.96331055023E+02  0.00000000000E+00 0.  1.
         23    2    1    2    0    0  0.19432550898E+03 -0.12912512115E+03  0.18897470412E+03  0.31165427766E+03  0.83553872636E+02 0.  0.
         23    2    1    2    0    0 -0.19432550898E+03  0.12912512115E+03  0.46572109810E+03  0.53570363461E+03  0.12508614059E+03 0.  0.
          5    1    4    4  502    0 -0.12149275340E+03  0.89870079491E+02  0.16501978804E+03  0.22379929214E+03  0.41800000000E+01 0.  1.
         -5    1    4    4    0  502 -0.72832755578E+02  0.39255041661E+02  0.30070131006E+03  0.31190434248E+03  0.41800000000E+01 0.  1.
        -11    1    3    3    0    0  0.84511512189E+02 -0.10438744788E+03  0.11632056777E+03  0.17767782488E+03  0.00000000000E+00 0. -1.
         11    1    3    3    0    0  0.10981399679E+03 -0.24737673268E+02  0.72654136351E+02  0.13397645278E+03  0.00000000000E+00 0.  1.
</event>
<event>
 8    1  0.1790275E-005  0.6843051E+02  0.7561462E-02  0.1365513E+00
         -2   -1    0    0    0  501 -0.00000000000E+00  0.00000000000E+00  0.31632919845E+02  0.31632919845E+02  0.00000000000E+00 0. -1.
          2   -1    0    0  501    0  0.00000000000E+00 -0.00000000000E+00 -0.40600203159E+03  0.40600203159E+03  0.00000000000E+00 0.  1.
         23    2    1    2    0    0 -0.30027936109E+02  0.11981189897E+02 -0.16594346925E+03  0.19241195978E+03  0.91868936119E+02 0.  0.
         23    2    1    2    0    0  0.30027936109E+02 -0.11981189897E+02 -0.20842564250E+03  0.24522299165E+03  0.12509133194E+03 0.  0.
          5    1    4    4  502    0  0.75322823172E+01 -0.36974189647E+02 -0.20789613200E+03  0.21133409587E+03  0.41800000000E+01 0. -1.
         -5    1    4    4    0  502  0.22495653792E+02  0.24992999750E+02 -0.52951049935E+00  0.33888895783E+02  0.41800000000E+01 0. -1.
        -11    1    3    3    0    0 -0.35653218327E+02 -0.14093166547E+02 -0.16072240528E+03  0.16523153718E+03  0.00000000000E+00 0.  1.
         11    1    3    3    0    0  0.56252822171E+01  0.26074356444E+02 -0.52210639698E+01  0.27180422605E+02  0.00000000000E+00 0. -1.
</event>
<event>
 8    1  0.1790275E-005  0.1278244E+03  0.7561462E-02  0.1230720E+00
          2   -1    0    0  501    0  0.00000000000E+00  0.00000000000E+00  0.62907489442E+03  0.62907489442E+03  0.00000000000E+00 0. -1.
         -2   -1    0    0    0  501 -0.00000000000E+00 -0.00000000000E+00 -0.32577765349E+02  0.32577765349E+02  0.00000000000E+00 0.  1.
         23    2    1    2    0    0 -0.64918497955E+02 -0.23692835741E+02  0.12587798942E+03  0.16981335332E+03  0.90639643116E+02 0.  0.
         23    2    1    2    0    0  0.64918497955E+02  0.23692835741E+02  0.47061913965E+03  0.49183930645E+03  0.12509103452E+03 0.  0.
          5    1    4    4  502    0 -0.56449024257E+01 -0.44282433940E+02  0.14992618157E+03  0.15648684034E+03  0.41800000000E+01 0.  1.
         -5    1    4    4    0  502  0.70563400381E+02  0.67975269681E+02  0.32069295808E+03  0.33535246611E+03  0.41800000000E+01 0.  1.
        -11    1    3    3    0    0 -0.30904981583E+02  0.33890651123E+02  0.63710732720E+02  0.78503194737E+02  0.00000000000E+00 0.  1.
         11    1    3    3    0    0 -0.34013516372E+02 -0.57583486864E+02  0.62167256699E+02  0.91310158585E+02  0.00000000000E+00 0. -1.
</event>
<event>
 8    1  0.1790275E-005  0.9184350E+02  0.7561462E-02  0.1298448E+00
          2   -1    0    0  501    0  0.00000000000E+00  0.00000000000E+00  0.10587690643E+03  0.10587690643E+03  0.00000000000E+00 0. -1.
         -2   -1    0    0    0  501 -0.00000000000E+00 -0.00000000000E+00 -0.12718938954E+03  0.12718938954E+03  0.00000000000E+00 0.  1.
         23    2    1    2    0    0 -0.99409454764E-01 -0.38066535911E+01 -0.51785549922E+02  0.10424362739E+03  0.90390763782E+02 0.  0.
         23    2    1    2    0    0  0.99409454764E-01  0.38066535911E+01  0.30473066812E+02  0.12882266858E+03  0.12510863937E+03 0.  0.
          5    1    4    4  502    0 -0.18447689581E+02 -0.46268257562E+02 -0.21294330005E+02  0.54332216953E+02  0.41800000000E+01 0.  1.
         -5    1    4    4    0  502  0.18547099036E+02  0.50074911153E+02  0.51767396817E+02  0.74490451622E+02  0.41800000000E+01 0.  1.
        -11    1    3    3    0    0 -0.35342610162E+02 -0.20803912636E+02 -0.21870878717E+01  0.41069285694E+02  0.00000000000E+00 0. -1.
         11    1    3    3    0    0  0.35243200707E+02  0.16997259045E+02 -0.49598462051E+02  0.63174341698E+02  0.00000000000E+00 0.  1.
</event>
<event>
 8    1  0.1790275E-005  0.1109507E+03  0.7561462E-02  0.1258819E+00
          1   -1    0    0  501    0  0.00000000000E+00  0.00000000000E+00  0.45989036680E+02  0.45989036680E+02  0.00000000000E+00 0.  1.
         -1   -1    0    0    0  501 -0.00000000000E+00 -0.00000000000E+00 -0.32154455968E+03  0.32154455968E+03  0.00000000000E+00 0. -1.
         23    2    1    2    0    0 -0.37607512053E+02  0.23031445081E+02 -0.16598645165E+03  0.19549350729E+03  0.93388633324E+02 0.  0.
         23    2    1    2    0    0  0.37607512053E+02 -0.23031445081E+02 -0.10956907135E+03  0.17204008908E+03  0.12509052093E+03 0.  0.
          5    1    4    4  502    0 -0.45238638129E+02 -0.19092947567E+01 -0.25842562133E+02  0.52301913960E+02  0.41800000000E+01 0.  1.
         -5    1    4    4    0  502  0.82846150183E+02 -0.21122150324E+02 -0.83726509218E+02  0.11973817512E+03  0.41800000000E+01 0.  1.
        -11    1    3    3    0    0  0.17123596625E+02  0.31106112405E+02 -0.11464345803E+03  0.12001637497E+03  0.00000000000E+00 0. -1.
         11    1    3    3    0    0 -0.54731108678E+02 -0.80746673246E+01 -0.51342993616E+02  0.75477132318E+02  0.00000000000E+00 0.  1.
</event>
<event>
 8    1  0.1790275E-005  0.1494808E+03  0.7561462E-02  0.1201112E+00
         -1   -1    0    0    0  501 -0.00000000000E+00  0.00000000000E+00  0.13144066746E+03  0.13144066746E+03  0.00000000000E+00 0.  1.
          1   -1    0    0  501    0  0.00000000000E+00 -0.00000000000E+00 -0.23270900766E+03  0.23270900766E+03  0.00000000000E+00 0. -1.
         23    2    1    2    0    0  0.11175779899E+03 -0.35175227106E+02  0.16554493978E+02  0.15614679792E+03  0.10188556813E+03 0.  0.
         23    2    1    2    0    0 -0.11175779899E+03  0.35175227106E+02 -0.11782283418E+03  0.20800287719E+03  0.12512343677E+03 0.  0.
          5    1    4    4  502    0 -0.32149640591E+02 -0.34963956599E+02 -0.83956378891E+02  0.96551662894E+02  0.41800000000E+01 0.  1.
         -5    1    4    4    0  502 -0.79608158401E+02  0.70139183705E+02 -0.33866455288E+02  0.11145121430E+03  0.41800000000E+01 0.  1.
        -11    1    3    3    0    0  0.87508891607E+02 -0.63270553030E+02  0.36532882934E+02  0.11399833563E+03  0.00000000000E+00 0.  1.
         11    1    3    3    0    0  0.24248907385E+02  0.28095325924E+02 -0.19978388956E+02  0.42148462290E+02  0.00000000000E+00 0. -1.
</event>
<event>
 8    1  0.1790275E-005  0.8360617E+02  0.7561462E-02  0.1319118E+00
          1   -1    0    0  501    0  0.00000000000E+00  0.00000000000E+00  0.94348762634E+02  0.94348762634E+02  0.00000000000E+00 0. -1.
         -1   -1    0    0    0  501 -0.00000000000E+00 -0.00000000000E+00 -0.14222287248E+03  0.14222287248E+03  0.00000000000E+00 0.  1.
         23    2    1    2    0    0  0.21076988897E+02 -0.34699429647E+02 -0.32774123571E+02  0.10419696445E+03  0.90191875168E+02 0.  0.
         23    2    1    2    0    0 -0.21076988897E+02  0.34699429647E+02 -0.15099986277E+02  0.13237467066E+03  0.12508698561E+03 0.  0.
          5    1    4    4  502    0 -0.66238347721E+02  0.71359126290E+01 -0.35391787460E+02  0.75554556298E+02  0.41800000000E+01 0. -1.
         -5    1    4    4    0  502  0.45161358824E+02  0.27563517018E+02  0.20291801183E+02  0.56820114365E+02  0.41800000000E+01 0. -1.
        -11    1    3    3    0    0 -0.29321774064E+01 -0.17766480425E+02  0.29942487453E+02  0.34939920519E+02  0.00000000000E+00 0. -1.
         11    1    3    3    0    0  0.24009166303E+02 -0.16932949222E+02 -0.62716611024E+02  0.69257043933E+02  0.00000000000E+00 0.  1.
</event>
<event>
 8    1  0.1790275E-005  0.6442104E+02  0.7561462E-02  0.1380163E+00
         -1   -1    0    0    0  501 -0.00000000000E+00  0.00000000000E+00  0.14933162220E+02  0.14933162220E+02  0.00000000000E+00 0.  1.
          1   -1    0    0  501    0  0.00000000000E+00 -0.00000000000E+00 -0.78665280662E+03  0.78665280662E+03  0.00000000000E+00 0. -1.
         23    2    1    2    0    0  0.84681572961E+01  0.41285110909E+01 -0.20704473813E+03  0.22314441914E+03  0.82687084312E+02 0.  0.
         23    2    1    2    0    0 -0.84681572961E+01 -0.41285110909E+01 -0.56467490627E+03  0.57844154970E+03  0.12509245526E+03 0.  0.
          5    1    4    4  502    0  0.26622956254E+01  0.19428249548E+02 -0.54538992649E+03  0.54575836137E+03  0.41800000000E+01 0.  1.
         -5    1    4    4    0  502 -0.11130452922E+02 -0.23556760639E+02 -0.19284979781E+02  0.32683188326E+02  0.41800000000E+01 0.  1.
        -11    1    3    3    0    0 -0.33614621540E+02 -0.14216242277E+02 -0.76432141253E+02  0.84698976041E+02  0.00000000000E+00 0.  1.
         11    1    3    3    0    0  0.42082778836E+02  0.18344753368E+02 -0.13061259688E+03  0.13844544310E+03  0.00000000000E+00 0. -1.
</event>
<event>
 8    1  0.1790275E-005  0.1496853E+03  0.7561462E-02  0.1200860E+00
         -4   -1    0    0    0  501 -0.00000000000E+00  0.00000000000E+00  0.23398881326E+03  0.23398881326E+03  0.00000000000E+00 0. -1.
          4   -1    0    0  501    0  0.00000000000E+00 -0.00000000000E+00 -0.11601952869E+03  0.11601952869E+03  0.00000000000E+00 0.  1.
         23    2    1    2    0    0 -0.37956329303E+02 -0.11292832830E+03  0.90418264557E+02  0.17507627681E+03  0.91009614157E+02 0.  0.
         23    2    1    2    0    0  0.37956329303E+02  0.11292832830E+03  0.27551020019E+02  0.17493206514E+03  0.12509467792E+03 0.  0.
          5    1    4    4  502    0  0.41918039270E+01 -0.26957774289E+02  0.12118077836E+02  0.30143208608E+02  0.41800000000E+01 0. -1.
         -5    1    4    4    0  502  0.33764525376E+02  0.13988610259E+03  0.15432942182E+02  0.14478885653E+03  0.41800000000E+01 0. -1.
        -11    1    3    3    0    0 -0.30634500200E+02 -0.24909308038E+02 -0.10609427403E+02  0.40884057764E+02  0.00000000000E+00 0.  1.
         11    1    3    3    0    0 -0.73218291025E+01 -0.88019020263E+02  0.10102769196E+03  0.13419221904E+03  0.00000000000E+00 0. -1.
</event>
<event>
 8    1  0.1790275E-005  0.1371779E+03  0.7561462E-02  0.1217177E+00
         -2   -1    0    0    0  501 -0.00000000000E+00  0.00000000000E+00  0.93516383286E+02  0.93516383286E+02  0.00000000000E+00 0.  1.
          2   -1    0    0  501    0  0.00000000000E+00 -0.00000000000E+00 -0.23463891941E+03  0.23463891941E+03  0.00000000000E+00 0. -1.
         23    2    1    2    0    0 -0.83215706761E+02  0.41705483814E+02 -0.22102822054E+02  0.13199812308E+03  0.90943765714E+02 0.  0.
         23    2    1    2    0    0  0.83215706761E+02 -0.41705483814E+02 -0.11901971407E+03  0.19615717961E+03  0.12509094909E+03 0.  0.
          5    1    4    4  502    0  0.10472812835E+03 -0.61759840937E+02 -0.74553779746E+02  0.14268145393E+03  0.41800000000E+01 0.  1.
         -5    1    4    4    0  502 -0.21512421592E+02  0.20054357122E+02 -0.44465934321E+02  0.53475725683E+02  0.41800000000E+01 0.  1.
        -11    1    3    3    0    0 -0.90413529926E+02  0.56449560984E+02 -0.33832463538E+02  0.11182931153E+03  0.00000000000E+00 0. -1.
         11    1    3    3    0    0  0.71978231649E+01 -0.14744077169E+02  0.11729641484E+02  0.20168811548E+02  0.00000000000E+00 0.  1.
</event>
<event>
 8    1  0.1790275E-005  0.1492645E+03  0.7561462E-02  0.1201380E+00
         -2   -1    0    0    0  501 -0.00000000000E+00  0.00000000000E+00  0.82077704881E+02  0.82077704881E+02  0.00000000000E+00 0.  1.
          2   -1    0    0  501    0  0.00000000000E+00 -0.00000000000E+00 -0.33618938242E+03  0.33618938242E+03  0.00000000000E+00 0. -1.
         23    2    1    2    0    0 -0.90677025849E+02  0.83859712359E+02 -0.13776916560E+03  0.20746403715E+03  0.93841405279E+02 0.  0.
         23    2    1    2    0    0  0.90677025849E+02 -0.83859712359E+02 -0.11634251193E+03  0.21080305015E+03  0.12509025340E+03 0.  0.
          5    1    4    4  502    0 -0.49178047014E+01  0.88967319510E+01  0.18308997643E+02  0.21354822341E+02  0.41800000000E+01 0. -1.
         -5    1    4    4    0  502  0.95594830550E+02 -0.92756444310E+02 -0.13465150958E+03  0.18944822781E+03  0.41800000000E+01 0. -1.
        -11    1    3    3    0    0 -0.55821796535E+02  0.10102378186E+03 -0.11209722587E+03  0.16089644346E+03  0.00000000000E+00 0. -1.
         11    1    3    3    0    0 -0.34855229314E+02 -0.17164069502E+02 -0.25671939736E+02  0.46567593691E+02  0.00000000000E+00 0.  1.
</event>
<event>
 8    1  0.1790275E-005  0.8470078E+02  0.7561462E-02  0.1316217E+00
          1   -1    0    0  501    0  0.00000000000E+00  0.00000000000E+00  0.26745333184E+03  0.26745333184E+03  0.00000000000E+00 0. -1.
         -1   -1    0    0    0  501 -0.00000000000E+00 -0.00000000000E+00 -0.49885835009E+02  0.49885835009E+02  0.00000000000E+00 0.  1.
         23    2    1    2    0    0  0.18541686370E+02 -0.14801896447E+01  0.43762396863E+02  0.10235901690E+03  0.90643454622E+02 0.  0.
         23    2    1    2    0    0 -0.18541686370E+02  0.14801896447E+01  0.17380509997E+03  0.21498014995E+03  0.12514897924E+03 0.  0.
          5    1    4    4  502    0  0.65138323641E+01  0.48977991317E+02  0.22648514705E+02  0.54513312721E+02  0.41800000000E+01 0.  1.
         -5    1    4    4    0  502 -0.25055518734E+02 -0.47497801672E+02  0.15115658526E+03  0.16046683723E+03  0.41800000000E+01 0.  1.
        -11    1    3    3    0    0 -0.11295894539E+02 -0.25342680693E+02 -0.15550013235E+02  0.31806471193E+02  0.00000000000E+00 0.  1.
         11    1    3    3    0    0  0.29837580910E+02  0.23862491048E+02  0.59312410097E+02  0.70552545703E+02  0.00000000000E+00 0. -1.
</event>
<event>
 7    1  0.1790275E-005  0.1072543E+03  0.7561462E-02  0.1265741E+00
          1   -1    0    0  501    0  0.00000000000E+00  0.00000000000E+00  0.55333175414E+03  0.55333175414E+03  0.00000000000E+00 0. -1.
         -1   -1    0    0    0  501 -0.00000000000E+00 -0.00000000000E+00 -0.28816701719E+02  0.28816701719E+02  0.00000000000E+00 0.  1.
         23    2    1    2    0    0  0.18772793998E+02  0.19165174842E+02  0.14377048894E+03  0.17213548989E+03  0.90779687534E+02 0.  0.
          5    1    1    2  502    0  0.54243567630E+02  0.50099991353E+01  0.26770983865E+03  0.27322791737E+03  0.41800000000E+01 0. -1.
         -5    1    1    2    0  502 -0.73016361629E+02 -0.24175173978E+02  0.11303472483E+03  0.13678504860E+03  0.41800000000E+01 0.  1.
        -11    1    3    3    0    0  0.45201194957E+02 -0.69022486268E+01  0.11906918932E+03  0.12754709290E+03  0.00000000000E+00 0.  1.
         11    1    3    3    0    0 -0.26428400959E+02  0.26067423469E+02  0.24701299624E+02  0.44588396996E+02  0.00000000000E+00 0. -1.
</event>
<event>
 8    1  0.1790275E-005  0.1518756E+03  0.7561462E-02  0.1198187E+00
         -1   -1    0    0    0  501 -0.00000000000E+00  0.00000000000E+00  0.18267299599E+03  0.18267299599E+03  0.00000000000E+00 0.  1.
          1   -1    0    0  501    0  0.00000000000E+00 -0.00000000000E+00 -0.17964099384E+03  0.17964099384E+03  0.00000000000E+00 0. -1.
         23    2    1    2    0    0 -0.52040967408E+02  0.13307557186E+03  0.26658319586E+02  0.17094248952E+03  0.89962762327E+02 0.  0.
         23    2    1    2    0    0  0.52040967408E+02 -0.13307557186E+03 -0.23626317436E+02  0.19137150030E+03  0.12508988023E+03 0.  0.
          5    1    4    4  502    0  0.66432055153E+01 -0.44299514981E+02  0.50069145511E+02  0.67312487246E+02  0.41800000000E+01 0.  1.
         -5    1    4    4    0  502  0.45397761893E+02 -0.88776056884E+02 -0.73695462947E+02  0.12405901305E+03  0.41800000000E+01 0.  1.
        -11    1    3    3    0    0 -0.51727859775E+02  0.38736584917E+02 -0.17247761674E+02  0.66886319757E+02  0.00000000000E+00 0. -1.
         11    1    3    3    0    0 -0.31310763298E+00  0.94338986948E+02  0.43906081260E+02  0.10405616977E+03  0.00000000000E+00 0.  1.
</event>
<event>
 8    1  0.1790275E-005  0.1073226E+03  0.7561462E-02  0.1265610E+00
          2   -1    0    0  501    0  0.00000000000E+00  0.00000000000E+00  0.74321363749E+03  0.74321363749E+03  0.00000000000E+00 0. -1.
         -2   -1    0    0    0  501 -0.00000000000E+00 -0.00000000000E+00 -0.29472619668E+02  0.29472619668E+02  0.00000000000E+00 0.  1.
         23    2    1    2    0    0 -0.34628622568E+02  0.15137534860E+02  0.10988561735E+03  0.15485382984E+03  0.10235513301E+03 0.  0.
         23    2    1    2    0    0  0.34628622568E+02 -0.15137534860E+02  0.60385540047E+03  0.61783242732E+03  0.12508907668E+03 0.  0.
          5    1    4    4  502    0 -0.30847008778E+02  0.13780299219E+02  0.57724602101E+02  0.67015197417E+02  0.41800000000E+01 0.  1.
         -5    1    4    4    0  502  0.65475631346E+02 -0.28917834079E+02  0.54613079837E+03  0.55081722990E+03  0.41800000000E+01 0.  1.
        -11    1    3    3    0    0 -0.50140934349E+02  0.49959843577E+02  0.75897527602E+02  0.10378118309E+03  0.00000000000E+00 0. -1.
         11    1    3    3    0    0  0.15512311781E+02 -0.34822308717E+02  0.33988089747E+02  0.51072646747E+02  0.00000000000E+00 0.  1.
</event>
<event>
 8    1  0.1790275E-005  0.7599342E+02  0.7561462E-02  0.1340822E+00
          2   -1    0    0  501    0  0.00000000000E+00  0.00000000000E+00  0.11948612596E+03  0.11948612596E+03  0.00000000000E+00 0. -1.
         -2   -1    0    0    0  501 -0.00000000000E+00 -0.00000000000E+00 -0.12119536225E+03  0.12119536225E+03  0.00000000000E+00 0.  1.
         23    2    1    2    0    0  0.12642512082E+02  0.44701955133E+01 -0.56721990467E+02  0.10337454324E+03  0.85376204112E+02 0.  0.
         23    2    1    2    0    0 -0.12642512082E+02 -0.44701955133E+01  0.55012754176E+02  0.13730694496E+03  0.12508788212E+03 0.  0.
          5    1    4    4  502    0 -0.30281886523E+02 -0.28796815263E+02  0.84900455872E+02  0.94719633804E+02  0.41800000000E+01 0.  1.
         -5    1    4    4    0  502  0.17639374441E+02  0.24326619749E+02 -0.29887701696E+02  0.42587311159E+02  0.41800000000E+01 0.  1.
        -11    1    3    3    0    0 -0.81683026809E+01 -0.34510454314E+02 -0.45675236303E+02  0.57826636051E+02  0.00000000000E+00 0.  1.
         11    1    3    3    0    0  0.20810814763E+02  0.38980649827E+02 -0.11046754164E+02  0.45547907192E+02  0.00000000000E+00 0. -1.
</event>
<event>
 8    1  0.1790275E-005  0.1275285E+03  0.7561462E-02  0.1231170E+00
         -2   -1    0    0    0  501 -0.00000000000E+00  0.00000000000E+00  0.24235427423E+02  0.24235427423E+02  0.00000000000E+00 0. -1.
          2   -1    0    0  501    0  0.00000000000E+00 -0.00000000000E+00 -0.79963463213E+03  0.79963463213E+03  0.00000000000E+00 0.  1.
         23    2    1    2    0    0 -0.69820508080E+02  0.49393377859E+02 -0.31041985114E+03  0.33479466401E+03  0.91718994466E+02 0.  0.
         23    2    1    2    0    0  0.69820508080E+02 -0.49393377859E+02 -0.46497935356E+03  0.48907539553E+03  0.12519718109E+03 0.  0.
          5    1    4    4  502    0  0.19515191219E+01  0.34704904243E+02 -0.56040914738E+02  0.66077948895E+02  0.41800000000E+01 0. -1.
         -5    1    4    4    0  502  0.67868988958E+02 -0.84098282103E+02 -0.40893843883E+03  0.42299744664E+03  0.41800000000E+01 0. -1.
        -11    1    3    3    0    0 -0.47702433541E+01  0.46541259098E+02 -0.20973721130E+03  0.21489193057E+03  0.00000000000E+00 0. -1.
         11    1    3    3    0    0 -0.65050264726E+02  0.28521187610E+01 -0.10068263984E+03  0.11990273344E+03  0.00000000000E+00 0.  1.
</event>
<event>
 8    1  0.1790275E-005  0.9710884E+02  0.7561462E-02  0.1286496E+00
          1   -1    0    0  501    0  0.00000000000E+00  0.00000000000E+00  0.24564894439E+02  0.24564894439E+02  0.00000000000E+00 0. -1.
         -1   -1    0    0    0  501 -0.00000000000E+00 -0.00000000000E+00 -0.48126158168E+03  0.48126158168E+03  0.00000000000E+00 0.  1.
         23    2    1    2    0    0 -0.10230772710E+01  0.80252215140E+00 -0.20842920768E+03  0.22782278075E+03  0.91971702639E+02 0.  0.
         23    2    1    2    0    0  0.10230772710E+01 -0.80252215140E+00 -0.24826747956E+03  0.27800369536E+03  0.12509045727E+03 0.  0.
          5    1    4    4  502    0 -0.22773347923E+02 -0.54957332176E+02 -0.81363658551E+02  0.10087839743E+03  0.41800000000E+01 0.  1.
         -5    1    4    4    0  502  0.23796425194E+02  0.54154810025E+02 -0.16690382100E+03  0.17712529793E+03  0.41800000000E+01 0.  1.
        -11    1    3    3    0    0 -0.18621078192E+02  0.33398652165E+02 -0.17076825084E+03  0.17499717145E+03  0.00000000000E+00 0.  1.
         11    1    3    3    0    0  0.17598000921E+02 -0.32596130013E+02 -0.37660956839E+02  0.52825609303E+02  0.00000000000E+00 0. -1.
</event>
<event>
 8    1  0.1790275E-005  0.1208506E+03  0.7561462E-02  0.1241700E+00
         -2   -1    0    0    0  501 -0.00000000000E+00  0.00000000000E+00  0.22207180002E+02  0.22207180002E+02  0.00000000000E+00 0. -1.
          2   -1    0    0  501    0  0.00000000000E+00 -0.00000000000E+00 -0.76502780563E+03  0.76502780563E+03  0.00000000000E+00 0.  1.
         23    2    1    2    0    0 -0.57216242771E+02 -0.39379590962E+02 -0.24657886821E+03  0.27077962007E+03  0.87726927320E+02 0.  0.
         23    2    1    2    0    0  0.57216242771E+02  0.39379590962E+02 -0.49624175742E+03  0.51645536556E+03  0.12508322106E+03 0.  0.
          5    1    4    4  502    0  0.15201289659E+02  0.76319429319E+02 -0.19429610332E+03  0.20934226201E+03  0.41800000000E+01 0.  1.
         -5    1    4    4    0  502  0.42014953112E+02 -0.36939838356E+02 -0.30194565410E+03  0.30711310355E+03  0.41800000000E+01 0.  1.
        -11    1    3    3    0    0  0.11444855350E+02  0.15851620763E+02 -0.79716575985E+02  0.82079175687E+02  0.00000000000E+00 0. -1.
         11    1    3    3    0    0 -0.68661098121E+02 -0.55231211726E+02 -0.16686229223E+03  0.18870044439E+03  0.00000000000E+00 0.  1.
</event>
<event>
 8    1  0.1790275E-005  0.1014290E+03  0.7561462E-02  0.1277319E+00
          1   -1    0    0  501    0  0.00000000000E+00  0.00000000000E+00  0.17771560279E+03  0.17771560279E+03  0.00000000000E+00 0. -1.
         -1   -1    0    0    0  501 -0.00000000000E+00 -0.00000000000E+00 -0.93751080898E+02  0.93751080898E+02  0.00000000000E+00 0.  1.
         23    2    1    2    0    0 -0.75732381685E+01 -0.61396034615E+02  0.91008345637E+00  0.10908162346E+03  0.89839553220E+02 0.  0.
         23    2    1    2    0    0  0.75732381685E+01  0.61396034615E+02  0.83054438437E+02  0.16238506023E+03  0.12507614096E+03 0.  0.
          5    1    4    4  502    0 -0.48291025130E+02  0.43469514485E+02  0.80468078527E+02  0.10350944817E+03  0.41800000000E+01 0. -1.
         -5    1    4    4    0  502  0.55864263298E+02  0.17926520131E+02  0.25863599096E+01  0.58875612060E+02  0.41800000000E+01 0. -1.
        -11    1    3    3    0    0  0.21001527790E+02 -0.24700077443E+02 -0.36916238789E+02  0.49132134918E+02  0.00000000000E+00 0.  1.
         11    1    3    3    0    0 -0.28574765959E+02 -0.36695957172E+02  0.37826322245E+02  0.59949488546E+02  0.00000000000E+00 0. -1.
</event>
<event>
 8    1  0.1790275E-005  0.1079883E+03  0.7561462E-02  0.1264341E+00
          1   -1    0    0  501    0  0.00000000000E+00  0.00000000000E+00  0.46012016453E+03  0.46012016453E+03  0.00000000000E+00 0. -1.
         -1   -1    0    0    0  501 -0.00000000000E+00 -0.00000000000E+00 -0.50500373080E+02  0.50500373080E+02  0.00000000000E+00 0.  1.
         23    2    1    2    0    0 -0.88467598799E+02 -0.18013190827E+02  0.93081582279E+02  0.15847281994E+03  0.91095897934E+02 0.  0.
         23    2    1    2    0    0  0.88467598799E+02  0.18013190827E+02  0.31653820917E+03  0.35214771766E+03  0.12514226349E+03 0.  0.
          5    1    4    4  502    0 -0.34160153516E+01  0.70285428514E+01 -0.96260869501E+01  0.13084476507E+02  0.41800000000E+01 0.  1.
         -5    1    4    4    0  502  0.91883614151E+02  0.10984647975E+02  0.32616429612E+03  0.33906324116E+03  0.41800000000E+01 0.  1.
        -11    1    3    3    0    0 -0.91250259969E+02  0.49177898278E+01  0.38419552349E+02  0.99130502893E+02  0.00000000000E+00 0. -1.
         11    1    3    3    0    0  0.27826611696E+01 -0.22930980655E+02  0.54662029929E+02  0.59342317051E+02  0.00000000000E+00 0.  1.
</event>
<event>
 7    1  0.1790275E-005  0.1957205E+03  0.7561462E-02  0.1153401E+00
          1   -1    0    0  501    0  0.00000000000E+00  0.00000000000E+00  0.18032116759E+03  0.18032116759E+03  0.00000000000E+00 0. -1.
         -1   -1    0    0    0  501 -0.00000000000E+00 -0.00000000000E+00 -0.58424557832E+03  0.58424557832E+03  0.00000000000E+00 0.  1.
         23    2    1    2    0    0  0.97180171313E+02 -0.86810298492E+02 -0.18653233847E+03  0.24510449310E+03  0.91114683896E+02 0.  0.
          5    1    1    2  502    0  0.28503233462E+01 -0.68857105847E+02  0.11781369193E+03  0.13655388598E+03  0.41800000000E+01 0. -1.
         -5    1    1    2    0  502 -0.10003049466E+03  0.15566740434E+03 -0.33520576420E+03  0.38290836683E+03  0.41800000000E+01 0.  1.
        -11    1    3    3    0    0  0.75023842387E+02 -0.87357453603E+02 -0.90250333816E+02  0.14630456035E+03  0.00000000000E+00 0. -1.
         11    1    3    3    0    0  0.22156328926E+02  0.54715511106E+00 -0.96282004653E+02  0.98799932744E+02  0.00000000000E+00 0.  1.
</event>
<event>
 8    1  0.1790275E-005  0.1134924E+03  0.7561462E-02  0.1254236E+00
         -2   -1    0    0    0  501 -0.00000000000E+00  0.00000000000E+00  0.47592586251E+02  0.47592586251E+02  0.00000000000E+00 0.  1.
          2   -1    0    0  501    0  0.00000000000E+00 -0.00000000000E+00 -0.33384164446E+03  0.33384164446E+03  0.00000000000E+00 0. -1.
         23    2    1    2    0    0  0.39406052405E+02 -0.49471616827E+02 -0.10469511765E+03  0.15206584898E+03  0.90347534157E+02 0.  0.
         23    2    1    2    0    0 -0.39406052405E+02  0.49471616827E+02 -0.18155394057E+03  0.22936838174E+03  0.12509094039E+03 0.  0.
          5    1    4    4  502    0 -0.64958490433E+02  0.60684502802E+02 -0.18036817197E+03  0.20112773111E+03  0.41800000000E+01 0. -1.
         -5    1    4    4    0  502  0.25552438028E+02 -0.11212885975E+02 -0.11857685958E+01  0.28240650634E+02  0.41800000000E+01 0. -1.
        -11    1    3    3    0    0 -0.28772220999E+02 -0.22220243153E+02 -0.27959075368E+02  0.45861637590E+02  0.00000000000E+00 0.  1.
         11    1    3    3    0    0  0.68178273404E+02 -0.27251373674E+02 -0.76736042280E+02  0.10620421139E+03  0.00000000000E+00 0. -1.
</event>
<event>
 8    1  0.1790275E-005  0.4914386E+02  0.7561462E-02  0.1450015E+00
          2   -1    0    0  501    0  0.00000000000E+00  0.00000000000E+00  0.36195546853E+03  0.36195546853E+03  0.00000000000E+00 0. -1.
         -2   -1    0    0    0  501 -0.00000000000E+00 -0.00000000000E+00 -0.37309899065E+02  0.37309899065E+02  0.00000000000E+00 0.  1.
         23    2    1    2    0    0  0.39362862095E+02  0.93543641409E+01  0.14652355704E+03  0.17788060344E+03  0.92387322014E+02 0.  0.
         23    2    1    2    0    0 -0.39362862095E+02 -0.93543641409E+01  0.17812201242E+03  0.22138476416E+03  0.12508726335E+03 0.  0.
          5    1    4    4  502    0 -0.15394036927E+02 -0.91154300614E+01 -0.16832744405E+02  0.24917486277E+02  0.41800000000E+01 0. -1.
         -5    1    4    4    0  502 -0.23968825167E+02 -0.23893407950E+00  0.19495475682E+03  0.19646727788E+03  0.41800000000E+01 0. -1.
        -11    1    3    3    0    0  0.20472249441E+02 -0.14550058681E+02 -0.29907963640E+01  0.25293518294E+02  0.00000000000E+00 0.  1.
         11    1    3    3    0    0  0.18890612653E+02  0.23904422822E+02  0.14951435341E+03  0.15258708514E+03  0.00000000000E+00 0. -1.
</event>
<event>
 8    1  0.1790275E-005  0.9849287E+02  0.7561462E-02  0.1283498E+00
          1   -1    0    0  501    0  0.00000000000E+00  0.00000000000E+00  0.90488091001E+02  0.90488091001E+02  0.00000000000E+00 0. -1.
         -1   -1    0    0    0  501 -0.00000000000E+00 -0.00000000000E+00 -0.12694300251E+03  0.12694300251E+03  0.00000000000E+00 0.  1.
         23    2    1    2    0    0  0.17155130569E+02  0.16615453339E+00 -0.45925199591E+02  0.10347337851E+03  0.91122390175E+02 0.  0.
         23    2    1    2    0    0 -0.17155130569E+02 -0.16615453339E+00  0.94702880831E+01  0.11395771500E+03  0.11226018145E+03 0.  0.
          5    1    4    4  502    0  0.29797525567E+01 -0.50322565062E+02 -0.17351076251E+02  0.53476833552E+02  0.41800000000E+01 0. -1.
         -5    1    4    4    0  502 -0.20134883126E+02  0.50156410528E+02  0.26821364334E+02  0.60480881445E+02  0.41800000000E+01 0.  1.
        -11    1    3    3    0    0  0.54596436069E+02 -0.25328036030E+01 -0.32604677254E+02  0.63641581567E+02  0.00000000000E+00 0. -1.
         11    1    3    3    0    0 -0.37441305500E+02  0.26989581364E+01 -0.13320522337E+02  0.39831796946E+02  0.00000000000E+00 0.  1.
</event>
<event>
 8    1  0.1790275E-005  0.2562453E+03  0.7561462E-02  0.1109420E+00
          2   -1    0    0  501    0  0.00000000000E+00  0.00000000000E+00  0.16132306131E+04  0.16132306131E+04  0.00000000000E+00 0.  1.
         -2   -1    0    0    0  501 -0.00000000000E+00 -0.00000000000E+00 -0.41327218048E+02  0.41327218048E+02  0.00000000000E+00 0. -1.
         23    2    1    2    0    0 -0.22782070915E+03  0.51849101117E+02  0.76290094521E+03  0.80325106369E+03  0.92756748018E+02 0.  0.
         23    2    1    2    0    0  0.22782070915E+03 -0.51849101117E+02  0.80900244989E+03  0.85130676751E+03  0.12509054192E+03 0.  0.
          5    1    4    4  502    0  0.22485641867E+03 -0.75523770205E+02  0.68385316981E+03  0.72383484245E+03  0.41800000000E+01 0. -1.
         -5    1    4    4    0  502  0.29642904795E+01  0.23674669088E+02  0.12514928008E+03  0.12747192506E+03  0.41800000000E+01 0. -1.
        -11    1    3    3    0    0 -0.23036581122E+02 -0.23420278381E+02  0.86214991469E+02  0.92261683614E+02  0.00000000000E+00 0. -1.
         11    1    3    3    0    0 -0.20478412803E+03  0.75269379498E+02  0.67668595374E+03  0.71098938007E+03  0.00000000000E+00 0.  1.
</event>
<event>
 8    1  0.1790275E-005  0.1112351E+03  0.7561462E-02  0.1258300E+00
          2   -1    0    0  501    0  0.00000000000E+00  0.00000000000E+00  0.98871370851E+03  0.98871370851E+03  0.00000000000E+00 0. -1.
         -2   -1    0    0    0  501 -0.00000000000E+00 -0.00000000000E+00 -0.20405019269E+02  0.20405019269E+02  0.00000000000E+00 0.  1.
         23    2    1    2    0    0  0.66673740545E+02  0.26802036548E+02  0.25118429219E+03  0.27763098325E+03  0.93923784919E+02 0.  0.
         23    2    1    2    0    0 -0.66673740545E+02 -0.26802036548E+02  0.71712439705E+03  0.73148774453E+03  0.12507270972E+03 0.  0.
          5    1    4    4  502    0 -0.80093185473E+02  0.30076759452E+02  0.42554692283E+03  0.43408200348E+03  0.41800000000E+01 0.  1.
         -5    1    4    4    0  502  0.13419444928E+02 -0.56878796000E+02  0.29157747422E+03  0.29740574105E+03  0.41800000000E+01 0.  1.
        -11    1    3    3    0    0  0.27435269169E+02  0.27684350147E+02  0.22950930249E+03  0.23279526878E+03  0.00000000000E+00 0. -1.
         11    1    3    3    0    0  0.39238471376E+02 -0.88231359864E+00  0.21674989703E+02  0.44835714467E+02  0.00000000000E+00 0.  1.
</event>
<event>
 8    1  0.1790275E-005  0.1118145E+03  0.7561462E-02  0.1257246E+00
          2   -1    0    0  501    0  0.00000000000E+00  0.00000000000E+00  0.13837502116E+04  0.13837502116E+04  0.00000000000E+00 0. -1.
         -2   -1    0    0    0  501 -0.00000000000E+00 -0.00000000000E+00 -0.15613420742E+02  0.15613420742E+02  0.00000000000E+00 0.  1.
         23    2    1    2    0    0 -0.49677201605E+02 -0.25119377108E+02  0.31147070034E+03  0.33385761648E+03  0.10652747741E+03 0.  0.
         23    2    1    2    0    0  0.49677201605E+02  0.25119377108E+02  0.10566660905E+04  0.10655060159E+04  0.12514405911E+03 0.  0.
          5    1    4    4  502    0  0.33594259860E+02  0.70388782135E+02  0.83554141697E+03  0.83918417931E+03  0.41800000000E+01 0.  1.
         -5    1    4    4    0  502  0.16082941745E+02 -0.45269405027E+02  0.22112467354E+03  0.22632183654E+03  0.41800000000E+01 0.  1.
        -11    1    3    3    0    0 -0.37531065942E+02  0.25414629954E+02  0.24661802658E+03  0.25074874947E+03  0.00000000000E+00 0. -1.
         11    1    3    3    0    0 -0.12146135663E+02 -0.50534007062E+02  0.64852673759E+02  0.83108867006E+02  0.00000000000E+00 0.  1.
</event>
<event>
 8    1  0.1790275E-005  0.1094558E+03  0.7561462E-02  0.1261581E+00
          1   -1    0    0  501    0  0.00000000000E+00  0.00000000000E+00  0.40869659734E+03  0.40869659734E+03  0.00000000000E+00 0. -1.
         -1   -1    0    0    0  501 -0.00000000000E+00 -0.00000000000E+00 -0.44724971326E+02  0.44724971326E+02  0.00000000000E+00 0.  1.
         23    2    1    2    0    0 -0.10247377505E+02 -0.43980096583E+02  0.55950781830E+02  0.11791798970E+03  0.93460711889E+02 0.  0.
         23    2    1    2    0    0  0.10247377505E+02  0.43980096583E+02  0.30802084418E+03  0.33550357896E+03  0.12508618391E+03 0.  0.
          5    1    4    4  502    0 -0.50887583426E+02 -0.79769210384E+01  0.14080757597E+03  0.14999141065E+03  0.41800000000E+01 0. -1.
         -5    1    4    4    0  502  0.61134960931E+02  0.51957017622E+02  0.16721326821E+03  0.18551216832E+03  0.41800000000E+01 0. -1.
        -11    1    3    3    0    0  0.13570452337E+02 -0.57789758200E+02  0.44602684524E+01  0.59529046054E+02  0.00000000000E+00 0.  1.
         11    1    3    3    0    0 -0.23817829842E+02  0.13809661617E+02  0.51490513378E+02  0.58388943648E+02  0.00000000000E+00 0. -1.
</event>
<event>
 8    1  0.1790275E-005  0.1006319E+03  0.7561462E-02  0.1278973E+00
         -2   -1    0    0    0  501 -0.00000000000E+00  0.00000000000E+00  0.32943295033E+02  0.32943295033E+02  0.00000000000E+00 0.  1.
          2   -1    0    0  501    0  0.00000000000E+00 -0.00000000000E+00 -0.61843259908E+03  0.61843259908E+03  0.00000000000E+00 0. -1.
         23    2    1    2    0    0 -0.76893558372E+02 -0.17764635452E+02 -0.16442861403E+03  0.20509554764E+03  0.93804120158E+02 0.  0.
         23    2    1    2    0    0  0.76893558372E+02  0.17764635452E+02 -0.42106069001E+03  0.44628034647E+03  0.12508333773E+03 0.  0.
          5    1    4    4  502    0  0.66967077164E+02  0.33785685476E+02 -0.10222162221E+03  0.12685737824E+03  0.41800000000E+01 0. -1.
         -5    1    4    4    0  502  0.99264812088E+01 -0.16021050023E+02 -0.31883906780E+03  0.31942296823E+03  0.41800000000E+01 0. -1.
        -11    1    3    3    0    0 -0.73100600352E+02  0.14351472364E+02 -0.15407443264E+03  0.17113910519E+03  0.00000000000E+00 0. -1.
         11    1    3    3    0    0 -0.37929580204E+01 -0.32116107817E+02 -0.10354181388E+02  0.33956442453E+02  0.00000000000E+00 0.  1.
</event>
<event>
 8    1  0.1790275E-005  0.1146303E+03  0.7561462E-02  0.1252228E+00
          1   -1    0    0  501    0  0.00000000000E+00  0.00000000000E+00  0.10885468104E+04  0.10885468104E+04  0.00000000000E+00 0. -1.
         -1   -1    0    0    0  501 -0.00000000000E+00 -0.00000000000E+00 -0.24602778738E+02  0.24602778738E+02  0.00000000000E+00 0.  1.
         23    2    1    2    0    0 -0.51347930314E+02  0.16149914137E+02  0.11816753194E+03  0.15761963060E+03  0.89347370804E+02 0.  0.
         23    2    1    2    0    0  0.51347930314E+02 -0.16149914137E+02  0.94577649973E+03  0.95552995855E+03  0.12508750768E+03 0.  0.
          5    1    4    4  502    0 -0.40905775295E+02 -0.11492347551E+01  0.35774327549E+03  0.36010043981E+03  0.41800000000E+01 0.  1.
         -5    1    4    4    0  502  0.92253705609E+02 -0.15000679382E+02  0.58803322423E+03  0.59542951873E+03  0.41800000000E+01 0.  1.
        -11    1    3    3    0    0 -0.70140779478E+02  0.54968598286E+00  0.52669955346E+02  0.87716334263E+02  0.00000000000E+00 0.  1.
         11    1    3    3    0    0  0.18792849164E+02  0.15600228154E+02  0.65497576597E+02  0.69903296334E+02  0.00000000000E+00 0. -1.
</event>
<event>
 7    1  0.1790275E-005  0.8213046E+02  0.7561462E-02  0.1323112E+00
         -2   -1    0    0    0  501 -0.00000000000E+00  0.00000000000E+00  0.16379428352E+02  0.16379428352E+02  0.00000000000E+00 0. -1.
          2   -1    0    0  501    0  0.00000000000E+00 -0.00000000000E+00 -0.53475189692E+03  0.53475189692E+03  0.00000000000E+00 0.  1.
         23    2    1    2    0    0  0.25311831944E+02  0.58302339780E+01 -0.44358154565E+03  0.46065537256E+03  0.12150763007E+03 0.  0.
          5    1    3    3  502    0 -0.39709529614E+02  0.34415026150E+02 -0.20700086169E+03  0.21360727962E+03  0.41800000000E+01 0.  1.
         -5    1    3    3    0  502  0.65021361558E+02 -0.28584792172E+02 -0.23658068396E+03  0.24704809294E+03  0.41800000000E+01 0. -1.
        -11    1    1    2    0    0 -0.23471380494E+02  0.92329611509E+01 -0.16258162067E+02  0.30008017390E+02  0.00000000000E+00 0.  1.
         11    1    1    2    0    0 -0.18404514497E+01 -0.15063195129E+02 -0.58532760857E+02  0.60467935326E+02  0.00000000000E+00 0. -1.
</event>
<event>
 8    1  0.1790275E-005  0.1102436E+03  0.7561462E-02  0.1260119E+00
          2   -1    0    0  501    0  0.00000000000E+00  0.00000000000E+00  0.76929585196E+03  0.76929585196E+03  0.00000000000E+00 0. -1.
         -2   -1    0    0    0  501 -0.00000000000E+00 -0.00000000000E+00 -0.22372046274E+02  0.22372046274E+02  0.00000000000E+00 0.  1.
         23    2    1    2    0    0  0.35002095070E+01  0.50323563680E+02  0.17073010002E+03  0.19989902862E+03  0.90918326313E+02 0.  0.
         23    2    1    2    0    0 -0.35002095070E+01 -0.50323563680E+02  0.57619370566E+03  0.59176886962E+03  0.12508595475E+03 0.  0.
          5    1    4    4  502    0 -0.32925544626E+02 -0.78719641940E+02  0.47365900316E+03  0.48130156574E+03  0.41800000000E+01 0. -1.
         -5    1    4    4    0  502  0.29425335119E+02  0.28396078260E+02  0.10253470251E+03  0.11046730388E+03  0.41800000000E+01 0. -1.
        -11    1    3    3    0    0  0.24080034898E+02 -0.13001789301E+02  0.95923975033E+02  0.99751208473E+02  0.00000000000E+00 0. -1.
         11    1    3    3    0    0 -0.20579825391E+02  0.63325352981E+02  0.74806124990E+02  0.10014782014E+03  0.00000000000E+00 0.  1.
</event>
<event>
 8    1  0.1790275E-005  0.1340586E+03  0.7561462E-02  0.1221555E+00
         -2   -1    0    0    0  501 -0.00000000000E+00  0.00000000000E+00  0.32294254909E+02  0.32294254909E+02  0.00000000000E+00 0.  1.
          2   -1    0    0  501    0  0.00000000000E+00 -0.00000000000E+00 -0.62543268015E+03  0.62543268015E+03  0.00000000000E+00 0. -1.
         23    2    1    2    0    0  0.50894891118E+02  0.67527563202E+02 -0.19502212463E+03  0.23194097238E+03  0.92804761941E+02 0.  0.
         23    2    1    2    0    0 -0.50894891118E+02 -0.67527563202E+02 -0.39811630061E+03  0.42578596268E+03  0.12508731138E+03 0.  0.
          5    1    4    4  502    0  0.13149311555E+02 -0.81895281082E+02 -0.18579674601E+03  0.20351325432E+03  0.41800000000E+01 0. -1.
         -5    1    4    4    0  502 -0.64044202673E+02  0.14367717880E+02 -0.21231955460E+03  0.22227270836E+03  0.41800000000E+01 0. -1.
        -11    1    3    3    0    0  0.70767682680E+01  0.74581376926E+02 -0.15510010902E+03  0.17224548253E+03  0.00000000000E+00 0. -1.
         11    1    3    3    0    0  0.43818122850E+02 -0.70538137240E+01 -0.39922015609E+02  0.59695489850E+02  0.00000000000E+00 0.  1.
</event>
<event>
 8    1  0.1790275E-005  0.1290573E+03  0.7561462E-02  0.1228861E+00
          1   -1    0    0  501    0  0.00000000000E+00  0.00000000000E+00  0.20106107018E+03  0.20106107018E+03  0.00000000000E+00 0. -1.
         -1   -1    0    0    0  501 -0.00000000000E+00 -0.00000000000E+00 -0.12211183159E+03  0.12211183159E+03  0.00000000000E+00 0.  1.
         23    2    1    2    0    0 -0.11040037661E+02  0.87678031383E+02 -0.35644171714E+02  0.13188984778E+03  0.91187199500E+02 0.  0.
         23    2    1    2    0    0  0.11040037661E+02 -0.87678031383E+02  0.11459341031E+03  0.19128305399E+03  0.12509291522E+03 0.  0.
          5    1    4    4  502    0  0.56393797556E+02 -0.60142492467E+02  0.23586021485E+02  0.85855416908E+02  0.41800000000E+01 0.  1.
         -5    1    4    4    0  502 -0.45353759895E+02 -0.27535538917E+02  0.91007388822E+02  0.10542763708E+03  0.41800000000E+01 0.  1.
        -11    1    3    3    0    0 -0.35133896215E+02  0.91436849047E+02 -0.13369797804E+02  0.98862730694E+02  0.00000000000E+00 0. -1.
         11    1    3    3    0    0  0.24093858554E+02 -0.37588176637E+01 -0.22274373910E+02  0.33027117091E+02  0.00000000000E+00 0.  1.
</event>
<event>
 8    1  0.1790275E-005  0.7781106E+02  0.7561462E-02  0.1335381E+00
         -2   -1    0    0    0  501 -0.00000000000E+00  0.00000000000E+00  0.54623631900E+02  0.54623631900E+02  0.00000000000E+00 0.  1.
          2   -1    0    0  501    0  0.00000000000E+00 -0.00000000000E+00 -0.31374239499E+03  0.31374239499E+03  0.00000000000E+00 0. -1.
         23    2    1    2    0    0  0.89172245086E+01 -0.34173794192E+02 -0.28080086156E+02  0.10327319377E+03  0.92895081734E+02 0.  0.
         23    2    1    2    0    0 -0.89172245086E+01  0.34173794192E+02 -0.23103867693E+03  0.26509283312E+03  0.12509186556E+03 0.  0.
          5    1    4    4  502    0  0.33057822033E+02  0.44666464651E+02 -0.20910767523E+03  0.21640564896E+03  0.41800000000E+01 0. -1.
         -5    1    4    4    0  502 -0.41975046541E+02 -0.10492670460E+02 -0.21931001700E+02  0.48687184157E+02  0.41800000000E+01 0. -1.
        -11    1    3    3    0    0  0.23060115450E+02 -0.44142097910E+01  0.29032146413E+02  0.37337912342E+02  0.00000000000E+00 0.  1.
         11    1    3    3    0    0 -0.14142890942E+02 -0.29759584401E+02 -0.57112232569E+02  0.65935281428E+02  0.00000000000E+00 0. -1.
</event>
<event>
 8    1  0.1790275E-005  0.1548709E+03  0.7561462E-02  0.1194612E+00
          1   -1    0    0  501    0  0.00000000000E+00  0.00000000000E+00  0.56714034196E+02  0.56714034196E+02  0.00000000000E+00 0. -1.
         -1   -1    0    0    0  501 -0.00000000000E+00 -0.00000000000E+00 -0.48002209104E+03  0.48002209104E+03  0.00000000000E+00 0.  1.
         23    2    1    2    0    0  0.10633232582E+03 -0.50872576845E+02 -0.13215795117E+03  0.19863832644E+03  0.89982654358E+02 0.  0.
         23    2    1    2    0    0 -0.10633232582E+03  0.50872576845E+02 -0.29115010568E+03  0.33809779880E+03  0.12508858831E+03 0.  0.
          5    1    4    4  502    0 -0.13490866123E+03  0.44001055160E+02 -0.23398492622E+03  0.27368386476E+03  0.41800000000E+01 0. -1.
         -5    1    4    4    0  502  0.28576335414E+02  0.68715216850E+01 -0.57165179453E+02  0.64413934035E+02  0.41800000000E+01 0. -1.
        -11    1    3    3    0    0  0.11681724950E+03 -0.41328711766E+02 -0.13596425014E+03  0.18395817327E+03  0.00000000000E+00 0. -1.
         11    1    3    3    0    0 -0.10484923684E+02 -0.95438650796E+01  0.38062989667E+01  0.14680153172E+02  0.00000000000E+00 0.  1.
</event>
<event>
 8    1  0.1790275E-005  0.9285792E+02  0.7561462E-02  0.1296075E+00
          2   -1    0    0  501    0  0.00000000000E+00  0.00000000000E+00  0.12883063812E+03  0.12883063812E+03  0.00000000000E+00 0. -1.
         -2   -1    0    0    0  501 -0.00000000000E+00 -0.00000000000E+00 -0.10276029189E+03  0.10276029189E+03  0.00000000000E+00 0.  1.
         23    2    1    2    0    0  0.82996929749E+01 -0.26062841277E+02 -0.17982395977E+02  0.96180202039E+02  0.90438421593E+02 0.  0.
         23    2    1    2    0    0 -0.82996929749E+01  0.26062841277E+02  0.44052742203E+02  0.13541072798E+03  0.12508902652E+03 0.  0.
          5    1    4    4  502    0  0.52703779529E+02 -0.46301964406E+01  0.40753436429E+02  0.66913691248E+02  0.41800000000E+01 0.  1.
         -5    1    4    4    0  502 -0.61003472504E+02  0.30693037717E+02  0.32993057734E+01  0.68497036727E+02  0.41800000000E+01 0.  1.
        -11    1    3    3    0    0  0.76713456610E+01  0.18308588701E+02  0.26657233095E+02  0.33236456501E+02  0.00000000000E+00 0. -1.
         11    1    3    3    0    0  0.62834731390E+00 -0.44371429978E+02 -0.44639629071E+02  0.62943745537E+02  0.00000000000E+00 0.  1.
</event>
<event>
 8    1  0.1790275E-005  0.1040999E+03  0.7561462E-02  0.1271903E+00
         -1   -1    0    0    0  501 -0.00000000000E+00  0.00000000000E+00  0.93202169516E+02  0.93202169516E+02  0.00000000000E+00 0.  1.
          1   -1    0    0  501    0  0.00000000000E+00 -0.00000000000E+00 -0.16308848896E+03  0.16308848896E+03  0.00000000000E+00 0. -1.
         23    2    1    2    0    0 -0.36628758253E+02  0.39880431931E+02 -0.21622533091E+02  0.11169457287E+03  0.95268194534E+02 0.  0.
         23    2    1    2    0    0  0.36628758253E+02 -0.39880431931E+02 -0.48263786354E+02  0.14459608560E+03  0.12508605085E+03 0.  0.
          5    1    4    4  502    0 -0.14303121395E+02 -0.57712246661E+02  0.14875482091E+02  0.61433175596E+02  0.41800000000E+01 0. -1.
         -5    1    4    4    0  502  0.50931879648E+02  0.17831814730E+02 -0.63139268445E+02  0.83162910007E+02  0.41800000000E+01 0. -1.
        -11    1    3    3    0    0 -0.52320539247E+02  0.52659786990E+02 -0.40030080762E+02  0.84338006609E+02  0.00000000000E+00 0. -1.
         11    1    3    3    0    0  0.15691780994E+02 -0.12779355059E+02  0.18407547672E+02  0.27356566264E+02  0.00000000000E+00 0.  1.
</event>
<event>
 8    1  0.1790275E-005  0.8240315E+02  0.7561462E-02  0.1322367E+00
         -1   -1    0    0    0  501 -0.00000000000E+00  0.00000000000E+00  0.49243997950E+03  0.49243997950E+03  0.00000000000E+00 0. -1.
          1   -1    0    0  501    0  0.00000000000E+00 -0.00000000000E+00 -0.39669012266E+02  0.39669012266E+02  0.00000000000E+00 0.  1.
         23    2    1    2    0    0 -0.15182379012E+02  0.14367934323E+02  0.36784664715E+03  0.37948002822E+03  0.90868002258E+02 0.  0.
         23    2    1    2    0    0  0.15182379012E+02 -0.14367934323E+02  0.84924320088E+02  0.15262896354E+03  0.12508604319E+03 0.  0.
          5    1    4    4  502    0 -0.16598379972E+02 -0.33766976551E+02  0.10393463955E+03  0.11061463114E+03  0.41800000000E+01 0.  1.
         -5    1    4    4    0  502  0.31780758984E+02  0.19399042228E+02 -0.19010319467E+02  0.42014332402E+02  0.41800000000E+01 0.  1.
        -11    1    3    3    0    0 -0.44906304058E+02  0.31797473956E+02  0.17083253160E+03  0.17947537254E+03  0.00000000000E+00 0.  1.
         11    1    3    3    0    0  0.29723925046E+02 -0.17429539633E+02  0.19701411555E+03  0.20000465569E+03  0.00000000000E+00 0. -1.
</event>
<event>
 8    1  0.1790275E-005  0.1324600E+03  0.7561462E-02  0.1223851E+00
          2   -1    0    0  501    0  0.00000000000E+00  0.00000000000E+00  0.38613888540E+04  0.38613888540E+04  0.00000000000E+00 0. -1.
         -2   -1    0    0    0  501 -0.00000000000E+00 -0.00000000000E+00 -0.84435403450E+01  0.84435403450E+01  0.00000000000E+00 0.  1.
         23    2    1    2    0    0 -0.44239627372E+02 -0.59699812760E+02  0.51764690215E+03  0.53136217726E+03  0.94160691597E+02 0.  0.
         23    2    1    2    0    0  0.44239627372E+02  0.59699812760E+02  0.33352984115E+04  0.33384702171E+04  0.12508670717E+03 0.  0.
          5    1    4    4  502    0 -0.92957992770E+01  0.85116545914E+02  0.20835474510E+04  0.20853102146E+04  0.41800000000E+01 0.  1.
         -5    1    4    4    0  502  0.53535426649E+02 -0.25416733153E+02  0.12517509606E+04  0.12531600025E+04  0.41800000000E+01 0.  1.
        -11    1    3    3    0    0 -0.64376621078E+02 -0.71687318358E+02  0.42691459794E+03  0.43765225338E+03  0.00000000000E+00 0.  1.
         11    1    3    3    0    0  0.20136993707E+02  0.11987505598E+02  0.90732304204E+02  0.93709923872E+02  0.00000000000E+00 0. -1.
</event>
<event>
 8    1  0.1790275E-005  0.1056703E+03  0.7561462E-02  0.1268805E+00
         -3   -1    0    0    0  501 -0.00000000000E+00  0.00000000000E+00  0.22717240159E+02  0.22717240159E+02  0.00000000000E+00 0.  1.
          3   -1    0    0  501    0  0.00000000000E+00 -0.00000000000E+00 -0.53577957067E+03  0.53577957067E+03  0.00000000000E+00 0. -1.
         23    2    1    2    0    0  0.14075964825E+02  0.19231143569E+02 -0.24187262225E+03  0.25889790400E+03  0.89206443912E+02 0.  0.
         23    2    1    2    0    0 -0.14075964825E+02 -0.19231143569E+02 -0.27118970827E+03  0.29959890683E+03  0.12509067685E+03 0.  0.
          5    1    4    4  502    0  0.45998220748E+02  0.24688885716E+02 -0.99904999634E+02  0.11280008307E+03  0.41800000000E+01 0. -1.
         -5    1    4    4    0  502 -0.60074185573E+02 -0.43920029285E+02 -0.17128470863E+03  0.18679882376E+03  0.41800000000E+01 0. -1.
        -11    1    3    3    0    0 -0.26472530381E+02 -0.15817026235E+02 -0.42902178179E+02  0.52835310884E+02  0.00000000000E+00 0.  1.
         11    1    3    3    0    0  0.40548495206E+02  0.35048169804E+02 -0.19897044407E+03  0.20606259312E+03  0.00000000000E+00 0. -1.
</event>
<event>
 8    1  0.1790275E-005  0.1142161E+03  0.7561462E-02  0.1252956E+00
         -3   -1    0    0    0  501 -0.00000000000E+00  0.00000000000E+00  0.18412140429E+02  0.18412140429E+02  0.00000000000E+00 0.  1.
          3   -1    0    0  501    0  0.00000000000E+00 -0.00000000000E+00 -0.13405193634E+04  0.13405193634E+04  0.00000000000E+00 0. -1.
         23    2    1    2    0    0  0.46688227359E+02  0.88676956079E+02 -0.37745887626E+03  0.40078136218E+03  0.90039457426E+02 0.  0.
         23    2    1    2    0    0 -0.46688227359E+02 -0.88676956079E+02 -0.94464834673E+03  0.95815014166E+03  0.12509117426E+03 0.  0.
          5    1    4    4  502    0 -0.48853888639E+02 -0.56337684896E+02 -0.89851937968E+03  0.90161809279E+03  0.41800000000E+01 0. -1.
         -5    1    4    4    0  502  0.21656612796E+01 -0.32339271183E+02 -0.46128967048E+02  0.56532048878E+02  0.41800000000E+01 0. -1.
        -11    1    3    3    0    0 -0.16633011109E+02  0.32086908897E+02 -0.45369174005E+02  0.58005075045E+02  0.00000000000E+00 0.  1.
         11    1    3    3    0    0  0.63321238468E+02  0.56590047183E+02 -0.33208970225E+03  0.34277628714E+03  0.00000000000E+00 0. -1.
</event>
<event>
 8    1  0.1790275E-005  0.2192885E+03  0.7561462E-02  0.1134415E+00
         -1   -1    0    0    0  501 -0.00000000000E+00  0.00000000000E+00  0.54296914707E+02  0.54296914707E+02  0.00000000000E+00 0.  1.
          1   -1    0    0  501    0  0.00000000000E+00 -0.00000000000E+00 -0.11658850943E+04  0.11658850943E+04  0.00000000000E+00 0. -1.
         23    2    1    2    0    0  0.17948046859E+03 -0.10570786849E+03 -0.32513934552E+03  0.39705529351E+03  0.92465777624E+02 0.  0.
         23    2    1    2    0    0 -0.17948046859E+03  0.10570786849E+03 -0.78644883405E+03  0.82312671548E+03  0.12509368124E+03 0.  0.
          5    1    4    4  502    0 -0.17167501806E+03  0.90011031118E+02 -0.50251444314E+03  0.53862095719E+03  0.41800000000E+01 0.  1.
         -5    1    4    4    0  502 -0.78054505235E+01  0.15696837375E+02 -0.28393439091E+03  0.28450575830E+03  0.41800000000E+01 0.  1.
        -11    1    3    3    0    0  0.17465891817E+02 -0.53766187475E+02 -0.64121284368E+02  0.85483328208E+02  0.00000000000E+00 0. -1.
         11    1    3    3    0    0  0.16201457677E+03 -0.51941681019E+02 -0.26101806115E+03  0.31157196530E+03  0.00000000000E+00 0.  1.
</event>
<event>
 7    1  0.1790275E-005  0.1428022E+03  0.7561462E-02  0.1209607E+00
          2   -1    0    0  501    0  0.00000000000E+00  0.00000000000E+00  0.42006712697E+02  0.42006712697E+02  0.00000000000E+00 0. -1.
         -2   -1    0    0    0  501 -0.00000000000E+00 -0.00000000000E+00 -0.54027784941E+03  0.54027784941E+03  0.00000000000E+00 0.  1.
         23    2    1    2    0    0 -0.99009379330E+02  0.11266637071E+02 -0.20068664604E+03  0.24194427479E+03  0.91280380696E+02 0.  0.
          5    1    1    2  502    0 -0.25216838592E+02 -0.91943789742E+01 -0.13685783591E+02  0.30417077865E+02  0.41800000000E+01 0. -1.
         -5    1    1    2    0  502  0.12422621792E+03 -0.20722580972E+01 -0.28389870708E+03  0.30992320945E+03  0.41800000000E+01 0.  1.
        -11    1    3    3    0    0 -0.65595733827E+02 -0.37084557999E+02 -0.97908986528E+02  0.12354851023E+03  0.00000000000E+00 0. -1.
         11    1    3    3    0    0 -0.33413645503E+02  0.48351195070E+02 -0.10277765951E+03  0.11839576456E+03  0.00000000000E+00 0.  1.
</event>
<event>
 8    1  0.1790275E-005  0.1017882E+03  0.7561462E-02  0.1276580E+00
         -1   -1    0    0    0  501 -0.00000000000E+00  0.00000000000E+00  0.71214646637E+02  0.71214646637E+02  0.00000000000E+00 0.  1.
          1   -1    0    0  501    0  0.00000000000E+00 -0.00000000000E+00 -0.18328106842E+03  0.18328106842E+03  0.00000000000E+00 0. -1.
         23    2    1    2    0    0 -0.34626439589E+02  0.74714723557E+01 -0.49819873297E+02  0.11035245442E+03  0.91873996336E+02 0.  0.
         23    2    1    2    0    0  0.34626439589E+02 -0.74714723557E+01 -0.62246548490E+02  0.14414326064E+03  0.12509130095E+03 0.  0.
          5    1    4    4  502    0  0.67195567165E+00 -0.54128585381E+02 -0.66831635629E+02  0.86106301747E+02  0.41800000000E+01 0.  1.
         -5    1    4    4    0  502  0.33954483917E+02  0.46657113025E+02  0.45850871382E+01  0.58036958897E+02  0.41800000000E+01 0.  1.
        -11    1    3    3    0    0 -0.21733396025E+02 -0.38211349775E+02 -0.44560488538E+02  0.62594607541E+02  0.00000000000E+00 0. -1.
         11    1    3    3    0    0 -0.12893043563E+02  0.45682822131E+02 -0.52593847591E+01  0.47757846876E+02  0.00000000000E+00 0.  1.
</event>
<event>
 8    1  0.1790275E-005  0.8324245E+02  0.7561462E-02  0.1320094E+00
          3   -1    0    0  501    0  0.00000000000E+00  0.00000000000E+00  0.19400232583E+02  0.19400232583E+02  0.00000000000E+00 0. -1.
         -3   -1    0    0    0  501 -0.00000000000E+00 -0.00000000000E+00 -0.63641946324E+03  0.63641946324E+03  0.00000000000E+00 0.  1.
         23    2    1    2    0    0 -0.95026366959E+01 -0.35303492843E+01 -0.33048921568E+03  0.34301043730E+03  0.91270339917E+02 0.  0.
         23    2    1    2    0    0  0.95026366959E+01  0.35303492843E+01 -0.28653001497E+03  0.31280925852E+03  0.12508964490E+03 0.  0.
          5    1    4    4  502    0  0.42415304089E+02 -0.90609033002E+01 -0.27029704305E+03  0.27378663567E+03  0.41800000000E+01 0.  1.
         -5    1    4    4    0  502 -0.32912667393E+02  0.12591252585E+02 -0.16232971929E+02  0.39022622851E+02  0.41800000000E+01 0.  1.
        -11    1    3    3    0    0  0.38342220690E+02 -0.86555583646E+01 -0.20239333769E+03  0.20617494445E+03  0.00000000000E+00 0.  1.
         11    1    3    3    0    0 -0.47844857386E+02  0.51252090802E+01 -0.12809587799E+03  0.13683549285E+03  0.00000000000E+00 0. -1.
</event>
<event>
 8    1  0.1790275E-005  0.2275502E+03  0.7561462E-02  0.1128376E+00
         -2   -1    0    0    0  501 -0.00000000000E+00  0.00000000000E+00  0.10137798240E+03  0.10137798240E+03  0.00000000000E+00 0.  1.
          2   -1    0    0  501    0  0.00000000000E+00 -0.00000000000E+00 -0.58515044767E+03  0.58515044767E+03  0.00000000000E+00 0. -1.
         23    2    1    2    0    0 -0.99014634360E+02 -0.19406578719E+03 -0.24304733993E+03  0.33859366923E+03  0.90045742922E+02 0.  0.
         23    2    1    2    0    0  0.99014634360E+02  0.19406578719E+03 -0.24072512534E+03  0.34793476084E+03  0.12507831249E+03 0.  0.
          5    1    4    4  502    0  0.43436913872E+02  0.15146672198E+03 -0.22714843620E+03  0.27648294309E+03  0.41800000000E+01 0. -1.
         -5    1    4    4    0  502  0.55577720488E+02  0.42599065216E+02 -0.13576689145E+02  0.71451817752E+02  0.41800000000E+01 0. -1.
        -11    1    3    3    0    0 -0.74192539176E+02 -0.74256483855E+02 -0.15759660752E+03  0.18935482293E+03  0.00000000000E+00 0.  1.
         11    1    3    3    0    0 -0.24822095184E+02 -0.11980930334E+03 -0.85450732404E+02  0.14923884630E+03  0.00000000000E+00 0. -1.
</event>
<event>
 8    1  0.1790275E-005  0.6586621E+02  0.7561462E-02  0.1374742E+00
          3   -1    0    0  501    0  0.00000000000E+00  0.00000000000E+00  0.10033921060E+03  0.10033921060E+03  0.00000000000E+00 0. -1.
         -3   -1    0    0    0  501 -0.00000000000E+00 -0.00000000000E+00 -0.19655604332E+03  0.19655604332E+03  0.00000000000E+00 0.  1.
         23    2    1    2    0    0 -0.21297840248E+01  0.27855186471E+02 -0.13130467053E+03  0.16400723714E+03  0.94217885448E+02 0.  0.
         23    2    1    2    0    0  0.21297840248E+01 -0.27855186471E+02  0.35087837809E+02  0.13288801677E+03  0.12509045226E+03 0.  0.
          5    1    4    4  502    0  0.29372817653E+02 -0.17292576640E+02  0.75442654898E+02  0.82890664141E+02  0.41800000000E+01 0.  1.
         -5    1    4    4    0  502 -0.27243033628E+02 -0.10562609832E+02 -0.40354817089E+02  0.49997352630E+02  0.41800000000E+01 0.  1.
        -11    1    3    3    0    0 -0.26143151659E+02 -0.55588978361E+01 -0.33918160775E+00  0.26729773062E+02  0.00000000000E+00 0. -1.
         11    1    3    3    0    0  0.24013367634E+02  0.33414084307E+02 -0.13096548892E+03  0.13727746408E+03  0.00000000000E+00 0.  1.
</event>
<event>
 8    1  0.1790275E-005  0.1242449E+03  0.7561462E-02  0.1236254E+00
          1   -1    0    0  501    0  0.00000000000E+00  0.00000000000E+00  0.99751253691E+03  0.99751253691E+03  0.00000000000E+00 0. -1.
         -1   -1    0    0    0  501 -0.00000000000E+00 -0.00000000000E+00 -0.16951728162E+02  0.16951728162E+02  0.00000000000E+00 0.  1.
         23    2    1    2    0    0  0.64323589354E+02  0.84676634092E+01  0.32355776766E+03  0.34251955830E+03  0.91764880713E+02 0.  0.
         23    2    1    2    0    0 -0.64323589354E+02 -0.84676634092E+01  0.65700304108E+03  0.67194470677E+03  0.12508983769E+03 0.  0.
          5    1    4    4  502    0 -0.15026786190E+02  0.56531068266E+02  0.30518436395E+03  0.31076765337E+03  0.41800000000E+01 0. -1.
         -5    1    4    4    0  502 -0.49296803164E+02 -0.64998731675E+02  0.35181867714E+03  0.36117705340E+03  0.41800000000E+01 0. -1.
        -11    1    3    3    0    0  0.20884879165E+02 -0.38738938548E+02  0.17962252842E+03  0.18493549214E+03  0.00000000000E+00 0. -1.
         11    1    3    3    0    0  0.43438710189E+02  0.47206601957E+02  0.14393523924E+03  0.15758406616E+03  0.00000000000E+00 0.  1.
</event>
<event>
 8    1  0.1790275E-005  0.1057844E+03  0.7561462E-02  0.1268582E+00
          2   -1    0    0  501    0  0.00000000000E+00  0.00000000000E+00  0.39253378463E+03  0.39253378463E+03  0.00000000000E+00 0. -1.
         -2   -1    0    0    0  501 -0.00000000000E+00 -0.00000000000E+00 -0.36151322134E+02  0.36151322134E+02  0.00000000000E+00 0.  1.
         23    2    1    2    0    0 -0.85044405566E+01  0.31160041141E+02  0.93291848146E+02  0.13558592378E+03  0.92934924136E+02 0.  0.
         23    2    1    2    0    0  0.85044405566E+01 -0.31160041141E+02  0.26309061435E+03  0.29309918299E+03  0.12508871265E+03 0.  0.
          5    1    4    4  502    0  0.27579269885E+02  0.40947031442E+02  0.14628394170E+03  0.15444655876E+03  0.41800000000E+01 0.  1.
         -5    1    4    4    0  502 -0.19074829328E+02 -0.72107072583E+02  0.11680667265E+03  0.13865262423E+03  0.41800000000E+01 0.  1.
        -11    1    3    3    0    0  0.11792660432E+02  0.54861252135E+02  0.26904927120E+02  0.62231012600E+02  0.00000000000E+00 0. -1.
         11    1    3    3    0    0 -0.20297100989E+02 -0.23701210994E+02  0.66386921026E+02  0.73354911181E+02  0.00000000000E+00 0.  1.
</event>
<event>
 8    1  0.1790275E-005  0.9357795E+02  0.7561462E-02  0.1294411E+00
         -2   -1    0    0    0  501 -0.00000000000E+00  0.00000000000E+00  0.30737644943E+02  0.30737644943E+02  0.00000000000E+00 0.  1.
          2   -1    0    0  501    0  0.00000000000E+00 -0.00000000000E+00 -0.55015068188E+03  0.55015068188E+03  0.00000000000E+00 0. -1.
         23    2    1    2    0    0  0.48669056290E+02 -0.48964259636E+02 -0.18572783174E+03  0.21790067773E+03  0.90662572831E+02 0.  0.
         23    2    1    2    0    0 -0.48669056290E+02  0.48964259636E+02 -0.33368520520E+03  0.36298764909E+03  0.12509213190E+03 0.  0.
          5    1    4    4  502    0 -0.74546965911E+02  0.42485835729E+02 -0.32252604726E+03  0.33377060974E+03  0.41800000000E+01 0.  1.
         -5    1    4    4    0  502  0.25877909621E+02  0.64784239067E+01 -0.11159157939E+02  0.29217039353E+02  0.41800000000E+01 0.  1.
        -11    1    3    3    0    0  0.11123315354E+02 -0.30385206045E+02 -0.54416528873E+01  0.32811590589E+02  0.00000000000E+00 0.  1.
         11    1    3    3    0    0  0.37545740935E+02 -0.18579053591E+02 -0.18028617885E+03  0.18508908714E+03  0.00000000000E+00 0. -1.
</event>
<event>
 8    1  0.1790275E-005  0.6912379E+02  0.7561462E-02  0.1363098E+00
          2   -1    0    0  501    0  0.00000000000E+00  0.00000000000E+00  0.33916882445E+03  0.33916882445E+03  0.00000000000E+00 0. -1.
         -2   -1    0    0    0  501 -0.00000000000E+00 -0.00000000000E+00 -0.36418306826E+02  0.36418306826E+02  0.00000000000E+00 0.  1.
         23    2    1    2    0    0  0.22893071466E+02  0.15201565519E+02  0.12799262060E+03  0.15891993890E+03  0.90101363682E+02 0.  0.
         23    2    1    2    0    0 -0.22893071466E+02 -0.15201565519E+02  0.17475789703E+03  0.21666719238E+03  0.12509664010E+03 0.  0.
          5    1    4    4  502    0 -0.19131651658E+02  0.35657482306E+02  0.15749583164E+03  0.16266494866E+03  0.41800000000E+01 0.  1.
         -5    1    4    4    0  502 -0.37614198076E+01 -0.50859047824E+02  0.17262065387E+02  0.54002243713E+02  0.41800000000E+01 0.  1.
        -11    1    3    3    0    0 -0.51828073918E+01  0.17477319110E+02 -0.80961723322E+01  0.19946583220E+02  0.00000000000E+00 0.  1.
         11    1    3    3    0    0  0.28075878858E+02 -0.22757535913E+01  0.13608879293E+03  0.13897335568E+03  0.00000000000E+00 0. -1.
</event>
<event>
 8    1  0.1790275E-005  0.1188881E+03  0.7561462E-02  0.1244943E+00
          2   -1    0    0  501    0  0.00000000000E+00  0.00000000000E+00  0.13573439607E+04  0.13573439607E+04  0.00000000000E+00 0. -1.
         -2   -1    0    0    0  501 -0.00000000000E+00 -0.00000000000E+00 -0.17806678128E+02  0.17806678128E+02  0.00000000000E+00 0.  1.
         23    2    1    2    0    0  0.35070293151E+02 -0.83161915655E+02  0.32142001681E+03  0.34541382472E+03  0.88623097578E+02 0.  0.
         23    2    1    2    0    0 -0.35070293151E+02  0.83161915655E+02  0.10181172657E+04  0.10297368141E+04  0.12509720145E+03 0.  0.
          5    1    4    4  502    0 -0.24403577292E+02 -0.28242416668E+01  0.35927194738E+02  0.43723525102E+02  0.41800000000E+01 0. -1.
         -5    1    4    4    0  502 -0.10666715859E+02  0.85986157322E+02  0.98219007100E+03  0.98601328898E+03  0.41800000000E+01 0. -1.
        -11    1    3    3    0    0 -0.15801809783E+02  0.10883837214E+02  0.39937164896E+02  0.44307248220E+02  0.00000000000E+00 0.  1.
         11    1    3    3    0    0  0.50872102933E+02 -0.94045752869E+02  0.28148285191E+03  0.30110657650E+03  0.00000000000E+00 0. -1.
</event>
<event>
 8    1  0.1790275E-005  0.9918163E+02  0.7561462E-02  0.1282026E+00
          2   -1    0    0  501    0  0.00000000000E+00  0.00000000000E+00  0.10635129851E+04  0.10635129851E+04  0.00000000000E+00 0.  1.
         -2   -1    0    0    0  501 -0.00000000000E+00 -0.00000000000E+00 -0.12856800765E+02  0.12856800765E+02  0.00000000000E+00 0. -1.
         23    2    1    2    0    0  0.24548952249E+02  0.26561779932E+02  0.32362381981E+03  0.33776747431E+03  0.89701230450E+02 0.  0.
         23    2    1    2    0    0 -0.24548952249E+02 -0.26561779932E+02  0.72703236449E+03  0.73860231152E+03  0.12509650817E+03 0.  0.
          5    1    4    4  502    0 -0.63121917029E+02  0.12691031759E+02  0.53241868988E+03  0.53631387492E+03  0.41800000000E+01 0.  1.
         -5    1    4    4    0  502  0.38572964780E+02 -0.39252811691E+02  0.19461367461E+03  0.20228843660E+03  0.41800000000E+01 0.  1.
        -11    1    3    3    0    0  0.76095475004E+01  0.49530336060E+02  0.28697380330E+03  0.29131619108E+03  0.00000000000E+00 0.  1.
         11    1    3    3    0    0  0.16939404749E+02 -0.22968556128E+02  0.36650016510E+02  0.46451283233E+02  0.00000000000E+00 0. -1.
</event>
<event>
 8    1  0.1790275E-005  0.6006543E+02  0.7561462E-02  0.1397557E+00
          1   -1    0    0  501    0  0.00000000000E+00  0.00000000000E+00  0.36993080728E+03  0.36993080728E+03  0.00000000000E+00 0. -1.
         -1   -1    0    0    0  501 -0.00000000000E+00 -0.00000000000E+00 -0.35562642918E+02  0.35562642918E+02  0.00000000000E+00 0.  1.
         23    2    1    2    0    0 -0.28119668910E+02  0.23964812020E+02  0.15330327509E+03  0.18234227850E+03  0.91552085620E+02 0.  0.
         23    2    1    2    0    0  0.28119668910E+02 -0.23964812020E+02  0.18106488927E+03  0.22315117169E+03  0.12508766249E+03 0.  0.
          5    1    4    4  502    0  0.41725139499E+02 -0.17512598012E+02  0.19620117687E+03  0.20139526449E+03  0.41800000000E+01 0.  1.
         -5    1    4    4    0  502 -0.13605470589E+02 -0.64522140076E+01 -0.15136287604E+02  0.21755907197E+02  0.41800000000E+01 0.  1.
        -11    1    3    3    0    0  0.95667082030E+00 -0.12435315357E+02 -0.77515948843E+01  0.14684669228E+02  0.00000000000E+00 0.  1.
         11    1    3    3    0    0 -0.29076339730E+02  0.36400127376E+02  0.16105486998E+03  0.16765760928E+03  0.00000000000E+00 0. -1.
</event>
<event>
 8    1  0.1790275E-005  0.8499799E+02  0.7561462E-02  0.1315438E+00
         -2   -1    0    0    0  501 -0.00000000000E+00  0.00000000000E+00  0.92589208472E+02  0.92589208472E+02  0.00000000000E+00 0.  1.
          2   -1    0    0  501    0  0.00000000000E+00 -0.00000000000E+00 -0.17217022973E+03  0.17217022973E+03  0.00000000000E+00 0. -1.
         23    2    1    2    0    0 -0.28938186676E+02  0.51878950323E+02 -0.34852066040E+02  0.11923577314E+03  0.97332722936E+02 0.  0.
         23    2    1    2    0    0  0.28938186676E+02 -0.51878950323E+02 -0.44728955215E+02  0.14552366506E+03  0.12509042139E+03 0.  0.
          5    1    4    4  502    0  0.32870799364E+00 -0.25105624137E+02 -0.85269636572E+02  0.88987548192E+02  0.41800000000E+01 0.  1.
         -5    1    4    4    0  502  0.28609478683E+02 -0.26773326186E+02  0.40540681357E+02  0.56536116867E+02  0.41800000000E+01 0.  1.
        -11    1    3    3    0    0  0.17753237326E+02  0.55534283322E+02 -0.42004775834E+02  0.71858438979E+02  0.00000000000E+00 0. -1.
         11    1    3    3    0    0 -0.46691424002E+02 -0.36553329989E+01  0.71527097943E+01  0.47377334160E+02  0.00000000000E+00 0.  1.
</event>
<event>
 8    1  0.1790275E-005  0.1007447E+03  0.7561462E-02  0.1278738E+00
         -2   -1    0    0    0  501 -0.00000000000E+00  0.00000000000E+00  0.20424423023E+02  0.20424423023E+02  0.00000000000E+00 0.  1.
          2   -1    0    0  501    0  0.00000000000E+00 -0.00000000000E+00 -0.69699222322E+03  0.69699222322E+03  0.00000000000E+00 0. -1.
         23    2    1    2    0    0  0.18372675987E+02  0.25887051723E+02 -0.19429727531E+03  0.21817735891E+03  0.94033154137E+02 0.  0.
         23    2    1    2    0    0 -0.18372675987E+02 -0.25887051723E+02 -0.48227052488E+03  0.49923928733E+03  0.12508921686E+03 0.  0.
          5    1    4    4  502    0  0.37665243436E+02 -0.40075202014E+02 -0.35669786939E+03  0.36093702332E+03  0.41800000000E+01 0.  1.
         -5    1    4    4    0  502 -0.56037919423E+02  0.14188150291E+02 -0.12557265550E+03  0.13830226401E+03  0.41800000000E+01 0.  1.
        -11    1    3    3    0    0  0.24721463263E+02  0.54087928807E+02 -0.76561632068E+02  0.96945027173E+02  0.00000000000E+00 0.  1.
         11    1    3    3    0    0 -0.63487872764E+01 -0.28200877085E+02 -0.11773564324E+03  0.12123233174E+03  0.00000000000E+00 0. -1.
</event>
<event>
 8    1  0.1790275E-005  0.9308749E+02  0.7561462E-02  0.1295543E+00
         -1   -1    0    0    0  501 -0.00000000000E+00  0.00000000000E+00  0.18347282684E+03  0.18347282684E+03  0.00000000000E+00 0.  1.
          1   -1    0    0  501    0  0.00000000000E+00 -0.00000000000E+00 -0.78520680771E+02  0.78520680771E+02  0.00000000000E+00 0. -1.
         23    2    1    2    0    0 -0.38915743562E+02  0.27989123757E+02  0.65542874283E+02  0.12235698245E+03  0.91528884180E+02 0.  0.
         23    2    1    2    0    0  0.38915743562E+02 -0.27989123757E+02  0.39409271790E+02  0.13963652517E+03  0.12508973704E+03 0.  0.
          5    1    4    4  502    0  0.76655520042E+02 -0.18829534177E+02  0.56336738984E+02  0.97066578540E+02  0.41800000000E+01 0. -1.
         -5    1    4    4    0  502 -0.37739776480E+02 -0.91595895808E+01 -0.16927467194E+02  0.42569946625E+02  0.41800000000E+01 0. -1.
        -11    1    3    3    0    0  0.88547245794E+01 -0.48549986088E+01 -0.18018397505E+02  0.20655261013E+02  0.00000000000E+00 0. -1.
         11    1    3    3    0    0 -0.47770468141E+02  0.32844122366E+02  0.83561271787E+02  0.10170172144E+03  0.00000000000E+00 0.  1.
</event>
<event>
 8    1  0.1790275E-005  0.9447968E+02  0.7561462E-02  0.1292352E+00
         -2   -1    0    0    0  501 -0.00000000000E+00  0.00000000000E+00  0.22008713339E+03  0.22008713339E+03  0.00000000000E+00 0.  1.
          2   -1    0    0  501    0  0.00000000000E+00 -0.00000000000E+00 -0.60835491366E+02  0.60835491366E+02  0.00000000000E+00 0. -1.
         23    2    1    2    0    0 -0.17373139526E+01  0.38577396754E+02  0.60979561102E+02  0.11721577246E+03  0.92356898175E+02 0.  0.
         23    2    1    2    0    0  0.17373139526E+01 -0.38577396754E+02  0.98272080919E+02  0.16370685230E+03  0.12510514698E+03 0.  0.
          5    1    4    4  502    0  0.32293916219E+02  0.36270337758E+02  0.48026366680E+02  0.68428347359E+02  0.41800000000E+01 0. -1.
         -5    1    4    4    0  502 -0.30556602266E+02 -0.74847734512E+02  0.50245714239E+02  0.95278504937E+02  0.41800000000E+01 0. -1.
        -11    1    3    3    0    0  0.16640323493E+02  0.37297378714E+02  0.80566330541E+02  0.90326786956E+02  0.00000000000E+00 0.  1.
         11    1    3    3    0    0 -0.18377637445E+02  0.12800180401E+01 -0.19586769439E+02  0.26888985502E+02  0.00000000000E+00 0. -1.
</event>
<event>
 7    1  0.1790275E-005  0.1929485E+03  0.7561462E-02  0.1155829E+00
         -2   -1    0    0    0  501 -0.00000000000E+00  0.00000000000E+00  0.96298114524E+02  0.96298114524E+02  0.00000000000E+00 0.  1.
          2   -1    0    0  501    0  0.00000000000E+00 -0.00000000000E+00 -0.92937022083E+03  0.92937022083E+03  0.00000000000E+00 0. -1.
         23    2    1    2    0    0  0.40140408589E+02  0.13849972624E+03 -0.24640364477E+02  0.16688072540E+03  0.80303190326E+02 0.  0.
          5    1    1    2  502    0 -0.10883297319E+03 -0.57341436718E+02 -0.68433655657E+03  0.69531766228E+03  0.41800000000E+01 0. -1.
         -5    1    1    2    0  502  0.68692564598E+02 -0.81158289524E+02 -0.12409518525E+03  0.16346994767E+03  0.41800000000E+01 0.  1.
        -11    1    3    3    0    0  0.53741706317E+02  0.80228241599E+02 -0.40906066329E+02  0.10487157866E+03  0.00000000000E+00 0.  1.
         11    1    3    3    0    0 -0.13601297728E+02  0.58271484643E+02  0.16265701852E+02  0.62009146738E+02  0.00000000000E+00 0. -1.
</event>
<event>
 8    1  0.1790275E-005  0.9937607E+02  0.7561462E-02  0.1281613E+00
         -1   -1    0    0    0  501 -0.00000000000E+00  0.00000000000E+00  0.53911395775E+02  0.53911395775E+02  0.00000000000E+00 0.  1.
          1   -1    0    0  501    0  0.00000000000E+00 -0.00000000000E+00 -0.39427709856E+03  0.39427709856E+03  0.00000000000E+00 0. -1.
         23    2    1    2    0    0 -0.41638294498E+02  0.77951088815E+02 -0.95503107829E+02  0.15936865860E+03  0.92018508583E+02 0.  0.
         23    2    1    2    0    0  0.41638294498E+02 -0.77951088815E+02 -0.24486259495E+03  0.28881983574E+03  0.12509631206E+03 0.  0.
          5    1    4    4  502    0  0.10402922798E+02  0.31076314211E+01 -0.17987732771E+03  0.18025316530E+03  0.41800000000E+01 0.  1.
         -5    1    4    4    0  502  0.31235371700E+02 -0.81058720236E+02 -0.64985267244E+02  0.10856667044E+03  0.41800000000E+01 0.  1.
        -11    1    3    3    0    0 -0.23268360696E+02  0.78393362062E+02 -0.23536914066E+02  0.85093608154E+02  0.00000000000E+00 0.  1.
         11    1    3    3    0    0 -0.18369933801E+02 -0.44227324790E+00 -0.71966193763E+02  0.74275050442E+02  0.00000000000E+00 0. -1.
</event>
<event>
 8    1  0.1790275E-005  0.9789541E+02  0.7561462E-02  0.1284785E+00
         -4   -1    0    0    0  501 -0.00000000000E+00  0.00000000000E+00  0.13277445962E+03  0.13277445962E+03  0.00000000000E+00 0.  1.
          4   -1    0    0  501    0  0.00000000000E+00 -0.00000000000E+00 -0.11136029228E+03  0.11136029228E+03  0.00000000000E+00 0. -1.
         23    2    1    2    0    0 -0.50337993244E+01  0.56081098635E+02  0.44353646828E+00  0.10536466297E+03  0.89056648928E+02 0.  0.
         23    2    1    2    0    0  0.50337993244E+01 -0.56081098635E+02  0.20970630865E+02  0.13877008893E+03  0.12508773506E+03 0.  0.
          5    1    4    4  502    0 -0.77532750363E+00 -0.89124055829E+02  0.42352676027E+02  0.98766998673E+02  0.41800000000E+01 0.  1.
         -5    1    4    4    0  502  0.58091268280E+01  0.33042957194E+02 -0.21382045162E+02  0.40003090255E+02  0.41800000000E+01 0.  1.
        -11    1    3    3    0    0 -0.25078502008E+02  0.22737578983E+02 -0.37847287310E+02  0.50777415429E+02  0.00000000000E+00 0. -1.
         11    1    3    3    0    0  0.20044702683E+02  0.33343519652E+02  0.38290823778E+02  0.54587247540E+02  0.00000000000E+00 0.  1.
</event>
<event>
 8    1  0.1790275E-005  0.9697796E+02  0.7561462E-02  0.1286782E+00
          2   -1    0    0  501    0  0.00000000000E+00  0.00000000000E+00  0.91390806454E+03  0.91390806454E+03  0.00000000000E+00 0.  1.
         -2   -1    0    0    0  501 -0.00000000000E+00 -0.00000000000E+00 -0.35449071883E+02  0.35449071883E+02  0.00000000000E+00 0. -1.
         23    2    1    2    0    0 -0.28046827426E+02 -0.11756678198E+02  0.43612339895E+02  0.10464384547E+03  0.90130206880E+02 0.  0.
         23    2    1    2    0    0  0.28046827426E+02  0.11756678198E+02  0.83484665277E+03  0.84471329096E+03  0.12508703482E+03 0.  0.
          5    1    4    4  502    0 -0.40025378735E+02  0.36528331419E+02  0.42930182645E+03  0.43272841429E+03  0.41800000000E+01 0.  1.
         -5    1    4    4    0  502  0.68072206160E+02 -0.24771653221E+02  0.40554482631E+03  0.41198487667E+03  0.41800000000E+01 0.  1.
        -11    1    3    3    0    0 -0.46130837151E+02 -0.15333866898E+02 -0.85152103060E+01  0.49352714382E+02  0.00000000000E+00 0. -1.
         11    1    3    3    0    0  0.18084009725E+02  0.35771887005E+01  0.52127550201E+02  0.55291131085E+02  0.00000000000E+00 0.  1.
</event>
<event>
 8    1  0.1790275E-005  0.2174895E+03  0.7561462E-02  0.1135769E+00
          2   -1    0    0  501    0  0.00000000000E+00  0.00000000000E+00  0.82046482179E+03  0.82046482179E+03  0.00000000000E+00 0.  1.
         -2   -1    0    0    0  501 -0.00000000000E+00 -0.00000000000E+00 -0.67201687128E+02  0.67201687128E+02  0.00000000000E+00 0. -1.
         23    2    1    2    0    0  0.89552140816E+02 -0.18421244674E+03  0.42945150892E+03  0.48460808618E+03  0.91992321519E+02 0.  0.
         23    2    1    2    0    0 -0.89552140816E+02  0.18421244674E+03  0.32381162574E+03  0.40305842274E+03  0.12509321212E+03 0.  0.
          5    1    4    4  502    0 -0.40758894424E+02  0.13611161812E+02  0.14427966706E+03  0.15060094929E+03  0.41800000000E+01 0.  1.
         -5    1    4    4    0  502 -0.48793246392E+02  0.17060128493E+03  0.17953195869E+03  0.25245747345E+03  0.41800000000E+01 0.  1.
        -11    1    3    3    0    0 -0.98166483794E+01 -0.21898593048E+02  0.11147418563E+03  0.11402810629E+03  0.00000000000E+00 0. -1.
         11    1    3    3    0    0  0.99368789195E+02 -0.16231385369E+03  0.31797732329E+03  0.37057997989E+03  0.00000000000E+00 0.  1.
</event>
<event>
 8    1  0.1790275E-005  0.1060636E+03  0.7561462E-02  0.1268038E+00
         -2   -1    0    0    0  501 -0.00000000000E+00  0.00000000000E+00  0.14946605831E+02  0.14946605831E+02  0.00000000000E+00 0.  1.
          2   -1    0    0  501    0  0.00000000000E+00 -0.00000000000E+00 -0.10614292796E+04  0.10614292796E+04  0.00000000000E+00 0. -1.
         23    2    1    2    0    0 -0.12909329101E+02  0.58886980583E+02 -0.34392403710E+03  0.36022423356E+03  0.88563129407E+02 0.  0.
         23    2    1    2    0    0  0.12909329101E+02 -0.58886980583E+02 -0.70255863662E+03  0.71615165182E+03  0.12510085233E+03 0.  0.
          5    1    4    4  502    0  0.92604723210E+01 -0.85644669320E+02 -0.65975783987E+03  0.66537105843E+03  0.41800000000E+01 0. -1.
         -5    1    4    4    0  502  0.36488567801E+01  0.26757688737E+02 -0.42800796755E+02  0.50780593392E+02  0.41800000000E+01 0. -1.
        -11    1    3    3    0    0  0.32508898894E+02  0.32786960132E+02 -0.92285661298E+02  0.10319135886E+03  0.00000000000E+00 0.  1.
         11    1    3    3    0    0 -0.45418227995E+02  0.26100020451E+02 -0.25163837580E+03  0.25703287470E+03  0.00000000000E+00 0. -1.
</event>
<event>
 8    1  0.1790275E-005  0.8414211E+02  0.7561462E-02  0.1317691E+00
         -1   -1    0    0    0  501 -0.00000000000E+00  0.00000000000E+00  0.19858335405E+02  0.19858335405E+02  0.00000000000E+00 0.  1.
          1   -1    0    0  501    0  0.00000000000E+00 -0.00000000000E+00 -0.13076158571E+04  0.13076158571E+04  0.00000000000E+00 0. -1.
         23    2    1    2    0    0  0.45376384771E+02 -0.38482340104E+01 -0.14686368554E+03  0.17884036879E+03  0.91329678513E+02 0.  0.
         23    2    1    2    0    0 -0.45376384771E+02  0.38482340104E+01 -0.11408938362E+04  0.11486338238E+04  0.12508833045E+03 0.  0.
          5    1    4    4  502    0  0.96386790563E+00  0.17675721834E+02 -0.98911677983E+03  0.98928400206E+03  0.41800000000E+01 0.  1.
         -5    1    4    4    0  502 -0.46340252677E+02 -0.13827487824E+02 -0.15177705636E+03  0.15934982170E+03  0.41800000000E+01 0.  1.
        -11    1    3    3    0    0 -0.22084956885E+02 -0.22536563278E+02 -0.54072577769E+02  0.62605795830E+02  0.00000000000E+00 0.  1.
         11    1    3    3    0    0  0.67461341656E+02  0.18688329267E+02 -0.92791107774E+02  0.11623457296E+03  0.00000000000E+00 0. -1.
</event>
<event>
 8    1  0.1790275E-005  0.8137162E+02  0.7561462E-02  0.1325203E+00
         -2   -1    0    0    0  501 -0.00000000000E+00  0.00000000000E+00  0.15345746369E+03  0.15345746369E+03  0.00000000000E+00 0.  1.
          2   -1    0    0  501    0  0.00000000000E+00 -0.00000000000E+00 -0.11263660680E+03  0.11263660680E+03  0.00000000000E+00 0. -1.
         23    2    1    2    0    0  0.27265640310E+02 -0.33154383594E+02  0.67597563302E+02  0.13116235564E+03  0.10388216728E+03 0.  0.
         23    2    1    2    0    0 -0.27265640310E+02  0.33154383594E+02 -0.26776706410E+02  0.13493171485E+03  0.12508775869E+03 0.  0.
          5    1    4    4  502    0 -0.51348169161E+02  0.27966478528E+02  0.35013757216E+02  0.68280260631E+02  0.41800000000E+01 0.  1.
         -5    1    4    4    0  502  0.24082528851E+02  0.51879050659E+01 -0.61790463626E+02  0.66651454222E+02  0.41800000000E+01 0.  1.
        -11    1    3    3    0    0  0.41620480457E+02 -0.44432733533E+02 -0.27054581708E+00  0.60881897126E+02  0.00000000000E+00 0. -1.
         11    1    3    3    0    0 -0.14354840147E+02  0.11278349939E+02  0.67868109120E+02  0.70280458510E+02  0.00000000000E+00 0.  1.
</event>
<event>
 8    1  0.1790275E-005  0.9619031E+02  0.7561462E-02  0.1288518E+00
          2   -1    0    0  501    0  0.00000000000E+00  0.00000000000E+00  0.83639824857E+03  0.83639824857E+03  0.00000000000E+00 0. -1.
         -2   -1    0    0    0  501 -0.00000000000E+00 -0.00000000000E+00 -0.15897830998E+02  0.15897830998E+02  0.00000000000E+00 0.  1.
         23    2    1    2    0    0  0.26043689626E+01  0.36114308531E+02  0.29123205101E+03  0.30724217298E+03  0.90942945319E+02 0.  0.
         23    2    1    2    0    0 -0.26043689626E+01 -0.36114308531E+02  0.52926836656E+03  0.54505390658E+03  0.12509089186E+03 0.  0.
          5    1    4    4  502    0  0.42088212998E+02 -0.12463250172E+01  0.66584946386E+02  0.78892322089E+02  0.41800000000E+01 0.  1.
         -5    1    4    4    0  502 -0.44692581961E+02 -0.34867983514E+02  0.46268342017E+03  0.46616158450E+03  0.41800000000E+01 0.  1.
        -11    1    3    3    0    0  0.35981115744E+02  0.46016124753E+02  0.13360798073E+03  0.14581912406E+03  0.00000000000E+00 0.  1.
         11    1    3    3    0    0 -0.33376746782E+02 -0.99018162214E+01  0.15762407028E+03  0.16142304892E+03  0.00000000000E+00 0. -1.
</event>
<event>
 8    1  0.1790275E-005  0.1693436E+03  0.7561462E-02  0.1178534E+00
          1   -1    0    0  501    0  0.00000000000E+00  0.00000000000E+00  0.10184668405E+03  0.10184668405E+03  0.00000000000E+00 0. -1.
         -1   -1    0    0    0  501 -0.00000000000E+00 -0.00000000000E+00 -0.32548335890E+03  0.32548335890E+03  0.00000000000E+00 0.  1.
         23    2    1    2    0    0  0.98220119662E+02  0.10336036109E+03 -0.14143535014E+03  0.22060746823E+03  0.91286037380E+02 0.  0.
         23    2    1    2    0    0 -0.98220119662E+02 -0.10336036109E+03 -0.82201324710E+02  0.20672257472E+03  0.12508640600E+03 0.  0.
          5    1    4    4  502    0 -0.10259779519E+03 -0.11768975343E+03 -0.98131673197E+02  0.18445726694E+03  0.41800000000E+01 0. -1.
         -5    1    4    4    0  502  0.43776755301E+01  0.14329392343E+02  0.15930348487E+02  0.22265307788E+02  0.41800000000E+01 0. -1.
        -11    1    3    3    0    0  0.85769507641E+02  0.27502365921E+02 -0.57858018197E+02  0.10705297213E+03  0.00000000000E+00 0.  1.
         11    1    3    3    0    0  0.12450612021E+02  0.75857995168E+02 -0.83577331942E+02  0.11355449610E+03  0.00000000000E+00 0. -1.
</event>
<event>
 8    1  0.1790275E-005  0.9713146E+02  0.7561462E-02  0.1286446E+00
         -2   -1    0    0    0  501 -0.00000000000E+00  0.00000000000E+00  0.25415151909E+02  0.25415151909E+02  0.00000000000E+00 0.  1.
          2   -1    0    0  501    0  0.00000000000E+00 -0.00000000000E+00 -0.55059456015E+03  0.55059456015E+03  0.00000000000E+00 0. -1.
         23    2    1    2    0    0  0.50038540208E+01  0.63022822034E+01 -0.17214298223E+03  0.20138064664E+03  0.10419309570E+03 0.  0.
         23    2    1    2    0    0 -0.50038540208E+01 -0.63022822034E+01 -0.35303642601E+03  0.37462906542E+03  0.12508981275E+03 0.  0.
          5    1    4    4  502    0 -0.48649278576E+02 -0.15020288747E+02 -0.62727878867E+02  0.80898829208E+02  0.41800000000E+01 0. -1.
         -5    1    4    4    0  502  0.43645424556E+02  0.87180065441E+01 -0.29030854714E+03  0.29373023622E+03  0.41800000000E+01 0. -1.
        -11    1    3    3    0    0 -0.31917682990E+02  0.38130709139E+02 -0.53123310881E+02  0.72765208897E+02  0.00000000000E+00 0.  1.
         11    1    3    3    0    0  0.36921537011E+02 -0.31828426936E+02 -0.11901967135E+03  0.12861543774E+03  0.00000000000E+00 0. -1.
</event>
<event>
 8    1  0.1790275E-005  0.1242427E+03  0.7561462E-02  0.1236258E+00
         -1   -1    0    0    0  501 -0.00000000000E+00  0.00000000000E+00  0.30365084056E+02  0.30365084056E+02  0.00000000000E+00 0.  1.
          1   -1    0    0  501    0  0.00000000000E+00 -0.00000000000E+00 -0.62202355730E+03  0.62202355730E+03  0.00000000000E+00 0. -1.
         23    2    1    2    0    0  0.94883175079E+01 -0.83135218734E+02 -0.27325447301E+03  0.30020777506E+03  0.91952207287E+02 0.  0.
         23    2    1    2    0    0 -0.94883175079E+01  0.83135218734E+02 -0.31840400023E+03  0.35218086629E+03  0.12509501371E+03 0.  0.
          5    1    4    4  502    0 -0.10441084135E+02 -0.20903081938E+02 -0.84365703795E+01  0.25191331687E+02  0.41800000000E+01 0.  1.
         -5    1    4    4    0  502  0.95276662686E+00  0.10403830067E+03 -0.30996742985E+03  0.32698953460E+03  0.41800000000E+01 0.  1.
        -11    1    3    3    0    0  0.10289063785E+02  0.17329762650E+02 -0.78749994467E+02  0.81288050386E+02  0.00000000000E+00 0.  1.
         11    1    3    3    0    0 -0.80074627677E+00 -0.10046498138E+03 -0.19450447854E+03  0.21891972468E+03  0.00000000000E+00 0. -1.
</event>
<event>
 8    1  0.3022691E-005  0.1228053E+03  0.7561462E-02  0.1238540E+00
          1   -1    0    0  501    0  0.00000000000E+00  0.00000000000E+00  0.35587669180E+03  0.35587669180E+03  0.00000000000E+00 0. -1.
         -1   -1    0    0    0  501 -0.00000000000E+00 -0.00000000000E+00 -0.56107137598E+02  0.56107137598E+02  0.00000000000E+00 0.  1.
         23    2    1    2    0    0  0.58568971093E+02 -0.19451144495E+01  0.38220098938E+02  0.11619706127E+03  0.92773235573E+02 0.  0.
         23    2    1    2    0    0 -0.58568971093E+02  0.19451144495E+01  0.26154945526E+03  0.29578676813E+03  0.12509031461E+03 0.  0.
          5    1    4    4  502    0  0.32713869154E+02  0.25653114358E+02  0.10455822099E+03  0.11259739557E+03  0.41800000000E+01 0.  1.
         -5    1    4    4    0  502 -0.91282840248E+02 -0.23707999908E+02  0.15699123427E+03  0.18318937256E+03  0.41800000000E+01 0.  1.
        -11    1    3    3    0    0  0.43660731361E+02  0.43478552499E+02  0.25815977742E+02  0.66806501908E+02  0.00000000000E+00 0.  1.
         11    1    3    3    0    0  0.14908239732E+02 -0.45423666949E+02  0.12404121196E+02  0.49390559357E+02  0.00000000000E+00 0. -1.
</event>
<event>
 8    1  0.1790275E-005  0.1336339E+03  0.7561462E-02  0.1222161E+00
         -2   -1    0    0    0  501 -0.00000000000E+00  0.00000000000E+00  0.48277183422E+02  0.48277183422E+02  0.00000000000E+00 0.  1.
          2   -1    0    0  501    0  0.00000000000E+00 -0.00000000000E+00 -0.53997671819E+03  0.53997671819E+03  0.00000000000E+00 0. -1.
         23    2    1    2    0    0  0.13345100428E+02 -0.11789214047E+03 -0.23108832226E+03  0.27577572479E+03  0.92594757997E+02 0.  0.
         23    2    1    2    0    0 -0.13345100428E+02  0.11789214047E+03 -0.26061121251E+03  0.31247817682E+03  0.12509100053E+03 0.  0.
          5    1    4    4  502    0 -0.10679523852E+01  0.15817691565E+02 -0.18264862740E+03  0.18338302370E+03  0.41800000000E+01 0.  1.
         -5    1    4    4    0  502 -0.12277148043E+02  0.10207444891E+03 -0.77962585113E+02  0.12909515313E+03  0.41800000000E+01 0.  1.
        -11    1    3    3    0    0 -0.11051849657E-01  0.14707087075E+02 -0.41532801888E+02  0.44059870233E+02  0.00000000000E+00 0.  1.
         11    1    3    3    0    0  0.13356152278E+02 -0.13259922755E+03 -0.18955552037E+03  0.23171585456E+03  0.00000000000E+00 0. -1.
</event>
<event>
 8    1  0.1790275E-005  0.2167889E+03  0.7561462E-02  0.1136300E+00
          1   -1    0    0  501    0  0.00000000000E+00  0.00000000000E+00  0.56221948824E+03  0.56221948824E+03  0.00000000000E+00 0. -1.
         -1   -1    0    0    0  501 -0.00000000000E+00 -0.00000000000E+00 -0.10521697409E+03  0.10521697409E+03  0.00000000000E+00 0.  1.
         23    2    1    2    0    0 -0.18377301132E+03  0.11384273011E+03  0.19392826378E+03  0.30468437225E+03  0.92150465610E+02 0.  0.
         23    2    1    2    0    0  0.18377301132E+03 -0.11384273011E+03  0.26307425037E+03  0.36275209007E+03  0.12509328821E+03 0.  0.
          5    1    4    4  502    0  0.88676110504E+02 -0.67334543734E+02  0.22336225098E+03  0.24961081891E+03  0.41800000000E+01 0. -1.
         -5    1    4    4    0  502  0.95096900817E+02 -0.46508186374E+02  0.39711999391E+02  0.11314127116E+03  0.41800000000E+01 0. -1.
        -11    1    3    3    0    0 -0.14127060082E+03  0.89442619967E+02  0.19342054890E+03  0.25567337300E+03  0.00000000000E+00 0. -1.
         11    1    3    3    0    0 -0.42502410503E+02  0.24400110140E+02  0.50771487930E+00  0.49010999253E+02  0.00000000000E+00 0.  1.
</event>
<event>
 8    1  0.1790275E-005  0.9468992E+02  0.7561462E-02  0.1291876E+00
          4   -1    0    0  501    0  0.00000000000E+00  0.00000000000E+00  0.20594214222E+03  0.20594214222E+03  0.00000000000E+00 0. -1.
         -4   -1    0    0    0  501 -0.00000000000E+00 -0.00000000000E+00 -0.68922429309E+02  0.68922429309E+02  0.00000000000E+00 0.  1.
         23    2    1    2    0    0  0.17063581405E+02  0.48768477701E+02  0.42639384743E+02  0.10990033566E+03  0.87123110701E+02 0.  0.
         23    2    1    2    0    0 -0.17063581405E+02 -0.48768477701E+02  0.94380328169E+02  0.16496423587E+03  0.12504408241E+03 0.  0.
          5    1    4    4  502    0  0.14870965945E+02 -0.76824331379E+02  0.93828811838E+02  0.12224746153E+03  0.41800000000E+01 0. -1.
         -5    1    4    4    0  502 -0.31934547350E+02  0.28055853678E+02  0.55151633078E+00  0.42716774343E+02  0.41800000000E+01 0. -1.
        -11    1    3    3    0    0  0.32391498881E+02  0.30953477354E+02  0.64012169138E+02  0.78133761959E+02  0.00000000000E+00 0. -1.
         11    1    3    3    0    0 -0.15327917477E+02  0.17815000348E+02 -0.21372784396E+02  0.31766573696E+02  0.00000000000E+00 0.  1.
</event>
<event>
 8    1  0.1790275E-005  0.6668243E+02  0.7561462E-02  0.1371752E+00
         -1   -1    0    0    0  501 -0.00000000000E+00  0.00000000000E+00  0.93491779143E+02  0.93491779143E+02  0.00000000000E+00 0.  1.
          1   -1    0    0  501    0  0.00000000000E+00 -0.00000000000E+00 -0.16278237803E+03  0.16278237803E+03  0.00000000000E+00 0. -1.
         23    2    1    2    0    0 -0.29733912568E+02 -0.29314191695E+02  0.11121160791E+02  0.10181629467E+03  0.92192463095E+02 0.  0.
         23    2    1    2    0    0  0.29733912568E+02  0.29314191695E+02 -0.80411759678E+02  0.15445786250E+03  0.12509097810E+03 0.  0.
          5    1    4    4  502    0 -0.60719953431E+00  0.19926269843E+02 -0.10938469845E+03  0.11126504202E+03  0.41800000000E+01 0.  1.
         -5    1    4    4    0  502  0.30341112103E+02  0.93879218521E+01  0.28972938770E+02  0.43192820483E+02  0.41800000000E+01 0.  1.
        -11    1    3    3    0    0  0.12815858424E+02 -0.35704295142E+02 -0.25172135683E+02  0.45526688147E+02  0.00000000000E+00 0. -1.
         11    1    3    3    0    0 -0.42549770993E+02  0.63901034469E+01  0.36293296474E+02  0.56289606523E+02  0.00000000000E+00 0.  1.
</event>
<event>
 8    1  0.1790275E-005  0.1139614E+03  0.7561462E-02  0.1253405E+00
          1   -1    0    0  501    0  0.00000000000E+00  0.00000000000E+00  0.56720534537E+03  0.56720534537E+03  0.00000000000E+00 0. -1.
         -1   -1    0    0    0  501 -0.00000000000E+00 -0.00000000000E+00 -0.30854605173E+02  0.30854605173E+02  0.00000000000E+00 0.  1.
         23    2    1    2    0    0 -0.36501702313E+02 -0.31612244369E+02  0.11047710812E+03  0.15157644503E+03  0.91861411938E+02 0.  0.
         23    2    1    2    0    0  0.36501702313E+02  0.31612244369E+02  0.42587363207E+03  0.44648350551E+03  0.12508981547E+03 0.  0.
          5    1    4    4  502    0  0.72744851690E+02  0.51415985672E+02  0.24005670492E+03  0.25608613981E+03  0.41800000000E+01 0.  1.
         -5    1    4    4    0  502 -0.36243149376E+02 -0.19803741303E+02  0.18581692716E+03  0.19039736570E+03  0.41800000000E+01 0.  1.
        -11    1    3    3    0    0 -0.30707512567E+02  0.25445981229E+02  0.20410417704E+02  0.44799937942E+02  0.00000000000E+00 0.  1.
         11    1    3    3    0    0 -0.57941897466E+01 -0.57058225598E+02  0.90066690419E+02  0.10677650709E+03  0.00000000000E+00 0. -1.
</event>
<event>
 8    1  0.1790275E-005  0.2317957E+03  0.7561462E-02  0.1125382E+00
          3   -1    0    0  501    0  0.00000000000E+00  0.00000000000E+00  0.52860117996E+03  0.52860117996E+03  0.00000000000E+00 0. -1.
         -3   -1    0    0    0  501 -0.00000000000E+00 -0.00000000000E+00 -0.11669111873E+03  0.11669111873E+03  0.00000000000E+00 0.  1.
         23    2    1    2    0    0 -0.21447037861E+03 -0.18307807457E+02  0.27481477493E+03  0.36110446592E+03  0.92415126864E+02 0.  0.
         23    2    1    2    0    0  0.21447037861E+03  0.18307807457E+02  0.13709528631E+03  0.28418783277E+03  0.12503954436E+03 0.  0.
          5    1    4    4  502    0  0.16408481058E+03 -0.26982825184E+02  0.49855328319E+02  0.17365173215E+03  0.41800000000E+01 0. -1.
         -5    1    4    4    0  502  0.50385568029E+02  0.45290632641E+02  0.87239957989E+02  0.11053610062E+03  0.41800000000E+01 0. -1.
        -11    1    3    3    0    0 -0.41847170152E+02 -0.36845689093E+02  0.10139047031E+03  0.11571005974E+03  0.00000000000E+00 0.  1.
         11    1    3    3    0    0 -0.17262320845E+03  0.18537881636E+02  0.17342430461E+03  0.24539440618E+03  0.00000000000E+00 0. -1.
</event>
<event>
 8    1  0.1790275E-005  0.8878732E+02  0.7561462E-02  0.1305815E+00
          1   -1    0    0  501    0  0.00000000000E+00  0.00000000000E+00  0.33372536042E+03  0.33372536042E+03  0.00000000000E+00 0. -1.
         -1   -1    0    0    0  501 -0.00000000000E+00 -0.00000000000E+00 -0.44519850288E+02  0.44519850288E+02  0.00000000000E+00 0.  1.
         23    2    1    2    0    0  0.22998092129E+02  0.26531766442E+02  0.61173649793E+02  0.11582252713E+03  0.91868359571E+02 0.  0.
         23    2    1    2    0    0 -0.22998092129E+02 -0.26531766442E+02  0.22803186034E+03  0.26242268358E+03  0.12503714909E+03 0.  0.
          5    1    4    4  502    0  0.37238847042E+02 -0.28314854217E+02  0.17767573227E+03  0.18377867378E+03  0.41800000000E+01 0. -1.
         -5    1    4    4    0  502 -0.60236939172E+02  0.17830877745E+01  0.50356128070E+02  0.78644009797E+02  0.41800000000E+01 0. -1.
        -11    1    3    3    0    0 -0.18736626717E+02 -0.31316654987E+01 -0.14885871247E+02  0.24134159863E+02  0.00000000000E+00 0.  1.
         11    1    3    3    0    0  0.41734718846E+02  0.29663431941E+02  0.76059521040E+02  0.91688367269E+02  0.00000000000E+00 0. -1.
</event>
<event>
 8    1  0.1790275E-005  0.1200814E+03  0.7561462E-02  0.1242963E+00
          1   -1    0    0  501    0  0.00000000000E+00  0.00000000000E+00  0.28504912168E+03  0.28504912168E+03  0.00000000000E+00 0. -1.
         -1   -1    0    0    0  501 -0.00000000000E+00 -0.00000000000E+00 -0.64586497498E+02  0.64586497498E+02  0.00000000000E+00 0.  1.
         23    2    1    2    0    0 -0.60039438721E+02 -0.45532588130E+02  0.55610124706E+02  0.12940387481E+03  0.89302441523E+02 0.  0.
         23    2    1    2    0    0  0.60039438721E+02  0.45532588130E+02  0.16485249948E+03  0.22023174437E+03  0.12509086242E+03 0.  0.
          5    1    4    4  502    0 -0.32795960170E+02  0.18398084138E+02  0.12735389090E+02  0.39921510977E+02  0.41800000000E+01 0. -1.
         -5    1    4    4    0  502  0.92835398891E+02  0.27134503992E+02  0.15211711039E+03  0.18031023340E+03  0.41800000000E+01 0. -1.
        -11    1    3    3    0    0 -0.51490203770E+02  0.72932298466E+01  0.55270309791E+02  0.75889652985E+02  0.00000000000E+00 0. -1.
         11    1    3    3    0    0 -0.85492349510E+01 -0.52825817977E+02  0.33981491512E+00  0.53514221823E+02  0.00000000000E+00 0.  1.
</event>
<event>
 8    1  0.1790275E-005  0.1324291E+03  0.7561462E-02  0.1223895E+00
          1   -1    0    0  501    0  0.00000000000E+00  0.00000000000E+00  0.40070452926E+03  0.40070452926E+03  0.00000000000E+00 0. -1.
         -1   -1    0    0    0  501 -0.00000000000E+00 -0.00000000000E+00 -0.74901310871E+02  0.74901310871E+02  0.00000000000E+00 0.  1.
         23    2    1    2    0    0 -0.10425763998E+01  0.11733504005E+03  0.53617817501E+02  0.15635904065E+03  0.88344103644E+02 0.  0.
         23    2    1    2    0    0  0.10425763998E+01 -0.11733504005E+03  0.27218540089E+03  0.31924679948E+03  0.11859607048E+03 0.  0.
          5    1    4    4  502    0  0.39972557846E+01 -0.34008698420E+02  0.21571972513E+03  0.21846061849E+03  0.41800000000E+01 0. -1.
         -5    1    4    4    0  502 -0.29546793847E+01 -0.83326341634E+02  0.56465675763E+02  0.10078618100E+03  0.41800000000E+01 0.  1.
        -11    1    3    3    0    0  0.39796088214E+02  0.28025746270E+02  0.17537871606E+02  0.51737298263E+02  0.00000000000E+00 0. -1.
         11    1    3    3    0    0 -0.40838664614E+02  0.89309293784E+02  0.36079945895E+02  0.10462174238E+03  0.00000000000E+00 0.  1.
</event>
<event>
 8    1  0.1790275E-005  0.9213159E+02  0.7561462E-02  0.1297770E+00
          3   -1    0    0  501    0  0.00000000000E+00  0.00000000000E+00  0.19904676838E+03  0.19904676838E+03  0.00000000000E+00 0. -1.
         -3   -1    0    0    0  501 -0.00000000000E+00 -0.00000000000E+00 -0.65003990303E+02  0.65003990303E+02  0.00000000000E+00 0.  1.
         23    2    1    2    0    0 -0.34384020576E+02  0.34287658060E+01  0.51327487523E+02  0.11015682399E+03  0.91137245900E+02 0.  0.
         23    2    1    2    0    0  0.34384020576E+02 -0.34287658060E+01  0.82715290558E+02  0.15389393470E+03  0.12508999376E+03 0.  0.
          5    1    4    4  502    0  0.51185204895E+02  0.40808695142E+02  0.90174372593E+01  0.66212244895E+02  0.41800000000E+01 0. -1.
         -5    1    4    4    0  502 -0.16801184319E+02 -0.44237460948E+02  0.73697853298E+02  0.87681689802E+02  0.41800000000E+01 0. -1.
        -11    1    3    3    0    0 -0.38326448240E+02  0.27244528706E+02  0.66647226582E+02  0.81566131392E+02  0.00000000000E+00 0. -1.
         11    1    3    3    0    0  0.39424276644E+01 -0.23815762900E+02 -0.15319739059E+02  0.28590692598E+02  0.00000000000E+00 0.  1.
</event>
<event>
 8    1  0.1790275E-005  0.6297607E+02  0.7561462E-02  0.1385751E+00
         -2   -1    0    0    0  501 -0.00000000000E+00  0.00000000000E+00  0.40481221232E+02  0.40481221232E+02  0.00000000000E+00 0.  1.
          2   -1    0    0  501    0  0.00000000000E+00 -0.00000000000E+00 -0.33269916687E+03  0.33269916687E+03  0.00000000000E+00 0. -1.
         23    2    1    2    0    0 -0.46225275333E+01 -0.30562651558E+02 -0.83506777726E+02  0.12789719860E+03  0.91808866958E+02 0.  0.
         23    2    1    2    0    0  0.46225275333E+01  0.30562651558E+02 -0.20871116791E+03  0.24528318950E+03  0.12509215807E+03 0.  0.
          5    1    4    4  502    0  0.15370303910E+02  0.14580475762E+02 -0.22100328870E+03  0.22205576447E+03  0.41800000000E+01 0.  1.
         -5    1    4    4    0  502 -0.10747776376E+02  0.15982175796E+02  0.12292120792E+02  0.23227425036E+02  0.41800000000E+01 0.  1.
        -11    1    3    3    0    0  0.12992469807E+02 -0.53881268408E+02 -0.81557200258E+02  0.98608175477E+02  0.00000000000E+00 0. -1.
         11    1    3    3    0    0 -0.17614997341E+02  0.23318616850E+02 -0.19495774686E+01  0.29289023122E+02  0.00000000000E+00 0.  1.
</event>
<event>
 7    1  0.1790275E-005  0.1145075E+03  0.7561462E-02  0.1252443E+00
         -2   -1    0    0    0  501 -0.00000000000E+00  0.00000000000E+00  0.45973573884E+02  0.45973573884E+02  0.00000000000E+00 0.  1.
          2   -1    0    0  501    0  0.00000000000E+00 -0.00000000000E+00 -0.59899267152E+03  0.59899267152E+03  0.00000000000E+00 0. -1.
         23    2    1    2    0    0 -0.28399441954E+02 -0.34766745070E+02 -0.18737054468E+03  0.22252183032E+03  0.11132380289E+03 0.  0.
          5    1    1    2  502    0 -0.13039342974E+02 -0.31882577533E+02 -0.33701780903E+03  0.33879934949E+03  0.41800000000E+01 0. -1.
         -5    1    1    2    0  502  0.41438784928E+02  0.66649322603E+02 -0.28630743929E+02  0.83645065591E+02  0.41800000000E+01 0.  1.
        -11    1    3    3    0    0  0.39023760619E+02  0.17192215384E+01 -0.37331287258E+02  0.54031792714E+02  0.00000000000E+00 0.  1.
         11    1    3    3    0    0 -0.67423202574E+02 -0.36485966608E+02 -0.15003925743E+03  0.16849003761E+03  0.00000000000E+00 0. -1.
</event>
<event>
 8    1  0.1790275E-005  0.1602430E+03  0.7561462E-02  0.1188423E+00
         -2   -1    0    0    0  501 -0.00000000000E+00  0.00000000000E+00  0.78499202047E+02  0.78499202047E+02  0.00000000000E+00 0.  1.
          2   -1    0    0  501    0  0.00000000000E+00 -0.00000000000E+00 -0.41209168548E+03  0.41209168548E+03  0.00000000000E+00 0. -1.
         23    2    1    2    0    0  0.13216233052E+03 -0.32113201951E+02 -0.98365350020E+02  0.19146110877E+03  0.92105780160E+02 0.  0.
         23    2    1    2    0    0 -0.13216233052E+03  0.32113201951E+02 -0.23522713341E+03  0.29912977876E+03  0.12509468774E+03 0.  0.
          5    1    4    4  502    0 -0.14860577108E+03  0.28032160148E+02 -0.23743981733E+03  0.28153972447E+03  0.41800000000E+01 0. -1.
         -5    1    4    4    0  502  0.16443440560E+02  0.40810418033E+01  0.22126839248E+01  0.17590054287E+02  0.41800000000E+01 0. -1.
        -11    1    3    3    0    0  0.11972889509E+03 -0.50180266118E+02 -0.10665689899E+03  0.16801417062E+03  0.00000000000E+00 0. -1.
         11    1    3    3    0    0  0.12433435428E+02  0.18067064167E+02  0.82915489706E+01  0.23446938148E+02  0.00000000000E+00 0.  1.
</event>
<event>
 8    1  0.1790275E-005  0.9532540E+02  0.7561462E-02  0.1290445E+00
          3   -1    0    0  501    0  0.00000000000E+00  0.00000000000E+00  0.35918377075E+02  0.35918377075E+02  0.00000000000E+00 0. -1.
         -3   -1    0    0    0  501 -0.00000000000E+00 -0.00000000000E+00 -0.55814669841E+03  0.55814669841E+03  0.00000000000E+00 0.  1.
         23    2    1    2    0    0  0.86086592812E+02 -0.26173508502E+02 -0.25336905282E+03  0.28418199149E+03  0.92019418345E+02 0.  0.
         23    2    1    2    0    0 -0.86086592812E+02  0.26173508502E+02 -0.26885926852E+03  0.30988308400E+03  0.12508503295E+03 0.  0.
          5    1    4    4  502    0 -0.30202367778E+02  0.14404233043E+02  0.12756647450E+01  0.33745587408E+02  0.41800000000E+01 0. -1.
         -5    1    4    4    0  502 -0.55884225034E+02  0.11769275459E+02 -0.27013493327E+03  0.27613749659E+03  0.41800000000E+01 0. -1.
        -11    1    3    3    0    0  0.61804598901E+02  0.27942210482E+01 -0.56719984197E+02  0.83933144370E+02  0.00000000000E+00 0. -1.
         11    1    3    3    0    0  0.24281993911E+02 -0.28967729550E+02 -0.19664906862E+03  0.20024884712E+03  0.00000000000E+00 0.  1.
</event>
<event>
 8    1  0.1790275E-005  0.1145060E+03  0.7561462E-02  0.1252446E+00
          1   -1    0    0  501    0  0.00000000000E+00  0.00000000000E+00  0.63656630930E+03  0.63656630930E+03  0.00000000000E+00 0. -1.
         -1   -1    0    0    0  501 -0.00000000000E+00 -0.00000000000E+00 -0.22668389647E+02  0.22668389647E+02  0.00000000000E+00 0.  1.
         23    2    1    2    0    0  0.29238630485E+02 -0.31527929192E+02  0.19631927551E+03  0.22120560921E+03  0.92421619638E+02 0.  0.
         23    2    1    2    0    0 -0.29238630485E+02  0.31527929192E+02  0.41757864414E+03  0.43802908974E+03  0.12509457055E+03 0.  0.
          5    1    4    4  502    0 -0.56602646913E+02  0.64179250091E+02  0.32379636567E+03  0.33493938944E+03  0.41800000000E+01 0. -1.
         -5    1    4    4    0  502  0.27364016429E+02 -0.32651320899E+02  0.93782278473E+02  0.10308970030E+03  0.41800000000E+01 0. -1.
        -11    1    3    3    0    0  0.53037253577E+02 -0.48043652216E+02  0.12198841144E+03  0.14142954186E+03  0.00000000000E+00 0.  1.
         11    1    3    3    0    0 -0.23798623092E+02  0.16515723024E+02  0.74330864071E+02  0.79776067348E+02  0.00000000000E+00 0. -1.
</event>
<event>
 8    1  0.1790275E-005  0.1072276E+03  0.7561462E-02  0.1265792E+00
          3   -1    0    0  501    0  0.00000000000E+00  0.00000000000E+00  0.12971408097E+03  0.12971408097E+03  0.00000000000E+00 0. -1.
         -3   -1    0    0    0  501 -0.00000000000E+00 -0.00000000000E+00 -0.12134280592E+03  0.12134280592E+03  0.00000000000E+00 0.  1.
         23    2    1    2    0    0 -0.40682519413E+02 -0.36507213451E+02 -0.29678202313E+02  0.10934309425E+03  0.89929264132E+02 0.  0.
         23    2    1    2    0    0  0.40682519413E+02  0.36507213451E+02  0.38049477355E+02  0.14171379265E+03  0.12508873762E+03 0.  0.
          5    1    4    4  502    0  0.35359561742E+02 -0.28543345176E+02 -0.24000396058E+02  0.51560765815E+02  0.41800000000E+01 0.  1.
         -5    1    4    4    0  502  0.53229576706E+01  0.65050558627E+02  0.62049873414E+02  0.90153026831E+02  0.41800000000E+01 0.  1.
        -11    1    3    3    0    0  0.11053624517E+02  0.22424004092E+02 -0.16157568916E+02  0.29767190122E+02  0.00000000000E+00 0.  1.
         11    1    3    3    0    0 -0.51736143930E+02 -0.58931217543E+02 -0.13520633396E+02  0.79575904125E+02  0.00000000000E+00 0. -1.
</event>
<event>
 8    1  0.1790275E-005  0.8015510E+02  0.7561462E-02  0.1328612E+00
         -3   -1    0    0    0  501 -0.00000000000E+00  0.00000000000E+00  0.20304975933E+02  0.20304975933E+02  0.00000000000E+00 0.  1.
          3   -1    0    0  501    0  0.00000000000E+00 -0.00000000000E+00 -0.73980598657E+03  0.73980598657E+03  0.00000000000E+00 0. -1.
         23    2    1    2    0    0  0.20351747862E+01  0.60108567372E+01 -0.13844925710E+03  0.16571335640E+03  0.90842981913E+02 0.  0.
         23    2    1    2    0    0 -0.20351747862E+01 -0.60108567372E+01 -0.58105175353E+03  0.59439760610E+03  0.12508837483E+03 0.  0.
          5    1    4    4  502    0 -0.17731937337E+02  0.31991781630E+02 -0.51610342943E+03  0.51741484127E+03  0.41800000000E+01 0. -1.
         -5    1    4    4    0  502  0.15696762550E+02 -0.38002638368E+02 -0.64948324100E+02  0.76982764830E+02  0.41800000000E+01 0. -1.
        -11    1    3    3    0    0  0.19587229439E+02 -0.33570935529E+02 -0.10186523495E+03  0.10902840621E+03  0.00000000000E+00 0. -1.
         11    1    3    3    0    0 -0.17552054652E+02  0.39581792266E+02 -0.36584022156E+02  0.56684950196E+02  0.00000000000E+00 0.  1.
</event>
<event>
 8    1  0.1790275E-005  0.1034657E+03  0.7561462E-02  0.1273172E+00
         -2   -1    0    0    0  501 -0.00000000000E+00  0.00000000000E+00  0.17062513937E+02  0.17062513937E+02  0.00000000000E+00 0.  1.
          2   -1    0    0  501    0  0.00000000000E+00 -0.00000000000E+00 -0.75965915906E+03  0.75965915906E+03  0.00000000000E+00 0. -1.
         23    2    1    2    0    0 -0.31658675089E+02 -0.13857339732E+02 -0.29965283741E+03  0.31515786103E+03  0.91314603594E+02 0.  0.
         23    2    1    2    0    0  0.31658675089E+02  0.13857339732E+02 -0.44294380771E+03  0.46156381196E+03  0.12509051983E+03 0.  0.
          5    1    4    4  502    0 -0.36465127412E+02  0.39621401165E+02 -0.23713246888E+03  0.24320534769E+03  0.41800000000E+01 0.  1.
         -5    1    4    4    0  502  0.68123802502E+02 -0.25764061432E+02 -0.20581133883E+03  0.21835846428E+03  0.41800000000E+01 0.  1.
        -11    1    3    3    0    0  0.98584178277E+01 -0.32862025116E+02 -0.45767668599E+02  0.57199480643E+02  0.00000000000E+00 0.  1.
         11    1    3    3    0    0 -0.41517092917E+02  0.19004685384E+02 -0.25388516881E+03  0.25795838039E+03  0.00000000000E+00 0. -1.
</event>
<event>
 8    1  0.1790275E-005  0.1264788E+03  0.7561462E-02  0.1232776E+00
         -2   -1    0    0    0  501 -0.00000000000E+00  0.00000000000E+00  0.68353244306E+02  0.68353244306E+02  0.00000000000E+00 0.  1.
          2   -1    0    0  501    0  0.00000000000E+00 -0.00000000000E+00 -0.24372224456E+03  0.24372224456E+03  0.00000000000E+00 0. -1.
         23    2    1    2    0    0  0.66596987383E+02  0.46236616693E+01 -0.54489564574E+02  0.12575359473E+03  0.91587755542E+02 0.  0.
         23    2    1    2    0    0 -0.66596987383E+02 -0.46236616693E+01 -0.12087943568E+03  0.18632189413E+03  0.12508986085E+03 0.  0.
          5    1    4    4  502    0  0.14708102422E+02  0.43649038356E+02 -0.30138237775E+02  0.55202831472E+02  0.41800000000E+01 0.  1.
         -5    1    4    4    0  502 -0.81305089805E+02 -0.48272700026E+02 -0.90741197905E+02  0.13111906266E+03  0.41800000000E+01 0.  1.
        -11    1    3    3    0    0  0.87282326225E+02  0.15564676741E+02 -0.35065754665E+02  0.95341862702E+02  0.00000000000E+00 0. -1.
         11    1    3    3    0    0 -0.20685338842E+02 -0.10941015071E+02 -0.19423809908E+02  0.30411732031E+02  0.00000000000E+00 0.  1.
</event>
<event>
 8    1  0.1790275E-005  0.1715013E+03  0.7561462E-02  0.1176291E+00
         -1   -1    0    0    0  501 -0.00000000000E+00  0.00000000000E+00  0.66917192736E+02  0.66917192736E+02  0.00000000000E+00 0.  1.
          1   -1    0    0  501    0  0.00000000000E+00 -0.00000000000E+00 -0.52570293044E+03  0.52570293044E+03  0.00000000000E+00 0. -1.
         23    2    1    2    0    0  0.15223276473E+03  0.79828649631E+01 -0.21613613615E+03  0.27994597581E+03  0.91740826419E+02 0.  0.
         23    2    1    2    0    0 -0.15223276473E+03 -0.79828649631E+01 -0.24264960156E+03  0.31267414737E+03  0.12509097691E+03 0.  0.
          5    1    4    4  502    0 -0.16183291441E+03 -0.66551630006E+01 -0.15444815042E+03  0.22384344294E+03  0.41800000000E+01 0.  1.
         -5    1    4    4    0  502  0.96001496714E+01 -0.13277019625E+01 -0.88201451134E+02  0.88830704423E+02  0.41800000000E+01 0.  1.
        -11    1    3    3    0    0  0.59972868393E+02  0.40762451493E+02 -0.53508076893E+02  0.90119014019E+02  0.00000000000E+00 0. -1.
         11    1    3    3    0    0  0.92259896341E+02 -0.32779586530E+02 -0.16262805925E+03  0.18982696179E+03  0.00000000000E+00 0.  1.
</event>
<event>
 8    1  0.1790275E-005  0.6752051E+02  0.7561462E-02  0.1368734E+00
         -1   -1    0    0    0  501 -0.00000000000E+00  0.00000000000E+00  0.64599263487E+02  0.64599263487E+02  0.00000000000E+00 0.  1.
          1   -1    0    0  501    0  0.00000000000E+00 -0.00000000000E+00 -0.21889347154E+03  0.21889347154E+03  0.00000000000E+00 0. -1.
         23    2    1    2    0    0 -0.29101710742E+02 -0.10078317629E+01 -0.21416005705E+02  0.98690351394E+02  0.91832537072E+02 0.  0.
         23    2    1    2    0    0  0.29101710742E+02  0.10078317629E+01 -0.13287820234E+03  0.18480238363E+03  0.12508948415E+03 0.  0.
          5    1    4    4  502    0  0.17842715235E+02  0.25000644315E+02  0.15051683312E+02  0.34458965070E+02  0.41800000000E+01 0. -1.
         -5    1    4    4    0  502  0.11258995506E+02 -0.23992812552E+02 -0.14792988566E+03  0.15034341856E+03  0.41800000000E+01 0. -1.
        -11    1    3    3    0    0 -0.49947108375E+02  0.13591068128E+02 -0.41440255338E+02  0.66307808970E+02  0.00000000000E+00 0. -1.
         11    1    3    3    0    0  0.20845397634E+02 -0.14598899891E+02  0.20024249633E+02  0.32382542424E+02  0.00000000000E+00 0.  1.
</event>
<event>
 7    1  0.1790275E-005  0.9724577E+02  0.7561462E-02  0.1286197E+00
          2   -1    0    0  501    0  0.00000000000E+00  0.00000000000E+00  0.77352660967E+03  0.77352660967E+03  0.00000000000E+00 0. -1.
         -2   -1    0    0    0  501 -0.00000000000E+00 -0.00000000000E+00 -0.18758486630E+02  0.18758486630E+02  0.00000000000E+00 0.  1.
         23    2    1    2    0    0 -0.22277333183E+02 -0.54771922819E+02  0.68907997660E+03  0.70215537838E+03  0.12122177250E+03 0.  0.
          5    1    3    3  502    0 -0.40924540387E+02 -0.86554509798E+02  0.54605580094E+03  0.55440139909E+03  0.41800000000E+01 0. -1.
         -5    1    3    3    0  502  0.18647207203E+02  0.31782586979E+02  0.14302417566E+03  0.14775397929E+03  0.41800000000E+01 0.  1.
        -11    1    1    2    0    0  0.39951941198E+01  0.32563612366E+02  0.38011104697E+02  0.50211497754E+02  0.00000000000E+00 0.  1.
         11    1    1    2    0    0  0.18282139064E+02  0.22208310453E+02  0.27677041740E+02  0.39918220168E+02  0.00000000000E+00 0. -1.
</event>
<event>
 8    1  0.1790275E-005  0.1039071E+03  0.7561462E-02  0.1272288E+00
          1   -1    0    0  501    0  0.00000000000E+00  0.00000000000E+00  0.44459042405E+03  0.44459042405E+03  0.00000000000E+00 0. -1.
         -1   -1    0    0    0  501 -0.00000000000E+00 -0.00000000000E+00 -0.34482922160E+02  0.34482922160E+02  0.00000000000E+00 0.  1.
         23    2    1    2    0    0 -0.28256340498E+01 -0.49186517687E+02  0.12177419007E+03  0.16093699578E+03  0.92975617851E+02 0.  0.
         23    2    1    2    0    0  0.28256340498E+01  0.49186517687E+02  0.28833331182E+03  0.31813635043E+03  0.12508933219E+03 0.  0.
          5    1    4    4  502    0 -0.59798717671E+02  0.35604080318E+02  0.13629156837E+03  0.15308952015E+03  0.41800000000E+01 0.  1.
         -5    1    4    4    0  502  0.62624351721E+02  0.13582437369E+02  0.15204174345E+03  0.16504683027E+03  0.41800000000E+01 0.  1.
        -11    1    3    3    0    0  0.17087896471E+02 -0.51090404329E+02  0.12889728264E+03  0.13970230883E+03  0.00000000000E+00 0. -1.
         11    1    3    3    0    0 -0.19913530521E+02  0.19038866422E+01 -0.71230925727E+01  0.21234686952E+02  0.00000000000E+00 0.  1.
</event>
<event>
 8    1  0.1790275E-005  0.1136923E+03  0.7561462E-02  0.1253881E+00
         -2   -1    0    0    0  501 -0.00000000000E+00  0.00000000000E+00  0.72222413577E+02  0.72222413577E+02  0.00000000000E+00 0.  1.
          2   -1    0    0  501    0  0.00000000000E+00 -0.00000000000E+00 -0.33683174915E+03  0.33683174915E+03  0.00000000000E+00 0. -1.
         23    2    1    2    0    0  0.67828881649E+02 -0.65776309003E+02 -0.47108262416E+02  0.14094679220E+03  0.93378422734E+02 0.  0.
         23    2    1    2    0    0 -0.67828881649E+02  0.65776309003E+02 -0.21750107315E+03  0.26810737052E+03  0.12509022861E+03 0.  0.
          5    1    4    4  502    0 -0.55889273861E+02  0.54581464564E+02 -0.36513860438E+02  0.86333548582E+02  0.41800000000E+01 0.  1.
         -5    1    4    4    0  502 -0.11939607788E+02  0.11194844439E+02 -0.18098721272E+03  0.18177382194E+03  0.41800000000E+01 0.  1.
        -11    1    3    3    0    0  0.13497887851E+01  0.22060942202E+02 -0.30803701330E+01  0.22315819070E+02  0.00000000000E+00 0. -1.
         11    1    3    3    0    0  0.66479092864E+02 -0.87837251205E+02 -0.44027892283E+02  0.11863097313E+03  0.00000000000E+00 0.  1.
</event>
<event>
 7    1  0.1790275E-005  0.6509899E+02  0.7561462E-02  0.1377600E+00
          2   -1    0    0  501    0  0.00000000000E+00  0.00000000000E+00  0.95104600987E+02  0.95104600987E+02  0.00000000000E+00 0. -1.
         -2   -1    0    0    0  501 -0.00000000000E+00 -0.00000000000E+00 -0.11512355542E+03  0.11512355542E+03  0.00000000000E+00 0.  1.
         23    2    1    2    0    0  0.18162169840E+02  0.47611400537E+02 -0.59601055021E+01  0.13518222159E+03  0.12506798272E+03 0.  0.
          5    1    3    3  502    0 -0.35480156869E+00  0.39363255590E+02  0.56722950919E+02  0.69170494691E+02  0.41800000000E+01 0.  1.
         -5    1    3    3    0  502  0.18516971409E+02  0.82481449465E+01 -0.62683056421E+02  0.66011726894E+02  0.41800000000E+01 0.  1.
        -11    1    1    2    0    0  0.31128788073E+01 -0.48520202892E+02  0.15481067418E+01  0.48644596182E+02  0.00000000000E+00 0. -1.
         11    1    1    2    0    0 -0.21275048648E+02  0.90880235566E+00 -0.15606955677E+02  0.26401338644E+02  0.00000000000E+00 0.  1.
</event>
<event>
 8    1  0.1790275E-005  0.9451908E+02  0.7561462E-02  0.1292263E+00
          2   -1    0    0  501    0  0.00000000000E+00  0.00000000000E+00  0.12584270133E+04  0.12584270133E+04  0.00000000000E+00 0. -1.
         -2   -1    0    0    0  501 -0.00000000000E+00 -0.00000000000E+00 -0.12552029640E+02  0.12552029640E+02  0.00000000000E+00 0.  1.
         23    2    1    2    0    0 -0.31132313884E+02  0.18536238425E+02  0.22990043748E+03  0.24669408469E+03  0.81798210033E+02 0.  0.
         23    2    1    2    0    0  0.31132313884E+02 -0.18536238425E+02  0.10159745462E+04  0.10242849583E+04  0.12507031666E+03 0.  0.
          5    1    4    4  502    0  0.51477734488E+02  0.28447351832E+02  0.26156940609E+03  0.26813286926E+03  0.41800000000E+01 0. -1.
         -5    1    4    4    0  502 -0.20345420603E+02 -0.46983590257E+02  0.75440514011E+03  0.75615208901E+03  0.41800000000E+01 0. -1.
        -11    1    3    3    0    0 -0.26288679964E+01 -0.25834384554E+02  0.28732278671E+02  0.38728157842E+02  0.00000000000E+00 0. -1.
         11    1    3    3    0    0 -0.28503445888E+02  0.44370622979E+02  0.20116815881E+03  0.20796592685E+03  0.00000000000E+00 0.  1.
</event>
<event>
 8    1  0.1790275E-005  0.9593723E+02  0.7561462E-02  0.1289079E+00
         -1   -1    0    0    0  501 -0.00000000000E+00  0.00000000000E+00  0.14467992001E+02  0.14467992001E+02  0.00000000000E+00 0.  1.
          1   -1    0    0  501    0  0.00000000000E+00 -0.00000000000E+00 -0.13748435003E+04  0.13748435003E+04  0.00000000000E+00 0. -1.
         23    2    1    2    0    0 -0.46398358026E+02  0.23728768778E+02 -0.23093410903E+03  0.25299802599E+03  0.89227665827E+02 0.  0.
         23    2    1    2    0    0  0.46398358026E+02 -0.23728768778E+02 -0.11294413992E+04  0.11363134663E+04  0.11337793977E+03 0.  0.
          5    1    4    4  502    0 -0.15136673379E+02 -0.37075557917E+02 -0.79196325582E+03  0.79298612021E+03  0.41800000000E+01 0. -1.
         -5    1    4    4    0  502  0.61535031405E+02  0.13346789139E+02 -0.33747814341E+03  0.34332734605E+03  0.41800000000E+01 0.  1.
        -11    1    3    3    0    0 -0.60481861443E+02 -0.49714902405E+00 -0.84554861237E+02  0.10396070065E+03  0.00000000000E+00 0.  1.
         11    1    3    3    0    0  0.14083503417E+02  0.24225917802E+02 -0.14637924779E+03  0.14903732535E+03  0.00000000000E+00 0. -1.
</event>
<event>
 8    1  0.1790275E-005  0.1104172E+03  0.7561462E-02  0.1259799E+00
          1   -1    0    0  501    0  0.00000000000E+00  0.00000000000E+00  0.41630673264E+02  0.41630673264E+02  0.00000000000E+00 0. -1.
         -1   -1    0    0    0  501 -0.00000000000E+00 -0.00000000000E+00 -0.32429661675E+03  0.32429661675E+03  0.00000000000E+00 0.  1.
         23    2    1    2    0    0 -0.27848490495E+02 -0.22005494319E+02 -0.15517209204E+03  0.18382314472E+03  0.91939056898E+02 0.  0.
         23    2    1    2    0    0  0.27848490495E+02  0.22005494319E+02 -0.12749385144E+03  0.18210414529E+03  0.12508979724E+03 0.  0.
          5    1    4    4  502    0 -0.36960212940E+02 -0.22925706878E+02 -0.18358888900E+02  0.47393739861E+02  0.41800000000E+01 0.  1.
         -5    1    4    4    0  502  0.64808703435E+02  0.44931201197E+02 -0.10913496254E+03  0.13471040543E+03  0.41800000000E+01 0.  1.
        -11    1    3    3    0    0 -0.61205592789E+02 -0.70391214229E+01 -0.89403816952E+02  0.10857585507E+03  0.00000000000E+00 0.  1.
         11    1    3    3    0    0  0.33357102294E+02 -0.14966372896E+02 -0.65768275087E+02  0.75247289646E+02  0.00000000000E+00 0. -1.
</event>
<event>
 7    1  0.1790275E-005  0.9624036E+02  0.7561462E-02  0.1288407E+00
          2   -1    0    0  501    0  0.00000000000E+00  0.00000000000E+00  0.84379014995E+03  0.84379014995E+03  0.00000000000E+00 0. -1.
         -2   -1    0    0    0  501 -0.00000000000E+00 -0.00000000000E+00 -0.35292780224E+02  0.35292780224E+02  0.00000000000E+00 0.  1.
         23    2    1    2    0    0 -0.25022597642E+01 -0.30765367712E+02  0.99026938855E+02  0.13826167701E+03  0.91417654513E+02 0.  0.
          5    1    1    2  502    0 -0.30991967185E+02 -0.22391970817E+02  0.65900249120E+03  0.66012397184E+03  0.41800000000E+01 0. -1.
         -5    1    1    2    0  502  0.33494226949E+02  0.53157338528E+02  0.50467939668E+02  0.80697281321E+02  0.41800000000E+01 0.  1.
        -11    1    3    3    0    0  0.36977816711E+02  0.55685992470E+01  0.64194169918E+02  0.74291720116E+02  0.00000000000E+00 0. -1.
         11    1    3    3    0    0 -0.39480076475E+02 -0.36333966959E+02  0.34832768937E+02  0.63969956896E+02  0.00000000000E+00 0.  1.
</event>
<event>
 8    1  0.1790275E-005  0.9926182E+02  0.7561462E-02  0.1281856E+00
          2   -1    0    0  501    0  0.00000000000E+00  0.00000000000E+00  0.36750954475E+03  0.36750954475E+03  0.00000000000E+00 0. -1.
         -2   -1    0    0    0  501 -0.00000000000E+00 -0.00000000000E+00 -0.46852259702E+02  0.46852259702E+02  0.00000000000E+00 0.  1.
         23    2    1    2    0    0 -0.35092117604E+02  0.58904547368E+02  0.10014382057E+03  0.15173121842E+03  0.91062480886E+02 0.  0.
         23    2    1    2    0    0  0.35092117604E+02 -0.58904547368E+02  0.22051346448E+03  0.26263058604E+03  0.12508970496E+03 0.  0.
          5    1    4    4  502    0  0.12257077839E+02 -0.63839633648E+02  0.22848908396E+03  0.23759307370E+03  0.41800000000E+01 0. -1.
         -5    1    4    4    0  502  0.22835039765E+02  0.49350862801E+01 -0.79756194857E+01  0.25037512333E+02  0.41800000000E+01 0. -1.
        -11    1    3    3    0    0 -0.36608166013E+01  0.74481251316E+02  0.86207221923E+02  0.11398483885E+03  0.00000000000E+00 0. -1.
         11    1    3    3    0    0 -0.31431301002E+02 -0.15576703948E+02  0.13936598648E+02  0.37746379567E+02  0.00000000000E+00 0.  1.
</event>
<event>
 8    1  0.2246991E-005  0.9462295E+02  0.7561462E-02  0.1292028E+00
         -2   -1    0    0    0  501 -0.00000000000E+00  0.00000000000E+00  0.11306240994E+02  0.11306240994E+02  0.00000000000E+00 0.  1.
          2   -1    0    0  501    0  0.00000000000E+00 -0.00000000000E+00 -0.13916503273E+04  0.13916503273E+04  0.00000000000E+00 0. -1.
         23    2    1    2    0    0  0.35891683149E+02  0.18407447144E+00 -0.29794244602E+03  0.31275963766E+03  0.88094511781E+02 0.  0.
         23    2    1    2    0    0 -0.35891683149E+02 -0.18407447144E+00 -0.10824016403E+04  0.10901969307E+04  0.12509112625E+03 0.  0.
          5    1    4    4  502    0  0.11078168834E+02 -0.39202676423E+02 -0.14150311636E+03  0.14730980960E+03  0.41800000000E+01 0. -1.
         -5    1    4    4    0  502 -0.46969851983E+02  0.39018601952E+02 -0.94089852398E+03  0.94288712109E+03  0.41800000000E+01 0. -1.
        -11    1    3    3    0    0  0.39423867135E+02 -0.34401653631E+02 -0.11231533120E+03  0.12390499867E+03  0.00000000000E+00 0.  1.
         11    1    3    3    0    0 -0.35321839860E+01  0.34585728102E+02 -0.18562711482E+03  0.18885463899E+03  0.00000000000E+00 0. -1.
</event>
<event>
 8    1  0.1790275E-005  0.5548119E+02  0.7561462E-02  0.1417837E+00
         -2   -1    0    0    0  501 -0.00000000000E+00  0.00000000000E+00  0.10068332158E+03  0.10068332158E+03  0.00000000000E+00 0.  1.
          2   -1    0    0  501    0  0.00000000000E+00 -0.00000000000E+00 -0.19670392496E+03  0.19670392496E+03  0.00000000000E+00 0. -1.
         23    2    1    2    0    0  0.72842227647E+01  0.14318443301E+02  0.52907485037E+02  0.11038983125E+03  0.95543891222E+02 0.  0.
         23    2    1    2    0    0 -0.72842227647E+01 -0.14318443301E+02 -0.14892808842E+03  0.18699741529E+03  0.11193918029E+03 0.  0.
          5    1    4    4  502    0 -0.10738804555E+02 -0.14248178584E+02 -0.16706501745E+03  0.16806702524E+03  0.41800000000E+01 0. -1.
         -5    1    4    4    0  502  0.34545817907E+01 -0.70264716530E-01  0.18136929036E+02  0.18930390047E+02  0.41800000000E+01 0.  1.
        -11    1    3    3    0    0  0.37382655149E+02  0.34586009122E+02  0.53814589712E+02  0.74092273544E+02  0.00000000000E+00 0.  1.
         11    1    3    3    0    0 -0.30098432384E+02 -0.20267565821E+02 -0.90710467519E+00  0.36297557703E+02  0.00000000000E+00 0. -1.
</event>
<event>
 8    1  0.1790275E-005  0.9195086E+02  0.7561462E-02  0.1298195E+00
          2   -1    0    0  501    0  0.00000000000E+00  0.00000000000E+00  0.18509217502E+03  0.18509217502E+03  0.00000000000E+00 0. -1.
         -2   -1    0    0    0  501 -0.00000000000E+00 -0.00000000000E+00 -0.99423109684E+02  0.99423109684E+02  0.00000000000E+00 0.  1.
         23    2    1    2    0    0 -0.75862521132E+02  0.54212467887E+01  0.77176978253E+01  0.11866027369E+03  0.90753433343E+02 0.  0.
         23    2    1    2    0    0  0.75862521132E+02 -0.54212467887E+01  0.77951367511E+02  0.16585501101E+03  0.12508779697E+03 0.  0.
          5    1    4    4  502    0  0.33682754900E+02  0.21757590456E+01 -0.32662494151E+02  0.47154775254E+02  0.41800000000E+01 0.  1.
         -5    1    4    4    0  502  0.42179766232E+02 -0.75970058344E+01  0.11061386166E+03  0.11870023576E+03  0.41800000000E+01 0.  1.
        -11    1    3    3    0    0 -0.47206325546E+02  0.40031908208E+02  0.29683284532E+02  0.68644651845E+02  0.00000000000E+00 0. -1.
         11    1    3    3    0    0 -0.28656195586E+02 -0.34610661419E+02 -0.21965586707E+02  0.50015621847E+02  0.00000000000E+00 0.  1.
</event>
<event>
 8    1  0.1790275E-005  0.1019436E+03  0.7561462E-02  0.1276261E+00
         -3   -1    0    0    0  501 -0.00000000000E+00  0.00000000000E+00  0.78643402803E+02  0.78643402803E+02  0.00000000000E+00 0.  1.
          3   -1    0    0  501    0  0.00000000000E+00 -0.00000000000E+00 -0.40580492085E+03  0.40580492085E+03  0.00000000000E+00 0. -1.
         23    2    1    2    0    0  0.25166011131E+01 -0.40122879446E+01  0.41264605134E+02  0.98566823970E+02  0.89388027247E+02 0.  0.
         23    2    1    2    0    0 -0.25166011131E+01  0.40122879446E+01 -0.36842612318E+03  0.38588149968E+03  0.11464855786E+03 0.  0.
          5    1    4    4  502    0 -0.54084229033E+02  0.23758715994E+02 -0.20019733186E+03  0.20877266224E+03  0.41800000000E+01 0. -1.
         -5    1    4    4    0  502  0.51567627920E+02 -0.19746428050E+02 -0.16822879132E+03  0.17710883744E+03  0.41800000000E+01 0.  1.
        -11    1    3    3    0    0 -0.43327628383E+02 -0.30613730490E+01  0.23556838461E+02  0.49412346883E+02  0.00000000000E+00 0. -1.
         11    1    3    3    0    0  0.45844229496E+02 -0.95091489563E+00  0.17707766674E+02  0.49154477088E+02  0.00000000000E+00 0.  1.
</event>
<event>
 8    1  0.1790275E-005  0.1118884E+03  0.7561462E-02  0.1257112E+00
         -2   -1    0    0    0  501 -0.00000000000E+00  0.00000000000E+00  0.24769831940E+02  0.24769831940E+02  0.00000000000E+00 0.  1.
          2   -1    0    0  501    0  0.00000000000E+00 -0.00000000000E+00 -0.99047978983E+03  0.99047978983E+03  0.00000000000E+00 0. -1.
         23    2    1    2    0    0  0.32838904256E+02  0.65648623670E+02 -0.16426201148E+03  0.20078367987E+03  0.89128795924E+02 0.  0.
         23    2    1    2    0    0 -0.32838904256E+02 -0.65648623670E+02 -0.80144794641E+03  0.81446594190E+03  0.12509126386E+03 0.  0.
          5    1    4    4  502    0 -0.64238796305E+02 -0.43609702176E+02 -0.72165214433E+03  0.72582898736E+03  0.41800000000E+01 0.  1.
         -5    1    4    4    0  502  0.31399892049E+02 -0.22038921494E+02 -0.79795802078E+02  0.88636954543E+02  0.41800000000E+01 0.  1.
        -11    1    3    3    0    0  0.58758945822E+02  0.50010356308E+02 -0.14678245968E+03  0.16582744019E+03  0.00000000000E+00 0. -1.
         11    1    3    3    0    0 -0.25920041565E+02  0.15638267362E+02 -0.17479551800E+02  0.34956239672E+02  0.00000000000E+00 0.  1.
</event>
<event>
 8    1  0.1790275E-005  0.1040126E+03  0.7561462E-02  0.1272077E+00
         -2   -1    0    0    0  501 -0.00000000000E+00  0.00000000000E+00  0.30931020102E+03  0.30931020102E+03  0.00000000000E+00 0.  1.
          2   -1    0    0  501    0  0.00000000000E+00 -0.00000000000E+00 -0.48978553865E+02  0.48978553865E+02  0.00000000000E+00 0. -1.
         23    2    1    2    0    0 -0.30994790138E+02  0.28383195085E+02  0.14971250720E+03  0.18610232806E+03  0.10224460338E+03 0.  0.
         23    2    1    2    0    0  0.30994790138E+02 -0.28383195085E+02  0.11061913996E+03  0.17218642683E+03  0.12508112839E+03 0.  0.
          5    1    4    4  502    0  0.42839716624E+02 -0.64745009444E+02  0.10873387313E+03  0.13367006072E+03  0.41800000000E+01 0. -1.
         -5    1    4    4    0  502 -0.11844926486E+02  0.36361814359E+02  0.18852668370E+01  0.38516366106E+02  0.41800000000E+01 0. -1.
        -11    1    3    3    0    0 -0.59151996930E+02  0.19439608034E+02  0.14276632318E+03  0.15575326685E+03  0.00000000000E+00 0.  1.
         11    1    3    3    0    0  0.28157206792E+02  0.89435870511E+01  0.69461840146E+01  0.30349061205E+02  0.00000000000E+00 0. -1.
</event>
<event>
 8    1  0.1790275E-005  0.3275619E+03  0.7561462E-02  0.1072221E+00
         -2   -1    0    0    0  501 -0.00000000000E+00  0.00000000000E+00  0.53547488709E+03  0.53547488709E+03  0.00000000000E+00 0.  1.
          2   -1    0    0  501    0  0.00000000000E+00 -0.00000000000E+00 -0.25052049951E+03  0.25052049951E+03  0.00000000000E+00 0. -1.
         23    2    1    2    0    0  0.23087840544E+03  0.22259016337E+03  0.28919338924E+03  0.44173320800E+03  0.92974145548E+02 0.  0.
         23    2    1    2    0    0 -0.23087840544E+03 -0.22259016337E+03 -0.42390016565E+01  0.34426217861E+03  0.12508900654E+03 0.  0.
          5    1    4    4  502    0 -0.13872545267E+03 -0.14664538894E+03  0.57268334544E+02  0.20987318995E+03  0.41800000000E+01 0.  1.
         -5    1    4    4    0  502 -0.92152952769E+02 -0.75944774425E+02 -0.61507336201E+02  0.13438898866E+03  0.41800000000E+01 0.  1.
        -11    1    3    3    0    0  0.11607713163E+03  0.49872757839E+02  0.10245084729E+03  0.16265721187E+03  0.00000000000E+00 0. -1.
         11    1    3    3    0    0  0.11480127381E+03  0.17271740553E+03  0.18674254195E+03  0.27907599613E+03  0.00000000000E+00 0.  1.
</event>
<event>
 8    1  0.1790275E-005  0.1090729E+03  0.7561462E-02  0.1262297E+00
          2   -1    0    0  501    0  0.00000000000E+00  0.00000000000E+00  0.16278660484E+04  0.16278660484E+04  0.00000000000E+00 0. -1.
         -2   -1    0    0    0  501 -0.00000000000E+00 -0.00000000000E+00 -0.11301834510E+02  0.11301834510E+02  0.00000000000E+00 0.  1.
         23    2    1    2    0    0 -0.35755253596E+02  0.19545821619E+02  0.28819817498E+03  0.30430280596E+03  0.88777994719E+02 0.  0.
         23    2    1    2    0    0  0.35755253596E+02 -0.19545821619E+02  0.13283660389E+04  0.13348650770E+04  0.12509181847E+03 0.  0.
          5    1    4    4  502    0  0.41384335874E+02  0.41911702632E+02  0.38807197242E+03  0.39253863791E+03  0.41800000000E+01 0.  1.
         -5    1    4    4    0  502 -0.56290822778E+01 -0.61457524251E+02  0.94029406648E+03  0.94232643904E+03  0.41800000000E+01 0.  1.
        -11    1    3    3    0    0  0.22912758644E+02 -0.16634091523E+02  0.97611351517E+02  0.10163495193E+03  0.00000000000E+00 0. -1.
         11    1    3    3    0    0 -0.58668012239E+02  0.36179913143E+02  0.19058682347E+03  0.20266785402E+03  0.00000000000E+00 0.  1.
</event>
<event>
 8    1  0.1790275E-005  0.1154130E+03  0.7561462E-02  0.1250862E+00
         -1   -1    0    0    0  501 -0.00000000000E+00  0.00000000000E+00  0.14872904902E+03  0.14872904902E+03  0.00000000000E+00 0.  1.
          1   -1    0    0  501    0  0.00000000000E+00 -0.00000000000E+00 -0.11945364139E+03  0.11945364139E+03  0.00000000000E+00 0. -1.
         23    2    1    2    0    0  0.50388728254E+02  0.53634910734E+02  0.33916221110E+02  0.12297621161E+03  0.92504653839E+02 0.  0.
         23    2    1    2    0    0 -0.50388728254E+02 -0.53634910734E+02 -0.46408134761E+01  0.14520647880E+03  0.12509059418E+03 0.  0.
          5    1    4    4  502    0  0.36507294555E+02 -0.71782778577E+01 -0.24310431380E+02  0.44640561182E+02  0.41800000000E+01 0. -1.
         -5    1    4    4    0  502 -0.86896022809E+02 -0.46456632877E+02  0.19669617904E+02  0.10056591762E+03  0.41800000000E+01 0. -1.
        -11    1    3    3    0    0 -0.13866412532E+02  0.93309198025E+01  0.41324981005E+02  0.44576871984E+02  0.00000000000E+00 0.  1.
         11    1    3    3    0    0  0.64255140786E+02  0.44303990932E+02 -0.74087598945E+01  0.78399339621E+02  0.00000000000E+00 0. -1.
</event>
<event>
 8    1  0.1790275E-005  0.1115715E+03  0.7561462E-02  0.1257687E+00
         -1   -1    0    0    0  501 -0.00000000000E+00  0.00000000000E+00  0.28773817357E+02  0.28773817357E+02  0.00000000000E+00 0.  1.
          1   -1    0    0  501    0  0.00000000000E+00 -0.00000000000E+00 -0.51052266022E+03  0.51052266022E+03  0.00000000000E+00 0. -1.
         23    2    1    2    0    0  0.40501605106E+02  0.11426045558E+02 -0.13617054218E+03  0.16937148522E+03  0.91506004797E+02 0.  0.
         23    2    1    2    0    0 -0.40501605106E+02 -0.11426045558E+02 -0.34557830068E+03  0.36992499236E+03  0.12509677668E+03 0.  0.
          5    1    4    4  502    0 -0.85094002223E+02 -0.21491772934E+01 -0.20214773965E+03  0.21937818767E+03  0.41800000000E+01 0.  1.
         -5    1    4    4    0  502  0.44592397117E+02 -0.92768682641E+01 -0.14343056103E+03  0.15054680470E+03  0.41800000000E+01 0.  1.
        -11    1    3    3    0    0  0.34109462788E+02  0.45862438652E+02 -0.48488805943E+02  0.74953205619E+02  0.00000000000E+00 0.  1.
         11    1    3    3    0    0  0.63921423178E+01 -0.34436393095E+02 -0.87681736238E+02  0.94418279599E+02  0.00000000000E+00 0. -1.
</event>
<event>
 8    1  0.1790275E-005  0.1848142E+03  0.7561462E-02  0.1163223E+00
         -2   -1    0    0    0  501 -0.00000000000E+00  0.00000000000E+00  0.23810938969E+03  0.23810938969E+03  0.00000000000E+00 0. -1.
          2   -1    0    0  501    0  0.00000000000E+00 -0.00000000000E+00 -0.17304302733E+03  0.17304302733E+03  0.00000000000E+00 0.  1.
         23    2    1    2    0    0 -0.91744495988E+02  0.11794535808E+03  0.11170070687E+03  0.21077803518E+03  0.98092671313E+02 0.  0.
         23    2    1    2    0    0  0.91744495988E+02 -0.11794535808E+03 -0.46634344504E+02  0.20037438184E+03  0.12508785223E+03 0.  0.
          5    1    4    4  502    0  0.47497949110E+01 -0.10217495032E+03 -0.45060609547E+02  0.11184905881E+03  0.41800000000E+01 0. -1.
         -5    1    4    4    0  502  0.86994701077E+02 -0.15770407761E+02 -0.15737349565E+01  0.88525323033E+02  0.41800000000E+01 0. -1.
        -11    1    3    3    0    0  0.87910152023E+01  0.64098922018E+02  0.40308257867E+02  0.76228009316E+02  0.00000000000E+00 0.  1.
         11    1    3    3    0    0 -0.10053551119E+03  0.53846436059E+02  0.71392448999E+02  0.13455002587E+03  0.00000000000E+00 0. -1.
</event>
<event>
 8    1  0.1790275E-005  0.8891935E+02  0.7561462E-02  0.1305490E+00
          2   -1    0    0  501    0  0.00000000000E+00  0.00000000000E+00  0.35656990915E+02  0.35656990915E+02  0.00000000000E+00 0. -1.
         -2   -1    0    0    0  501 -0.00000000000E+00 -0.00000000000E+00 -0.35688710559E+03  0.35688710559E+03  0.00000000000E+00 0.  1.
         23    2    1    2    0    0 -0.22330299510E+02 -0.12869882802E+02 -0.19883165007E+03  0.21564202757E+03  0.79392586709E+02 0.  0.
         23    2    1    2    0    0  0.22330299510E+02  0.12869882802E+02 -0.12239846460E+03  0.17690206894E+03  0.12509469092E+03 0.  0.
          5    1    4    4  502    0 -0.51011988195E+02  0.17473421769E+02 -0.49849615424E+02  0.73552701962E+02  0.41800000000E+01 0.  1.
         -5    1    4    4    0  502  0.73342287705E+02 -0.46035389677E+01 -0.72548849181E+02  0.10334936698E+03  0.41800000000E+01 0.  1.
        -11    1    3    3    0    0 -0.34433540736E+02 -0.15504534223E+02 -0.19968650610E+03  0.20322588424E+03  0.00000000000E+00 0.  1.
         11    1    3    3    0    0  0.12103241226E+02  0.26346514211E+01  0.85485602461E+00  0.12416143327E+02  0.00000000000E+00 0. -1.
</event>
<event>
 8    1  0.2740472E-005  0.1850488E+03  0.7561462E-02  0.1163004E+00
         -1   -1    0    0    0  501 -0.00000000000E+00  0.00000000000E+00  0.15464122549E+03  0.15464122549E+03  0.00000000000E+00 0.  1.
          1   -1    0    0  501    0  0.00000000000E+00 -0.00000000000E+00 -0.29845623999E+03  0.29845623999E+03  0.00000000000E+00 0. -1.
         23    2    1    2    0    0 -0.11582179441E+03  0.13066595877E+03 -0.47093273508E+01  0.19719516654E+03  0.91517621818E+02 0.  0.
         23    2    1    2    0    0  0.11582179441E+03 -0.13066595877E+03 -0.13910568715E+03  0.25590229894E+03  0.12508922241E+03 0.  0.
          5    1    4    4  502    0  0.33390452960E+02 -0.27549797814E+02  0.21043334726E+02  0.48313642430E+02  0.41800000000E+01 0.  1.
         -5    1    4    4    0  502  0.82431341446E+02 -0.10311616095E+03 -0.16014902188E+03  0.20758865651E+03  0.41800000000E+01 0.  1.
        -11    1    3    3    0    0 -0.43778212329E+02 -0.17149112862E+01  0.12346677892E+02  0.45518273808E+02  0.00000000000E+00 0. -1.
         11    1    3    3    0    0 -0.72043582077E+02  0.13238087005E+03 -0.17056005242E+02  0.15167689273E+03  0.00000000000E+00 0.  1.
</event>
<event>
 7    1  0.1790275E-005  0.1085989E+03  0.7561462E-02  0.1263187E+00
          3   -1    0    0  501    0  0.00000000000E+00  0.00000000000E+00  0.16837433465E+03  0.16837433465E+03  0.00000000000E+00 0. -1.
         -3   -1    0    0    0  501 -0.00000000000E+00 -0.00000000000E+00 -0.14070760880E+03  0.14070760880E+03  0.00000000000E+00 0.  1.
         23    2    1    2    0    0  0.28072804703E+02  0.15103501077E+02  0.10266930885E+02  0.12278077309E+03  0.11812497730E+03 0.  0.
          5    1    3    3  502    0 -0.35837878657E+02  0.38088472455E+02 -0.60286120469E+01  0.52810054382E+02  0.41800000000E+01 0. -1.
         -5    1    3    3    0  502  0.63910683360E+02 -0.22984971378E+02  0.16295542932E+02  0.69970718706E+02  0.41800000000E+01 0.  1.
        -11    1    1    2    0    0 -0.25822080126E+01  0.37838901519E+02 -0.70801145340E+02  0.80319689042E+02  0.00000000000E+00 0.  1.
         11    1    1    2    0    0 -0.25490596690E+02 -0.52942402596E+02  0.88200940306E+02  0.10598148132E+03  0.00000000000E+00 0. -1.
</event>
<event>
 8    1  0.1790275E-005  0.1309153E+03  0.7561462E-02  0.1226104E+00
          1   -1    0    0  501    0  0.00000000000E+00  0.00000000000E+00  0.18243888025E+03  0.18243888025E+03  0.00000000000E+00 0. -1.
         -1   -1    0    0    0  501 -0.00000000000E+00 -0.00000000000E+00 -0.29123888908E+03  0.29123888908E+03  0.00000000000E+00 0.  1.
         23    2    1    2    0    0  0.77463820863E+02  0.52693745416E+02 -0.23763720467E+03  0.27113623914E+03  0.90918341310E+02 0.  0.
         23    2    1    2    0    0 -0.77463820863E+02 -0.52693745416E+02  0.12883719583E+03  0.20254153019E+03  0.12508706597E+03 0.  0.
          5    1    4    4  502    0  0.29263512944E+02  0.23036508351E+01  0.51145582745E+01  0.30088055825E+02  0.41800000000E+01 0. -1.
         -5    1    4    4    0  502 -0.10672733381E+03 -0.54997396251E+02  0.12372263755E+03  0.17245347436E+03  0.41800000000E+01 0. -1.
        -11    1    3    3    0    0  0.31251305135E+02  0.57640110345E+02 -0.20256292994E+03  0.21291023221E+03  0.00000000000E+00 0.  1.
         11    1    3    3    0    0  0.46212515728E+02 -0.49463649295E+01 -0.35074274725E+02  0.58226006934E+02  0.00000000000E+00 0. -1.
</event>
<event>
 8    1  0.1790275E-005  0.1021547E+03  0.7561462E-02  0.1275829E+00
         -2   -1    0    0    0  501 -0.00000000000E+00  0.00000000000E+00  0.21591310981E+02  0.21591310981E+02  0.00000000000E+00 0.  1.
          2   -1    0    0  501    0  0.00000000000E+00 -0.00000000000E+00 -0.71433581363E+03  0.71433581363E+03  0.00000000000E+00 0. -1.
         23    2    1    2    0    0  0.29235005569E+02  0.43854874860E+02 -0.22763705839E+03  0.25141792446E+03  0.92813828643E+02 0.  0.
         23    2    1    2    0    0 -0.29235005569E+02 -0.43854874860E+02 -0.46510744425E+03  0.48450920015E+03  0.12508514991E+03 0.  0.
          5    1    4    4  502    0 -0.69967754052E+02  0.55654044773E+00 -0.18205645095E+03  0.19508413589E+03  0.41800000000E+01 0.  1.
         -5    1    4    4    0  502  0.40732748483E+02 -0.44411415308E+02 -0.28305099330E+03  0.28942506425E+03  0.41800000000E+01 0.  1.
        -11    1    3    3    0    0 -0.12763613576E+02  0.24368353141E+02 -0.10572229066E+02  0.29470298501E+02  0.00000000000E+00 0.  1.
         11    1    3    3    0    0  0.41998619145E+02  0.19486521719E+02 -0.21706482933E+03  0.22194762596E+03  0.00000000000E+00 0. -1.
</event>
<event>
 8    1  0.1790275E-005  0.1004337E+03  0.7561462E-02  0.1279387E+00
          2   -1    0    0  501    0  0.00000000000E+00  0.00000000000E+00  0.25317252093E+02  0.25317252093E+02  0.00000000000E+00 0. -1.
         -2   -1    0    0    0  501 -0.00000000000E+00 -0.00000000000E+00 -0.57734716215E+03  0.57734716215E+03  0.00000000000E+00 0.  1.
         23    2    1    2    0    0 -0.13704980901E+02  0.47129127495E+02 -0.32871299563E+03  0.34203582163E+03  0.80791637096E+02 0.  0.
         23    2    1    2    0    0  0.13704980901E+02 -0.47129127495E+02 -0.22331691443E+03  0.26062859261E+03  0.12509131807E+03 0.  0.
          5    1    4    4  502    0 -0.14834715668E+02 -0.68701426923E+02 -0.57384087268E+02  0.90831496309E+02  0.41800000000E+01 0.  1.
         -5    1    4    4    0  502  0.28539696569E+02  0.21572299428E+02 -0.16593282716E+03  0.16979709630E+03  0.41800000000E+01 0.  1.
        -11    1    3    3    0    0 -0.27520720416E+02  0.65735999778E+02 -0.25438774963E+03  0.26418126141E+03  0.00000000000E+00 0.  1.
         11    1    3    3    0    0  0.13815739515E+02 -0.18606872283E+02 -0.74325246000E+02  0.77854560222E+02  0.00000000000E+00 0. -1.
</event>
<event>
 8    1  0.1790275E-005  0.1279196E+03  0.7561462E-02  0.1230576E+00
          2   -1    0    0  501    0  0.00000000000E+00  0.00000000000E+00  0.93691656605E+03  0.93691656605E+03  0.00000000000E+00 0. -1.
         -2   -1    0    0    0  501 -0.00000000000E+00 -0.00000000000E+00 -0.20494872428E+02  0.20494872428E+02  0.00000000000E+00 0.  1.
         23    2    1    2    0    0  0.25730717693E+02 -0.69942545405E+02  0.30115835479E+03  0.32515342888E+03  0.97336366092E+02 0.  0.
         23    2    1    2    0    0 -0.25730717693E+02  0.69942545405E+02  0.61526333884E+03  0.63225800960E+03  0.12508870891E+03 0.  0.
          5    1    4    4  502    0 -0.50251239581E+02 -0.88543369244E+01  0.36822241110E+03  0.37176444531E+03  0.41800000000E+01 0. -1.
         -5    1    4    4    0  502  0.24520521889E+02  0.78796882329E+02  0.24704092773E+03  0.26049356428E+03  0.41800000000E+01 0. -1.
        -11    1    3    3    0    0 -0.75011474197E+01  0.22532497323E+02  0.71992903871E+02  0.75808699079E+02  0.00000000000E+00 0.  1.
         11    1    3    3    0    0  0.33231865112E+02 -0.92475042727E+02  0.22916545091E+03  0.24934472980E+03  0.00000000000E+00 0. -1.
</event>
<event>
 8    1  0.1790275E-005  0.1125940E+03  0.7561462E-02  0.1255840E+00
         -1   -1    0    0    0  501 -0.00000000000E+00  0.00000000000E+00  0.77728214207E+02  0.77728214207E+02  0.00000000000E+00 0.  1.
          1   -1    0    0  501    0  0.00000000000E+00 -0.00000000000E+00 -0.45583997262E+03  0.45583997262E+03  0.00000000000E+00 0. -1.
         23    2    1    2    0    0 -0.20171297550E+02  0.97094006969E+02 -0.11988427963E+02  0.13415484908E+03  0.89552630854E+02 0.  0.
         23    2    1    2    0    0  0.20171297550E+02 -0.97094006969E+02 -0.36612333045E+03  0.39941333775E+03  0.12510233346E+03 0.  0.
          5    1    4    4  502    0  0.43095459325E+01 -0.96590985955E+02 -0.37008624838E+03  0.38253064504E+03  0.41800000000E+01 0.  1.
         -5    1    4    4    0  502  0.15861751618E+02 -0.50302101324E+00  0.39629179304E+01  0.16882692707E+02  0.41800000000E+01 0.  1.
        -11    1    3    3    0    0  0.15806832532E+02  0.12768504791E+02  0.27616197970E+02  0.34286222592E+02  0.00000000000E+00 0.  1.
         11    1    3    3    0    0 -0.35978130082E+02  0.84325502177E+02 -0.39604625933E+02  0.99868626489E+02  0.00000000000E+00 0. -1.
</event>
<event>
 8    1  0.1790275E-005  0.1389107E+03  0.7561462E-02  0.1214802E+00
         -1   -1    0    0    0  501 -0.00000000000E+00  0.00000000000E+00  0.16666235525E+03  0.16666235525E+03  0.00000000000E+00 0.  1.
          1   -1    0    0  501    0  0.00000000000E+00 -0.00000000000E+00 -0.17739394656E+03  0.17739394656E+03  0.00000000000E+00 0. -1.
         23    2    1    2    0    0 -0.82917238558E+02  0.52659079038E+02  0.82898869629E+02  0.15949784691E+03  0.94440952594E+02 0.  0.
         23    2    1    2    0    0  0.82917238558E+02 -0.52659079038E+02 -0.93630460937E+02  0.18455845490E+03  0.12508762131E+03 0.  0.
          5    1    4    4  502    0  0.69701981679E+02 -0.83593100814E+02 -0.30839584493E+02  0.11320214276E+03  0.41800000000E+01 0. -1.
         -5    1    4    4    0  502  0.13215256879E+02  0.30934021776E+02 -0.62790876444E+02  0.71356312140E+02  0.41800000000E+01 0. -1.
        -11    1    3    3    0    0 -0.45320357011E+02  0.77615134745E+02  0.65150198233E+02  0.11100717198E+03  0.00000000000E+00 0. -1.
         11    1    3    3    0    0 -0.37596881547E+02 -0.24956055708E+02  0.17748671396E+02  0.48490674927E+02  0.00000000000E+00 0.  1.
</event>
<event>
 8    1  0.1790275E-005  0.3298559E+03  0.7561462E-02  0.1071201E+00
          2   -1    0    0  501    0  0.00000000000E+00  0.00000000000E+00  0.16139138144E+04  0.16139138144E+04  0.00000000000E+00 0. -1.
         -2   -1    0    0    0  501 -0.00000000000E+00 -0.00000000000E+00 -0.69500980869E+02  0.69500980869E+02  0.00000000000E+00 0.  1.
         23    2    1    2    0    0  0.14147606567E+03 -0.27944768860E+03  0.79702161943E+03  0.86344746595E+03  0.11041547356E+03 0.  0.
         23    2    1    2    0    0 -0.14147606567E+03  0.27944768860E+03  0.74739121411E+03  0.81996732933E+03  0.12508519661E+03 0.  0.
          5    1    4    4  502    0  0.12924143861E+02  0.97961414717E+02  0.22621217864E+03  0.24688639985E+03  0.41800000000E+01 0.  1.
         -5    1    4    4    0  502 -0.15440020953E+03  0.18148627388E+03  0.52117903548E+03  0.57308092948E+03  0.41800000000E+01 0.  1.
        -11    1    3    3    0    0  0.16221058668E+02 -0.11314722455E+03  0.38802755888E+03  0.40451304506E+03  0.00000000000E+00 0.  1.
         11    1    3    3    0    0  0.12525500700E+03 -0.16630046405E+03  0.40899406054E+03  0.45893442090E+03  0.00000000000E+00 0. -1.
</event>
<event>
 8    1  0.1790275E-005  0.1027413E+03  0.7561462E-02  0.1274635E+00
         -3   -1    0    0    0  501 -0.00000000000E+00  0.00000000000E+00  0.33409059316E+03  0.33409059316E+03  0.00000000000E+00 0.  1.
          3   -1    0    0  501    0  0.00000000000E+00 -0.00000000000E+00 -0.68848178980E+02  0.68848178980E+02  0.00000000000E+00 0. -1.
         23    2    1    2    0    0  0.78897828761E+02  0.18579765751E+02  0.21189765716E+03  0.24462565057E+03  0.91493260555E+02 0.  0.
         23    2    1    2    0    0 -0.78897828761E+02 -0.18579765751E+02  0.53344757017E+02  0.15831312157E+03  0.12508919330E+03 0.  0.
          5    1    4    4  502    0 -0.97734186197E+02 -0.55064681907E+01 -0.22780224137E+01  0.98004867888E+02  0.41800000000E+01 0. -1.
         -5    1    4    4    0  502  0.18836357437E+02 -0.13073297560E+02  0.55622779430E+02  0.60308253682E+02  0.41800000000E+01 0. -1.
        -11    1    3    3    0    0  0.11939970970E+02 -0.53613032337E+01 -0.67350348290E+01  0.14719618653E+02  0.00000000000E+00 0. -1.
         11    1    3    3    0    0  0.66957857790E+02  0.23941068984E+02  0.21863269199E+03  0.22990603192E+03  0.00000000000E+00 0.  1.
</event>
<event>
 8    1  0.1790275E-005  0.8229443E+02  0.7561462E-02  0.1322663E+00
          3   -1    0    0  501    0  0.00000000000E+00  0.00000000000E+00  0.49939930514E+02  0.49939930514E+02  0.00000000000E+00 0. -1.
         -3   -1    0    0    0  501 -0.00000000000E+00 -0.00000000000E+00 -0.34956301730E+03  0.34956301730E+03  0.00000000000E+00 0.  1.
         23    2    1    2    0    0  0.71402661578E+02  0.23021907084E+02 -0.15652918745E+03  0.19517201824E+03  0.89232179703E+02 0.  0.
         23    2    1    2    0    0 -0.71402661578E+02 -0.23021907084E+02 -0.14309389934E+03  0.20433092958E+03  0.12508763515E+03 0.  0.
          5    1    4    4  502    0 -0.53307867599E+02 -0.29623927200E+02 -0.16434565144E+03  0.17534614726E+03  0.41800000000E+01 0.  1.
         -5    1    4    4    0  502 -0.18094793979E+02  0.66020201158E+01  0.21251752100E+02  0.28984782319E+02  0.41800000000E+01 0.  1.
        -11    1    3    3    0    0  0.15200943733E+02  0.22974440312E+02  0.13567687330E+01  0.27581414384E+02  0.00000000000E+00 0. -1.
         11    1    3    3    0    0  0.56201717845E+02  0.47466772405E-01 -0.15788595618E+03  0.16759060386E+03  0.00000000000E+00 0.  1.
</event>
<event>
 8    1  0.1790275E-005  0.9388275E+02  0.7561462E-02  0.1293712E+00
         -2   -1    0    0    0  501 -0.00000000000E+00  0.00000000000E+00  0.19851860359E+02  0.19851860359E+02  0.00000000000E+00 0.  1.
          2   -1    0    0  501    0  0.00000000000E+00 -0.00000000000E+00 -0.60447536707E+03  0.60447536707E+03  0.00000000000E+00 0. -1.
         23    2    1    2    0    0 -0.14982746189E+02 -0.21709425520E+01 -0.22843243743E+03  0.24650837815E+03  0.91410099848E+02 0.  0.
         23    2    1    2    0    0  0.14982746189E+02  0.21709425520E+01 -0.35619106928E+03  0.37781884928E+03  0.12508320973E+03 0.  0.
          5    1    4    4  502    0 -0.44426005784E+02 -0.43944174254E+01 -0.26459015968E+03  0.26836245247E+03  0.41800000000E+01 0.  1.
         -5    1    4    4    0  502  0.59408751973E+02  0.65653599773E+01 -0.91600909597E+02  0.10945639681E+03  0.41800000000E+01 0.  1.
        -11    1    3    3    0    0  0.17060915430E+02  0.31939241665E+02 -0.48125879700E+02  0.60226989717E+02  0.00000000000E+00 0.  1.
         11    1    3    3    0    0 -0.32043661618E+02 -0.34110184217E+02 -0.18030655772E+03  0.18628138843E+03  0.00000000000E+00 0. -1.
</event>
<event>
 8    1  0.1790275E-005  0.1159687E+03  0.7561462E-02  0.1249900E+00
         -2   -1    0    0    0  501 -0.00000000000E+00  0.00000000000E+00  0.71948190993E+03  0.71948190993E+03  0.00000000000E+00 0.  1.
          2   -1    0    0  501    0  0.00000000000E+00 -0.00000000000E+00 -0.23566778621E+02  0.23566778621E+02  0.00000000000E+00 0. -1.
         23    2    1    2    0    0  0.54769473891E+02 -0.39961642672E+02  0.38604875080E+03  0.40207709229E+03  0.89642188699E+02 0.  0.
         23    2    1    2    0    0 -0.54769473891E+02  0.39961642672E+02  0.30986638051E+03  0.34097159626E+03  0.12509127680E+03 0.  0.
          5    1    4    4  502    0 -0.68626513154E+02  0.62400531577E+02  0.29729825883E+03  0.31145971128E+03  0.41800000000E+01 0. -1.
         -5    1    4    4    0  502  0.13857039263E+02 -0.22438888905E+02  0.12568121677E+02  0.29511884977E+02  0.41800000000E+01 0. -1.
        -11    1    3    3    0    0  0.44391866120E+02  0.22012424077E+02  0.17243130255E+03  0.17940941639E+03  0.00000000000E+00 0.  1.
         11    1    3    3    0    0  0.10377607771E+02 -0.61974066750E+02  0.21361744825E+03  0.22266767590E+03  0.00000000000E+00 0. -1.
</event>
<event>
 7    1  0.1790275E-005  0.1423121E+03  0.7561462E-02  0.1210251E+00
         -3   -1    0    0    0  501 -0.00000000000E+00  0.00000000000E+00  0.62739581846E+02  0.62739581846E+02  0.00000000000E+00 0.  1.
          3   -1    0    0  501    0  0.00000000000E+00 -0.00000000000E+00 -0.76580583697E+03  0.76580583697E+03  0.00000000000E+00 0. -1.
         23    2    1    2    0    0  0.12268229128E+02 -0.31095818319E+02 -0.52405836180E+01  0.10166844823E+03  0.95872573168E+02 0.  0.
          5    1    1    2  502    0 -0.54357146418E+01  0.11331776447E+03 -0.30461342051E+03  0.32508040711E+03  0.41800000000E+01 0. -1.
         -5    1    1    2    0  502 -0.68325144858E+01 -0.82221946147E+02 -0.39321225100E+03  0.40179656347E+03  0.41800000000E+01 0.  1.
        -11    1    3    3    0    0  0.30444564122E+02 -0.52326957268E+02 -0.26961627534E+02  0.66271496895E+02  0.00000000000E+00 0.  1.
         11    1    3    3    0    0 -0.18176334994E+02  0.21231138949E+02  0.21721043916E+02  0.35396951334E+02  0.00000000000E+00 0. -1.
</event>
<event>
 8    1  0.1790275E-005  0.1337494E+03  0.7561462E-02  0.1221996E+00
         -1   -1    0    0    0  501 -0.00000000000E+00  0.00000000000E+00  0.37474115527E+02  0.37474115527E+02  0.00000000000E+00 0.  1.
          1   -1    0    0  501    0  0.00000000000E+00 -0.00000000000E+00 -0.79203930394E+03  0.79203930394E+03  0.00000000000E+00 0. -1.
         23    2    1    2    0    0  0.98217270853E+02 -0.59468618271E+02 -0.17458643377E+03  0.22519308492E+03  0.83954474494E+02 0.  0.
         23    2    1    2    0    0 -0.98217270853E+02  0.59468618271E+02 -0.57997875464E+03  0.60432033455E+03  0.12507822374E+03 0.  0.
          5    1    4    4  502    0 -0.19920496449E+01  0.38486336754E+02 -0.41086909382E+02  0.56486926816E+02  0.41800000000E+01 0. -1.
         -5    1    4    4    0  502 -0.96225221209E+02  0.20982281517E+02 -0.53889184526E+03  0.54783340773E+03  0.41800000000E+01 0. -1.
        -11    1    3    3    0    0  0.32010883508E+02 -0.55207316374E+02 -0.13127186973E+03  0.14596180399E+03  0.00000000000E+00 0. -1.
         11    1    3    3    0    0  0.66206387345E+02 -0.42613018967E+01 -0.43314564045E+02  0.79231280928E+02  0.00000000000E+00 0.  1.
</event>
<event>
 8    1  0.1790275E-005  0.1750233E+03  0.7561462E-02  0.1172708E+00
          2   -1    0    0  501    0  0.00000000000E+00  0.00000000000E+00  0.15679130386E+03  0.15679130386E+03  0.00000000000E+00 0. -1.
         -2   -1    0    0    0  501 -0.00000000000E+00 -0.00000000000E+00 -0.23148227020E+03  0.23148227020E+03  0.00000000000E+00 0.  1.
         23    2    1    2    0    0 -0.14840801855E+03  0.43022942255E+02 -0.59585308022E+02  0.18889513450E+03  0.90857302277E+02 0.  0.
         23    2    1    2    0    0  0.14840801855E+03 -0.43022942255E+02 -0.15105658317E+02  0.19937843955E+03  0.12509063800E+03 0.  0.
          5    1    4    4  502    0 -0.69369971978E+01 -0.38684186875E+02  0.12567366217E+02  0.41472874725E+02  0.41800000000E+01 0. -1.
         -5    1    4    4    0  502  0.15534501575E+03 -0.43387553803E+01 -0.27673024535E+02  0.15790556483E+03  0.41800000000E+01 0. -1.
        -11    1    3    3    0    0 -0.12338067624E+03  0.30588788487E+02 -0.45807305240E+01  0.12719846045E+03  0.00000000000E+00 0. -1.
         11    1    3    3    0    0 -0.25027342315E+02  0.12434153769E+02 -0.55004577498E+02  0.61696674052E+02  0.00000000000E+00 0.  1.
</event>
<event>
 8    1  0.1790275E-005  0.1544905E+03  0.7561462E-02  0.1195061E+00
         -2   -1    0    0    0  501 -0.00000000000E+00  0.00000000000E+00  0.36787714910E+02  0.36787714910E+02  0.00000000000E+00 0.  1.
          2   -1    0    0  501    0  0.00000000000E+00 -0.00000000000E+00 -0.88759756179E+03  0.88759756179E+03  0.00000000000E+00 0. -1.
         23    2    1    2    0    0  0.13458414990E+03 -0.22375527235E+02 -0.30603876131E+03  0.34902717357E+03  0.97707148342E+02 0.  0.
         23    2    1    2    0    0 -0.13458414990E+03  0.22375527235E+02 -0.54477108557E+03  0.57535810314E+03  0.12509138080E+03 0.  0.
          5    1    4    4  502    0 -0.11126948387E+03 -0.29601698010E+02 -0.25231393293E+03  0.27737511012E+03  0.41800000000E+01 0.  1.
         -5    1    4    4    0  502 -0.23314666034E+02  0.51977225244E+02 -0.29245715264E+03  0.29798299302E+03  0.41800000000E+01 0.  1.
        -11    1    3    3    0    0  0.86791409672E+02 -0.18128214023E+02 -0.28150408123E+03  0.29513713539E+03  0.00000000000E+00 0. -1.
         11    1    3    3    0    0  0.47792740228E+02 -0.42473132120E+01 -0.24534680088E+02  0.53890038180E+02  0.00000000000E+00 0.  1.
</event>
<event>
 8    1  0.1790275E-005  0.2412144E+03  0.7561462E-02  0.1118986E+00
          2   -1    0    0  501    0  0.00000000000E+00  0.00000000000E+00  0.46510235931E+03  0.46510235931E+03  0.00000000000E+00 0. -1.
         -2   -1    0    0    0  501 -0.00000000000E+00 -0.00000000000E+00 -0.14939863167E+03  0.14939863167E+03  0.00000000000E+00 0.  1.
         23    2    1    2    0    0  0.47273208817E+02 -0.23436545714E+03  0.13174968394E+03  0.28792916043E+03  0.91560354058E+02 0.  0.
         23    2    1    2    0    0 -0.47273208817E+02  0.23436545714E+03  0.18395404370E+03  0.32657183054E+03  0.12509255189E+03 0.  0.
          5    1    4    4  502    0 -0.98327670426E+01  0.15469842936E+03  0.18107598940E+03  0.23839939952E+03  0.41800000000E+01 0.  1.
         -5    1    4    4    0  502 -0.37440441774E+02  0.79667027785E+02  0.28780542961E+01  0.88172431025E+02  0.41800000000E+01 0.  1.
        -11    1    3    3    0    0  0.33691347881E+02 -0.14626624299E+03  0.30740937399E+02  0.15321202953E+03  0.00000000000E+00 0.  1.
         11    1    3    3    0    0  0.13581860935E+02 -0.88099214156E+02  0.10100874654E+03  0.13471713091E+03  0.00000000000E+00 0. -1.
</event>
<event>
 8    1  0.1790275E-005  0.1425190E+03  0.7561462E-02  0.1209979E+00
          2   -1    0    0  501    0  0.00000000000E+00  0.00000000000E+00  0.14162725286E+04  0.14162725286E+04  0.00000000000E+00 0. -1.
         -2   -1    0    0    0  501 -0.00000000000E+00 -0.00000000000E+00 -0.23126283619E+02  0.23126283619E+02  0.00000000000E+00 0.  1.
         23    2    1    2    0    0 -0.11406010091E+03  0.73372416809E+02  0.45794470364E+03  0.48617154266E+03  0.90863629330E+02 0.  0.
         23    2    1    2    0    0  0.11406010091E+03 -0.73372416809E+02  0.93520154137E+03  0.95322726958E+03  0.12508831415E+03 0.  0.
          5    1    4    4  502    0  0.41113093016E+02 -0.19073980536E+00  0.62248491107E+03  0.62385515924E+03  0.41800000000E+01 0.  1.
         -5    1    4    4    0  502  0.72947007889E+02 -0.73181677003E+02  0.31271663029E+03  0.32937211034E+03  0.41800000000E+01 0.  1.
        -11    1    3    3    0    0 -0.84908730745E+01  0.20586540348E+02  0.12887293517E+02  0.25729028417E+02  0.00000000000E+00 0.  1.
         11    1    3    3    0    0 -0.10556922783E+03  0.52785876460E+02  0.44505741013E+03  0.46044251425E+03  0.00000000000E+00 0. -1.
</event>
<event>
 8    1  0.1790275E-005  0.1091812E+03  0.7561462E-02  0.1262094E+00
          3   -1    0    0  501    0  0.00000000000E+00  0.00000000000E+00  0.23032682032E+03  0.23032682032E+03  0.00000000000E+00 0. -1.
         -3   -1    0    0    0  501 -0.00000000000E+00 -0.00000000000E+00 -0.23666574034E+03  0.23666574034E+03  0.00000000000E+00 0.  1.
         23    2    1    2    0    0  0.34854834084E+02  0.18592490022E+02 -0.20586447502E+03  0.22820930096E+03  0.90215091997E+02 0.  0.
         23    2    1    2    0    0 -0.34854834084E+02 -0.18592490022E+02  0.19952555500E+03  0.23878325971E+03  0.12508580204E+03 0.  0.
          5    1    4    4  502    0  0.27734914527E+02 -0.52212427335E+02  0.10333724276E+03  0.11912775156E+03  0.41800000000E+01 0. -1.
         -5    1    4    4    0  502 -0.62589748610E+02  0.33619937313E+02  0.96188312249E+02  0.11965550814E+03  0.41800000000E+01 0. -1.
        -11    1    3    3    0    0  0.47038854633E+02  0.41011456963E+02 -0.18502072572E+03  0.19526203521E+03  0.00000000000E+00 0.  1.
         11    1    3    3    0    0 -0.12184020549E+02 -0.22418966941E+02 -0.20843749296E+02  0.32947265747E+02  0.00000000000E+00 0. -1.
</event>
<event>
 8    1  0.1790275E-005  0.1138303E+03  0.7561462E-02  0.1253637E+00
          2   -1    0    0  501    0  0.00000000000E+00  0.00000000000E+00  0.11631239759E+04  0.11631239759E+04  0.00000000000E+00 0. -1.
         -2   -1    0    0    0  501 -0.00000000000E+00 -0.00000000000E+00 -0.15021256748E+02  0.15021256748E+02  0.00000000000E+00 0.  1.
         23    2    1    2    0    0  0.23452534298E+02  0.38222613185E+02  0.24185380546E+03  0.26220516358E+03  0.90814619254E+02 0.  0.
         23    2    1    2    0    0 -0.23452534298E+02 -0.38222613185E+02  0.90624891373E+03  0.91594006911E+03  0.12509247391E+03 0.  0.
          5    1    4    4  502    0  0.19562483775E+02  0.36945934269E+02  0.41266432957E+03  0.41479755801E+03  0.41800000000E+01 0.  1.
         -5    1    4    4    0  502 -0.43015018073E+02 -0.75168547454E+02  0.49358458417E+03  0.50114251110E+03  0.41800000000E+01 0.  1.
        -11    1    3    3    0    0 -0.64905941850E+01  0.60983654960E+02  0.12132994048E+03  0.13594884494E+03  0.00000000000E+00 0.  1.
         11    1    3    3    0    0  0.29943128483E+02 -0.22761041775E+02  0.12052386498E+03  0.12625631864E+03  0.00000000000E+00 0. -1.
</event>
<event>
 8    1  0.1790275E-005  0.1596207E+03  0.7561462E-02  0.1189126E+00
          2   -1    0    0  501    0  0.00000000000E+00  0.00000000000E+00  0.24596707601E+04  0.24596707601E+04  0.00000000000E+00 0. -1.
         -2   -1    0    0    0  501 -0.00000000000E+00 -0.00000000000E+00 -0.22277368010E+02  0.22277368010E+02  0.00000000000E+00 0.  1.
         23    2    1    2    0    0  0.56409498445E+02 -0.13641870637E+03  0.40274325903E+03  0.43811787531E+03  0.89179846414E+02 0.  0.
         23    2    1    2    0    0 -0.56409498445E+02  0.13641870637E+03  0.20346501331E+04  0.20438302528E+04  0.12509533702E+03 0.  0.
          5    1    4    4  502    0 -0.45003209684E+02  0.14101891710E+03  0.20139827997E+04  0.20194196725E+04  0.41800000000E+01 0.  1.
         -5    1    4    4    0  502 -0.11406288761E+02 -0.46002107252E+01  0.20667333412E+02  0.24410580337E+02  0.41800000000E+01 0.  1.
        -11    1    3    3    0    0  0.40614745633E+02 -0.29775215470E+02  0.57506878721E+02  0.76440579010E+02  0.00000000000E+00 0.  1.
         11    1    3    3    0    0  0.15794752812E+02 -0.10664349090E+03  0.34523638031E+03  0.36167729630E+03  0.00000000000E+00 0. -1.
</event>
<event>
 8    1  0.1790275E-005  0.1405580E+03  0.7561462E-02  0.1212580E+00
         -2   -1    0    0    0  501 -0.00000000000E+00  0.00000000000E+00  0.20071569988E+02  0.20071569988E+02  0.00000000000E+00 0.  1.
          2   -1    0    0  501    0  0.00000000000E+00 -0.00000000000E+00 -0.10966294117E+04  0.10966294117E+04  0.00000000000E+00 0. -1.
         23    2    1    2    0    0 -0.30362454906E+02  0.93213767465E+02 -0.59724571135E+03  0.61172753696E+03  0.88867624205E+02 0.  0.
         23    2    1    2    0    0  0.30362454906E+02 -0.93213767465E+02 -0.47931213039E+03  0.50497344476E+03  0.12508947382E+03 0.  0.
          5    1    4    4  502    0 -0.26376274180E+02 -0.89931644363E+02 -0.36988874561E+03  0.38160000659E+03  0.41800000000E+01 0. -1.
         -5    1    4    4    0  502  0.56738729086E+02 -0.32821231014E+01 -0.10942338478E+03  0.12337343818E+03  0.41800000000E+01 0. -1.
        -11    1    3    3    0    0  0.30227985392E+02  0.35657099393E+02 -0.16585635376E+03  0.17231799071E+03  0.00000000000E+00 0.  1.
         11    1    3    3    0    0 -0.60590440298E+02  0.57556668072E+02 -0.43138935759E+03  0.43940954625E+03  0.00000000000E+00 0. -1.
</event>
<event>
 8    1  0.1790275E-005  0.1006830E+03  0.7561462E-02  0.1278866E+00
          1   -1    0    0  501    0  0.00000000000E+00  0.00000000000E+00  0.60600758491E+03  0.60600758491E+03  0.00000000000E+00 0. -1.
         -1   -1    0    0    0  501 -0.00000000000E+00 -0.00000000000E+00 -0.21005170727E+02  0.21005170727E+02  0.00000000000E+00 0.  1.
         23    2    1    2    0    0  0.14908527389E+02  0.10586914525E+01  0.17235933792E+03  0.19556708033E+03  0.91188576710E+02 0.  0.
         23    2    1    2    0    0 -0.14908527389E+02 -0.10586914525E+01  0.41264307626E+03  0.43144567531E+03  0.12509067647E+03 0.  0.
          5    1    4    4  502    0 -0.38401272942E+02 -0.52727058071E+02  0.16793484979E+03  0.18020651095E+03  0.41800000000E+01 0.  1.
         -5    1    4    4    0  502  0.23492745553E+02  0.51668366619E+02  0.24470822647E+03  0.25123916436E+03  0.41800000000E+01 0.  1.
        -11    1    3    3    0    0 -0.75531915583E+01  0.36422256941E+02  0.31930541622E+02  0.49022351960E+02  0.00000000000E+00 0.  1.
         11    1    3    3    0    0  0.22461718948E+02 -0.35363565489E+02  0.14042879630E+03  0.14654472837E+03  0.00000000000E+00 0. -1.
</event>
<event>
 8    1  0.1790275E-005  0.1145381E+03  0.7561462E-02  0.1252389E+00
          1   -1    0    0  501    0  0.00000000000E+00  0.00000000000E+00  0.43925094597E+03  0.43925094597E+03  0.00000000000E+00 0. -1.
         -1   -1    0    0    0  501 -0.00000000000E+00 -0.00000000000E+00 -0.33760940612E+02  0.33760940612E+02  0.00000000000E+00 0.  1.
         23    2    1    2    0    0 -0.22433234927E+02  0.29463756463E+02  0.10443767676E+03  0.14490862177E+03  0.93380497759E+02 0.  0.
         23    2    1    2    0    0  0.22433234927E+02 -0.29463756463E+02  0.30105232860E+03  0.32810326481E+03  0.12509150592E+03 0.  0.
          5    1    4    4  502    0  0.49763469011E+02  0.34324293057E+02  0.12847442946E+03  0.14204827125E+03  0.41800000000E+01 0. -1.
         -5    1    4    4    0  502 -0.27330234084E+02 -0.63788049520E+02  0.17257789914E+03  0.18605499356E+03  0.41800000000E+01 0. -1.
        -11    1    3    3    0    0  0.11530861430E+02  0.55169510330E+02  0.71618860355E+02  0.91136692907E+02  0.00000000000E+00 0. -1.
         11    1    3    3    0    0 -0.33964096357E+02 -0.25705753868E+02  0.32818816403E+02  0.53771928860E+02  0.00000000000E+00 0.  1.
</event>
<event>
 8    1  0.1790275E-005  0.7577583E+02  0.7561462E-02  0.1341485E+00
          2   -1    0    0  501    0  0.00000000000E+00  0.00000000000E+00  0.70421942713E+03  0.70421942713E+03  0.00000000000E+00 0. -1.
         -2   -1    0    0    0  501 -0.00000000000E+00 -0.00000000000E+00 -0.60453355142E+02  0.60453355142E+02  0.00000000000E+00 0.  1.
         23    2    1    2    0    0 -0.26933570741E+01 -0.22043914017E+02 -0.45836750270E+01  0.10617135737E+03  0.10372154420E+03 0.  0.
         23    2    1    2    0    0  0.26933570741E+01  0.22043914017E+02  0.64834974701E+03  0.65850142490E+03  0.11302010362E+03 0.  0.
          5    1    4    4  502    0 -0.44860171167E+02  0.61690407259E+01  0.49557268417E+03  0.49765474952E+03  0.41800000000E+01 0. -1.
         -5    1    4    4    0  502  0.47553528241E+02  0.15874873291E+02  0.15277706284E+03  0.16084667538E+03  0.41800000000E+01 0.  1.
        -11    1    3    3    0    0  0.11767961340E+02 -0.34644534898E+02 -0.47033497583E+02  0.59589249092E+02  0.00000000000E+00 0.  1.
         11    1    3    3    0    0 -0.14461318414E+02  0.12600620881E+02  0.42449822556E+02  0.46582108281E+02  0.00000000000E+00 0. -1.
</event>
<event>
 8    1  0.1790275E-005  0.7506290E+02  0.7561462E-02  0.1343676E+00
         -1   -1    0    0    0  501 -0.00000000000E+00  0.00000000000E+00  0.97371994878E+02  0.97371994878E+02  0.00000000000E+00 0.  1.
          1   -1    0    0  501    0  0.00000000000E+00 -0.00000000000E+00 -0.13367782995E+03  0.13367782995E+03  0.00000000000E+00 0. -1.
         23    2    1    2    0    0 -0.13865880459E+02  0.19673090090E+02  0.13586805187E+02  0.94241958053E+02  0.90098014783E+02 0.  0.
         23    2    1    2    0    0  0.13865880459E+02 -0.19673090090E+02 -0.49892640262E+02  0.13680786678E+03  0.12509126167E+03 0.  0.
          5    1    4    4  502    0  0.16629217808E+02 -0.52048948311E+02 -0.76845733483E+02  0.94384125041E+02  0.41800000000E+01 0.  1.
         -5    1    4    4    0  502 -0.27633373497E+01  0.32375858221E+02  0.26953093221E+02  0.42423741737E+02  0.41800000000E+01 0.  1.
        -11    1    3    3    0    0 -0.34652253313E+02  0.22890362110E+02  0.41884237187E+02  0.58983359195E+02  0.00000000000E+00 0.  1.
         11    1    3    3    0    0  0.20786372854E+02 -0.32172720200E+01 -0.28297432000E+02  0.35258598858E+02  0.00000000000E+00 0. -1.
</event>
<event>
 8    1  0.1790275E-005  0.8640741E+02  0.7561462E-02  0.1311793E+00
          1   -1    0    0  501    0  0.00000000000E+00  0.00000000000E+00  0.12151946818E+04  0.12151946818E+04  0.00000000000E+00 0. -1.
         -1   -1    0    0    0  501 -0.00000000000E+00 -0.00000000000E+00 -0.18928124671E+02  0.18928124671E+02  0.00000000000E+00 0.  1.
         23    2    1    2    0    0  0.80262909531E+02  0.18697670231E+02  0.28833298201E+03  0.31391511903E+03  0.92817325539E+02 0.  0.
         23    2    1    2    0    0 -0.80262909531E+02 -0.18697670231E+02  0.90793357509E+03  0.92020768741E+03  0.12508826357E+03 0.  0.
          5    1    4    4  502    0 -0.77206356452E+02 -0.23070354434E+02  0.25986272624E+03  0.27210139952E+03  0.41800000000E+01 0. -1.
         -5    1    4    4    0  502 -0.30565530792E+01  0.43726842031E+01  0.64807084884E+03  0.64810628789E+03  0.41800000000E+01 0. -1.
        -11    1    3    3    0    0  0.68902972586E+02  0.23798069607E+02  0.29197784951E+03  0.30094024715E+03  0.00000000000E+00 0. -1.
         11    1    3    3    0    0  0.11359936945E+02 -0.51003993765E+01 -0.36448675002E+01  0.12974871880E+02  0.00000000000E+00 0.  1.
</event>
<event>
 8    1  0.1790275E-005  0.1513425E+03  0.7561462E-02  0.1198833E+00
          2   -1    0    0  501    0  0.00000000000E+00  0.00000000000E+00  0.66059058349E+03  0.66059058349E+03  0.00000000000E+00 0. -1.
         -2   -1    0    0    0  501 -0.00000000000E+00 -0.00000000000E+00 -0.45251565323E+02  0.45251565323E+02  0.00000000000E+00 0.  1.
         23    2    1    2    0    0 -0.95486474317E+02  0.60482041136E+02  0.13643144014E+03  0.19812628966E+03  0.88683395954E+02 0.  0.
         23    2    1    2    0    0  0.95486474317E+02 -0.60482041136E+02  0.47890757803E+03  0.50771585916E+03  0.12508869360E+03 0.  0.
          5    1    4    4  502    0  0.45183668311E+01 -0.68770811961E+02  0.28624916733E+03  0.29445865315E+03  0.41800000000E+01 0. -1.
         -5    1    4    4    0  502  0.90968107486E+02  0.82887708246E+01  0.19265841070E+03  0.21325720601E+03  0.41800000000E+01 0. -1.
        -11    1    3    3    0    0 -0.50780765310E+02 -0.16314864872E+02  0.65213238678E+02  0.84247418003E+02  0.00000000000E+00 0. -1.
         11    1    3    3    0    0 -0.44705709007E+02  0.76796906008E+02  0.71218201461E+02  0.11387887166E+03  0.00000000000E+00 0.  1.
</event>
<event>
 8    1  0.1790275E-005  0.1319402E+03  0.7561462E-02  0.1224605E+00
         -1   -1    0    0    0  501 -0.00000000000E+00  0.00000000000E+00  0.21846346621E+03  0.21846346621E+03  0.00000000000E+00 0. -1.
          1   -1    0    0  501    0  0.00000000000E+00 -0.00000000000E+00 -0.86458924696E+02  0.86458924696E+02  0.00000000000E+00 0.  1.
         23    2    1    2    0    0  0.77920648146E+02 -0.16741411614E+02  0.89614142058E+02  0.15066197980E+03  0.91194492326E+02 0.  0.
         23    2    1    2    0    0 -0.77920648146E+02  0.16741411614E+02  0.42390399461E+02  0.15426041111E+03  0.12508967263E+03 0.  0.
          5    1    4    4  502    0  0.64610165161E+01 -0.43649805807E+02  0.95346711196E+01  0.45336879411E+02  0.41800000000E+01 0. -1.
         -5    1    4    4    0  502 -0.84381664662E+02  0.60391217421E+02  0.32855728341E+02  0.10892353170E+03  0.41800000000E+01 0. -1.
        -11    1    3    3    0    0 -0.18278388553E+02 -0.20491631527E+01  0.33792734282E+02  0.38473984041E+02  0.00000000000E+00 0. -1.
         11    1    3    3    0    0  0.96199036699E+02 -0.14692248461E+02  0.55821407776E+02  0.11218799576E+03  0.00000000000E+00 0.  1.
</event>
<event>
 8    1  0.1790275E-005  0.1230218E+03  0.7561462E-02  0.1238194E+00
          1   -1    0    0  501    0  0.00000000000E+00  0.00000000000E+00  0.76348844681E+03  0.76348844681E+03  0.00000000000E+00 0. -1.
         -1   -1    0    0    0  501 -0.00000000000E+00 -0.00000000000E+00 -0.20593857988E+02  0.20593857988E+02  0.00000000000E+00 0.  1.
         23    2    1    2    0    0 -0.38302724458E+02  0.46606435669E+02  0.29292178380E+03  0.31315486246E+03  0.92863006155E+02 0.  0.
         23    2    1    2    0    0  0.38302724458E+02 -0.46606435669E+02  0.44997280502E+03  0.47092744233E+03  0.12513141947E+03 0.  0.
          5    1    4    4  502    0  0.62907736411E+02  0.18754477174E+02  0.16833966856E+03  0.18073414211E+03  0.41800000000E+01 0.  1.
         -5    1    4    4    0  502 -0.24605011953E+02 -0.65360912843E+02  0.28163313646E+03  0.29019330022E+03  0.41800000000E+01 0.  1.
        -11    1    3    3    0    0 -0.61692157803E+02  0.41516851076E+01  0.15030676189E+03  0.16252778683E+03  0.00000000000E+00 0. -1.
         11    1    3    3    0    0  0.23389433345E+02  0.42454750562E+02  0.14261502192E+03  0.15062707563E+03  0.00000000000E+00 0.  1.
</event>
<event>
 8    1  0.1790275E-005  0.1755622E+03  0.7561462E-02  0.1172168E+00
         -2   -1    0    0    0  501 -0.00000000000E+00  0.00000000000E+00  0.32397765728E+02  0.32397765728E+02  0.00000000000E+00 0.  1.
          2   -1    0    0  501    0  0.00000000000E+00 -0.00000000000E+00 -0.15524878397E+04  0.15524878397E+04  0.00000000000E+00 0. -1.
         23    2    1    2    0    0  0.64940926615E+02 -0.13776668922E+03 -0.33026239799E+03  0.37884517166E+03  0.10608217549E+03 0.  0.
         23    2    1    2    0    0 -0.64940926615E+02  0.13776668922E+03 -0.11898276760E+04  0.12060404338E+04  0.12508654901E+03 0.  0.
          5    1    4    4  502    0 -0.11311865862E+02 -0.88204520400E+01 -0.16071057225E+02  0.21943335294E+02  0.41800000000E+01 0.  1.
         -5    1    4    4    0  502 -0.53629060752E+02  0.14658714126E+03 -0.11737566187E+04  0.11840970985E+04  0.41800000000E+01 0.  1.
        -11    1    3    3    0    0  0.89337604377E+02 -0.92390187212E+02 -0.27348677625E+03  0.30217903804E+03  0.00000000000E+00 0.  1.
         11    1    3    3    0    0 -0.24396677762E+02 -0.45376502003E+02 -0.56775621739E+02  0.76666133617E+02  0.00000000000E+00 0. -1.
</event>
<event>
 8    1  0.1790275E-005  0.1349298E+03  0.7561462E-02  0.1220319E+00
          2   -1    0    0  501    0  0.00000000000E+00  0.00000000000E+00  0.13553267781E+04  0.13553267781E+04  0.00000000000E+00 0. -1.
         -2   -1    0    0    0  501 -0.00000000000E+00 -0.00000000000E+00 -0.16343224389E+02  0.16343224389E+02  0.00000000000E+00 0.  1.
         23    2    1    2    0    0  0.96355728038E+02 -0.23099379714E+02  0.48166913702E+03  0.49963080090E+03  0.88361597884E+02 0.  0.
         23    2    1    2    0    0 -0.96355728038E+02  0.23099379714E+02  0.85731441673E+03  0.87203920163E+03  0.12508538035E+03 0.  0.
          5    1    4    4  502    0 -0.11545465291E+03  0.21141120968E+02  0.83067716462E+03  0.83893906101E+03  0.41800000000E+01 0.  1.
         -5    1    4    4    0  502  0.19098924876E+02  0.19582587460E+01  0.26637252110E+02  0.33100140615E+02  0.41800000000E+01 0.  1.
        -11    1    3    3    0    0 -0.17098196136E+02 -0.66363518546E+00  0.61951724942E+02  0.64271338449E+02  0.00000000000E+00 0.  1.
         11    1    3    3    0    0  0.11345392417E+03 -0.22435744528E+02  0.41971741208E+03  0.43535946245E+03  0.00000000000E+00 0. -1.
</event>
