<event>
 8    1  0.7026811E-009  0.2804063E+03  0.7561462E-02  0.1095467E+00
         -2   -1    0    0    0  501 -0.00000000000E+00  0.00000000000E+00  0.50244736755E+02  0.50244736755E+02  0.00000000000E+00 0.  1.
          2   -1    0    0  501    0  0.00000000000E+00 -0.00000000000E+00 -0.19740481438E+04  0.19740481438E+04  0.00000000000E+00 0. -1.
         25    2    1    2    0    0  0.20479708689E+03 -0.17562782046E+03 -0.59361336139E+03  0.66393603911E+03  0.12508902065E+03 0.  0.
         23    2    1    2    0    0 -0.20479708689E+03  0.17562782046E+03 -0.13301900456E+04  0.13603568414E+04  0.91532510083E+02 0.  0.
          5    1    3    3  502    0  0.62192880527E+02 -0.10732995613E+03 -0.36826346892E+03  0.38861694355E+03  0.41800000000E+01 0. -1.
         -5    1    3    3    0  502  0.14260420636E+03 -0.68297864329E+02 -0.22534989248E+03  0.27531909557E+03  0.41800000000E+01 0. -1.
        -11    1    4    4    0    0 -0.77762543385E+02  0.11225900296E+03 -0.79577966244E+03  0.80741214262E+03  0.00000000000E+00 0. -1.
         11    1    4    4    0    0 -0.12703454350E+03  0.63368817502E+02 -0.53441038320E+03  0.55294469881E+03  0.00000000000E+00 0.  1.
</event>
<event>
 8    1  0.7026811E-009  0.1283104E+03  0.7561462E-02  0.1229985E+00
         -1   -1    0    0    0  501 -0.00000000000E+00  0.00000000000E+00  0.48789493004E+03  0.48789493004E+03  0.00000000000E+00 0. -1.
          1   -1    0    0  501    0  0.00000000000E+00 -0.00000000000E+00 -0.42469827396E+02  0.42469827396E+02  0.00000000000E+00 0.  1.
         25    2    1    2    0    0 -0.88012177150E+02 -0.26553467657E+01  0.18087556001E+03  0.23689067310E+03  0.12509208048E+03 0.  0.
         23    2    1    2    0    0  0.88012177150E+02  0.26553467657E+01  0.26454954263E+03  0.29347408434E+03  0.91582659260E+02 0.  0.
          5    1    3    3  502    0 -0.92495857611E+02  0.30160568277E+02  0.66946445147E+02  0.11817124215E+03  0.41800000000E+01 0.  1.
         -5    1    3    3    0  502  0.44836804611E+01 -0.32815915043E+02  0.11392911486E+03  0.11871943094E+03  0.41800000000E+01 0.  1.
        -11    1    4    4    0    0  0.20088342552E+01 -0.32779750190E+02  0.87831785072E+02  0.93770837186E+02  0.00000000000E+00 0. -1.
         11    1    4    4    0    0  0.86003342895E+02  0.35435096956E+02  0.17671775756E+03  0.19970324715E+03  0.00000000000E+00 0.  1.
</event>
<event>
 8    1  0.7026811E-009  0.1810762E+03  0.7561462E-02  0.1166766E+00
         -2   -1    0    0    0  501 -0.00000000000E+00  0.00000000000E+00  0.32542668785E+02  0.32542668785E+02  0.00000000000E+00 0.  1.
          2   -1    0    0  501    0  0.00000000000E+00 -0.00000000000E+00 -0.11917661462E+04  0.11917661462E+04  0.00000000000E+00 0. -1.
         25    2    1    2    0    0 -0.10877937667E+03  0.11334811796E+03 -0.46215817639E+03  0.50390306922E+03  0.12508946610E+03 0.  0.
         23    2    1    2    0    0  0.10877937667E+03 -0.11334811796E+03 -0.69706530101E+03  0.72040574575E+03  0.91671456890E+02 0.  0.
          5    1    3    3  502    0 -0.48884499034E+02 -0.42719936247E+01 -0.46354734708E+02  0.67632669659E+02  0.41800000000E+01 0. -1.
         -5    1    3    3    0  502 -0.59894877637E+02  0.11762011158E+03 -0.41580344168E+03  0.43627039956E+03  0.41800000000E+01 0. -1.
        -11    1    4    4    0    0  0.81203315699E+02 -0.20167546305E+02 -0.28434379515E+03  0.29639855304E+03  0.00000000000E+00 0.  1.
         11    1    4    4    0    0  0.27576060973E+02 -0.93180571652E+02 -0.41272150586E+03  0.42400719271E+03  0.00000000000E+00 0. -1.
</event>
<event>
 8    1  0.7026811E-009  0.7039422E+02  0.7561462E-02  0.1358758E+00
          1   -1    0    0  501    0  0.00000000000E+00  0.00000000000E+00  0.98117843639E+03  0.98117843639E+03  0.00000000000E+00 0. -1.
         -1   -1    0    0    0  501 -0.00000000000E+00 -0.00000000000E+00 -0.20062949412E+02  0.20062949412E+02  0.00000000000E+00 0.  1.
         25    2    1    2    0    0  0.34906442486E+02 -0.24059426135E+02  0.80522668686E+03  0.81598732594E+03  0.12509189877E+03 0.  0.
         23    2    1    2    0    0 -0.34906442486E+02  0.24059426135E+02  0.15588880012E+03  0.18525405987E+03  0.90666603462E+02 0.  0.
          5    1    3    3  502    0  0.62672289117E+01 -0.16677722274E+01  0.74813578188E+03  0.74817556773E+03  0.41800000000E+01 0. -1.
         -5    1    3    3    0  502  0.28639213574E+02 -0.22391653908E+02  0.57090904989E+02  0.67811758208E+02  0.41800000000E+01 0. -1.
        -11    1    4    4    0    0 -0.40732033893E+02  0.53064624695E+02  0.12882551753E+03  0.14515842016E+03  0.00000000000E+00 0. -1.
         11    1    4    4    0    0  0.58255914067E+01 -0.29005198560E+02  0.27063282593E+02  0.40095639706E+02  0.00000000000E+00 0.  1.
</event>
<event>
 8    1  0.7026811E-009  0.1210177E+03  0.7561462E-02  0.1241428E+00
         -1   -1    0    0    0  501 -0.00000000000E+00  0.00000000000E+00  0.50067537743E+02  0.50067537743E+02  0.00000000000E+00 0.  1.
          1   -1    0    0  501    0  0.00000000000E+00 -0.00000000000E+00 -0.52316734519E+03  0.52316734519E+03  0.00000000000E+00 0. -1.
         25    2    1    2    0    0 -0.51178034788E+02 -0.19039752288E+02 -0.65028775317E+02  0.15118765814E+03  0.12508902007E+03 0.  0.
         23    2    1    2    0    0  0.51178034788E+02  0.19039752288E+02 -0.40807103213E+03  0.42204722480E+03  0.92844974471E+02 0.  0.
          5    1    3    3  502    0  0.35006996468E+02 -0.31366260507E+02 -0.10401928916E+02  0.48321885571E+02  0.41800000000E+01 0. -1.
         -5    1    3    3    0  502 -0.86185031257E+02  0.12326508219E+02 -0.54626846401E+02  0.10286577256E+03  0.41800000000E+01 0. -1.
        -11    1    4    4    0    0  0.73351833126E+02 -0.67624470388E+01 -0.28359395919E+03  0.29300470270E+03  0.00000000000E+00 0. -1.
         11    1    4    4    0    0 -0.22173798338E+02  0.25802199327E+02 -0.12447707294E+03  0.12904252210E+03  0.00000000000E+00 0.  1.
</event>
<event>
 8    1  0.7026811E-009  0.1828883E+03  0.7561462E-02  0.1165037E+00
         -1   -1    0    0    0  501 -0.00000000000E+00  0.00000000000E+00  0.10510500671E+03  0.10510500671E+03  0.00000000000E+00 0.  1.
          1   -1    0    0  501    0  0.00000000000E+00 -0.00000000000E+00 -0.34596871177E+03  0.34596871177E+03  0.00000000000E+00 0. -1.
         25    2    1    2    0    0  0.14357368147E+03 -0.50478309929E+02 -0.82069776973E+02  0.21341120972E+03  0.12508970525E+03 0.  0.
         23    2    1    2    0    0 -0.14357368147E+03  0.50478309929E+02 -0.15879392809E+03  0.23766250876E+03  0.90036074379E+02 0.  0.
          5    1    3    3  502    0  0.11603556398E+03 -0.91081097114E+02 -0.57443594772E+02  0.15835800372E+03  0.41800000000E+01 0. -1.
         -5    1    3    3    0  502  0.27538117485E+02  0.40602787185E+02 -0.24626182201E+02  0.55053206007E+02  0.41800000000E+01 0. -1.
        -11    1    4    4    0    0 -0.76192377831E+02  0.64867959779E+02 -0.58279137571E+02  0.11579977773E+03  0.00000000000E+00 0. -1.
         11    1    4    4    0    0 -0.67381303638E+02 -0.14389649850E+02 -0.10051479052E+03  0.12186273104E+03  0.00000000000E+00 0.  1.
</event>
<event>
 8    1  0.7026811E-009  0.1557972E+03  0.7561462E-02  0.1193525E+00
         -2   -1    0    0    0  501 -0.00000000000E+00  0.00000000000E+00  0.63400820649E+02  0.63400820649E+02  0.00000000000E+00 0.  1.
          2   -1    0    0  501    0  0.00000000000E+00 -0.00000000000E+00 -0.42905905231E+03  0.42905905231E+03  0.00000000000E+00 0. -1.
         25    2    1    2    0    0  0.77439222440E+01 -0.12282796063E+03 -0.17626269123E+03  0.24872143327E+03  0.12508852387E+03 0.  0.
         23    2    1    2    0    0 -0.77439222440E+01  0.12282796063E+03 -0.18939554043E+03  0.24373843969E+03  0.91602838393E+02 0.  0.
          5    1    3    3  502    0 -0.18095361527E+02  0.21027765652E+02 -0.39969879218E+02  0.48833110507E+02  0.41800000000E+01 0.  1.
         -5    1    3    3    0  502  0.25839283771E+02 -0.14385572628E+03 -0.13629281201E+03  0.19988832276E+03  0.41800000000E+01 0.  1.
        -11    1    4    4    0    0 -0.33892814085E+02  0.54714501344E+02 -0.35687886315E+02  0.73593646014E+02  0.00000000000E+00 0.  1.
         11    1    4    4    0    0  0.26148891841E+02  0.68113459289E+02 -0.15370765411E+03  0.17014479367E+03  0.00000000000E+00 0. -1.
</event>
<event>
 8    1  0.7026811E-009  0.5795869E+02  0.7561462E-02  0.1406603E+00
         -1   -1    0    0    0  501 -0.00000000000E+00  0.00000000000E+00  0.13909321235E+03  0.13909321235E+03  0.00000000000E+00 0.  1.
          1   -1    0    0  501    0  0.00000000000E+00 -0.00000000000E+00 -0.10394246639E+03  0.10394246639E+03  0.00000000000E+00 0. -1.
         25    2    1    2    0    0  0.15492801745E+01  0.41393322155E+02 -0.13271382985E+02  0.13243743070E+03  0.12509091116E+03 0.  0.
         23    2    1    2    0    0 -0.15492801745E+01 -0.41393322155E+02  0.48422128947E+02  0.11059824804E+03  0.90396142114E+02 0.  0.
          5    1    3    3  502    0 -0.22100229525E+02  0.22787351372E+02 -0.64993998406E+02  0.72452575913E+02  0.41800000000E+01 0.  1.
         -5    1    3    3    0  502  0.23649509699E+02  0.18605970783E+02  0.51722615422E+02  0.59984854787E+02  0.41800000000E+01 0.  1.
        -11    1    4    4    0    0 -0.17264892906E+02 -0.27878736473E+02  0.72053677695E+02  0.79164594004E+02  0.00000000000E+00 0.  1.
         11    1    4    4    0    0  0.15715612732E+02 -0.13514585682E+02 -0.23631548748E+02  0.31433654034E+02  0.00000000000E+00 0. -1.
</event>
<event>
 8    1  0.7026811E-009  0.1403493E+03  0.7561462E-02  0.1212860E+00
          3   -1    0    0  501    0  0.00000000000E+00  0.00000000000E+00  0.13193125436E+03  0.13193125436E+03  0.00000000000E+00 0. -1.
         -3   -1    0    0    0  501 -0.00000000000E+00 -0.00000000000E+00 -0.15135548361E+03  0.15135548361E+03  0.00000000000E+00 0.  1.
         25    2    1    2    0    0  0.37386715239E+02  0.83058295467E+02  0.31145391109E+00  0.15473927979E+03  0.12509077018E+03 0.  0.
         23    2    1    2    0    0 -0.37386715239E+02 -0.83058295467E+02 -0.19735683153E+02  0.12854745818E+03  0.88535331328E+02 0.  0.
          5    1    3    3  502    0  0.77243337649E+02  0.83198804857E+02  0.81790839409E+01  0.11389883298E+03  0.41800000000E+01 0. -1.
         -5    1    3    3    0  502 -0.39856622410E+02 -0.14050939016E+00 -0.78676300298E+01  0.40840446804E+02  0.41800000000E+01 0. -1.
        -11    1    4    4    0    0  0.29275627205E+02 -0.22014856692E+02 -0.62081623283E+01  0.37151817492E+02  0.00000000000E+00 0.  1.
         11    1    4    4    0    0 -0.66662342444E+02 -0.61043438775E+02 -0.13527520825E+02  0.91395640691E+02  0.00000000000E+00 0. -1.
</event>
<event>
 8    1  0.7026811E-009  0.1194788E+03  0.7561462E-02  0.1243959E+00
          3   -1    0    0  501    0  0.00000000000E+00  0.00000000000E+00  0.20520862570E+03  0.20520862570E+03  0.00000000000E+00 0. -1.
         -3   -1    0    0    0  501 -0.00000000000E+00 -0.00000000000E+00 -0.89664148598E+02  0.89664148598E+02  0.00000000000E+00 0.  1.
         25    2    1    2    0    0 -0.43337137340E+02 -0.23168253347E+02  0.20628887627E+01  0.13441316110E+03  0.12509103458E+03 0.  0.
         23    2    1    2    0    0  0.43337137340E+02  0.23168253347E+02  0.11348158834E+03  0.16045961320E+03  0.10224647250E+03 0.  0.
          5    1    3    3  502    0  0.43254843036E+02 -0.46337584368E+00 -0.81499176353E+01  0.44216396514E+02  0.41800000000E+01 0. -1.
         -5    1    3    3    0  502 -0.86591980376E+02 -0.22704877503E+02  0.10212806398E+02  0.90196764589E+02  0.41800000000E+01 0. -1.
        -11    1    4    4    0    0  0.46271336252E+02 -0.28359680157E+02  0.86773360698E+02  0.10234707687E+03  0.00000000000E+00 0. -1.
         11    1    4    4    0    0 -0.29341989121E+01  0.51527933504E+02  0.26708227644E+02  0.58112536327E+02  0.00000000000E+00 0.  1.
</event>
<event>
 8    1  0.7026811E-009  0.2629852E+03  0.7561462E-02  0.1105363E+00
          2   -1    0    0  501    0  0.00000000000E+00  0.00000000000E+00  0.82227872362E+03  0.82227872362E+03  0.00000000000E+00 0. -1.
         -2   -1    0    0    0  501 -0.00000000000E+00 -0.00000000000E+00 -0.99447507113E+02  0.99447507113E+02  0.00000000000E+00 0.  1.
         25    2    1    2    0    0  0.22696419730E+03  0.90255994046E+02  0.53092281486E+03  0.59764991180E+03  0.12508992934E+03 0.  0.
         23    2    1    2    0    0 -0.22696419730E+03 -0.90255994046E+02  0.19190840164E+03  0.32407631893E+03  0.92399862289E+02 0.  0.
          5    1    3    3  502    0  0.23739780359E+03  0.88992500183E+02  0.45495239895E+03  0.52084214494E+03  0.41800000000E+01 0.  1.
         -5    1    3    3    0  502 -0.10433606287E+02  0.12634938635E+01  0.75970415913E+02  0.76807766865E+02  0.41800000000E+01 0.  1.
        -11    1    4    4    0    0 -0.47054554110E+00 -0.25530718960E+02  0.20669025915E+02  0.32851904907E+02  0.00000000000E+00 0. -1.
         11    1    4    4    0    0 -0.22649365176E+03 -0.64725275086E+02  0.17123937573E+03  0.29122441402E+03  0.00000000000E+00 0.  1.
</event>
<event>
 8    1  0.7026811E-009  0.1076101E+03  0.7561462E-02  0.1265061E+00
         -3   -1    0    0    0  501 -0.00000000000E+00  0.00000000000E+00  0.30056336530E+03  0.30056336530E+03  0.00000000000E+00 0.  1.
          3   -1    0    0  501    0  0.00000000000E+00 -0.00000000000E+00 -0.63898076965E+02  0.63898076965E+02  0.00000000000E+00 0. -1.
         25    2    1    2    0    0 -0.19738690639E+02  0.85432741642E+02  0.13033525504E+03  0.20080663860E+03  0.12509059976E+03 0.  0.
         23    2    1    2    0    0  0.19738690639E+02 -0.85432741642E+02  0.10633003330E+03  0.16365480367E+03  0.88252192773E+02 0.  0.
          5    1    3    3  502    0 -0.23287641747E+01 -0.13076880413E+02 -0.17433486230E+02  0.22312032316E+02  0.41800000000E+01 0. -1.
         -5    1    3    3    0  502 -0.17409926464E+02  0.98509622055E+02  0.14776874127E+03  0.17849460629E+03  0.41800000000E+01 0. -1.
        -11    1    4    4    0    0  0.36900014176E+02 -0.54942721287E+02  0.11010313456E+03  0.12846405687E+03  0.00000000000E+00 0.  1.
         11    1    4    4    0    0 -0.17161323537E+02 -0.30490020355E+02 -0.37731012602E+01  0.35190746794E+02  0.00000000000E+00 0. -1.
</event>
<event>
 8    1  0.7026811E-009  0.6347183E+02  0.7561462E-02  0.1383814E+00
          4   -1    0    0  501    0  0.00000000000E+00  0.00000000000E+00  0.67451528775E+02  0.67451528775E+02  0.00000000000E+00 0. -1.
         -4   -1    0    0    0  501 -0.00000000000E+00 -0.00000000000E+00 -0.21566489736E+03  0.21566489736E+03  0.00000000000E+00 0.  1.
         25    2    1    2    0    0 -0.10629634329E+02  0.31891513225E+02 -0.36445009559E+02  0.13455986398E+03  0.12509220812E+03 0.  0.
         23    2    1    2    0    0  0.10629634329E+02 -0.31891513225E+02 -0.11176835903E+03  0.14855656215E+03  0.91906628360E+02 0.  0.
          5    1    3    3  502    0 -0.12124495169E+02  0.18695103101E+01 -0.80238555767E+02  0.81278513049E+02  0.41800000000E+01 0. -1.
         -5    1    3    3    0  502  0.14948608407E+01  0.30022002915E+02  0.43793546208E+02  0.53281350935E+02  0.41800000000E+01 0. -1.
        -11    1    4    4    0    0  0.40368205565E+02 -0.46881946532E+00 -0.93024202487E+02  0.10140667661E+03  0.00000000000E+00 0.  1.
         11    1    4    4    0    0 -0.29738571236E+02 -0.31422693760E+02 -0.18744156539E+02  0.47149885542E+02  0.00000000000E+00 0. -1.
</event>
<event>
 8    1  0.7026811E-009  0.1023361E+03  0.7561462E-02  0.1275459E+00
         -1   -1    0    0    0  501 -0.00000000000E+00  0.00000000000E+00  0.35437443189E+02  0.35437443189E+02  0.00000000000E+00 0.  1.
          1   -1    0    0  501    0  0.00000000000E+00 -0.00000000000E+00 -0.36985972855E+03  0.36985972855E+03  0.00000000000E+00 0. -1.
         25    2    1    2    0    0 -0.52430185645E+01  0.61706933090E+01 -0.13388133563E+03  0.18340804891E+03  0.12509489867E+03 0.  0.
         23    2    1    2    0    0  0.52430185645E+01 -0.61706933090E+01 -0.20054094973E+03  0.22188912283E+03  0.94617882101E+02 0.  0.
          5    1    3    3  502    0  0.30158840864E+02 -0.49348763573E+02 -0.49116783050E+02  0.75992018828E+02  0.41800000000E+01 0. -1.
         -5    1    3    3    0  502 -0.35401859429E+02  0.55519456882E+02 -0.84764552584E+02  0.10741603008E+03  0.41800000000E+01 0. -1.
        -11    1    4    4    0    0  0.16664424524E+02  0.34580553058E+02 -0.15515378369E+03  0.15983183128E+03  0.00000000000E+00 0. -1.
         11    1    4    4    0    0 -0.11421405960E+02 -0.40751246367E+02 -0.45387166036E+02  0.62057291556E+02  0.00000000000E+00 0.  1.
</event>
<event>
 8    1  0.7026811E-009  0.1129724E+03  0.7561462E-02  0.1255162E+00
          1   -1    0    0  501    0  0.00000000000E+00  0.00000000000E+00  0.51839428426E+03  0.51839428426E+03  0.00000000000E+00 0. -1.
         -1   -1    0    0    0  501 -0.00000000000E+00 -0.00000000000E+00 -0.29573050097E+02  0.29573050097E+02  0.00000000000E+00 0.  1.
         25    2    1    2    0    0  0.26994996060E+02  0.39524850980E+02  0.19574671042E+03  0.23717532512E+03  0.12507764208E+03 0.  0.
         23    2    1    2    0    0 -0.26994996060E+02 -0.39524850980E+02  0.29307452375E+03  0.31079200924E+03  0.91695435439E+02 0.  0.
          5    1    3    3  502    0 -0.82949380907E+01  0.78298935748E+02  0.13897726326E+03  0.15978636188E+03  0.41800000000E+01 0. -1.
         -5    1    3    3    0  502  0.35289934151E+02 -0.38774084767E+02  0.56769447156E+02  0.77388963246E+02  0.41800000000E+01 0. -1.
        -11    1    4    4    0    0 -0.43514566521E+02 -0.56167859887E+02  0.15205916797E+03  0.16784021136E+03  0.00000000000E+00 0.  1.
         11    1    4    4    0    0  0.16519570460E+02  0.16643008907E+02  0.14101535578E+03  0.14295179788E+03  0.00000000000E+00 0. -1.
</event>
<event>
 8    1  0.7026811E-009  0.8430621E+02  0.7561462E-02  0.1317257E+00
          2   -1    0    0  501    0  0.00000000000E+00  0.00000000000E+00  0.20009202215E+03  0.20009202215E+03  0.00000000000E+00 0. -1.
         -2   -1    0    0    0  501 -0.00000000000E+00 -0.00000000000E+00 -0.59648679640E+02  0.59648679640E+02  0.00000000000E+00 0.  1.
         25    2    1    2    0    0 -0.13474934119E+02  0.16059600934E+01  0.79119688316E+02  0.14862847730E+03  0.12508535576E+03 0.  0.
         23    2    1    2    0    0  0.13474934119E+02 -0.16059600934E+01  0.61323654193E+02  0.11111222450E+03  0.91657966982E+02 0.  0.
          5    1    3    3  502    0  0.77532514347E+00  0.62724317092E+02  0.37366207092E+02  0.73134444116E+02  0.41800000000E+01 0. -1.
         -5    1    3    3    0  502 -0.14250259263E+02 -0.61118356999E+02  0.41753481225E+02  0.75494033179E+02  0.41800000000E+01 0. -1.
        -11    1    4    4    0    0  0.11335668950E+02  0.19003345759E+02 -0.18376240268E+02  0.28763010047E+02  0.00000000000E+00 0.  1.
         11    1    4    4    0    0  0.21392651690E+01 -0.20609305852E+02  0.79699894461E+02  0.82349214448E+02  0.00000000000E+00 0. -1.
</event>
<event>
 8    1  0.7026811E-009  0.1093652E+03  0.7561462E-02  0.1261750E+00
         -2   -1    0    0    0  501 -0.00000000000E+00  0.00000000000E+00  0.10124184944E+03  0.10124184944E+03  0.00000000000E+00 0.  1.
          2   -1    0    0  501    0  0.00000000000E+00 -0.00000000000E+00 -0.15854322676E+03  0.15854322676E+03  0.00000000000E+00 0. -1.
         25    2    1    2    0    0 -0.25966479650E+02 -0.57928241789E+02 -0.37939363355E+02  0.14531715500E+03  0.12509093086E+03 0.  0.
         23    2    1    2    0    0  0.25966479650E+02  0.57928241789E+02 -0.19362013966E+02  0.11446792121E+03  0.93263487704E+02 0.  0.
          5    1    3    3  502    0 -0.16871785293E+01 -0.95140173569E+02 -0.30921433063E+02  0.10014043450E+03  0.41800000000E+01 0. -1.
         -5    1    3    3    0  502 -0.24279301121E+02  0.37211931780E+02 -0.70179302925E+01  0.45176720502E+02  0.41800000000E+01 0. -1.
        -11    1    4    4    0    0 -0.11931752763E+02  0.33206449200E+01 -0.42358686696E+02  0.44132207573E+02  0.00000000000E+00 0. -1.
         11    1    4    4    0    0  0.37898232413E+02  0.54607596869E+02  0.22996672730E+02  0.70335713635E+02  0.00000000000E+00 0.  1.
</event>
<event>
 8    1  0.7026811E-009  0.9063805E+02  0.7561462E-02  0.1301314E+00
         -2   -1    0    0    0  501 -0.00000000000E+00  0.00000000000E+00  0.20199107805E+02  0.20199107805E+02  0.00000000000E+00 0.  1.
          2   -1    0    0  501    0  0.00000000000E+00 -0.00000000000E+00 -0.65093620087E+03  0.65093620087E+03  0.00000000000E+00 0. -1.
         25    2    1    2    0    0  0.67769602148E+01 -0.36037659275E+02 -0.35346349541E+03  0.37673422263E+03  0.12509033471E+03 0.  0.
         23    2    1    2    0    0 -0.67769602148E+01  0.36037659275E+02 -0.27727359766E+03  0.29440108604E+03  0.91905992356E+02 0.  0.
          5    1    3    3  502    0 -0.90882470287E+01 -0.70377738823E+02 -0.11458976075E+03  0.13484772162E+03  0.41800000000E+01 0. -1.
         -5    1    3    3    0  502  0.15865207244E+02  0.34340079548E+02 -0.23887373465E+03  0.24188650101E+03  0.41800000000E+01 0. -1.
        -11    1    4    4    0    0  0.11826645133E+02 -0.14247643456E+02 -0.85756828416E+01  0.20406058300E+02  0.00000000000E+00 0.  1.
         11    1    4    4    0    0 -0.18603605348E+02  0.50285302731E+02 -0.26869791481E+03  0.27399502774E+03  0.00000000000E+00 0. -1.
</event>
<event>
 8    1  0.7026811E-009  0.1301424E+03  0.7561462E-02  0.1227245E+00
          4   -1    0    0  501    0  0.00000000000E+00  0.00000000000E+00  0.16341199702E+03  0.16341199702E+03  0.00000000000E+00 0. -1.
         -4   -1    0    0    0  501 -0.00000000000E+00 -0.00000000000E+00 -0.14401350669E+03  0.14401350669E+03  0.00000000000E+00 0.  1.
         25    2    1    2    0    0  0.31509658281E+02 -0.56887404921E+02 -0.69800984808E+02  0.15731665281E+03  0.12508923362E+03 0.  0.
         23    2    1    2    0    0 -0.31509658281E+02  0.56887404921E+02  0.89199475143E+02  0.15010885090E+03  0.10172062400E+03 0.  0.
          5    1    3    3  502    0 -0.20328683081E+02 -0.80560726694E+02 -0.48741137351E+02  0.96418135802E+02  0.41800000000E+01 0. -1.
         -5    1    3    3    0  502  0.51838341363E+02  0.23673321773E+02 -0.21059847457E+02  0.60898517009E+02  0.41800000000E+01 0. -1.
        -11    1    4    4    0    0 -0.63645738229E+02  0.60250720684E+02  0.57340909995E+02  0.10473256082E+03  0.00000000000E+00 0. -1.
         11    1    4    4    0    0  0.32136079948E+02 -0.33633157630E+01  0.31858565148E+02  0.45376290071E+02  0.00000000000E+00 0.  1.
</event>
<event>
 8    1  0.7026811E-009  0.1202053E+03  0.7561462E-02  0.1242759E+00
          3   -1    0    0  501    0  0.00000000000E+00  0.00000000000E+00  0.54704602937E+02  0.54704602937E+02  0.00000000000E+00 0. -1.
         -3   -1    0    0    0  501 -0.00000000000E+00 -0.00000000000E+00 -0.40795382516E+03  0.40795382516E+03  0.00000000000E+00 0.  1.
         25    2    1    2    0    0 -0.22849739184E+02 -0.95857273426E+02 -0.14943012591E+03  0.21837652916E+03  0.12509283956E+03 0.  0.
         23    2    1    2    0    0  0.22849739184E+02  0.95857273426E+02 -0.20381909631E+03  0.24428189894E+03  0.91764343171E+02 0.  0.
          5    1    3    3  502    0 -0.68887100774E+01  0.16951432506E+02  0.10853817468E+02  0.21681400881E+02  0.41800000000E+01 0.  1.
         -5    1    3    3    0  502 -0.15961029106E+02 -0.11280870593E+03 -0.16028394338E+03  0.19669512828E+03  0.41800000000E+01 0.  1.
        -11    1    4    4    0    0  0.34383304357E+02  0.52420714569E+02 -0.39894398482E+02  0.74308182353E+02  0.00000000000E+00 0. -1.
         11    1    4    4    0    0 -0.11533565173E+02  0.43436558857E+02 -0.16392469783E+03  0.16997371658E+03  0.00000000000E+00 0.  1.
</event>
<event>
 8    1  0.7026811E-009  0.9885761E+02  0.7561462E-02  0.1282717E+00
          1   -1    0    0  501    0  0.00000000000E+00  0.00000000000E+00  0.24284117581E+02  0.24284117581E+02  0.00000000000E+00 0. -1.
         -1   -1    0    0    0  501 -0.00000000000E+00 -0.00000000000E+00 -0.56113414888E+03  0.56113414888E+03  0.00000000000E+00 0.  1.
         25    2    1    2    0    0  0.19474778638E+02 -0.42530786636E+01 -0.40443298180E+03  0.42380487865E+03  0.12508869940E+03 0.  0.
         23    2    1    2    0    0 -0.19474778638E+02  0.42530786636E+01 -0.13241704950E+03  0.16161338781E+03  0.90483459486E+02 0.  0.
          5    1    3    3  502    0 -0.36303578057E+02 -0.29014366424E+02 -0.72048145968E+02  0.85838167362E+02  0.41800000000E+01 0. -1.
         -5    1    3    3    0  502  0.55778356695E+02  0.24761287760E+02 -0.33238483583E+03  0.33796671129E+03  0.41800000000E+01 0. -1.
        -11    1    4    4    0    0  0.26329734556E+02  0.27877336621E+02 -0.76472750638E+02  0.85548129196E+02  0.00000000000E+00 0.  1.
         11    1    4    4    0    0 -0.45804513195E+02 -0.23624257957E+02 -0.55944298858E+02  0.76065258612E+02  0.00000000000E+00 0. -1.
</event>
<event>
 8    1  0.7026811E-009  0.2462809E+03  0.7561462E-02  0.1115678E+00
         -1   -1    0    0    0  501 -0.00000000000E+00  0.00000000000E+00  0.71137633997E+02  0.71137633997E+02  0.00000000000E+00 0. -1.
          1   -1    0    0  501    0  0.00000000000E+00 -0.00000000000E+00 -0.87237043472E+03  0.87237043472E+03  0.00000000000E+00 0.  1.
         25    2    1    2    0    0  0.14649296752E+03 -0.16517216789E+03 -0.34247397913E+03  0.42623476500E+03  0.12508242856E+03 0.  0.
         23    2    1    2    0    0 -0.14649296752E+03  0.16517216789E+03 -0.45875882160E+03  0.51727330372E+03  0.91487593514E+02 0.  0.
          5    1    3    3  502    0  0.81490464018E+02 -0.61740998219E+01 -0.10512790501E+03  0.13322223555E+03  0.41800000000E+01 0.  1.
         -5    1    3    3    0  502  0.65002503506E+02 -0.15899806807E+03 -0.23734607412E+03  0.29301252945E+03  0.41800000000E+01 0.  1.
        -11    1    4    4    0    0 -0.80314611042E+02  0.25358475089E+02 -0.16789241271E+03  0.18783330709E+03  0.00000000000E+00 0.  1.
         11    1    4    4    0    0 -0.66178356482E+02  0.13981369280E+03 -0.29086640888E+03  0.32943999663E+03  0.00000000000E+00 0. -1.
</event>
<event>
 8    1  0.7026811E-009  0.1514571E+03  0.7561462E-02  0.1198694E+00
          2   -1    0    0  501    0  0.00000000000E+00  0.00000000000E+00  0.87483964979E+02  0.87483964979E+02  0.00000000000E+00 0.  1.
         -2   -1    0    0    0  501 -0.00000000000E+00 -0.00000000000E+00 -0.33543404776E+03  0.33543404776E+03  0.00000000000E+00 0. -1.
         25    2    1    2    0    0  0.12503313312E+03  0.31008878565E+02 -0.10602277628E+03  0.20852829872E+03  0.12509351442E+03 0.  0.
         23    2    1    2    0    0 -0.12503313312E+03 -0.31008878565E+02 -0.14192730650E+03  0.21438971402E+03  0.96045584053E+02 0.  0.
          5    1    3    3  502    0 -0.59994206326E+01  0.11710027145E+02 -0.69803374973E+02  0.71155473024E+02  0.41800000000E+01 0. -1.
         -5    1    3    3    0  502  0.13103255376E+03  0.19298851420E+02 -0.36219401304E+02  0.13737282570E+03  0.41800000000E+01 0. -1.
        -11    1    4    4    0    0 -0.93464751128E+02 -0.62158984538E+02 -0.78410857801E+02  0.13692210078E+03  0.00000000000E+00 0.  1.
         11    1    4    4    0    0 -0.31568381994E+02  0.31150105973E+02 -0.63516448704E+02  0.77467613232E+02  0.00000000000E+00 0. -1.
</event>
<event>
 8    1  0.7026811E-009  0.1493153E+03  0.7561462E-02  0.1201317E+00
         -2   -1    0    0    0  501 -0.00000000000E+00  0.00000000000E+00  0.62200404687E+02  0.62200404687E+02  0.00000000000E+00 0. -1.
          2   -1    0    0  501    0  0.00000000000E+00 -0.00000000000E+00 -0.43080654326E+03  0.43080654326E+03  0.00000000000E+00 0.  1.
         25    2    1    2    0    0  0.76883672223E+02 -0.82389509521E+02 -0.12409981855E+03  0.20915843007E+03  0.12508938233E+03 0.  0.
         23    2    1    2    0    0 -0.76883672223E+02  0.82389509521E+02 -0.24450632001E+03  0.28384851787E+03  0.89930585661E+02 0.  0.
          5    1    3    3  502    0 -0.23510253414E+02 -0.47588706150E+02 -0.75140124026E+02  0.92091951914E+02  0.41800000000E+01 0. -1.
         -5    1    3    3    0  502  0.10039392564E+03 -0.34800803371E+02 -0.48959694528E+02  0.11706647816E+03  0.41800000000E+01 0. -1.
        -11    1    4    4    0    0 -0.26088229282E+02 -0.14358230614E+02 -0.25953393235E+02  0.39501052060E+02  0.00000000000E+00 0.  1.
         11    1    4    4    0    0 -0.50795442941E+02  0.96747740135E+02 -0.21855292678E+03  0.24434746581E+03  0.00000000000E+00 0. -1.
</event>
<event>
 8    1  0.7026811E-009  0.1469936E+03  0.7561462E-02  0.1204217E+00
          1   -1    0    0  501    0  0.00000000000E+00  0.00000000000E+00  0.12312314909E+04  0.12312314909E+04  0.00000000000E+00 0. -1.
         -1   -1    0    0    0  501 -0.00000000000E+00 -0.00000000000E+00 -0.24413762312E+02  0.24413762312E+02  0.00000000000E+00 0.  1.
         25    2    1    2    0    0  0.12889327921E+03  0.26521356341E+02  0.53837688119E+03  0.56816666603E+03  0.12508730721E+03 0.  0.
         23    2    1    2    0    0 -0.12889327921E+03 -0.26521356341E+02  0.66844084743E+03  0.68747858721E+03  0.92177988636E+02 0.  0.
          5    1    3    3  502    0  0.54647270331E+02  0.24084308786E+02  0.44385622086E+03  0.44787520057E+03  0.41800000000E+01 0. -1.
         -5    1    3    3    0  502  0.74246008880E+02  0.24370475547E+01  0.94520660323E+02  0.12029146546E+03  0.41800000000E+01 0. -1.
        -11    1    4    4    0    0  0.10340581128E+02 -0.17331143807E+02  0.62442517197E+02  0.65622893244E+02  0.00000000000E+00 0.  1.
         11    1    4    4    0    0 -0.13923386034E+03 -0.91902125337E+01  0.60599833023E+03  0.62185569396E+03  0.00000000000E+00 0. -1.
</event>
<event>
 8    1  0.7026811E-009  0.1023242E+03  0.7561462E-02  0.1275483E+00
          4   -1    0    0  501    0  0.00000000000E+00  0.00000000000E+00  0.51331853891E+03  0.51331853891E+03  0.00000000000E+00 0. -1.
         -4   -1    0    0    0  501 -0.00000000000E+00 -0.00000000000E+00 -0.36551479616E+02  0.36551479616E+02  0.00000000000E+00 0.  1.
         25    2    1    2    0    0 -0.80880348172E+01 -0.77717625384E+02  0.31619617542E+03  0.34890319244E+03  0.12509184922E+03 0.  0.
         23    2    1    2    0    0  0.80880348172E+01  0.77717625384E+02  0.16057088387E+03  0.20096682609E+03  0.92191164635E+02 0.  0.
          5    1    3    3  502    0 -0.34807627912E+02  0.83728911636E+01  0.24536137199E+02  0.43602416171E+02  0.41800000000E+01 0. -1.
         -5    1    3    3    0  502  0.26719593095E+02 -0.86090516548E+02  0.29166003822E+03  0.30530077627E+03  0.41800000000E+01 0. -1.
        -11    1    4    4    0    0  0.10444272884E+00  0.28893920010E+02 -0.39553028101E+01  0.29163572177E+02  0.00000000000E+00 0.  1.
         11    1    4    4    0    0  0.79835920883E+01  0.48823705374E+02  0.16452618668E+03  0.17180325391E+03  0.00000000000E+00 0. -1.
</event>
<event>
 8    1  0.7026811E-009  0.1188036E+03  0.7561462E-02  0.1245084E+00
         -3   -1    0    0    0  501 -0.00000000000E+00  0.00000000000E+00  0.53715848089E+03  0.53715848089E+03  0.00000000000E+00 0.  1.
          3   -1    0    0  501    0  0.00000000000E+00 -0.00000000000E+00 -0.35100434610E+02  0.35100434610E+02  0.00000000000E+00 0. -1.
         25    2    1    2    0    0 -0.19455951842E+02 -0.81762142853E+02  0.26305202646E+03  0.30316338274E+03  0.12509230969E+03 0.  0.
         23    2    1    2    0    0  0.19455951842E+02  0.81762142853E+02  0.23900601983E+03  0.26909553277E+03  0.90691488987E+02 0.  0.
          5    1    3    3  502    0 -0.44415520717E+01 -0.10450862049E+03  0.12815923190E+03  0.16548123840E+03  0.41800000000E+01 0.  1.
         -5    1    3    3    0  502 -0.15014399771E+02  0.22746477639E+02  0.13489279456E+03  0.13768214434E+03  0.41800000000E+01 0.  1.
        -11    1    4    4    0    0 -0.19131027073E+02  0.55446051174E+01  0.58165380259E+01  0.20750203792E+02  0.00000000000E+00 0. -1.
         11    1    4    4    0    0  0.38586978916E+02  0.76217537736E+02  0.23318948180E+03  0.24834532897E+03  0.00000000000E+00 0.  1.
</event>
<event>
 8    1  0.7026811E-009  0.1821977E+03  0.7561462E-02  0.1165693E+00
          2   -1    0    0  501    0  0.00000000000E+00  0.00000000000E+00  0.97892647049E+03  0.97892647049E+03  0.00000000000E+00 0.  1.
         -2   -1    0    0    0  501 -0.00000000000E+00 -0.00000000000E+00 -0.39663330978E+02  0.39663330978E+02  0.00000000000E+00 0. -1.
         25    2    1    2    0    0  0.13031133326E+03 -0.10073763707E+03  0.46722208496E+03  0.51095277262E+03  0.12508854492E+03 0.  0.
         23    2    1    2    0    0 -0.13031133326E+03  0.10073763707E+03  0.47204105455E+03  0.50763702885E+03  0.87997049857E+02 0.  0.
          5    1    3    3  502    0  0.64513999491E+02  0.12647189843E+02  0.89662592731E+02  0.11126032750E+03  0.41800000000E+01 0. -1.
         -5    1    3    3    0  502  0.65797333769E+02 -0.11338482691E+03  0.37755949223E+03  0.39969244511E+03  0.41800000000E+01 0. -1.
        -11    1    4    4    0    0 -0.11240556689E+03  0.98233030887E+02  0.46475972199E+03  0.48814581736E+03  0.00000000000E+00 0.  1.
         11    1    4    4    0    0 -0.17905766371E+02  0.25046061824E+01  0.72813325590E+01  0.19491211489E+02  0.00000000000E+00 0. -1.
</event>
<event>
 8    1  0.7026811E-009  0.1465505E+03  0.7561462E-02  0.1204777E+00
         -2   -1    0    0    0  501 -0.00000000000E+00  0.00000000000E+00  0.73955528096E+02  0.73955528096E+02  0.00000000000E+00 0.  1.
          2   -1    0    0  501    0  0.00000000000E+00 -0.00000000000E+00 -0.59875475479E+03  0.59875475479E+03  0.00000000000E+00 0. -1.
         25    2    1    2    0    0  0.80131400408E+02  0.90662825146E+02 -0.48747016710E+03  0.51760539149E+03  0.12508952111E+03 0.  0.
         23    2    1    2    0    0 -0.80131400408E+02 -0.90662825146E+02 -0.37329059595E+02  0.15510489140E+03  0.89572760653E+02 0.  0.
          5    1    3    3  502    0 -0.11872979522E+02  0.30260920757E+02 -0.22464985501E+02  0.39734606344E+02  0.41800000000E+01 0. -1.
         -5    1    3    3    0  502  0.92004379930E+02  0.60401904389E+02 -0.46500518160E+03  0.47787078515E+03  0.41800000000E+01 0. -1.
        -11    1    4    4    0    0 -0.86402559464E+02 -0.10414359366E+03 -0.30353074842E+02  0.13868164815E+03  0.00000000000E+00 0. -1.
         11    1    4    4    0    0  0.62711590561E+01  0.13480768510E+02 -0.69759847524E+01  0.16423243248E+02  0.00000000000E+00 0.  1.
</event>
<event>
 8    1  0.7026811E-009  0.1342982E+03  0.7561462E-02  0.1221214E+00
          2   -1    0    0  501    0  0.00000000000E+00  0.00000000000E+00  0.98748003396E+03  0.98748003396E+03  0.00000000000E+00 0. -1.
         -2   -1    0    0    0  501 -0.00000000000E+00 -0.00000000000E+00 -0.21338077597E+02  0.21338077597E+02  0.00000000000E+00 0.  1.
         25    2    1    2    0    0  0.67140464559E+02 -0.66202523858E+02  0.58812589625E+03  0.60862855439E+03  0.12508409661E+03 0.  0.
         23    2    1    2    0    0 -0.67140464559E+02  0.66202523858E+02  0.37801606011E+03  0.40018955717E+03  0.91459957465E+02 0.  0.
          5    1    3    3  502    0  0.95648067871E+02 -0.66040201290E+02  0.54125144099E+03  0.55360677005E+03  0.41800000000E+01 0. -1.
         -5    1    3    3    0  502 -0.28507603311E+02 -0.16232256768E+00  0.46874455259E+02  0.55021784331E+02  0.41800000000E+01 0. -1.
        -11    1    4    4    0    0 -0.35551357573E+02 -0.13276824031E+02  0.61018925045E+02  0.71857374676E+02  0.00000000000E+00 0.  1.
         11    1    4    4    0    0 -0.31589106986E+02  0.79479347889E+02  0.31699713507E+03  0.32833218249E+03  0.00000000000E+00 0. -1.
</event>
<event>
 8    1  0.7026811E-009  0.2886988E+03  0.7561462E-02  0.1091030E+00
          1   -1    0    0  501    0  0.00000000000E+00  0.00000000000E+00  0.69211346143E+03  0.69211346143E+03  0.00000000000E+00 0. -1.
         -1   -1    0    0    0  501 -0.00000000000E+00 -0.00000000000E+00 -0.14972283554E+03  0.14972283554E+03  0.00000000000E+00 0.  1.
         25    2    1    2    0    0  0.19378574430E+03  0.19854909501E+03  0.43485503384E+03  0.53077405375E+03  0.12509011895E+03 0.  0.
         23    2    1    2    0    0 -0.19378574430E+03 -0.19854909501E+03  0.10753559205E+03  0.31106224322E+03  0.90670600379E+02 0.  0.
          5    1    3    3  502    0  0.16642060894E+03  0.19755125285E+03  0.43142885678E+03  0.50286245381E+03  0.41800000000E+01 0. -1.
         -5    1    3    3    0  502  0.27365135360E+02  0.99784216053E+00  0.34261770524E+01  0.27911599945E+02  0.41800000000E+01 0. -1.
        -11    1    4    4    0    0 -0.18334111204E+03 -0.13685988786E+03  0.76655682006E+02  0.24128963064E+03  0.00000000000E+00 0.  1.
         11    1    4    4    0    0 -0.10444632264E+02 -0.61689207151E+02  0.30879910043E+02  0.69772612580E+02  0.00000000000E+00 0. -1.
</event>
<event>
 8    1  0.7026811E-009  0.1326468E+03  0.7561462E-02  0.1223580E+00
          1   -1    0    0  501    0  0.00000000000E+00  0.00000000000E+00  0.11414517858E+03  0.11414517858E+03  0.00000000000E+00 0. -1.
         -1   -1    0    0    0  501 -0.00000000000E+00 -0.00000000000E+00 -0.18544261137E+03  0.18544261137E+03  0.00000000000E+00 0.  1.
         25    2    1    2    0    0  0.86031656879E+01 -0.82181836238E+02 -0.90043876820E+02  0.17487862426E+03  0.12508702892E+03 0.  0.
         23    2    1    2    0    0 -0.86031656879E+01  0.82181836238E+02  0.18746444037E+02  0.12470916569E+03  0.91504525434E+02 0.  0.
          5    1    3    3  502    0  0.60909862083E+02 -0.63106247855E+02 -0.78681460980E+02  0.11790103697E+03  0.41800000000E+01 0. -1.
         -5    1    3    3    0  502 -0.52306696395E+02 -0.19075588382E+02 -0.11362415840E+02  0.56977587292E+02  0.41800000000E+01 0. -1.
        -11    1    4    4    0    0 -0.34353152450E+02  0.88676488382E+02  0.22934423470E+02  0.97824569791E+02  0.00000000000E+00 0. -1.
         11    1    4    4    0    0  0.25749986762E+02 -0.64946521438E+01 -0.41879794326E+01  0.26884595895E+02  0.00000000000E+00 0.  1.
</event>
<event>
 8    1  0.7026811E-009  0.8061157E+02  0.7561462E-02  0.1327325E+00
          2   -1    0    0  501    0  0.00000000000E+00  0.00000000000E+00  0.50791988220E+02  0.50791988220E+02  0.00000000000E+00 0.  1.
         -2   -1    0    0    0  501 -0.00000000000E+00 -0.00000000000E+00 -0.26121416643E+03  0.26121416643E+03  0.00000000000E+00 0. -1.
         25    2    1    2    0    0  0.33335764171E+02  0.84923636484E+01 -0.87690772678E+02  0.15659000181E+03  0.12508942258E+03 0.  0.
         23    2    1    2    0    0 -0.33335764171E+02 -0.84923636484E+01 -0.12273140553E+03  0.15541615284E+03  0.88925751306E+02 0.  0.
          5    1    3    3  502    0  0.55942872742E+02  0.38141695866E+01 -0.11042761846E+03  0.12391886143E+03  0.41800000000E+01 0. -1.
         -5    1    3    3    0  502 -0.22607108571E+02  0.46781940618E+01  0.22736845783E+02  0.32671140380E+02  0.41800000000E+01 0. -1.
        -11    1    4    4    0    0 -0.54124664264E+02  0.83667979333E+01 -0.38266302408E+02  0.66811619419E+02  0.00000000000E+00 0.  1.
         11    1    4    4    0    0  0.20788900093E+02 -0.16859161582E+02 -0.84465103124E+02  0.88604533417E+02  0.00000000000E+00 0. -1.
</event>
<event>
 8    1  0.7026811E-009  0.2525379E+03  0.7561462E-02  0.1111711E+00
         -1   -1    0    0    0  501 -0.00000000000E+00  0.00000000000E+00  0.54830190112E+03  0.54830190112E+03  0.00000000000E+00 0.  1.
          1   -1    0    0  501    0  0.00000000000E+00 -0.00000000000E+00 -0.13271063955E+03  0.13271063955E+03  0.00000000000E+00 0. -1.
         25    2    1    2    0    0  0.31407593247E+02  0.23595651891E+03  0.30057055418E+03  0.40330061934E+03  0.12508723273E+03 0.  0.
         23    2    1    2    0    0 -0.31407593247E+02 -0.23595651891E+03  0.11502070738E+03  0.27771192133E+03  0.85042532856E+02 0.  0.
          5    1    3    3  502    0  0.33782027650E+02  0.14780058295E+02  0.92216409534E+02  0.99403290200E+02  0.41800000000E+01 0. -1.
         -5    1    3    3    0  502 -0.23744344023E+01  0.22117646061E+03  0.20835414465E+03  0.30389732914E+03  0.41800000000E+01 0. -1.
        -11    1    4    4    0    0  0.16957540932E+02 -0.24344117404E+02  0.36133152372E+02  0.46752528776E+02  0.00000000000E+00 0.  1.
         11    1    4    4    0    0 -0.48365134179E+02 -0.21161240150E+03  0.78887555013E+02  0.23095939256E+03  0.00000000000E+00 0. -1.
</event>
<event>
 8    1  0.7026811E-009  0.1243043E+03  0.7561462E-02  0.1236161E+00
          1   -1    0    0  501    0  0.00000000000E+00  0.00000000000E+00  0.35689353659E+03  0.35689353659E+03  0.00000000000E+00 0. -1.
         -1   -1    0    0    0  501 -0.00000000000E+00 -0.00000000000E+00 -0.48335599010E+02  0.48335599010E+02  0.00000000000E+00 0.  1.
         25    2    1    2    0    0 -0.64129942906E+02 -0.20439384596E+02  0.18123530269E+03  0.23027199710E+03  0.12509412331E+03 0.  0.
         23    2    1    2    0    0  0.64129942906E+02  0.20439384596E+02  0.12732263489E+03  0.17495713850E+03  0.99340469784E+02 0.  0.
          5    1    3    3  502    0 -0.94821871491E+02 -0.59984325515E+01  0.16909330048E+03  0.19400305455E+03  0.41800000000E+01 0.  1.
         -5    1    3    3    0  502  0.30691928585E+02 -0.14440952045E+02  0.12142002208E+02  0.36268942552E+02  0.41800000000E+01 0.  1.
        -11    1    4    4    0    0  0.78300193597E+01 -0.37637112895E+02  0.32656635724E+02  0.50441226463E+02  0.00000000000E+00 0. -1.
         11    1    4    4    0    0  0.56299923546E+02  0.58076497492E+02  0.94665999166E+02  0.12451591204E+03  0.00000000000E+00 0.  1.
</event>
<event>
 8    1  0.7026811E-009  0.1155639E+03  0.7561462E-02  0.1250600E+00
         -1   -1    0    0    0  501 -0.00000000000E+00  0.00000000000E+00  0.49103768965E+02  0.49103768965E+02  0.00000000000E+00 0.  1.
          1   -1    0    0  501    0  0.00000000000E+00 -0.00000000000E+00 -0.38057583017E+03  0.38057583017E+03  0.00000000000E+00 0. -1.
         25    2    1    2    0    0  0.96028262559E+01  0.78042521793E+02 -0.13720482407E+03  0.20162977157E+03  0.12508617651E+03 0.  0.
         23    2    1    2    0    0 -0.96028262559E+01 -0.78042521793E+02 -0.19426723713E+03  0.22804982756E+03  0.89911706407E+02 0.  0.
          5    1    3    3  502    0 -0.56149350250E+02  0.26538369136E+02 -0.42958440763E+02  0.75630249257E+02  0.41800000000E+01 0.  1.
         -5    1    3    3    0  502  0.65752176506E+02  0.51504152657E+02 -0.94246383310E+02  0.12599952231E+03  0.41800000000E+01 0.  1.
        -11    1    4    4    0    0  0.12353877063E+02 -0.29013830412E+02 -0.16272756287E+03  0.16575488032E+03  0.00000000000E+00 0. -1.
         11    1    4    4    0    0 -0.21956703319E+02 -0.49028691382E+02 -0.31539674265E+02  0.62294947243E+02  0.00000000000E+00 0.  1.
</event>
<event>
 8    1  0.7026811E-009  0.9885484E+02  0.7561462E-02  0.1282723E+00
         -1   -1    0    0    0  501 -0.00000000000E+00  0.00000000000E+00  0.10568508394E+03  0.10568508394E+03  0.00000000000E+00 0.  1.
          1   -1    0    0  501    0  0.00000000000E+00 -0.00000000000E+00 -0.25797602844E+03  0.25797602844E+03  0.00000000000E+00 0. -1.
         25    2    1    2    0    0  0.33358289182E+01 -0.10705724207E+02  0.54343741360E+02  0.13684510867E+03  0.12509037236E+03 0.  0.
         23    2    1    2    0    0 -0.33358289182E+01  0.10705724207E+02 -0.20663468586E+03  0.22681600371E+03  0.92854002891E+02 0.  0.
          5    1    3    3  502    0 -0.48690901642E+02 -0.42124183892E+02  0.31310637449E+02  0.71715264685E+02  0.41800000000E+01 0.  1.
         -5    1    3    3    0  502  0.52026730561E+02  0.31418459685E+02  0.23033103911E+02  0.65129843985E+02  0.41800000000E+01 0.  1.
        -11    1    4    4    0    0 -0.61077113695E+01  0.41199602997E+02 -0.41246504275E+02  0.58617280218E+02  0.00000000000E+00 0.  1.
         11    1    4    4    0    0  0.27718824513E+01 -0.30493878790E+02 -0.16538818159E+03  0.16819872349E+03  0.00000000000E+00 0. -1.
</event>
<event>
 8    1  0.7026811E-009  0.1061741E+03  0.7561462E-02  0.1267823E+00
         -2   -1    0    0    0  501 -0.00000000000E+00  0.00000000000E+00  0.85786223061E+02  0.85786223061E+02  0.00000000000E+00 0. -1.
          2   -1    0    0  501    0  0.00000000000E+00 -0.00000000000E+00 -0.21604572612E+03  0.21604572612E+03  0.00000000000E+00 0.  1.
         25    2    1    2    0    0  0.57752608474E+02  0.71623085912E+01 -0.97499363586E+01  0.13830780232E+03  0.12508926602E+03 0.  0.
         23    2    1    2    0    0 -0.57752608474E+02 -0.71623085912E+01 -0.12050956670E+03  0.16352414686E+03  0.93973020011E+02 0.  0.
          5    1    3    3  502    0 -0.61916097553E+01 -0.43303909536E+02  0.23958028469E+02  0.50050216189E+02  0.41800000000E+01 0. -1.
         -5    1    3    3    0  502  0.63944218229E+02  0.50466218127E+02 -0.33707964828E+02  0.88257586132E+02  0.41800000000E+01 0. -1.
        -11    1    4    4    0    0 -0.62488966660E+02  0.14926399080E+02 -0.12495125953E+03  0.14050083844E+03  0.00000000000E+00 0.  1.
         11    1    4    4    0    0  0.47363581856E+01 -0.22088707671E+02  0.44416928300E+01  0.23023308421E+02  0.00000000000E+00 0. -1.
</event>
<event>
 8    1  0.7026811E-009  0.1173819E+03  0.7561462E-02  0.1247480E+00
         -2   -1    0    0    0  501 -0.00000000000E+00  0.00000000000E+00  0.17143890321E+02  0.17143890321E+02  0.00000000000E+00 0.  1.
          2   -1    0    0  501    0  0.00000000000E+00 -0.00000000000E+00 -0.12075492727E+04  0.12075492727E+04  0.00000000000E+00 0. -1.
         25    2    1    2    0    0 -0.14246644517E+02 -0.65970583169E+02 -0.92754161815E+03  0.93837066689E+03  0.12510383828E+03 0.  0.
         23    2    1    2    0    0  0.14246644517E+02  0.65970583169E+02 -0.26286376418E+03  0.28632249608E+03  0.91258580531E+02 0.  0.
          5    1    3    3  502    0 -0.62337534590E+02 -0.40722699592E+01 -0.46867223877E+03  0.47283579750E+03  0.41800000000E+01 0.  1.
         -5    1    3    3    0  502  0.48090890073E+02 -0.61898313210E+02 -0.45886937938E+03  0.46553486939E+03  0.41800000000E+01 0.  1.
        -11    1    4    4    0    0  0.37736512429E+02  0.21672503379E+02 -0.20583937191E+03  0.21038913661E+03  0.00000000000E+00 0. -1.
         11    1    4    4    0    0 -0.23489867912E+02  0.44298079790E+02 -0.57024392263E+02  0.75933359471E+02  0.00000000000E+00 0.  1.
</event>
<event>
 8    1  0.7026811E-009  0.1081150E+03  0.7561462E-02  0.1264101E+00
          1   -1    0    0  501    0  0.00000000000E+00  0.00000000000E+00  0.12770675162E+03  0.12770675162E+03  0.00000000000E+00 0. -1.
         -1   -1    0    0    0  501 -0.00000000000E+00 -0.00000000000E+00 -0.11331478898E+03  0.11331478898E+03  0.00000000000E+00 0.  1.
         25    2    1    2    0    0 -0.22124808953E+02  0.30740640646E+02  0.42674850693E+02  0.13750263792E+03  0.12510530922E+03 0.  0.
         23    2    1    2    0    0  0.22124808953E+02 -0.30740640646E+02 -0.28282888061E+02  0.10351890268E+03  0.92096402190E+02 0.  0.
          5    1    3    3  502    0 -0.50719987937E+02  0.60054483022E+02  0.53206489273E+02  0.95012951792E+02  0.41800000000E+01 0. -1.
         -5    1    3    3    0  502  0.28595178985E+02 -0.29313842376E+02 -0.10531638580E+02  0.42489686127E+02  0.41800000000E+01 0. -1.
        -11    1    4    4    0    0  0.49760071020E+02  0.62751600208E+01 -0.27755494551E+02  0.57321983383E+02  0.00000000000E+00 0.  1.
         11    1    4    4    0    0 -0.27635262067E+02 -0.37015800667E+02 -0.52739350992E+00  0.46196919296E+02  0.00000000000E+00 0. -1.
</event>
<event>
 8    1  0.7026811E-009  0.1629861E+03  0.7561462E-02  0.1185366E+00
          1   -1    0    0  501    0  0.00000000000E+00  0.00000000000E+00  0.60595373442E+03  0.60595373442E+03  0.00000000000E+00 0. -1.
         -1   -1    0    0    0  501 -0.00000000000E+00 -0.00000000000E+00 -0.66462078179E+02  0.66462078179E+02  0.00000000000E+00 0.  1.
         25    2    1    2    0    0 -0.13854242805E+03 -0.59153114557E+02  0.15573825108E+03  0.25018985009E+03  0.12508981937E+03 0.  0.
         23    2    1    2    0    0  0.13854242805E+03  0.59153114557E+02  0.38375340516E+03  0.42222596250E+03  0.91186578536E+02 0.  0.
          5    1    3    3  502    0 -0.73994288531E+02 -0.77698833317E+02  0.36747434563E+02  0.11349057133E+03  0.41800000000E+01 0. -1.
         -5    1    3    3    0  502 -0.64548139521E+02  0.18545718760E+02  0.11899081651E+03  0.13669927876E+03  0.41800000000E+01 0. -1.
        -11    1    4    4    0    0  0.90536202617E+02  0.31238410226E+02  0.12441545615E+03  0.15700906976E+03  0.00000000000E+00 0.  1.
         11    1    4    4    0    0  0.48006225435E+02  0.27914704331E+02  0.25933794901E+03  0.26521689274E+03  0.00000000000E+00 0. -1.
</event>
<event>
 8    1  0.7026811E-009  0.7053725E+02  0.7561462E-02  0.1358276E+00
          2   -1    0    0  501    0  0.00000000000E+00  0.00000000000E+00  0.10414004642E+03  0.10414004642E+03  0.00000000000E+00 0. -1.
         -2   -1    0    0    0  501 -0.00000000000E+00 -0.00000000000E+00 -0.13282870078E+03  0.13282870078E+03  0.00000000000E+00 0.  1.
         25    2    1    2    0    0  0.96408292950E+01  0.24580822517E+01  0.19171018194E+02  0.12693747318E+03  0.12508639574E+03 0.  0.
         23    2    1    2    0    0 -0.96408292950E+01 -0.24580822517E+01 -0.47859672562E+02  0.11003127402E+03  0.98576595842E+02 0.  0.
          5    1    3    3  502    0  0.36886381375E+02  0.27970485763E+02  0.57054551759E+02  0.73591082892E+02  0.41800000000E+01 0.  1.
         -5    1    3    3    0  502 -0.27245552080E+02 -0.25512403512E+02 -0.37883533565E+02  0.53346390285E+02  0.41800000000E+01 0.  1.
        -11    1    4    4    0    0 -0.24614202082E+02 -0.21589492562E+02 -0.69926040403E+02  0.77211503416E+02  0.00000000000E+00 0.  1.
         11    1    4    4    0    0  0.14973372787E+02  0.19131410311E+02  0.22066367841E+02  0.32819770609E+02  0.00000000000E+00 0. -1.
</event>
<event>
 8    1  0.7026811E-009  0.9029332E+02  0.7561462E-02  0.1302143E+00
         -2   -1    0    0    0  501 -0.00000000000E+00  0.00000000000E+00  0.42858235261E+03  0.42858235261E+03  0.00000000000E+00 0. -1.
          2   -1    0    0  501    0  0.00000000000E+00 -0.00000000000E+00 -0.34145831713E+02  0.34145831713E+02  0.00000000000E+00 0.  1.
         25    2    1    2    0    0  0.11071825232E+02  0.36573589873E+02  0.14241138708E+03  0.19336144241E+03  0.12508969362E+03 0.  0.
         23    2    1    2    0    0 -0.11071825232E+02 -0.36573589873E+02  0.25202513382E+03  0.26936674191E+03  0.87072158488E+02 0.  0.
          5    1    3    3  502    0 -0.38202453907E+02 -0.49382314152E+01  0.19779733576E+01  0.38796886378E+02  0.41800000000E+01 0. -1.
         -5    1    3    3    0  502  0.49274279139E+02  0.41511821289E+02  0.14043341372E+03  0.15456455603E+03  0.41800000000E+01 0. -1.
        -11    1    4    4    0    0 -0.39485275567E+02 -0.18534582919E+02  0.58690404579E+02  0.73124423692E+02  0.00000000000E+00 0.  1.
         11    1    4    4    0    0  0.28413450335E+02 -0.18039006954E+02  0.19333472924E+03  0.19624231822E+03  0.00000000000E+00 0. -1.
</event>
<event>
 8    1  0.7026811E-009  0.7486282E+02  0.7561462E-02  0.1344296E+00
          1   -1    0    0  501    0  0.00000000000E+00  0.00000000000E+00  0.19336514444E+03  0.19336514444E+03  0.00000000000E+00 0. -1.
         -1   -1    0    0    0  501 -0.00000000000E+00 -0.00000000000E+00 -0.91746267452E+02  0.91746267452E+02  0.00000000000E+00 0.  1.
         25    2    1    2    0    0 -0.14103644594E+02 -0.46443540987E+02 -0.98916027565E+01  0.13453662579E+03  0.12508534919E+03 0.  0.
         23    2    1    2    0    0  0.14103644594E+02  0.46443540987E+02  0.11151047974E+03  0.15057478610E+03  0.88782114343E+02 0.  0.
          5    1    3    3  502    0 -0.88252498930E+01 -0.33042482801E+02  0.56661270884E+02  0.66314875583E+02  0.41800000000E+01 0.  1.
         -5    1    3    3    0  502 -0.52783947015E+01 -0.13401058185E+02 -0.66552873641E+02  0.68221750205E+02  0.41800000000E+01 0.  1.
        -11    1    4    4    0    0 -0.20612622404E+02 -0.17809671308E+02  0.21761953276E+02  0.34866132634E+02  0.00000000000E+00 0. -1.
         11    1    4    4    0    0  0.34716266999E+02  0.64253212295E+02  0.89748526465E+02  0.11570865347E+03  0.00000000000E+00 0.  1.
</event>
<event>
 8    1  0.7026811E-009  0.1150478E+03  0.7561462E-02  0.1251498E+00
         -1   -1    0    0    0  501 -0.00000000000E+00  0.00000000000E+00  0.17746702509E+03  0.17746702509E+03  0.00000000000E+00 0.  1.
          1   -1    0    0  501    0  0.00000000000E+00 -0.00000000000E+00 -0.94891063022E+02  0.94891063022E+02  0.00000000000E+00 0. -1.
         25    2    1    2    0    0 -0.51919738991E+02  0.93447407968E+01  0.98253778456E+02  0.16758706685E+03  0.12509451034E+03 0.  0.
         23    2    1    2    0    0  0.51919738991E+02 -0.93447407968E+01 -0.15677816392E+02  0.10477102126E+03  0.89152619097E+02 0.  0.
          5    1    3    3  502    0 -0.92891257557E+02  0.94194066035E+01  0.57985216114E+02  0.10998758402E+03  0.41800000000E+01 0. -1.
         -5    1    3    3    0  502  0.40971518566E+02 -0.74665806691E-01  0.40268562342E+02  0.57599482825E+02  0.41800000000E+01 0. -1.
        -11    1    4    4    0    0  0.37127984850E+02 -0.44117934357E+02  0.10753742767E+02  0.58655966230E+02  0.00000000000E+00 0.  1.
         11    1    4    4    0    0  0.14791754141E+02  0.34773193560E+02 -0.26431559159E+02  0.46115055031E+02  0.00000000000E+00 0. -1.
</event>
<event>
 8    1  0.7026811E-009  0.1306401E+03  0.7561462E-02  0.1226509E+00
          2   -1    0    0  501    0  0.00000000000E+00  0.00000000000E+00  0.15297470485E+03  0.15297470485E+03  0.00000000000E+00 0. -1.
         -2   -1    0    0    0  501 -0.00000000000E+00 -0.00000000000E+00 -0.13516183434E+03  0.13516183434E+03  0.00000000000E+00 0.  1.
         25    2    1    2    0    0 -0.32919120918E+02 -0.74364320272E+02 -0.31416478281E+02  0.15247476181E+03  0.12509131557E+03 0.  0.
         23    2    1    2    0    0  0.32919120918E+02  0.74364320272E+02  0.49229348792E+02  0.13566177737E+03  0.96782583177E+02 0.  0.
          5    1    3    3  502    0 -0.19608267824E+02  0.27740790066E+02 -0.35535715192E+02  0.49338575727E+02  0.41800000000E+01 0.  1.
         -5    1    3    3    0  502 -0.13310853094E+02 -0.10210511034E+03  0.41192369105E+01  0.10313618608E+03  0.41800000000E+01 0.  1.
        -11    1    4    4    0    0 -0.32339275624E+02  0.14498133045E+02  0.24946884357E+01  0.35528130827E+02  0.00000000000E+00 0.  1.
         11    1    4    4    0    0  0.65258396542E+02  0.59866187227E+02  0.46734660356E+02  0.10013364655E+03  0.00000000000E+00 0. -1.
</event>
<event>
 8    1  0.7026811E-009  0.1892634E+03  0.7561462E-02  0.1159127E+00
         -2   -1    0    0    0  501 -0.00000000000E+00  0.00000000000E+00  0.65131366268E+02  0.65131366268E+02  0.00000000000E+00 0. -1.
          2   -1    0    0  501    0  0.00000000000E+00 -0.00000000000E+00 -0.72721673948E+03  0.72721673948E+03  0.00000000000E+00 0.  1.
         25    2    1    2    0    0  0.15857411943E+03  0.83284410775E+02 -0.23698654679E+03  0.32232108521E+03  0.12508482794E+03 0.  0.
         23    2    1    2    0    0 -0.15857411943E+03 -0.83284410775E+02 -0.42509882643E+03  0.47002702054E+03  0.90190594737E+02 0.  0.
          5    1    3    3  502    0  0.16400399969E+03  0.74178388152E+02 -0.14929919751E+03  0.23389627607E+03  0.41800000000E+01 0.  1.
         -5    1    3    3    0  502 -0.54298802572E+01  0.91060226228E+01 -0.87687349277E+02  0.88424809137E+02  0.41800000000E+01 0.  1.
        -11    1    4    4    0    0 -0.39197233781E+02 -0.49259101482E+02 -0.23266312976E+03  0.24102907328E+03  0.00000000000E+00 0.  1.
         11    1    4    4    0    0 -0.11937688565E+03 -0.34025309293E+02 -0.19243569666E+03  0.22899794726E+03  0.00000000000E+00 0. -1.
</event>
<event>
 8    1  0.7026811E-009  0.1041638E+03  0.7561462E-02  0.1271776E+00
         -2   -1    0    0    0  501 -0.00000000000E+00  0.00000000000E+00  0.21562571812E+02  0.21562571812E+02  0.00000000000E+00 0.  1.
          2   -1    0    0  501    0  0.00000000000E+00 -0.00000000000E+00 -0.65238771741E+03  0.65238771741E+03  0.00000000000E+00 0. -1.
         25    2    1    2    0    0  0.28868645300E+02 -0.22563561525E+01 -0.46640720935E+03  0.48375861447E+03  0.12509285479E+03 0.  0.
         23    2    1    2    0    0 -0.28868645300E+02  0.22563561525E+01 -0.16441793625E+03  0.19019167475E+03  0.91110512889E+02 0.  0.
          5    1    3    3  502    0  0.65418665338E+02  0.36167448087E+02 -0.25518816974E+03  0.26594390471E+03  0.41800000000E+01 0. -1.
         -5    1    3    3    0  502 -0.36550020037E+02 -0.38423804240E+02 -0.21121903961E+03  0.21781470977E+03  0.41800000000E+01 0. -1.
        -11    1    4    4    0    0 -0.54537302485E+02  0.24999617974E+01 -0.53852385866E+02  0.76685374321E+02  0.00000000000E+00 0.  1.
         11    1    4    4    0    0  0.25668657184E+02 -0.24360564488E+00 -0.11056555038E+03  0.11350630043E+03  0.00000000000E+00 0. -1.
</event>
<event>
 8    1  0.7026811E-009  0.1147739E+03  0.7561462E-02  0.1251976E+00
          1   -1    0    0  501    0  0.00000000000E+00  0.00000000000E+00  0.67235690513E+03  0.67235690513E+03  0.00000000000E+00 0. -1.
         -1   -1    0    0    0  501 -0.00000000000E+00 -0.00000000000E+00 -0.23284484617E+02  0.23284484617E+02  0.00000000000E+00 0.  1.
         25    2    1    2    0    0 -0.25115456065E+02 -0.53962403334E+02  0.28693574404E+03  0.31862455362E+03  0.12508700116E+03 0.  0.
         23    2    1    2    0    0  0.25115456065E+02  0.53962403334E+02  0.36213667648E+03  0.37701683613E+03  0.86348104586E+02 0.  0.
          5    1    3    3  502    0 -0.32967768657E+01 -0.86207054855E+02  0.12443681201E+03  0.15147447847E+03  0.41800000000E+01 0.  1.
         -5    1    3    3    0  502 -0.21818679200E+02  0.32244651520E+02  0.16249893203E+03  0.16715007515E+03  0.41800000000E+01 0.  1.
        -11    1    4    4    0    0 -0.29463607404E+02  0.36088726668E+02  0.18639369352E+03  0.19212784634E+03  0.00000000000E+00 0.  1.
         11    1    4    4    0    0  0.54579063470E+02  0.17873676666E+02  0.17574298296E+03  0.18488898979E+03  0.00000000000E+00 0. -1.
</event>
<event>
 8    1  0.7026811E-009  0.8891034E+02  0.7561462E-02  0.1305512E+00
         -2   -1    0    0    0  501 -0.00000000000E+00  0.00000000000E+00  0.45435632102E+02  0.45435632102E+02  0.00000000000E+00 0.  1.
          2   -1    0    0  501    0  0.00000000000E+00 -0.00000000000E+00 -0.31650163251E+03  0.31650163251E+03  0.00000000000E+00 0. -1.
         25    2    1    2    0    0 -0.37674176173E+02 -0.23021595685E+02 -0.19985544083E+03  0.23987283891E+03  0.12508974457E+03 0.  0.
         23    2    1    2    0    0  0.37674176173E+02  0.23021595685E+02 -0.71210559573E+02  0.12206442570E+03  0.88766225610E+02 0.  0.
          5    1    3    3  502    0 -0.30900691360E+01  0.21967963043E+02 -0.17719418831E+03  0.17862640538E+03  0.41800000000E+01 0. -1.
         -5    1    3    3    0  502 -0.34584107037E+02 -0.44989558728E+02 -0.22661252523E+02  0.61246433529E+02  0.41800000000E+01 0. -1.
        -11    1    4    4    0    0 -0.16930135912E+02  0.38105162090E+02 -0.22657755876E+02  0.47455313519E+02  0.00000000000E+00 0.  1.
         11    1    4    4    0    0  0.54604312086E+02 -0.15083566405E+02 -0.48552803697E+02  0.74609112183E+02  0.00000000000E+00 0. -1.
</event>
<event>
 8    1  0.7026811E-009  0.1015581E+03  0.7561462E-02  0.1277053E+00
         -4   -1    0    0    0  501 -0.00000000000E+00  0.00000000000E+00  0.25077355503E+02  0.25077355503E+02  0.00000000000E+00 0. -1.
          4   -1    0    0  501    0  0.00000000000E+00 -0.00000000000E+00 -0.49850443204E+03  0.49850443204E+03  0.00000000000E+00 0.  1.
         25    2    1    2    0    0 -0.82822501119E+01 -0.91311765306E+01 -0.33331368146E+03  0.35622550628E+03  0.12508647819E+03 0.  0.
         23    2    1    2    0    0  0.82822501119E+01  0.91311765306E+01 -0.14011339509E+03  0.16735628127E+03  0.90688408004E+02 0.  0.
          5    1    3    3  502    0 -0.66365287923E+02 -0.59644013616E+01 -0.19527798343E+03  0.20637560112E+03  0.41800000000E+01 0. -1.
         -5    1    3    3    0  502  0.58083037811E+02 -0.31667751689E+01 -0.13803569803E+03  0.14984990516E+03  0.41800000000E+01 0. -1.
        -11    1    4    4    0    0  0.37857745316E+02 -0.14127297091E+02 -0.28167261505E+02  0.49256309486E+02  0.00000000000E+00 0. -1.
         11    1    4    4    0    0 -0.29575495204E+02  0.23258473622E+02 -0.11194613358E+03  0.11809997178E+03  0.00000000000E+00 0.  1.
</event>
<event>
 8    1  0.7026811E-009  0.3973453E+03  0.7561462E-02  0.1044703E+00
          1   -1    0    0  501    0  0.00000000000E+00  0.00000000000E+00  0.30404759323E+04  0.30404759323E+04  0.00000000000E+00 0. -1.
         -1   -1    0    0    0  501 -0.00000000000E+00 -0.00000000000E+00 -0.60035111173E+02  0.60035111173E+02  0.00000000000E+00 0.  1.
         25    2    1    2    0    0  0.39217333760E+03 -0.43608746789E+02  0.19493571640E+04  0.19928227937E+04  0.12509070748E+03 0.  0.
         23    2    1    2    0    0 -0.39217333760E+03  0.43608746789E+02  0.10310836572E+04  0.11076882497E+04  0.90211423739E+02 0.  0.
          5    1    3    3  502    0  0.36866462272E+03 -0.41782676734E+02  0.15921789956E+04  0.16348427516E+04  0.41800000000E+01 0.  1.
         -5    1    3    3    0  502  0.23508714880E+02 -0.18260700557E+01  0.35717816835E+03  0.35798004211E+03  0.41800000000E+01 0.  1.
        -11    1    4    4    0    0 -0.54717651405E+02  0.28989994325E+02  0.10461985152E+03  0.12157201355E+03  0.00000000000E+00 0.  1.
         11    1    4    4    0    0 -0.33745568619E+03  0.14618752464E+02  0.92646380566E+03  0.98611623618E+03  0.00000000000E+00 0. -1.
</event>
<event>
 8    1  0.7026811E-009  0.1374282E+03  0.7561462E-02  0.1216832E+00
         -3   -1    0    0    0  501 -0.00000000000E+00  0.00000000000E+00  0.14336976874E+03  0.14336976874E+03  0.00000000000E+00 0.  1.
          3   -1    0    0  501    0  0.00000000000E+00 -0.00000000000E+00 -0.15351571673E+03  0.15351571673E+03  0.00000000000E+00 0. -1.
         25    2    1    2    0    0 -0.69778405368E+01 -0.10036236728E+03 -0.82635229000E+01  0.16073824448E+03  0.12508877808E+03 0.  0.
         23    2    1    2    0    0  0.69778405368E+01  0.10036236728E+03 -0.18824250816E+01  0.13614724099E+03  0.91712772730E+02 0.  0.
          5    1    3    3  502    0 -0.14444507640E+02 -0.12095029414E+03 -0.34148707617E+02  0.12657497417E+03  0.41800000000E+01 0.  1.
         -5    1    3    3    0  502  0.74666671030E+01  0.20587926864E+02  0.25885184717E+02  0.34163270306E+02  0.41800000000E+01 0.  1.
        -11    1    4    4    0    0  0.44555448420E+02  0.66800396409E+02  0.17470583537E+02  0.82174827249E+02  0.00000000000E+00 0.  1.
         11    1    4    4    0    0 -0.37577607883E+02  0.33561970869E+02 -0.19353008618E+02  0.53972413745E+02  0.00000000000E+00 0. -1.
</event>
<event>
 8    1  0.7026811E-009  0.1618409E+03  0.7561462E-02  0.1186634E+00
          2   -1    0    0  501    0  0.00000000000E+00  0.00000000000E+00  0.13497889584E+04  0.13497889584E+04  0.00000000000E+00 0. -1.
         -2   -1    0    0    0  501 -0.00000000000E+00 -0.00000000000E+00 -0.22531943728E+02  0.22531943728E+02  0.00000000000E+00 0.  1.
         25    2    1    2    0    0  0.12665421476E+03  0.34110225087E+02  0.83669738801E+03  0.85610439165E+03  0.12508961877E+03 0.  0.
         23    2    1    2    0    0 -0.12665421476E+03 -0.34110225087E+02  0.49055962669E+03  0.51621651051E+03  0.92875943117E+02 0.  0.
          5    1    3    3  502    0  0.50422510819E+02  0.63590193888E+02  0.60384787010E+03  0.60929128090E+03  0.41800000000E+01 0. -1.
         -5    1    3    3    0  502  0.76231703942E+02 -0.29479968801E+02  0.23284951791E+03  0.24681311075E+03  0.41800000000E+01 0. -1.
        -11    1    4    4    0    0 -0.14155719742E+02 -0.45361864382E+02  0.13549545899E+03  0.14358656813E+03  0.00000000000E+00 0. -1.
         11    1    4    4    0    0 -0.11249849502E+03  0.11251639296E+02  0.35506416770E+03  0.37262994237E+03  0.00000000000E+00 0.  1.
</event>
<event>
 8    1  0.7026811E-009  0.1202021E+03  0.7561462E-02  0.1242764E+00
         -2   -1    0    0    0  501 -0.00000000000E+00  0.00000000000E+00  0.20175095293E+02  0.20175095293E+02  0.00000000000E+00 0.  1.
          2   -1    0    0  501    0  0.00000000000E+00 -0.00000000000E+00 -0.11780686980E+04  0.11780686980E+04  0.00000000000E+00 0. -1.
         25    2    1    2    0    0 -0.69326156739E+02 -0.82447987651E+02 -0.72190005421E+03  0.74053354455E+03  0.12508579322E+03 0.  0.
         23    2    1    2    0    0  0.69326156739E+02  0.82447987651E+02 -0.43599354854E+03  0.45771024878E+03  0.88343142315E+02 0.  0.
          5    1    3    3  502    0 -0.50816665089E+02 -0.97428309561E+01 -0.87807129882E+02  0.10200402278E+03  0.41800000000E+01 0. -1.
         -5    1    3    3    0  502 -0.18509491650E+02 -0.72705156695E+02 -0.63409292432E+03  0.63852952177E+03  0.41800000000E+01 0. -1.
        -11    1    4    4    0    0  0.16749642043E+02  0.14838382972E+01 -0.73868599529E+01  0.18366218572E+02  0.00000000000E+00 0.  1.
         11    1    4    4    0    0  0.52576514695E+02  0.80964149354E+02 -0.42860668858E+03  0.43934403021E+03  0.00000000000E+00 0. -1.
</event>
<event>
 8    1  0.7026811E-009  0.1324932E+03  0.7561462E-02  0.1223802E+00
         -1   -1    0    0    0  501 -0.00000000000E+00  0.00000000000E+00  0.49604474353E+02  0.49604474353E+02  0.00000000000E+00 0.  1.
          1   -1    0    0  501    0  0.00000000000E+00 -0.00000000000E+00 -0.46164872956E+03  0.46164872956E+03  0.00000000000E+00 0. -1.
         25    2    1    2    0    0 -0.38507576394E+02  0.82278255172E+02 -0.30959010302E+03  0.34604373590E+03  0.12509072928E+03 0.  0.
         23    2    1    2    0    0  0.38507576394E+02 -0.82278255172E+02 -0.10245415219E+03  0.16520946802E+03  0.92437926785E+02 0.  0.
          5    1    3    3  502    0 -0.62122517049E+02  0.10420474288E+03 -0.25697412061E+03  0.28420240433E+03  0.41800000000E+01 0.  1.
         -5    1    3    3    0  502  0.23614940655E+02 -0.21926487704E+02 -0.52615982413E+02  0.61841331571E+02  0.41800000000E+01 0.  1.
        -11    1    4    4    0    0 -0.77982958460E+01 -0.58557704653E+02 -0.96085983997E+02  0.11279332654E+03  0.00000000000E+00 0. -1.
         11    1    4    4    0    0  0.46305872240E+02 -0.23720550519E+02 -0.63681681902E+01  0.52416141473E+02  0.00000000000E+00 0.  1.
</event>
<event>
 8    1  0.7026811E-009  0.1295598E+03  0.7561462E-02  0.1228110E+00
         -1   -1    0    0    0  501 -0.00000000000E+00  0.00000000000E+00  0.20668629423E+02  0.20668629423E+02  0.00000000000E+00 0.  1.
          1   -1    0    0  501    0  0.00000000000E+00 -0.00000000000E+00 -0.14510781670E+04  0.14510781670E+04  0.00000000000E+00 0. -1.
         25    2    1    2    0    0  0.31624687756E+02 -0.69587485563E+02 -0.12343406495E+04  0.12430150409E+04  0.12508802452E+03 0.  0.
         23    2    1    2    0    0 -0.31624687756E+02  0.69587485563E+02 -0.19606888807E+03  0.22873175551E+03  0.89625153214E+02 0.  0.
          5    1    3    3  502    0 -0.71592648752E+01 -0.94789820975E+02 -0.96703958660E+03  0.97170952434E+03  0.41800000000E+01 0. -1.
         -5    1    3    3    0  502  0.38783952631E+02  0.25202335412E+02 -0.26730106294E+03  0.27130551661E+03  0.41800000000E+01 0. -1.
        -11    1    4    4    0    0 -0.44379726091E+02 -0.23739963105E+01 -0.66791048236E+02  0.80226180707E+02  0.00000000000E+00 0.  1.
         11    1    4    4    0    0  0.12755038335E+02  0.71961481874E+02 -0.12927783983E+03  0.14850557480E+03  0.00000000000E+00 0. -1.
</event>
<event>
 8    1  0.7026811E-009  0.1151129E+03  0.7561462E-02  0.1251384E+00
          1   -1    0    0  501    0  0.00000000000E+00  0.00000000000E+00  0.55784307672E+03  0.55784307672E+03  0.00000000000E+00 0. -1.
         -1   -1    0    0    0  501 -0.00000000000E+00 -0.00000000000E+00 -0.35582292560E+02  0.35582292560E+02  0.00000000000E+00 0.  1.
         25    2    1    2    0    0  0.34884122654E+02 -0.56607521967E+02  0.15858110140E+03  0.21264893579E+03  0.12510112156E+03 0.  0.
         23    2    1    2    0    0 -0.34884122654E+02  0.56607521967E+02  0.36367968276E+03  0.38077643349E+03  0.91139821662E+02 0.  0.
          5    1    3    3  502    0 -0.31604593120E+02 -0.26988086447E+01  0.10909175284E+03  0.11368648473E+03  0.41800000000E+01 0. -1.
         -5    1    3    3    0  502  0.66488715774E+02 -0.53908713323E+02  0.49489348562E+02  0.98962451053E+02  0.41800000000E+01 0. -1.
        -11    1    4    4    0    0 -0.43690139366E+02 -0.10431069045E+02  0.15859513533E+03  0.16483340811E+03  0.00000000000E+00 0.  1.
         11    1    4    4    0    0  0.88060167123E+01  0.67038591012E+02  0.20508454743E+03  0.21594302538E+03  0.00000000000E+00 0. -1.
</event>
<event>
 8    1  0.7026811E-009  0.9785065E+02  0.7561462E-02  0.1284882E+00
         -2   -1    0    0    0  501 -0.00000000000E+00  0.00000000000E+00  0.15729978971E+02  0.15729978971E+02  0.00000000000E+00 0.  1.
          2   -1    0    0  501    0  0.00000000000E+00 -0.00000000000E+00 -0.82790820565E+03  0.82790820565E+03  0.00000000000E+00 0. -1.
         25    2    1    2    0    0 -0.45461020140E+01  0.15447703056E+02 -0.59086137683E+03  0.60417170099E+03  0.12508788544E+03 0.  0.
         23    2    1    2    0    0  0.45461020140E+01 -0.15447703056E+02 -0.22131684985E+03  0.23946648362E+03  0.90020831914E+02 0.  0.
          5    1    3    3  502    0  0.46992457225E+02  0.40825334617E+02 -0.39907811397E+03  0.40392550357E+03  0.41800000000E+01 0.  1.
         -5    1    3    3    0  502 -0.51538559239E+02 -0.25377631561E+02 -0.19178326285E+03  0.20024619742E+03  0.41800000000E+01 0.  1.
        -11    1    4    4    0    0  0.97752491511E+01 -0.44822157086E+02 -0.60613848945E+02  0.76017234531E+02  0.00000000000E+00 0.  1.
         11    1    4    4    0    0 -0.52291471371E+01  0.29374454030E+02 -0.16070300090E+03  0.16344924909E+03  0.00000000000E+00 0. -1.
</event>
<event>
 8    1  0.7026811E-009  0.1137486E+03  0.7561462E-02  0.1253781E+00
         -4   -1    0    0    0  501 -0.00000000000E+00  0.00000000000E+00  0.95305094704E+03  0.95305094704E+03  0.00000000000E+00 0.  1.
          4   -1    0    0  501    0  0.00000000000E+00 -0.00000000000E+00 -0.23272583998E+02  0.23272583998E+02  0.00000000000E+00 0. -1.
         25    2    1    2    0    0  0.69275777805E+02 -0.69020573048E+02  0.40897658058E+03  0.43871632456E+03  0.12508875680E+03 0.  0.
         23    2    1    2    0    0 -0.69275777805E+02  0.69020573048E+02  0.52080178246E+03  0.53760720647E+03  0.90686487131E+02 0.  0.
          5    1    3    3  502    0  0.21050445406E+02 -0.51431767529E+01  0.31256089865E+03  0.31333905164E+03  0.41800000000E+01 0. -1.
         -5    1    3    3    0  502  0.48225332399E+02 -0.63877396295E+02  0.96415681934E+02  0.12537727292E+03  0.41800000000E+01 0. -1.
        -11    1    4    4    0    0 -0.63749078070E+02  0.82737506706E+01  0.35857624172E+03  0.36429290554E+03  0.00000000000E+00 0.  1.
         11    1    4    4    0    0 -0.55266997349E+01  0.60746822377E+02  0.16222554074E+03  0.17331430093E+03  0.00000000000E+00 0. -1.
</event>
<event>
 8    1  0.7026811E-009  0.7722672E+02  0.7561462E-02  0.1337111E+00
         -2   -1    0    0    0  501 -0.00000000000E+00  0.00000000000E+00  0.47919958442E+02  0.47919958442E+02  0.00000000000E+00 0. -1.
          2   -1    0    0  501    0  0.00000000000E+00 -0.00000000000E+00 -0.35887636714E+03  0.35887636714E+03  0.00000000000E+00 0.  1.
         25    2    1    2    0    0 -0.18039652439E+02 -0.14541728971E+02 -0.63206032228E+02  0.14206003800E+03  0.12509660644E+03 0.  0.
         23    2    1    2    0    0  0.18039652439E+02  0.14541728971E+02 -0.24775037647E+03  0.26473628759E+03  0.90377884367E+02 0.  0.
          5    1    3    3  502    0  0.91334690221E+01 -0.35642668883E+02 -0.90605313220E+02  0.97880617515E+02  0.41800000000E+01 0.  1.
         -5    1    3    3    0  502 -0.27173121461E+02  0.21100939912E+02  0.27399280992E+02  0.44179420481E+02  0.41800000000E+01 0.  1.
        -11    1    4    4    0    0  0.48926760925E+02  0.16962536932E+02 -0.20793973011E+03  0.21429065997E+03  0.00000000000E+00 0.  1.
         11    1    4    4    0    0 -0.30887108486E+02 -0.24208079612E+01 -0.39810646366E+02  0.50445627619E+02  0.00000000000E+00 0. -1.
</event>
<event>
 8    1  0.7026811E-009  0.1202509E+03  0.7561462E-02  0.1242684E+00
         -1   -1    0    0    0  501 -0.00000000000E+00  0.00000000000E+00  0.18625182667E+02  0.18625182667E+02  0.00000000000E+00 0.  1.
          1   -1    0    0  501    0  0.00000000000E+00 -0.00000000000E+00 -0.90560076743E+03  0.90560076743E+03  0.00000000000E+00 0. -1.
         25    2    1    2    0    0 -0.51304427723E+02  0.28702604367E+02 -0.64853544277E+03  0.66309983064E+03  0.12508869278E+03 0.  0.
         23    2    1    2    0    0  0.51304427723E+02 -0.28702604367E+02 -0.23844014199E+03  0.26112611946E+03  0.88753395139E+02 0.  0.
          5    1    3    3  502    0  0.25553276263E+02  0.49316011392E+02 -0.33489186351E+03  0.33949237334E+03  0.41800000000E+01 0. -1.
         -5    1    3    3    0  502 -0.76857703986E+02 -0.20613407025E+02 -0.31364357925E+03  0.32360745730E+03  0.41800000000E+01 0. -1.
        -11    1    4    4    0    0  0.72562958145E+01 -0.53890481901E+02 -0.14387316545E+03  0.15380612993E+03  0.00000000000E+00 0.  1.
         11    1    4    4    0    0  0.44048131909E+02  0.25187877534E+02 -0.94566976545E+02  0.10731998953E+03  0.00000000000E+00 0. -1.
</event>
<event>
 8    1  0.7026811E-009  0.9610936E+02  0.7561462E-02  0.1288697E+00
          1   -1    0    0  501    0  0.00000000000E+00  0.00000000000E+00  0.19289000797E+02  0.19289000797E+02  0.00000000000E+00 0. -1.
         -1   -1    0    0    0  501 -0.00000000000E+00 -0.00000000000E+00 -0.65879290629E+03  0.65879290629E+03  0.00000000000E+00 0.  1.
         25    2    1    2    0    0 -0.25692664339E+02  0.48921780675E+01 -0.40269746785E+03  0.42248870579E+03  0.12508960586E+03 0.  0.
         23    2    1    2    0    0  0.25692664339E+02 -0.48921780675E+01 -0.23680643764E+03  0.25559320130E+03  0.92555654804E+02 0.  0.
          5    1    3    3  502    0 -0.49304882850E+02 -0.40522236203E+02 -0.30987348175E+03  0.31640491493E+03  0.41800000000E+01 0. -1.
         -5    1    3    3    0  502  0.23612218511E+02  0.45414414271E+02 -0.92823986101E+02  0.10608379086E+03  0.41800000000E+01 0. -1.
        -11    1    4    4    0    0  0.39005690306E+02 -0.29514955856E+02 -0.21390690352E+03  0.21942821119E+03  0.00000000000E+00 0.  1.
         11    1    4    4    0    0 -0.13313025967E+02  0.24622777788E+02 -0.22899534125E+02  0.36164990108E+02  0.00000000000E+00 0. -1.
</event>
<event>
 8    1  0.7026811E-009  0.1056262E+03  0.7561462E-02  0.1268891E+00
          2   -1    0    0  501    0  0.00000000000E+00  0.00000000000E+00  0.15139489588E+03  0.15139489588E+03  0.00000000000E+00 0.  1.
         -2   -1    0    0    0  501 -0.00000000000E+00 -0.00000000000E+00 -0.11365662137E+03  0.11365662137E+03  0.00000000000E+00 0. -1.
         25    2    1    2    0    0 -0.43075067242E+02  0.40559239718E+02  0.64834020070E+02  0.15281172265E+03  0.12508980405E+03 0.  0.
         23    2    1    2    0    0  0.43075067242E+02 -0.40559239718E+02 -0.27095745562E+02  0.11223979459E+03  0.91449869969E+02 0.  0.
          5    1    3    3  502    0 -0.54173493307E+02 -0.25716703277E+02  0.11323424583E+01  0.60123795655E+02  0.41800000000E+01 0. -1.
         -5    1    3    3    0  502  0.11098426065E+02  0.66275942995E+02  0.63701677611E+02  0.92687927000E+02  0.41800000000E+01 0. -1.
        -11    1    4    4    0    0 -0.12985613767E+02  0.23710304770E+01 -0.38513044994E+02  0.40712437721E+02  0.00000000000E+00 0. -1.
         11    1    4    4    0    0  0.56060681009E+02 -0.42930270195E+02  0.11417299432E+02  0.71527356868E+02  0.00000000000E+00 0.  1.
</event>
<event>
 8    1  0.7026811E-009  0.9511176E+02  0.7561462E-02  0.1290925E+00
          2   -1    0    0  501    0  0.00000000000E+00  0.00000000000E+00  0.39319054707E+03  0.39319054707E+03  0.00000000000E+00 0. -1.
         -2   -1    0    0    0  501 -0.00000000000E+00 -0.00000000000E+00 -0.33537348365E+02  0.33537348365E+02  0.00000000000E+00 0.  1.
         25    2    1    2    0    0 -0.16449268691E+02 -0.15678402451E+02  0.14895664891E+03  0.19583570790E+03  0.12508857057E+03 0.  0.
         23    2    1    2    0    0  0.16449268691E+02  0.15678402451E+02  0.21069654980E+03  0.23089218754E+03  0.91661199140E+02 0.  0.
          5    1    3    3  502    0  0.40965089202E+02 -0.36347320414E+02  0.11101467688E+03  0.12385877893E+03  0.41800000000E+01 0.  1.
         -5    1    3    3    0  502 -0.57414357893E+02  0.20668917962E+02  0.37941972028E+02  0.71976928966E+02  0.41800000000E+01 0.  1.
        -11    1    4    4    0    0  0.17597925689E+02  0.43169808607E+02  0.19211456727E+03  0.19768997527E+03  0.00000000000E+00 0. -1.
         11    1    4    4    0    0 -0.11486569974E+01 -0.27491406156E+02  0.18581982526E+02  0.33202212274E+02  0.00000000000E+00 0.  1.
</event>
<event>
 8    1  0.7026811E-009  0.8527280E+02  0.7561462E-02  0.1314721E+00
         -1   -1    0    0    0  501 -0.00000000000E+00  0.00000000000E+00  0.58860927861E+02  0.58860927861E+02  0.00000000000E+00 0.  1.
          1   -1    0    0  501    0  0.00000000000E+00 -0.00000000000E+00 -0.22815022145E+03  0.22815022145E+03  0.00000000000E+00 0. -1.
         25    2    1    2    0    0 -0.10385818626E+02  0.82600716023E-01 -0.57656248465E+02  0.13811565490E+03  0.12507525371E+03 0.  0.
         23    2    1    2    0    0  0.10385818626E+02 -0.82600716023E-01 -0.11163304512E+03  0.14889549441E+03  0.97979893040E+02 0.  0.
          5    1    3    3  502    0 -0.58174958440E+01  0.59046336712E+02 -0.51193474715E+02  0.78476476669E+02  0.41800000000E+01 0.  1.
         -5    1    3    3    0  502 -0.45683227820E+01 -0.58963735996E+02 -0.64627737503E+01  0.59639178232E+02  0.41800000000E+01 0.  1.
        -11    1    4    4    0    0  0.29156902199E+02  0.95486089418E+01  0.43693142290E+01  0.30990188534E+02  0.00000000000E+00 0.  1.
         11    1    4    4    0    0 -0.18771083573E+02 -0.96312096578E+01 -0.11600235935E+03  0.11790530587E+03  0.00000000000E+00 0. -1.
</event>
<event>
 8    1  0.7026811E-009  0.1206379E+03  0.7561462E-02  0.1242048E+00
         -1   -1    0    0    0  501 -0.00000000000E+00  0.00000000000E+00  0.57978027906E+03  0.57978027906E+03  0.00000000000E+00 0.  1.
          1   -1    0    0  501    0  0.00000000000E+00 -0.00000000000E+00 -0.32571247130E+02  0.32571247130E+02  0.00000000000E+00 0. -1.
         25    2    1    2    0    0 -0.63548578979E+02 -0.44685929679E+02  0.23121274062E+03  0.27412080492E+03  0.12509048750E+03 0.  0.
         23    2    1    2    0    0  0.63548578979E+02  0.44685929679E+02  0.31599629131E+03  0.33823072128E+03  0.92255679982E+02 0.  0.
          5    1    3    3  502    0 -0.67853432337E+02  0.27706042937E+02  0.98746018386E+02  0.12304455145E+03  0.41800000000E+01 0.  1.
         -5    1    3    3    0  502  0.43048533574E+01 -0.72391972615E+02  0.13246672223E+03  0.15107625346E+03  0.41800000000E+01 0.  1.
        -11    1    4    4    0    0 -0.53865416149E+01  0.22004002907E+02  0.11888280471E+02  0.25583631233E+02  0.00000000000E+00 0. -1.
         11    1    4    4    0    0  0.68935120594E+02  0.22681926772E+02  0.30410801084E+03  0.31264709004E+03  0.00000000000E+00 0.  1.
</event>
<event>
 8    1  0.7026811E-009  0.1200371E+03  0.7561462E-02  0.1243036E+00
          1   -1    0    0  501    0  0.00000000000E+00  0.00000000000E+00  0.30565663156E+03  0.30565663156E+03  0.00000000000E+00 0. -1.
         -1   -1    0    0    0  501 -0.00000000000E+00 -0.00000000000E+00 -0.70110547888E+02  0.70110547888E+02  0.00000000000E+00 0.  1.
         25    2    1    2    0    0 -0.58065806296E+00 -0.52922096729E+02  0.22119276559E+02  0.13761510289E+03  0.12509024207E+03 0.  0.
         23    2    1    2    0    0  0.58065806296E+00  0.52922096729E+02  0.21342680711E+03  0.23815207656E+03  0.91456678758E+02 0.  0.
          5    1    3    3  502    0  0.12180542765E+01  0.40684528628E+02  0.15177918942E+02  0.43641220759E+02  0.41800000000E+01 0. -1.
         -5    1    3    3    0  502 -0.17987123394E+01 -0.93606625357E+02  0.69413576173E+01  0.93973882129E+02  0.41800000000E+01 0. -1.
        -11    1    4    4    0    0 -0.31905833525E+02  0.63674203287E+02  0.13670639746E+03  0.15414611731E+03  0.00000000000E+00 0.  1.
         11    1    4    4    0    0  0.32486491588E+02 -0.10752106558E+02  0.76720409655E+02  0.84005959246E+02  0.00000000000E+00 0. -1.
</event>
<event>
 8    1  0.7026811E-009  0.9784525E+02  0.7561462E-02  0.1284893E+00
          1   -1    0    0  501    0  0.00000000000E+00  0.00000000000E+00  0.82371936963E+03  0.82371936963E+03  0.00000000000E+00 0. -1.
         -1   -1    0    0    0  501 -0.00000000000E+00 -0.00000000000E+00 -0.48067601377E+02  0.48067601377E+02  0.00000000000E+00 0.  1.
         25    2    1    2    0    0 -0.61901598883E+02 -0.20959634529E+02  0.74642263389E+03  0.75964821217E+03  0.12509014207E+03 0.  0.
         23    2    1    2    0    0  0.61901598883E+02  0.20959634529E+02  0.29229134366E+02  0.11213875884E+03  0.86311324371E+02 0.  0.
          5    1    3    3  502    0 -0.65596709737E+02  0.22216234621E+02  0.20389612928E+03  0.21537779214E+03  0.41800000000E+01 0. -1.
         -5    1    3    3    0  502  0.36951108545E+01 -0.43175869150E+02  0.54252650460E+03  0.54427042003E+03  0.41800000000E+01 0. -1.
        -11    1    4    4    0    0 -0.73177367051E+00 -0.11982514322E+02  0.38902430236E+02  0.40712592897E+02  0.00000000000E+00 0. -1.
         11    1    4    4    0    0  0.62633372553E+02  0.32942148851E+02 -0.96732958701E+01  0.71426165943E+02  0.00000000000E+00 0.  1.
</event>
<event>
 8    1  0.7026811E-009  0.6434649E+02  0.7561462E-02  0.1380447E+00
         -3   -1    0    0    0  501 -0.00000000000E+00  0.00000000000E+00  0.19879575065E+03  0.19879575065E+03  0.00000000000E+00 0.  1.
          3   -1    0    0  501    0  0.00000000000E+00 -0.00000000000E+00 -0.10680917851E+03  0.10680917851E+03  0.00000000000E+00 0. -1.
         25    2    1    2    0    0 -0.27861176728E+02 -0.59117995964E+01 -0.47061513247E+02  0.13665129699E+03  0.12509035293E+03 0.  0.
         23    2    1    2    0    0  0.27861176728E+02  0.59117995964E+01  0.13904808538E+03  0.16895363217E+03  0.91650233130E+02 0.  0.
          5    1    3    3  502    0 -0.19060936867E+02  0.25016169447E+02 -0.82635276779E+02  0.88516605314E+02  0.41800000000E+01 0. -1.
         -5    1    3    3    0  502 -0.88002398605E+01 -0.30927969044E+02  0.35573763532E+02  0.48134691674E+02  0.41800000000E+01 0. -1.
        -11    1    4    4    0    0  0.16774582909E+02  0.32035171283E+02  0.10998231156E+02  0.37796824198E+02  0.00000000000E+00 0. -1.
         11    1    4    4    0    0  0.11086593819E+02 -0.26123371686E+02  0.12804985423E+03  0.13115680797E+03  0.00000000000E+00 0.  1.
</event>
<event>
 8    1  0.7026811E-009  0.3905437E+03  0.7561462E-02  0.1047104E+00
          2   -1    0    0  501    0  0.00000000000E+00  0.00000000000E+00  0.71474614565E+03  0.71474614565E+03  0.00000000000E+00 0. -1.
         -2   -1    0    0    0  501 -0.00000000000E+00 -0.00000000000E+00 -0.22899678925E+03  0.22899678925E+03  0.00000000000E+00 0.  1.
         25    2    1    2    0    0 -0.16238918139E+03  0.34624544726E+03  0.33235739688E+03  0.52188669646E+03  0.12509248058E+03 0.  0.
         23    2    1    2    0    0  0.16238918139E+03 -0.34624544726E+03  0.15339195952E+03  0.42185623844E+03  0.90429180501E+02 0.  0.
          5    1    3    3  502    0 -0.17747752311E+01 -0.82167151834E+01 -0.10197434416E+01  0.94433316267E+01  0.41800000000E+01 0.  1.
         -5    1    3    3    0  502 -0.16061440616E+03  0.35446216244E+03  0.33337714033E+03  0.51244336483E+03  0.41800000000E+01 0.  1.
        -11    1    4    4    0    0  0.47972820218E+02 -0.93615326804E+02  0.87444822760E+02  0.13679114708E+03  0.00000000000E+00 0. -1.
         11    1    4    4    0    0  0.11441636117E+03 -0.25263012046E+03  0.65947136761E+02  0.28506509136E+03  0.00000000000E+00 0.  1.
</event>
<event>
 8    1  0.7026811E-009  0.1045720E+03  0.7561462E-02  0.1270965E+00
         -1   -1    0    0    0  501 -0.00000000000E+00  0.00000000000E+00  0.90230059955E+02  0.90230059955E+02  0.00000000000E+00 0.  1.
          1   -1    0    0  501    0  0.00000000000E+00 -0.00000000000E+00 -0.14486796365E+03  0.14486796365E+03  0.00000000000E+00 0. -1.
         25    2    1    2    0    0  0.10908418447E+02 -0.40775589490E+01 -0.67336214296E+02  0.14253241599E+03  0.12508278767E+03 0.  0.
         23    2    1    2    0    0 -0.10908418447E+02  0.40775589490E+01  0.12698310604E+02  0.92565607612E+02  0.90947922133E+02 0.  0.
          5    1    3    3  502    0 -0.50230620383E+02 -0.26175264704E+02 -0.48590713627E+02  0.74744829635E+02  0.41800000000E+01 0. -1.
         -5    1    3    3    0  502  0.61139038830E+02  0.22097705755E+02 -0.18745500669E+02  0.67787586356E+02  0.41800000000E+01 0. -1.
        -11    1    4    4    0    0 -0.29544023982E+02  0.38219730484E+02  0.21193304548E+02  0.52751808585E+02  0.00000000000E+00 0.  1.
         11    1    4    4    0    0  0.18635605535E+02 -0.34142171535E+02 -0.84949939442E+01  0.39813799026E+02  0.00000000000E+00 0. -1.
</event>
<event>
 8    1  0.7026811E-009  0.9457624E+02  0.7561462E-02  0.1292133E+00
         -3   -1    0    0    0  501 -0.00000000000E+00  0.00000000000E+00  0.43614936975E+02  0.43614936975E+02  0.00000000000E+00 0.  1.
          3   -1    0    0  501    0  0.00000000000E+00 -0.00000000000E+00 -0.32679167571E+03  0.32679167571E+03  0.00000000000E+00 0. -1.
         25    2    1    2    0    0  0.28400271511E+02 -0.40089308920E+02 -0.16465564797E+03  0.21253520948E+03  0.12508399078E+03 0.  0.
         23    2    1    2    0    0 -0.28400271511E+02  0.40089308920E+02 -0.11852109076E+03  0.15787140320E+03  0.91991319596E+02 0.  0.
          5    1    3    3  502    0 -0.32581560526E+02 -0.51682175258E+02 -0.39792707192E+02  0.73031070590E+02  0.41800000000E+01 0.  1.
         -5    1    3    3    0  502  0.60981832037E+02  0.11592866338E+02 -0.12486294078E+03  0.13950413890E+03  0.41800000000E+01 0.  1.
        -11    1    4    4    0    0 -0.26741080889E+02  0.11922901187E+01  0.59779114356E+01  0.27427037536E+02  0.00000000000E+00 0.  1.
         11    1    4    4    0    0 -0.16591906216E+01  0.38897018801E+02 -0.12449900220E+03  0.13044436566E+03  0.00000000000E+00 0. -1.
</event>
<event>
 8    1  0.7026811E-009  0.8602130E+02  0.7561462E-02  0.1312783E+00
          2   -1    0    0  501    0  0.00000000000E+00  0.00000000000E+00  0.10412716437E+03  0.10412716437E+03  0.00000000000E+00 0.  1.
         -2   -1    0    0    0  501 -0.00000000000E+00 -0.00000000000E+00 -0.11914840397E+03  0.11914840397E+03  0.00000000000E+00 0. -1.
         25    2    1    2    0    0  0.59653174869E+01  0.17063532607E+02 -0.24366260952E+02  0.12871621211E+03  0.12508956563E+03 0.  0.
         23    2    1    2    0    0 -0.59653174869E+01 -0.17063532607E+02  0.93450213481E+01  0.94559356223E+02  0.92343885924E+02 0.  0.
          5    1    3    3  502    0  0.20901513777E+02 -0.42207248659E+02  0.21736660020E+02  0.52041136674E+02  0.41800000000E+01 0. -1.
         -5    1    3    3    0  502 -0.14936196290E+02  0.59270781266E+02 -0.46102920972E+02  0.76675075440E+02  0.41800000000E+01 0. -1.
        -11    1    4    4    0    0 -0.18339604117E+02 -0.36270732011E+02  0.39533536116E+02  0.56699272990E+02  0.00000000000E+00 0.  1.
         11    1    4    4    0    0  0.12374286630E+02  0.19207199404E+02 -0.30188514768E+02  0.37860083233E+02  0.00000000000E+00 0. -1.
</event>
<event>
 8    1  0.7026811E-009  0.1302464E+03  0.7561462E-02  0.1227091E+00
         -1   -1    0    0    0  501 -0.00000000000E+00  0.00000000000E+00  0.27681221843E+03  0.27681221843E+03  0.00000000000E+00 0.  1.
          1   -1    0    0  501    0  0.00000000000E+00 -0.00000000000E+00 -0.14228835760E+03  0.14228835760E+03  0.00000000000E+00 0. -1.
         25    2    1    2    0    0  0.86251833904E+02  0.48467237586E+02 -0.69009218732E+02  0.17376381406E+03  0.12507253429E+03 0.  0.
         23    2    1    2    0    0 -0.86251833904E+02 -0.48467237586E+02  0.20353307956E+03  0.24533676198E+03  0.94741544910E+02 0.  0.
          5    1    3    3  502    0  0.51104546122E+02  0.66444558040E+02 -0.94652304425E+02  0.12650330059E+03  0.41800000000E+01 0.  1.
         -5    1    3    3    0  502  0.35147287782E+02 -0.17977320455E+02  0.25643085693E+02  0.47260513465E+02  0.41800000000E+01 0.  1.
        -11    1    4    4    0    0  0.12741368025E+02 -0.34642766122E+02  0.59488466815E+02  0.70009580685E+02  0.00000000000E+00 0.  1.
         11    1    4    4    0    0 -0.98993201929E+02 -0.13824471464E+02  0.14404461275E+03  0.17532718129E+03  0.00000000000E+00 0. -1.
</event>
<event>
 8    1  0.7026811E-009  0.1207371E+03  0.7561462E-02  0.1241886E+00
         -2   -1    0    0    0  501 -0.00000000000E+00  0.00000000000E+00  0.21785823259E+02  0.21785823259E+02  0.00000000000E+00 0.  1.
          2   -1    0    0  501    0  0.00000000000E+00 -0.00000000000E+00 -0.11318747720E+04  0.11318747720E+04  0.00000000000E+00 0. -1.
         25    2    1    2    0    0 -0.86808647398E+02  0.34701464472E+02 -0.83653060599E+03  0.85098210777E+03  0.12508860898E+03 0.  0.
         23    2    1    2    0    0  0.86808647398E+02 -0.34701464472E+02 -0.27355834274E+03  0.30267848748E+03  0.89666978297E+02 0.  0.
          5    1    3    3  502    0 -0.64302136650E+02  0.58291852543E+02 -0.78543127108E+03  0.79022304373E+03  0.41800000000E+01 0. -1.
         -5    1    3    3    0  502 -0.22506510748E+02 -0.23590388071E+02 -0.51099334905E+02  0.60759064041E+02  0.41800000000E+01 0. -1.
        -11    1    4    4    0    0 -0.14906308627E+02 -0.34052278688E+01 -0.83188502857E+02  0.84582034862E+02  0.00000000000E+00 0. -1.
         11    1    4    4    0    0  0.10171495603E+03 -0.31296236603E+02 -0.19036983988E+03  0.21809645261E+03  0.00000000000E+00 0.  1.
</event>
<event>
 8    1  0.7026811E-009  0.1833924E+03  0.7561462E-02  0.1164560E+00
         -1   -1    0    0    0  501 -0.00000000000E+00  0.00000000000E+00  0.14375582554E+03  0.14375582554E+03  0.00000000000E+00 0.  1.
          1   -1    0    0  501    0  0.00000000000E+00 -0.00000000000E+00 -0.28460010268E+03  0.28460010268E+03  0.00000000000E+00 0. -1.
         25    2    1    2    0    0 -0.68883037818E+02  0.14947531918E+03 -0.26791881344E+02  0.20846158978E+03  0.12510270006E+03 0.  0.
         23    2    1    2    0    0  0.68883037818E+02 -0.14947531918E+03 -0.11405239579E+03  0.21989433844E+03  0.90872587453E+02 0.  0.
          5    1    3    3  502    0  0.11715301235E+02  0.11253553982E+03  0.71214144556E+01  0.11344462503E+03  0.41800000000E+01 0.  1.
         -5    1    3    3    0  502 -0.80598339053E+02  0.36939779364E+02 -0.33913295799E+02  0.95016964746E+02  0.41800000000E+01 0.  1.
        -11    1    4    4    0    0  0.16041937710E+02 -0.26814392674E+02  0.14565431106E+02  0.34474732824E+02  0.00000000000E+00 0.  1.
         11    1    4    4    0    0  0.52841100108E+02 -0.12266092651E+03 -0.12861782690E+03  0.18541960562E+03  0.00000000000E+00 0. -1.
</event>
<event>
 8    1  0.7026811E-009  0.1329824E+03  0.7561462E-02  0.1223096E+00
          3   -1    0    0  501    0  0.00000000000E+00  0.00000000000E+00  0.88309702874E+03  0.88309702874E+03  0.00000000000E+00 0. -1.
         -3   -1    0    0    0  501 -0.00000000000E+00 -0.00000000000E+00 -0.31153289380E+02  0.31153289380E+02  0.00000000000E+00 0.  1.
         25    2    1    2    0    0 -0.67777669240E+02 -0.83679764234E+02  0.27878901085E+03  0.32399300187E+03  0.12510810245E+03 0.  0.
         23    2    1    2    0    0  0.67777669240E+02  0.83679764234E+02  0.57315472851E+03  0.59025731625E+03  0.91111147429E+02 0.  0.
          5    1    3    3  502    0 -0.71205563391E+02 -0.36634965026E+02  0.26160305273E+03  0.27361648802E+03  0.41800000000E+01 0. -1.
         -5    1    3    3    0  502  0.34278941507E+01 -0.47044799208E+02  0.17185958122E+02  0.50376513847E+02  0.41800000000E+01 0. -1.
        -11    1    4    4    0    0 -0.36180046523E+01  0.64358919941E+02  0.21099568507E+03  0.22062261817E+03  0.00000000000E+00 0.  1.
         11    1    4    4    0    0  0.71395673893E+02  0.19320844293E+02  0.36215904344E+03  0.36963469808E+03  0.00000000000E+00 0. -1.
</event>
<event>
 8    1  0.7026811E-009  0.1177728E+03  0.7561462E-02  0.1246817E+00
          1   -1    0    0  501    0  0.00000000000E+00  0.00000000000E+00  0.23056061708E+03  0.23056061708E+03  0.00000000000E+00 0. -1.
         -1   -1    0    0    0  501 -0.00000000000E+00 -0.00000000000E+00 -0.79734355832E+02  0.79734355832E+02  0.00000000000E+00 0.  1.
         25    2    1    2    0    0 -0.18692798306E+02 -0.55492332920E+02  0.13498650988E+03  0.19312904290E+03  0.12509456279E+03 0.  0.
         23    2    1    2    0    0  0.18692798306E+02  0.55492332920E+02  0.15839751368E+02  0.11716593001E+03  0.10024039959E+03 0.  0.
          5    1    3    3  502    0  0.24641131657E+02 -0.76729096295E+02  0.11554391725E+03  0.14093405834E+03  0.41800000000E+01 0. -1.
         -5    1    3    3    0  502 -0.43333929962E+02  0.21236763375E+02  0.19442592628E+02  0.52194984555E+02  0.41800000000E+01 0. -1.
        -11    1    4    4    0    0 -0.64859993522E+01 -0.23042336378E+02  0.24484468969E+02  0.34241884791E+02  0.00000000000E+00 0. -1.
         11    1    4    4    0    0  0.25178797658E+02  0.78534669298E+02 -0.86447176012E+01  0.82924045220E+02  0.00000000000E+00 0.  1.
</event>
<event>
 8    1  0.7026811E-009  0.1139073E+03  0.7561462E-02  0.1253501E+00
         -2   -1    0    0    0  501 -0.00000000000E+00  0.00000000000E+00  0.85080807854E+02  0.85080807854E+02  0.00000000000E+00 0.  1.
          2   -1    0    0  501    0  0.00000000000E+00 -0.00000000000E+00 -0.17658895659E+03  0.17658895659E+03  0.00000000000E+00 0. -1.
         25    2    1    2    0    0 -0.56475949739E+02  0.20287571170E+02 -0.81433242995E+02  0.16086955845E+03  0.12508606369E+03 0.  0.
         23    2    1    2    0    0  0.56475949739E+02 -0.20287571170E+02 -0.10074905741E+02  0.10080020599E+03  0.80362051736E+02 0.  0.
          5    1    3    3  502    0 -0.27043694691E+02  0.73128370796E+02 -0.44288054777E+02  0.89766498393E+02  0.41800000000E+01 0.  1.
         -5    1    3    3    0  502 -0.29432255048E+02 -0.52840799625E+02 -0.37145188218E+02  0.71103060061E+02  0.41800000000E+01 0.  1.
        -11    1    4    4    0    0 -0.13399419176E+02  0.56891535669E+01  0.16179585904E+02  0.21764418269E+02  0.00000000000E+00 0.  1.
         11    1    4    4    0    0  0.69875368915E+02 -0.25976724737E+02 -0.26254491645E+02  0.79035787721E+02  0.00000000000E+00 0. -1.
</event>
<event>
 8    1  0.7026811E-009  0.2052739E+03  0.7561462E-02  0.1145364E+00
          1   -1    0    0  501    0  0.00000000000E+00  0.00000000000E+00  0.81932247463E+03  0.81932247463E+03  0.00000000000E+00 0. -1.
         -1   -1    0    0    0  501 -0.00000000000E+00 -0.00000000000E+00 -0.71555342066E+02  0.71555342066E+02  0.00000000000E+00 0.  1.
         25    2    1    2    0    0  0.11929952063E+03 -0.13376100256E+03  0.61485019356E+03  0.65254412991E+03  0.12509476219E+03 0.  0.
         23    2    1    2    0    0 -0.11929952063E+03  0.13376100256E+03  0.13291693900E+03  0.23833368679E+03  0.83735608658E+02 0.  0.
          5    1    3    3  502    0  0.10406889140E+03 -0.15521005506E+03  0.48043345279E+03  0.51551359857E+03  0.41800000000E+01 0.  1.
         -5    1    3    3    0  502  0.15230629228E+02  0.21449052500E+02  0.13441674077E+03  0.13703053134E+03  0.41800000000E+01 0.  1.
        -11    1    4    4    0    0 -0.72646166120E+02  0.22027907772E+02  0.40706110856E+02  0.86137573880E+02  0.00000000000E+00 0. -1.
         11    1    4    4    0    0 -0.46653354505E+02  0.11173309479E+03  0.92210828146E+02  0.15219611291E+03  0.00000000000E+00 0.  1.
</event>
<event>
 8    1  0.7026811E-009  0.1206031E+03  0.7561462E-02  0.1242105E+00
          2   -1    0    0  501    0  0.00000000000E+00  0.00000000000E+00  0.31674536404E+03  0.31674536404E+03  0.00000000000E+00 0. -1.
         -2   -1    0    0    0  501 -0.00000000000E+00 -0.00000000000E+00 -0.62845856257E+02  0.62845856257E+02  0.00000000000E+00 0.  1.
         25    2    1    2    0    0 -0.67107078680E+02 -0.48466003866E+02  0.19010430374E+03  0.24215177435E+03  0.12508206098E+03 0.  0.
         23    2    1    2    0    0  0.67107078680E+02  0.48466003866E+02  0.63795204037E+02  0.13743944594E+03  0.89260627959E+02 0.  0.
          5    1    3    3  502    0 -0.28984166972E+02 -0.69978830485E+02  0.40040233869E+02  0.85777685789E+02  0.41800000000E+01 0.  1.
         -5    1    3    3    0  502 -0.38122911708E+02  0.21512826619E+02  0.15006406987E+03  0.15637408856E+03  0.41800000000E+01 0.  1.
        -11    1    4    4    0    0  0.10545526815E+02  0.62266651657E+02  0.27892663484E+02  0.69038718996E+02  0.00000000000E+00 0. -1.
         11    1    4    4    0    0  0.56561551865E+02 -0.13800647791E+02  0.35902540554E+02  0.68400726948E+02  0.00000000000E+00 0.  1.
</event>
<event>
 8    1  0.7026811E-009  0.9225647E+02  0.7561462E-02  0.1297478E+00
         -1   -1    0    0    0  501 -0.00000000000E+00  0.00000000000E+00  0.13120541191E+03  0.13120541191E+03  0.00000000000E+00 0.  1.
          1   -1    0    0  501    0  0.00000000000E+00 -0.00000000000E+00 -0.11249855192E+03  0.11249855192E+03  0.00000000000E+00 0. -1.
         25    2    1    2    0    0 -0.29912549215E+02  0.23529777267E+02  0.44231791291E+02  0.13802683139E+03  0.12508614553E+03 0.  0.
         23    2    1    2    0    0  0.29912549215E+02 -0.23529777267E+02 -0.25524931304E+02  0.10567713245E+03  0.95224593387E+02 0.  0.
          5    1    3    3  502    0  0.44989207184E+02  0.21930937315E+02  0.37520913852E+02  0.62691994313E+02  0.41800000000E+01 0.  1.
         -5    1    3    3    0  502 -0.74901756399E+02  0.15988399513E+01  0.67108774383E+01  0.75334837073E+02  0.41800000000E+01 0.  1.
        -11    1    4    4    0    0  0.74595711810E+01  0.13802487204E+02  0.30743557477E+02  0.34515506393E+02  0.00000000000E+00 0.  1.
         11    1    4    4    0    0  0.22452978034E+02 -0.37332264470E+02 -0.56268488781E+02  0.71161626055E+02  0.00000000000E+00 0. -1.
</event>
<event>
 8    1  0.7026811E-009  0.9293366E+02  0.7561462E-02  0.1295899E+00
          1   -1    0    0  501    0  0.00000000000E+00  0.00000000000E+00  0.24751028997E+02  0.24751028997E+02  0.00000000000E+00 0. -1.
         -1   -1    0    0    0  501 -0.00000000000E+00 -0.00000000000E+00 -0.53362941007E+03  0.53362941007E+03  0.00000000000E+00 0.  1.
         25    2    1    2    0    0  0.31549780276E+02  0.73846386944E+01 -0.23060085940E+03  0.26433743315E+03  0.12509037006E+03 0.  0.
         23    2    1    2    0    0 -0.31549780276E+02 -0.73846386944E+01 -0.27827752168E+03  0.29404300592E+03  0.89291593881E+02 0.  0.
          5    1    3    3  502    0 -0.58680606096E+01 -0.45696080103E+02 -0.16719952102E+03  0.17348117507E+03  0.41800000000E+01 0. -1.
         -5    1    3    3    0  502  0.37417840886E+02  0.53080718797E+02 -0.63401338381E+02  0.90856258084E+02  0.41800000000E+01 0. -1.
        -11    1    4    4    0    0  0.19956730059E+02 -0.11193844665E+02 -0.19206629616E+02  0.29874200479E+02  0.00000000000E+00 0. -1.
         11    1    4    4    0    0 -0.51506510335E+02  0.38092059702E+01 -0.25907089206E+03  0.26416880544E+03  0.00000000000E+00 0.  1.
</event>
<event>
 8    1  0.7026811E-009  0.9850506E+02  0.7561462E-02  0.1283471E+00
         -1   -1    0    0    0  501 -0.00000000000E+00  0.00000000000E+00  0.50549699903E+02  0.50549699903E+02  0.00000000000E+00 0. -1.
          1   -1    0    0  501    0  0.00000000000E+00 -0.00000000000E+00 -0.27852086812E+03  0.27852086812E+03  0.00000000000E+00 0.  1.
         25    2    1    2    0    0 -0.24634064576E+02  0.34602769400E+01 -0.18840068835E+03  0.22750920837E+03  0.12508720905E+03 0.  0.
         23    2    1    2    0    0  0.24634064576E+02 -0.34602769400E+01 -0.39570479869E+02  0.10156135965E+03  0.90166935423E+02 0.  0.
          5    1    3    3  502    0 -0.66199475509E+02  0.17333565642E+02 -0.57742246828E+02  0.89635163437E+02  0.41800000000E+01 0.  1.
         -5    1    3    3    0  502  0.41565410933E+02 -0.13873288702E+02 -0.13065844152E+03  0.13787404493E+03  0.41800000000E+01 0.  1.
        -11    1    4    4    0    0  0.16373301711E+02  0.38410725312E+02  0.22411260554E+01  0.41814967104E+02  0.00000000000E+00 0. -1.
         11    1    4    4    0    0  0.82607628652E+01 -0.41871002252E+02 -0.41811605924E+02  0.59746392549E+02  0.00000000000E+00 0.  1.
</event>
<event>
 8    1  0.7026811E-009  0.8114503E+02  0.7561462E-02  0.1325833E+00
         -1   -1    0    0    0  501 -0.00000000000E+00  0.00000000000E+00  0.94217128776E+02  0.94217128776E+02  0.00000000000E+00 0.  1.
          1   -1    0    0  501    0  0.00000000000E+00 -0.00000000000E+00 -0.12491498824E+03  0.12491498824E+03  0.00000000000E+00 0. -1.
         25    2    1    2    0    0  0.81748266581E+01  0.35299669838E+01 -0.11112398747E+02  0.12589880030E+03  0.12509090316E+03 0.  0.
         23    2    1    2    0    0 -0.81748266581E+01 -0.35299669838E+01 -0.19585460718E+02  0.93233316717E+02  0.90716991885E+02 0.  0.
          5    1    3    3  502    0 -0.48058073968E+02 -0.30865416710E+02 -0.16585132446E+02  0.59622071756E+02  0.41800000000E+01 0. -1.
         -5    1    3    3    0  502  0.56232900626E+02  0.34395383694E+02  0.54727336986E+01  0.66276728544E+02  0.41800000000E+01 0. -1.
        -11    1    4    4    0    0  0.37471224162E+01  0.15811911591E+02 -0.51530656683E+02  0.54032083550E+02  0.00000000000E+00 0. -1.
         11    1    4    4    0    0 -0.11921949074E+02 -0.19341878575E+02  0.31945195965E+02  0.39201233167E+02  0.00000000000E+00 0.  1.
</event>
<event>
 8    1  0.7026811E-009  0.1163010E+03  0.7561462E-02  0.1249327E+00
         -2   -1    0    0    0  501 -0.00000000000E+00  0.00000000000E+00  0.23033569753E+02  0.23033569753E+02  0.00000000000E+00 0.  1.
          2   -1    0    0  501    0  0.00000000000E+00 -0.00000000000E+00 -0.68040470105E+03  0.68040470105E+03  0.00000000000E+00 0. -1.
         25    2    1    2    0    0 -0.39653304943E+02 -0.11527364116E+02 -0.23774563950E+03  0.27180028190E+03  0.12508852635E+03 0.  0.
         23    2    1    2    0    0  0.39653304943E+02  0.11527364116E+02 -0.41962549179E+03  0.43163798890E+03  0.92306746130E+02 0.  0.
          5    1    3    3  502    0 -0.84972679851E+02 -0.12395718365E+02 -0.16303168221E+03  0.18431172496E+03  0.41800000000E+01 0. -1.
         -5    1    3    3    0  502  0.45319374908E+02  0.86835424863E+00 -0.74713957292E+02  0.87488556939E+02  0.41800000000E+01 0. -1.
        -11    1    4    4    0    0  0.69699831270E+02  0.13507471551E+02 -0.29130018271E+03  0.29982714139E+03  0.00000000000E+00 0.  1.
         11    1    4    4    0    0 -0.30046526327E+02 -0.19801074349E+01 -0.12832530908E+03  0.13181084751E+03  0.00000000000E+00 0. -1.
</event>
<event>
 8    1  0.7026811E-009  0.1328021E+03  0.7561462E-02  0.1223356E+00
          2   -1    0    0  501    0  0.00000000000E+00  0.00000000000E+00  0.50475886525E+02  0.50475886525E+02  0.00000000000E+00 0. -1.
         -2   -1    0    0    0  501 -0.00000000000E+00 -0.00000000000E+00 -0.44459306980E+03  0.44459306980E+03  0.00000000000E+00 0.  1.
         25    2    1    2    0    0  0.27485964396E+02  0.98134796286E+02 -0.17031808790E+03  0.23461004576E+03  0.12509079113E+03 0.  0.
         23    2    1    2    0    0 -0.27485964396E+02 -0.98134796286E+02 -0.22379909537E+03  0.26045891056E+03  0.85830603629E+02 0.  0.
          5    1    3    3  502    0 -0.27028556861E+02 -0.18001698511E+02 -0.39962856081E+02  0.51663394211E+02  0.41800000000E+01 0.  1.
         -5    1    3    3    0  502  0.54514521257E+02  0.11613649480E+03 -0.13035523182E+03  0.18294665155E+03  0.41800000000E+01 0.  1.
        -11    1    4    4    0    0 -0.18007910474E+02 -0.25324440153E+02 -0.74010681015E+01  0.31943511356E+02  0.00000000000E+00 0. -1.
         11    1    4    4    0    0 -0.94780539219E+01 -0.72810356133E+02 -0.21639802727E+03  0.22851539920E+03  0.00000000000E+00 0.  1.
</event>
<event>
 8    1  0.7026811E-009  0.1095154E+03  0.7561462E-02  0.1261470E+00
         -1   -1    0    0    0  501 -0.00000000000E+00  0.00000000000E+00  0.16194011888E+03  0.16194011888E+03  0.00000000000E+00 0.  1.
          1   -1    0    0  501    0  0.00000000000E+00 -0.00000000000E+00 -0.97008146468E+02  0.97008146468E+02  0.00000000000E+00 0. -1.
         25    2    1    2    0    0  0.21941607977E+02 -0.50590814742E+02  0.76703260725E+02  0.15675249678E+03  0.12508833016E+03 0.  0.
         23    2    1    2    0    0 -0.21941607977E+02  0.50590814742E+02 -0.11771288318E+02  0.10219576857E+03  0.85232313050E+02 0.  0.
          5    1    3    3  502    0 -0.20275928435E+02 -0.81465893907E+02  0.43299639064E+02  0.94552293928E+02  0.41800000000E+01 0.  1.
         -5    1    3    3    0  502  0.42217536411E+02  0.30875079166E+02  0.33403621661E+02  0.62200202847E+02  0.41800000000E+01 0.  1.
        -11    1    4    4    0    0 -0.43371416552E+02  0.37917765228E+02 -0.35609858891E+02  0.67726647221E+02  0.00000000000E+00 0. -1.
         11    1    4    4    0    0  0.21429808575E+02  0.12673049514E+02  0.23838570573E+02  0.34469121348E+02  0.00000000000E+00 0.  1.
</event>
<event>
 8    1  0.7026811E-009  0.6014977E+02  0.7561462E-02  0.1397204E+00
          1   -1    0    0  501    0  0.00000000000E+00  0.00000000000E+00  0.10208060236E+03  0.10208060236E+03  0.00000000000E+00 0. -1.
         -1   -1    0    0    0  501 -0.00000000000E+00 -0.00000000000E+00 -0.12467678300E+03  0.12467678300E+03  0.00000000000E+00 0.  1.
         25    2    1    2    0    0 -0.14936352004E+01 -0.32828560916E+02 -0.15265638561E+02  0.13023486016E+03  0.12509250066E+03 0.  0.
         23    2    1    2    0    0  0.14936352004E+01  0.32828560916E+02 -0.73305420766E+01  0.96522525204E+02  0.90459469745E+02 0.  0.
          5    1    3    3  502    0  0.23538403446E+01 -0.31095789210E+01  0.54181696843E+02  0.54482462483E+02  0.41800000000E+01 0.  1.
         -5    1    3    3    0  502 -0.38474755450E+01 -0.29718981995E+02 -0.69447335405E+02  0.75752397676E+02  0.41800000000E+01 0.  1.
        -11    1    4    4    0    0  0.19100468200E+02  0.53713946630E+02 -0.26783631039E+02  0.62987132334E+02  0.00000000000E+00 0.  1.
         11    1    4    4    0    0 -0.17606833000E+02 -0.20885385714E+02  0.19453088962E+02  0.33535392869E+02  0.00000000000E+00 0. -1.
</event>
<event>
 8    1  0.7026811E-009  0.7245211E+02  0.7561462E-02  0.1351948E+00
          2   -1    0    0  501    0  0.00000000000E+00  0.00000000000E+00  0.62068009239E+02  0.62068009239E+02  0.00000000000E+00 0. -1.
         -2   -1    0    0    0  501 -0.00000000000E+00 -0.00000000000E+00 -0.22857906021E+03  0.22857906021E+03  0.00000000000E+00 0.  1.
         25    2    1    2    0    0 -0.24796104644E+02 -0.41566837491E+02 -0.10507267124E+03  0.17038190665E+03  0.12508828517E+03 0.  0.
         23    2    1    2    0    0  0.24796104644E+02  0.41566837491E+02 -0.61438379722E+02  0.12026516279E+03  0.91358557858E+02 0.  0.
          5    1    3    3  502    0 -0.17588158026E+02 -0.37868905668E+02 -0.13380888916E+03  0.14023440569E+03  0.41800000000E+01 0. -1.
         -5    1    3    3    0  502 -0.72079466180E+01 -0.36979318231E+01  0.28736217919E+02  0.30147500966E+02  0.41800000000E+01 0. -1.
        -11    1    4    4    0    0  0.50886135366E+02  0.44463488193E+02 -0.18710123446E+02  0.70117538991E+02  0.00000000000E+00 0. -1.
         11    1    4    4    0    0 -0.26090030722E+02 -0.28966507022E+01 -0.42728256276E+02  0.50147623800E+02  0.00000000000E+00 0.  1.
</event>
<event>
 8    1  0.7026811E-009  0.1309178E+03  0.7561462E-02  0.1226100E+00
         -3   -1    0    0    0  501 -0.00000000000E+00  0.00000000000E+00  0.19123501184E+03  0.19123501184E+03  0.00000000000E+00 0.  1.
          3   -1    0    0  501    0  0.00000000000E+00 -0.00000000000E+00 -0.10230872426E+03  0.10230872426E+03  0.00000000000E+00 0. -1.
         25    2    1    2    0    0  0.66808772174E+02  0.51235929329E+02  0.75129551415E+02  0.16846777381E+03  0.12509360025E+03 0.  0.
         23    2    1    2    0    0 -0.66808772174E+02 -0.51235929329E+02  0.13796736167E+02  0.12507596229E+03  0.91460996721E+02 0.  0.
          5    1    3    3  502    0 -0.29031827918E+02  0.34913740479E+02  0.50596802094E+02  0.68112591264E+02  0.41800000000E+01 0. -1.
         -5    1    3    3    0  502  0.95840600093E+02  0.16322188850E+02  0.24532749320E+02  0.10035518255E+03  0.41800000000E+01 0. -1.
        -11    1    4    4    0    0 -0.45968243617E+02 -0.74595074963E+02 -0.63459987471E+01  0.87850875523E+02  0.00000000000E+00 0. -1.
         11    1    4    4    0    0 -0.20840528557E+02  0.23359145634E+02  0.20142734914E+02  0.37225086771E+02  0.00000000000E+00 0.  1.
</event>
<event>
 8    1  0.7026811E-009  0.3849111E+03  0.7561462E-02  0.1049133E+00
          2   -1    0    0  501    0  0.00000000000E+00  0.00000000000E+00  0.27205613000E+04  0.27205613000E+04  0.00000000000E+00 0. -1.
         -2   -1    0    0    0  501 -0.00000000000E+00 -0.00000000000E+00 -0.65081106711E+02  0.65081106711E+02  0.00000000000E+00 0.  1.
         25    2    1    2    0    0  0.35470675916E+03 -0.11658890926E+03  0.18743722841E+04  0.19152885168E+04  0.12509510120E+03 0.  0.
         23    2    1    2    0    0 -0.35470675916E+03  0.11658890926E+03  0.78110790921E+03  0.87035388995E+03  0.89311080916E+02 0.  0.
          5    1    3    3  502    0  0.21941510871E+03 -0.12003216406E+02  0.11681612242E+04  0.11886568829E+04  0.41800000000E+01 0. -1.
         -5    1    3    3    0  502  0.13529165044E+03 -0.10458569285E+03  0.70621105987E+03  0.72663163385E+03  0.41800000000E+01 0. -1.
        -11    1    4    4    0    0 -0.25205340656E+03  0.11311949821E+03  0.50288488830E+03  0.57377709218E+03  0.00000000000E+00 0.  1.
         11    1    4    4    0    0 -0.10265335260E+03  0.34694110531E+01  0.27822302091E+03  0.29657679777E+03  0.00000000000E+00 0. -1.
</event>
<event>
 8    1  0.7026811E-009  0.1710379E+03  0.7561462E-02  0.1176770E+00
          2   -1    0    0  501    0  0.00000000000E+00  0.00000000000E+00  0.53427967830E+03  0.53427967830E+03  0.00000000000E+00 0. -1.
         -2   -1    0    0    0  501 -0.00000000000E+00 -0.00000000000E+00 -0.16429075429E+03  0.16429075429E+03  0.00000000000E+00 0.  1.
         25    2    1    2    0    0  0.22053710218E+02 -0.14408572778E+03 -0.86506458363E+02  0.21065912969E+03  0.12508732349E+03 0.  0.
         23    2    1    2    0    0 -0.22053710218E+02  0.14408572778E+03  0.45649538237E+03  0.48791130289E+03  0.91773320070E+02 0.  0.
          5    1    3    3  502    0  0.58875530970E+02 -0.10109623913E+03 -0.12991829586E+02  0.11778386031E+03  0.41800000000E+01 0. -1.
         -5    1    3    3    0  502 -0.36821820753E+02 -0.42989488651E+02 -0.73514628777E+02  0.92875269379E+02  0.41800000000E+01 0. -1.
        -11    1    4    4    0    0  0.10629849621E+02  0.13346436072E+03  0.31443006030E+03  0.34174843395E+03  0.00000000000E+00 0.  1.
         11    1    4    4    0    0 -0.32683559839E+02  0.10621367061E+02  0.14206532208E+03  0.14616286895E+03  0.00000000000E+00 0. -1.
</event>
<event>
 8    1  0.7026811E-009  0.1112830E+03  0.7561462E-02  0.1258212E+00
          2   -1    0    0  501    0  0.00000000000E+00  0.00000000000E+00  0.86040146981E+03  0.86040146981E+03  0.00000000000E+00 0.  1.
         -2   -1    0    0    0  501 -0.00000000000E+00 -0.00000000000E+00 -0.16639035365E+02  0.16639035365E+02  0.00000000000E+00 0. -1.
         25    2    1    2    0    0 -0.41161540834E+02  0.25181635178E+02  0.52616490800E+03  0.54297808843E+03  0.12508919582E+03 0.  0.
         23    2    1    2    0    0  0.41161540834E+02 -0.25181635178E+02  0.31759752644E+03  0.33406241674E+03  0.91657636252E+02 0.  0.
          5    1    3    3  502    0  0.35618497243E+02 -0.89184987130E+01  0.28869505132E+03  0.29105072070E+03  0.41800000000E+01 0.  1.
         -5    1    3    3    0  502 -0.76780038077E+02  0.34100133891E+02  0.23746985668E+03  0.25192736773E+03  0.41800000000E+01 0.  1.
        -11    1    4    4    0    0  0.46478111386E+02  0.23805705096E+02  0.12986491428E+03  0.13997079121E+03  0.00000000000E+00 0.  1.
         11    1    4    4    0    0 -0.53165705519E+01 -0.48987340274E+02  0.18773261217E+03  0.19409162553E+03  0.00000000000E+00 0. -1.
</event>
<event>
 8    1  0.7026811E-009  0.9717501E+02  0.7561462E-02  0.1286351E+00
         -3   -1    0    0    0  501 -0.00000000000E+00  0.00000000000E+00  0.15885163578E+02  0.15885163578E+02  0.00000000000E+00 0.  1.
          3   -1    0    0  501    0  0.00000000000E+00 -0.00000000000E+00 -0.14450318913E+04  0.14450318913E+04  0.00000000000E+00 0. -1.
         25    2    1    2    0    0  0.43092254224E+02 -0.57277652179E+02 -0.11454965638E+04  0.11545336310E+04  0.12509138943E+03 0.  0.
         23    2    1    2    0    0 -0.43092254224E+02  0.57277652179E+02 -0.28365016397E+03  0.30638342388E+03  0.90970957445E+02 0.  0.
          5    1    3    3  502    0 -0.39233695930E+01 -0.26152880084E+02 -0.43443114611E+02  0.51030800237E+02  0.41800000000E+01 0.  1.
         -5    1    3    3    0  502  0.47015623817E+02 -0.31124772094E+02 -0.11020534492E+04  0.11035028308E+04  0.41800000000E+01 0.  1.
        -11    1    4    4    0    0  0.82325646145E+01  0.59108848446E+02 -0.19503599250E+03  0.20396242168E+03  0.00000000000E+00 0.  1.
         11    1    4    4    0    0 -0.51324818838E+02 -0.18311962669E+01 -0.88614171461E+02  0.10242100220E+03  0.00000000000E+00 0. -1.
</event>
<event>
 8    1  0.7026811E-009  0.7710461E+02  0.7561462E-02  0.1337475E+00
          1   -1    0    0  501    0  0.00000000000E+00  0.00000000000E+00  0.34227149920E+03  0.34227149920E+03  0.00000000000E+00 0. -1.
         -1   -1    0    0    0  501 -0.00000000000E+00 -0.00000000000E+00 -0.52262811526E+02  0.52262811526E+02  0.00000000000E+00 0.  1.
         25    2    1    2    0    0  0.45644715830E-02  0.43024944544E+02  0.25667807956E+03  0.28875765435E+03  0.12508477343E+03 0.  0.
         23    2    1    2    0    0 -0.45644715830E-02 -0.43024944544E+02  0.33330608107E+02  0.10577665637E+03  0.90700748192E+02 0.  0.
          5    1    3    3  502    0  0.24220540034E+02  0.35075693838E+02  0.14517379746E+02  0.45223506857E+02  0.41800000000E+01 0. -1.
         -5    1    3    3    0  502 -0.24215975562E+02  0.79492507062E+01  0.24216069982E+03  0.24353414749E+03  0.41800000000E+01 0. -1.
        -11    1    4    4    0    0  0.16708992123E+02 -0.59668743477E+02 -0.34750823696E+01  0.62061466010E+02  0.00000000000E+00 0.  1.
         11    1    4    4    0    0 -0.16713556594E+02  0.16643798932E+02  0.36805690477E+02  0.43715190362E+02  0.00000000000E+00 0. -1.
</event>
<event>
 8    1  0.7026811E-009  0.8889885E+02  0.7561462E-02  0.1305540E+00
         -2   -1    0    0    0  501 -0.00000000000E+00  0.00000000000E+00  0.62954525303E+02  0.62954525303E+02  0.00000000000E+00 0. -1.
          2   -1    0    0  501    0  0.00000000000E+00 -0.00000000000E+00 -0.29440687312E+03  0.29440687312E+03  0.00000000000E+00 0.  1.
         25    2    1    2    0    0 -0.82965166590E+02  0.16710735199E+02 -0.11691261152E+03  0.19099255249E+03  0.12508848402E+03 0.  0.
         23    2    1    2    0    0  0.82965166590E+02 -0.16710735199E+02 -0.11453973630E+03  0.16636884593E+03  0.86004500859E+02 0.  0.
          5    1    3    3  502    0 -0.49011950843E+02  0.28153495551E+02 -0.13801619584E+03  0.14920031284E+03  0.41800000000E+01 0.  1.
         -5    1    3    3    0  502 -0.33953215747E+02 -0.11442760352E+02  0.21103584318E+02  0.41792239652E+02  0.41800000000E+01 0.  1.
        -11    1    4    4    0    0  0.44026283111E+02 -0.13143623201E+02 -0.11847208757E+03  0.12706968155E+03  0.00000000000E+00 0.  1.
         11    1    4    4    0    0  0.38938883479E+02 -0.35671119978E+01  0.39323512767E+01  0.39299164383E+02  0.00000000000E+00 0. -1.
</event>
<event>
 8    1  0.7026811E-009  0.8187772E+02  0.7561462E-02  0.1323806E+00
          2   -1    0    0  501    0  0.00000000000E+00  0.00000000000E+00  0.89924413751E+02  0.89924413751E+02  0.00000000000E+00 0.  1.
         -2   -1    0    0    0  501 -0.00000000000E+00 -0.00000000000E+00 -0.13930591471E+03  0.13930591471E+03  0.00000000000E+00 0. -1.
         25    2    1    2    0    0 -0.16431038229E+02  0.15320822295E+02 -0.11494706995E+02  0.12760771918E+03  0.12508754970E+03 0.  0.
         23    2    1    2    0    0  0.16431038229E+02 -0.15320822295E+02 -0.37886793966E+02  0.10162260929E+03  0.91580778270E+02 0.  0.
          5    1    3    3  502    0 -0.48749388592E+02  0.29158528916E+02 -0.49647965845E+02  0.75558689832E+02  0.41800000000E+01 0. -1.
         -5    1    3    3    0  502  0.32318350363E+02 -0.13837706620E+02  0.38153258850E+02  0.52049029343E+02  0.41800000000E+01 0. -1.
        -11    1    4    4    0    0  0.38926617605E+02  0.71724379748E+01  0.12955472466E+02  0.41648165523E+02  0.00000000000E+00 0.  1.
         11    1    4    4    0    0 -0.22495579375E+02 -0.22493260270E+02 -0.50842266432E+02  0.59974443765E+02  0.00000000000E+00 0. -1.
</event>
<event>
 8    1  0.7026811E-009  0.9682943E+02  0.7561462E-02  0.1287108E+00
         -1   -1    0    0    0  501 -0.00000000000E+00  0.00000000000E+00  0.18179019434E+02  0.18179019434E+02  0.00000000000E+00 0.  1.
          1   -1    0    0  501    0  0.00000000000E+00 -0.00000000000E+00 -0.70784789625E+03  0.70784789625E+03  0.00000000000E+00 0. -1.
         25    2    1    2    0    0  0.31871627765E+02  0.76821762708E+01 -0.39654158059E+03  0.41709066194E+03  0.12507829010E+03 0.  0.
         23    2    1    2    0    0 -0.31871627765E+02 -0.76821762708E+01 -0.29312729623E+03  0.30893625375E+03  0.91886781397E+02 0.  0.
          5    1    3    3  502    0  0.45424912811E+02  0.44856518559E+02 -0.10579974112E+03  0.12363894040E+03  0.41800000000E+01 0.  1.
         -5    1    3    3    0  502 -0.13553285046E+02 -0.37174342288E+02 -0.29074183947E+03  0.29345172154E+03  0.41800000000E+01 0.  1.
        -11    1    4    4    0    0 -0.60717742479E+02 -0.54461206859E+01 -0.24759324356E+03  0.25498768350E+03  0.00000000000E+00 0. -1.
         11    1    4    4    0    0  0.28846114715E+02 -0.22360555849E+01 -0.45534052674E+02  0.53948570246E+02  0.00000000000E+00 0.  1.
</event>
<event>
 8    1  0.7026811E-009  0.1945566E+03  0.7561462E-02  0.1154415E+00
          2   -1    0    0  501    0  0.00000000000E+00  0.00000000000E+00  0.10695756053E+04  0.10695756053E+04  0.00000000000E+00 0. -1.
         -2   -1    0    0    0  501 -0.00000000000E+00 -0.00000000000E+00 -0.39429474080E+02  0.39429474080E+02  0.00000000000E+00 0.  1.
         25    2    1    2    0    0  0.10423310098E+03  0.13996254274E+03  0.56500773339E+03  0.60442965810E+03  0.12508964822E+03 0.  0.
         23    2    1    2    0    0 -0.10423310098E+03 -0.13996254274E+03  0.46513839782E+03  0.50457542127E+03  0.88252897479E+02 0.  0.
          5    1    3    3  502    0  0.10230602021E+03  0.16219346556E+03  0.51285133987E+03  0.54754653797E+03  0.41800000000E+01 0.  1.
         -5    1    3    3    0  502  0.19270807735E+01 -0.22230922827E+02  0.52156393519E+02  0.56883120123E+02  0.41800000000E+01 0.  1.
        -11    1    4    4    0    0 -0.94535200765E+02 -0.12951972756E+03  0.46322829665E+03  0.49019661242E+03  0.00000000000E+00 0. -1.
         11    1    4    4    0    0 -0.96979002173E+01 -0.10442815172E+02  0.19101011666E+01  0.14378808845E+02  0.00000000000E+00 0.  1.
</event>
<event>
 8    1  0.7026811E-009  0.1378865E+03  0.7561462E-02  0.1216201E+00
          2   -1    0    0  501    0  0.00000000000E+00  0.00000000000E+00  0.97632072025E+03  0.97632072025E+03  0.00000000000E+00 0. -1.
         -2   -1    0    0    0  501 -0.00000000000E+00 -0.00000000000E+00 -0.23636582622E+02  0.23636582622E+02  0.00000000000E+00 0.  1.
         25    2    1    2    0    0 -0.83526634872E+02 -0.63742378585E+02  0.56603923555E+03  0.58914052577E+03  0.12508538429E+03 0.  0.
         23    2    1    2    0    0  0.83526634872E+02  0.63742378585E+02  0.38664490208E+03  0.41081677711E+03  0.90754363449E+02 0.  0.
          5    1    3    3  502    0  0.68468404719E+01 -0.54807875909E+02  0.35582478352E+03  0.36011044341E+03  0.41800000000E+01 0.  1.
         -5    1    3    3    0  502 -0.90373475344E+02 -0.89345026757E+01  0.21021445203E+03  0.22903008236E+03  0.41800000000E+01 0.  1.
        -11    1    4    4    0    0  0.55365892054E+02  0.79745226908E+02  0.21169313761E+03  0.23289196579E+03  0.00000000000E+00 0.  1.
         11    1    4    4    0    0  0.28160742818E+02 -0.16002848324E+02  0.17495176447E+03  0.17792481132E+03  0.00000000000E+00 0. -1.
</event>
<event>
 8    1  0.7026811E-009  0.1428556E+03  0.7561462E-02  0.1209537E+00
         -1   -1    0    0    0  501 -0.00000000000E+00  0.00000000000E+00  0.97571345782E+02  0.97571345782E+02  0.00000000000E+00 0.  1.
          1   -1    0    0  501    0  0.00000000000E+00 -0.00000000000E+00 -0.25508401100E+03  0.25508401100E+03  0.00000000000E+00 0. -1.
         25    2    1    2    0    0 -0.46511645806E+02 -0.95357291933E+02 -0.35810989268E+02  0.16788875203E+03  0.12509140573E+03 0.  0.
         23    2    1    2    0    0  0.46511645806E+02  0.95357291933E+02 -0.12170167595E+03  0.18476660475E+03  0.89839044858E+02 0.  0.
          5    1    3    3  502    0  0.68824294943E+01 -0.92756255460E+02 -0.58181150384E+02  0.10978893124E+03  0.41800000000E+01 0. -1.
         -5    1    3    3    0  502 -0.53394075300E+02 -0.26010364724E+01  0.22370161116E+02  0.58099820793E+02  0.41800000000E+01 0. -1.
        -11    1    4    4    0    0 -0.20251601334E+02 -0.26235789870E+01 -0.19424392115E+02  0.28183639445E+02  0.00000000000E+00 0.  1.
         11    1    4    4    0    0  0.66763247140E+02  0.97980870920E+02 -0.10227728384E+03  0.15658296530E+03  0.00000000000E+00 0. -1.
</event>
<event>
 8    1  0.7026811E-009  0.1351221E+03  0.7561462E-02  0.1220047E+00
         -2   -1    0    0    0  501 -0.00000000000E+00  0.00000000000E+00  0.11880013014E+02  0.11880013014E+02  0.00000000000E+00 0.  1.
          2   -1    0    0  501    0  0.00000000000E+00 -0.00000000000E+00 -0.18857288343E+04  0.18857288343E+04  0.00000000000E+00 0. -1.
         25    2    1    2    0    0  0.28182571532E+02 -0.81861344885E+02 -0.14310754529E+04  0.14391384786E+04  0.12508825585E+03 0.  0.
         23    2    1    2    0    0 -0.28182571532E+02  0.81861344885E+02 -0.44277336846E+03  0.45847036872E+03  0.81555417092E+02 0.  0.
          5    1    3    3  502    0  0.63847494978E+02 -0.93728917397E+02 -0.10047279407E+04  0.10111168675E+04  0.41800000000E+01 0.  1.
         -5    1    3    3    0  502 -0.35664923446E+02  0.11867572512E+02 -0.42634751214E+03  0.42802161108E+03  0.41800000000E+01 0.  1.
        -11    1    4    4    0    0 -0.42852979787E+02  0.79481405227E+01 -0.16337432664E+03  0.16908791033E+03  0.00000000000E+00 0. -1.
         11    1    4    4    0    0  0.14670408255E+02  0.73913204362E+02 -0.27939904182E+03  0.28938245840E+03  0.00000000000E+00 0.  1.
</event>
<event>
 8    1  0.7026811E-009  0.9640096E+02  0.7561462E-02  0.1288052E+00
          2   -1    0    0  501    0  0.00000000000E+00  0.00000000000E+00  0.25468348235E+03  0.25468348235E+03  0.00000000000E+00 0. -1.
         -2   -1    0    0    0  501 -0.00000000000E+00 -0.00000000000E+00 -0.58638717996E+02  0.58638717996E+02  0.00000000000E+00 0.  1.
         25    2    1    2    0    0  0.38041689980E+02 -0.40972692291E+02  0.95021955423E+02  0.16673650635E+03  0.12508380729E+03 0.  0.
         23    2    1    2    0    0 -0.38041689980E+02  0.40972692291E+02  0.10102280893E+03  0.14658569400E+03  0.90309612287E+02 0.  0.
          5    1    3    3  502    0  0.67678707948E+02 -0.31622013219E+02  0.92204539431E+01  0.75384669532E+02  0.41800000000E+01 0. -1.
         -5    1    3    3    0  502 -0.29637017967E+02 -0.93506790722E+01  0.85801501479E+02  0.91351836814E+02  0.41800000000E+01 0. -1.
        -11    1    4    4    0    0  0.18948678286E+02  0.14093484799E+02  0.74618123176E+02  0.78265848420E+02  0.00000000000E+00 0. -1.
         11    1    4    4    0    0 -0.56990368267E+02  0.26879207492E+02  0.26404685759E+02  0.68319845584E+02  0.00000000000E+00 0.  1.
</event>
<event>
 8    1  0.7026811E-009  0.1054607E+03  0.7561462E-02  0.1269215E+00
          1   -1    0    0  501    0  0.00000000000E+00  0.00000000000E+00  0.15031201072E+03  0.15031201072E+03  0.00000000000E+00 0. -1.
         -1   -1    0    0    0  501 -0.00000000000E+00 -0.00000000000E+00 -0.12343439436E+03  0.12343439436E+03  0.00000000000E+00 0.  1.
         25    2    1    2    0    0 -0.71273810699E+02  0.42475777567E+01  0.45003495186E+02  0.15090001028E+03  0.12508996968E+03 0.  0.
         23    2    1    2    0    0  0.71273810699E+02 -0.42475777567E+01 -0.18125878822E+02  0.12284639480E+03  0.98309161442E+02 0.  0.
          5    1    3    3  502    0 -0.95646096175E+02 -0.20049687037E+02  0.58184119352E+02  0.11381137820E+03  0.41800000000E+01 0. -1.
         -5    1    3    3    0  502  0.24372285476E+02  0.24297264794E+02 -0.13180624166E+02  0.37088632075E+02  0.41800000000E+01 0. -1.
        -11    1    4    4    0    0  0.55715528814E+02 -0.17077097160E+02  0.33643263857E+02  0.67288309544E+02  0.00000000000E+00 0. -1.
         11    1    4    4    0    0  0.15558281886E+02  0.12829519403E+02 -0.51769142679E+02  0.55558085254E+02  0.00000000000E+00 0.  1.
</event>
<event>
 8    1  0.7026811E-009  0.1440460E+03  0.7561462E-02  0.1207986E+00
         -2   -1    0    0    0  501 -0.00000000000E+00  0.00000000000E+00  0.29885861917E+02  0.29885861917E+02  0.00000000000E+00 0.  1.
          2   -1    0    0  501    0  0.00000000000E+00 -0.00000000000E+00 -0.97753270250E+03  0.97753270250E+03  0.00000000000E+00 0. -1.
         25    2    1    2    0    0 -0.77469373519E+02  0.80569918098E+02 -0.71177876641E+03  0.73127908088E+03  0.12508823397E+03 0.  0.
         23    2    1    2    0    0  0.77469373519E+02 -0.80569918098E+02 -0.23586807417E+03  0.27613948354E+03  0.90145717708E+02 0.  0.
          5    1    3    3  502    0  0.27761018286E+02  0.97829148655E+00 -0.59779016027E+02  0.66050241087E+02  0.41800000000E+01 0. -1.
         -5    1    3    3    0  502 -0.10523039181E+03  0.79591626612E+02 -0.65199975038E+03  0.66522883979E+03  0.41800000000E+01 0. -1.
        -11    1    4    4    0    0  0.78145330743E+02 -0.40681813486E+02 -0.94271438604E+02  0.12903025537E+03  0.00000000000E+00 0.  1.
         11    1    4    4    0    0 -0.67595722400E+00 -0.39888104612E+02 -0.14159663557E+03  0.14710922817E+03  0.00000000000E+00 0. -1.
</event>
<event>
 8    1  0.7026811E-009  0.1174937E+03  0.7561462E-02  0.1247290E+00
          2   -1    0    0  501    0  0.00000000000E+00  0.00000000000E+00  0.71696529924E+03  0.71696529924E+03  0.00000000000E+00 0. -1.
         -2   -1    0    0    0  501 -0.00000000000E+00 -0.00000000000E+00 -0.28837808774E+02  0.28837808774E+02  0.00000000000E+00 0.  1.
         25    2    1    2    0    0 -0.25825607140E+01 -0.71262228628E+02  0.21144151143E+03  0.25581351860E+03  0.12509224075E+03 0.  0.
         23    2    1    2    0    0  0.25825607140E+01  0.71262228628E+02  0.47668597904E+03  0.48998958941E+03  0.88177663106E+02 0.  0.
          5    1    3    3  502    0 -0.26076076684E+00  0.28158686850E+02  0.83917458628E+01  0.29679512124E+02  0.41800000000E+01 0.  1.
         -5    1    3    3    0  502 -0.23217999471E+01 -0.99420915479E+02  0.20304976556E+03  0.22613400648E+03  0.41800000000E+01 0.  1.
        -11    1    4    4    0    0  0.41163898637E+02  0.34913097575E+02  0.15900366149E+03  0.16791532181E+03  0.00000000000E+00 0.  1.
         11    1    4    4    0    0 -0.38581337923E+02  0.36349131053E+02  0.31768231755E+03  0.32207426760E+03  0.00000000000E+00 0. -1.
</event>
<event>
 8    1  0.7026811E-009  0.1149410E+03  0.7561462E-02  0.1251684E+00
         -3   -1    0    0    0  501 -0.00000000000E+00  0.00000000000E+00  0.78263373111E+02  0.78263373111E+02  0.00000000000E+00 0.  1.
          3   -1    0    0  501    0  0.00000000000E+00 -0.00000000000E+00 -0.22325481231E+03  0.22325481231E+03  0.00000000000E+00 0. -1.
         25    2    1    2    0    0 -0.50160966752E+01 -0.73568796233E+02 -0.97217234790E+02  0.17474594717E+03  0.12508967306E+03 0.  0.
         23    2    1    2    0    0  0.50160966752E+01  0.73568796233E+02 -0.47774204409E+02  0.12677223825E+03  0.91385429802E+02 0.  0.
          5    1    3    3  502    0 -0.44589876672E+02 -0.33213719698E+01  0.42142493768E+01  0.45105663848E+02  0.41800000000E+01 0.  1.
         -5    1    3    3    0  502  0.39573779996E+02 -0.70247424263E+02 -0.10143148417E+03  0.12964028332E+03  0.41800000000E+01 0.  1.
        -11    1    4    4    0    0 -0.33534181231E+02  0.45633802717E+02 -0.54615534702E+02  0.78675548248E+02  0.00000000000E+00 0. -1.
         11    1    4    4    0    0  0.38550277906E+02  0.27934993516E+02  0.68413302935E+01  0.48096690007E+02  0.00000000000E+00 0.  1.
</event>
<event>
 8    1  0.7026811E-009  0.1462342E+03  0.7561462E-02  0.1205178E+00
          2   -1    0    0  501    0  0.00000000000E+00  0.00000000000E+00  0.60410293062E+03  0.60410293062E+03  0.00000000000E+00 0. -1.
         -2   -1    0    0    0  501 -0.00000000000E+00 -0.00000000000E+00 -0.37371022999E+02  0.37371022999E+02  0.00000000000E+00 0.  1.
         25    2    1    2    0    0 -0.15555916646E+02 -0.10348094988E+03  0.36074560402E+03  0.39589873079E+03  0.12509244857E+03 0.  0.
         23    2    1    2    0    0  0.15555916646E+02  0.10348094988E+03  0.20598630360E+03  0.24557522284E+03  0.83225832940E+02 0.  0.
          5    1    3    3  502    0 -0.85182683411E+01 -0.13167445929E+03  0.31497255858E+03  0.34151999822E+03  0.41800000000E+01 0.  1.
         -5    1    3    3    0  502 -0.70376483047E+01  0.28193509415E+02  0.45773045441E+02  0.54378732568E+02  0.41800000000E+01 0.  1.
        -11    1    4    4    0    0 -0.26878341342E+02  0.75814587742E+02  0.10195231529E+03  0.12986366521E+03  0.00000000000E+00 0.  1.
         11    1    4    4    0    0  0.42434257987E+02  0.27666362133E+02  0.10403398831E+03  0.11571155763E+03  0.00000000000E+00 0. -1.
</event>
<event>
 8    1  0.7026811E-009  0.8522619E+02  0.7561462E-02  0.1314842E+00
         -1   -1    0    0    0  501 -0.00000000000E+00  0.00000000000E+00  0.43048438552E+02  0.43048438552E+02  0.00000000000E+00 0.  1.
          1   -1    0    0  501    0  0.00000000000E+00 -0.00000000000E+00 -0.29915727943E+03  0.29915727943E+03  0.00000000000E+00 0. -1.
         25    2    1    2    0    0 -0.13014849115E+02 -0.12524854756E+02 -0.10241171180E+03  0.16268456351E+03  0.12510735472E+03 0.  0.
         23    2    1    2    0    0  0.13014849115E+02  0.12524854756E+02 -0.15369712908E+03  0.17952115447E+03  0.90987796617E+02 0.  0.
          5    1    3    3  502    0 -0.26507417520E+02 -0.41429270361E+02  0.58848991773E+01  0.49710482441E+02  0.41800000000E+01 0. -1.
         -5    1    3    3    0  502  0.13492568405E+02  0.28904415605E+02 -0.10829661098E+03  0.11297408106E+03  0.41800000000E+01 0. -1.
        -11    1    4    4    0    0 -0.52876616228E+01 -0.36349108340E+02 -0.39362852775E+02  0.53839123517E+02  0.00000000000E+00 0.  1.
         11    1    4    4    0    0  0.18302510738E+02  0.48873963096E+02 -0.11433427630E+03  0.12568203096E+03  0.00000000000E+00 0. -1.
</event>
<event>
 8    1  0.7026811E-009  0.2179258E+03  0.7561462E-02  0.1135439E+00
         -2   -1    0    0    0  501 -0.00000000000E+00  0.00000000000E+00  0.34967655394E+02  0.34967655394E+02  0.00000000000E+00 0.  1.
          2   -1    0    0  501    0  0.00000000000E+00 -0.00000000000E+00 -0.14984020951E+04  0.14984020951E+04  0.00000000000E+00 0. -1.
         25    2    1    2    0    0 -0.35265766031E+02 -0.19708356310E+03 -0.68982409788E+03  0.72910518857E+03  0.12510589472E+03 0.  0.
         23    2    1    2    0    0  0.35265766031E+02  0.19708356310E+03 -0.77361034179E+03  0.80426456188E+03  0.91010545970E+02 0.  0.
          5    1    3    3  502    0 -0.37908287237E+02 -0.21432837289E+03 -0.62416733771E+03  0.66104162315E+03  0.41800000000E+01 0. -1.
         -5    1    3    3    0  502  0.26425212063E+01  0.17244809790E+02 -0.65656760162E+02  0.68063565422E+02  0.41800000000E+01 0. -1.
        -11    1    4    4    0    0  0.18142423977E+02  0.98421765454E+02 -0.55311320790E+03  0.56209448691E+03  0.00000000000E+00 0.  1.
         11    1    4    4    0    0  0.17123342054E+02  0.98661797646E+02 -0.22049713389E+03  0.24217007497E+03  0.00000000000E+00 0. -1.
</event>
<event>
 8    1  0.7026811E-009  0.1097190E+03  0.7561462E-02  0.1261091E+00
          2   -1    0    0  501    0  0.00000000000E+00  0.00000000000E+00  0.41828635478E+03  0.41828635478E+03  0.00000000000E+00 0. -1.
         -2   -1    0    0    0  501 -0.00000000000E+00 -0.00000000000E+00 -0.33539957694E+02  0.33539957694E+02  0.00000000000E+00 0.  1.
         25    2    1    2    0    0 -0.39777500701E+01 -0.45171242269E+02  0.23817115076E+03  0.27281699321E+03  0.12508937248E+03 0.  0.
         23    2    1    2    0    0  0.39777500701E+01  0.45171242269E+02  0.14657524632E+03  0.17900931926E+03  0.92215887587E+02 0.  0.
          5    1    3    3  502    0  0.53716874978E+02 -0.24440998915E+02  0.17482135170E+03  0.18456121612E+03  0.41800000000E+01 0.  1.
         -5    1    3    3    0  502 -0.57694625048E+02 -0.20730243354E+02  0.63349799062E+02  0.88255777093E+02  0.41800000000E+01 0.  1.
        -11    1    4    4    0    0 -0.21164530013E+02  0.64004096593E+02  0.12095722026E+03  0.13847422447E+03  0.00000000000E+00 0. -1.
         11    1    4    4    0    0  0.25142280084E+02 -0.18832854324E+02  0.25618026066E+02  0.40535094786E+02  0.00000000000E+00 0.  1.
</event>
<event>
 8    1  0.7026811E-009  0.1206173E+03  0.7561462E-02  0.1242082E+00
          3   -1    0    0  501    0  0.00000000000E+00  0.00000000000E+00  0.61283061545E+03  0.61283061545E+03  0.00000000000E+00 0. -1.
         -3   -1    0    0    0  501 -0.00000000000E+00 -0.00000000000E+00 -0.44436033746E+02  0.44436033746E+02  0.00000000000E+00 0.  1.
         25    2    1    2    0    0  0.19507736991E+02 -0.89265922289E+02  0.47064586459E+03  0.49548381868E+03  0.12509087908E+03 0.  0.
         23    2    1    2    0    0 -0.19507736991E+02  0.89265922289E+02  0.97748717116E+02  0.16178283052E+03  0.90939077789E+02 0.  0.
          5    1    3    3  502    0 -0.29980240317E+02  0.18010242332E+00  0.25509998228E+03  0.25688970514E+03  0.41800000000E+01 0.  1.
         -5    1    3    3    0  502  0.49487977307E+02 -0.89446024712E+02  0.21554588231E+03  0.23859411354E+03  0.41800000000E+01 0.  1.
        -11    1    4    4    0    0  0.18203241915E+02  0.97503206095E+01 -0.97660602393E+01  0.22843001134E+02  0.00000000000E+00 0.  1.
         11    1    4    4    0    0 -0.37710978906E+02  0.79515601679E+02  0.10751477736E+03  0.13893982939E+03  0.00000000000E+00 0. -1.
</event>
<event>
 8    1  0.7026811E-009  0.1025889E+03  0.7561462E-02  0.1274944E+00
          1   -1    0    0  501    0  0.00000000000E+00  0.00000000000E+00  0.19249043520E+03  0.19249043520E+03  0.00000000000E+00 0. -1.
         -1   -1    0    0    0  501 -0.00000000000E+00 -0.00000000000E+00 -0.87138485297E+02  0.87138485297E+02  0.00000000000E+00 0.  1.
         25    2    1    2    0    0 -0.70209058408E+02  0.99326099697E+01  0.74151660917E+02  0.16178430506E+03  0.12509086267E+03 0.  0.
         23    2    1    2    0    0  0.70209058408E+02 -0.99326099697E+01  0.31200288990E+02  0.11784461544E+03  0.88802740563E+02 0.  0.
          5    1    3    3  502    0 -0.70689892850E+02  0.26462964519E+02 -0.96991572338E+01  0.76216110458E+02  0.41800000000E+01 0. -1.
         -5    1    3    3    0  502  0.48083444247E+00 -0.16530354549E+02  0.83850818151E+02  0.85568194604E+02  0.41800000000E+01 0. -1.
        -11    1    4    4    0    0  0.17868524963E+02 -0.45740515619E+02  0.21824414481E+02  0.53738105855E+02  0.00000000000E+00 0.  1.
         11    1    4    4    0    0  0.52340533445E+02  0.35807905649E+02  0.93758745097E+01  0.64106509584E+02  0.00000000000E+00 0. -1.
</event>
<event>
 8    1  0.7026811E-009  0.9320672E+02  0.7561462E-02  0.1295267E+00
         -1   -1    0    0    0  501 -0.00000000000E+00  0.00000000000E+00  0.17527862534E+02  0.17527862534E+02  0.00000000000E+00 0.  1.
          1   -1    0    0  501    0  0.00000000000E+00 -0.00000000000E+00 -0.11648339259E+04  0.11648339259E+04  0.00000000000E+00 0. -1.
         25    2    1    2    0    0  0.30320977201E+02 -0.17727803674E+02 -0.97644170258E+03  0.98504815217E+03  0.12509127413E+03 0.  0.
         23    2    1    2    0    0 -0.30320977201E+02  0.17727803674E+02 -0.17086436075E+03  0.19731363623E+03  0.92219328712E+02 0.  0.
          5    1    3    3  502    0  0.63593624175E+02  0.10079801081E+02 -0.28399866315E+03  0.29123609751E+03  0.41800000000E+01 0. -1.
         -5    1    3    3    0  502 -0.33272646974E+02 -0.27807604756E+02 -0.69244303944E+03  0.69381205466E+03  0.41800000000E+01 0. -1.
        -11    1    4    4    0    0 -0.35825296164E+02  0.40980031040E+02 -0.49351635523E+02  0.73473796132E+02  0.00000000000E+00 0.  1.
         11    1    4    4    0    0  0.55043189625E+01 -0.23252227365E+02 -0.12151272523E+03  0.12383984010E+03  0.00000000000E+00 0. -1.
</event>
<event>
 8    1  0.7026811E-009  0.1528442E+03  0.7561462E-02  0.1197021E+00
         -1   -1    0    0    0  501 -0.00000000000E+00  0.00000000000E+00  0.13375306210E+03  0.13375306210E+03  0.00000000000E+00 0.  1.
          1   -1    0    0  501    0  0.00000000000E+00 -0.00000000000E+00 -0.20101971626E+03  0.20101971626E+03  0.00000000000E+00 0. -1.
         25    2    1    2    0    0  0.10260620465E+03 -0.62925091779E+02 -0.14973327024E+02  0.17423949381E+03  0.12509036843E+03 0.  0.
         23    2    1    2    0    0 -0.10260620465E+03  0.62925091779E+02 -0.52293327136E+02  0.16053328455E+03  0.92459412606E+02 0.  0.
          5    1    3    3  502    0  0.11847225682E+03 -0.11260093969E+02 -0.54704313069E+01  0.11920513148E+03  0.41800000000E+01 0. -1.
         -5    1    3    3    0  502 -0.15866052175E+02 -0.51664997810E+02 -0.95028957174E+01  0.55034362332E+02  0.41800000000E+01 0. -1.
        -11    1    4    4    0    0 -0.86411129672E+02  0.23154640651E+02 -0.70491354848E+02  0.11389491570E+03  0.00000000000E+00 0. -1.
         11    1    4    4    0    0 -0.16195074975E+02  0.39770451129E+02  0.18198027712E+02  0.46638368850E+02  0.00000000000E+00 0.  1.
</event>
<event>
 8    1  0.7026811E-009  0.1066780E+03  0.7561462E-02  0.1266848E+00
          2   -1    0    0  501    0  0.00000000000E+00  0.00000000000E+00  0.62181756085E+03  0.62181756085E+03  0.00000000000E+00 0. -1.
         -2   -1    0    0    0  501 -0.00000000000E+00 -0.00000000000E+00 -0.25887871089E+02  0.25887871089E+02  0.00000000000E+00 0.  1.
         25    2    1    2    0    0  0.29615105447E+02 -0.57174014724E+02  0.36510636787E+03  0.39127356711E+03  0.12508565878E+03 0.  0.
         23    2    1    2    0    0 -0.29615105447E+02  0.57174014724E+02  0.23082332189E+03  0.25643186482E+03  0.91279641424E+02 0.  0.
          5    1    3    3  502    0  0.40206504977E+02  0.95874048035E+01  0.27724062332E+03  0.28033607865E+03  0.41800000000E+01 0.  1.
         -5    1    3    3    0  502 -0.10591399530E+02 -0.66761419528E+02  0.87865744549E+02  0.11093748846E+03  0.41800000000E+01 0.  1.
        -11    1    4    4    0    0 -0.17278570657E+02 -0.19714124238E+02  0.10694460586E+03  0.11011060086E+03  0.00000000000E+00 0. -1.
         11    1    4    4    0    0 -0.12336534789E+02  0.76888138963E+02  0.12387871603E+03  0.14632126397E+03  0.00000000000E+00 0.  1.
</event>
<event>
 8    1  0.7026811E-009  0.1110602E+03  0.7561462E-02  0.1258619E+00
          2   -1    0    0  501    0  0.00000000000E+00  0.00000000000E+00  0.28420033409E+02  0.28420033409E+02  0.00000000000E+00 0. -1.
         -2   -1    0    0    0  501 -0.00000000000E+00 -0.00000000000E+00 -0.57163702442E+03  0.57163702442E+03  0.00000000000E+00 0.  1.
         25    2    1    2    0    0  0.58499122058E+02  0.44039193880E+02 -0.33979289126E+03  0.36941888431E+03  0.12509798262E+03 0.  0.
         23    2    1    2    0    0 -0.58499122058E+02 -0.44039193880E+02 -0.20342409975E+03  0.23063817352E+03  0.80318147671E+02 0.  0.
          5    1    3    3  502    0  0.11247215575E+02  0.71589403295E+02 -0.10083070383E+03  0.12424107918E+03  0.41800000000E+01 0. -1.
         -5    1    3    3    0  502  0.47251906483E+02 -0.27550209415E+02 -0.23896218743E+03  0.24517780513E+03  0.41800000000E+01 0. -1.
        -11    1    4    4    0    0  0.11981381240E+02 -0.12952322751E+02 -0.58669334294E+01  0.18594006264E+02  0.00000000000E+00 0. -1.
         11    1    4    4    0    0 -0.70480503298E+02 -0.31086871128E+02 -0.19755716632E+03  0.21204416726E+03  0.00000000000E+00 0.  1.
</event>
<event>
 8    1  0.7026811E-009  0.8377006E+02  0.7561462E-02  0.1318681E+00
         -1   -1    0    0    0  501 -0.00000000000E+00  0.00000000000E+00  0.70738948292E+02  0.70738948292E+02  0.00000000000E+00 0.  1.
          1   -1    0    0  501    0  0.00000000000E+00 -0.00000000000E+00 -0.21791142338E+03  0.21791142338E+03  0.00000000000E+00 0. -1.
         25    2    1    2    0    0  0.49365908046E+02 -0.18738444649E+02 -0.11620148521E+03  0.17871290446E+03  0.12508954741E+03 0.  0.
         23    2    1    2    0    0 -0.49365908046E+02  0.18738444649E+02 -0.30970989884E+02  0.10993746722E+03  0.91317699809E+02 0.  0.
          5    1    3    3  502    0  0.66237342677E+01 -0.19107038005E+02  0.24244630312E+02  0.31846934797E+02  0.41800000000E+01 0. -1.
         -5    1    3    3    0  502  0.42742173778E+02  0.36859335670E+00 -0.14044611552E+03  0.14686596966E+03  0.41800000000E+01 0. -1.
        -11    1    4    4    0    0 -0.38623387687E+02 -0.33183604242E+02 -0.58177005601E+01  0.51251959052E+02  0.00000000000E+00 0.  1.
         11    1    4    4    0    0 -0.10742520359E+02  0.51922048890E+02 -0.25153289324E+02  0.58685508164E+02  0.00000000000E+00 0. -1.
</event>
<event>
 8    1  0.7026811E-009  0.1097388E+03  0.7561462E-02  0.1261054E+00
         -1   -1    0    0    0  501 -0.00000000000E+00  0.00000000000E+00  0.42887229084E+02  0.42887229084E+02  0.00000000000E+00 0.  1.
          1   -1    0    0  501    0  0.00000000000E+00 -0.00000000000E+00 -0.39931774002E+03  0.39931774002E+03  0.00000000000E+00 0. -1.
         25    2    1    2    0    0 -0.11848927818E+02  0.35645775963E+02 -0.88420319216E+02  0.15772847818E+03  0.12509636903E+03 0.  0.
         23    2    1    2    0    0  0.11848927818E+02 -0.35645775963E+02 -0.26801019172E+03  0.28447649093E+03  0.87672074171E+02 0.  0.
          5    1    3    3  502    0  0.19090657165E+02 -0.38932050993E+02 -0.55205063817E+02  0.70322324027E+02  0.41800000000E+01 0.  1.
         -5    1    3    3    0  502 -0.30939584983E+02  0.74577826956E+02 -0.33215255398E+02  0.87406154151E+02  0.41800000000E+01 0.  1.
        -11    1    4    4    0    0  0.17255214443E+02 -0.63957062503E+02 -0.17580558451E+03  0.18787190267E+03  0.00000000000E+00 0. -1.
         11    1    4    4    0    0 -0.54062866248E+01  0.28311286540E+02 -0.92204607218E+02  0.96604588260E+02  0.00000000000E+00 0.  1.
</event>
<event>
 8    1  0.7026811E-009  0.1064418E+03  0.7561462E-02  0.1267305E+00
          2   -1    0    0  501    0  0.00000000000E+00  0.00000000000E+00  0.34295650191E+03  0.34295650191E+03  0.00000000000E+00 0. -1.
         -2   -1    0    0    0  501 -0.00000000000E+00 -0.00000000000E+00 -0.47514813476E+02  0.47514813476E+02  0.00000000000E+00 0.  1.
         25    2    1    2    0    0 -0.16983747614E+01  0.54645612651E+02  0.22173572748E+03  0.26038461159E+03  0.12507751858E+03 0.  0.
         23    2    1    2    0    0  0.16983747614E+01 -0.54645612651E+02  0.73705960952E+02  0.13008670379E+03  0.92200620195E+02 0.  0.
          5    1    3    3  502    0 -0.14168149403E+02  0.93915306811E+02  0.15234904145E+03  0.17957874078E+03  0.41800000000E+01 0. -1.
         -5    1    3    3    0  502  0.12469774642E+02 -0.39269694159E+02  0.69386686035E+02  0.80805870813E+02  0.41800000000E+01 0. -1.
        -11    1    4    4    0    0 -0.18813809535E+02 -0.52508224649E+02  0.88566881037E+02  0.10466692649E+03  0.00000000000E+00 0. -1.
         11    1    4    4    0    0  0.20512184296E+02 -0.21373880023E+01 -0.14860920085E+02  0.25419777297E+02  0.00000000000E+00 0.  1.
</event>
<event>
 8    1  0.7026811E-009  0.1977669E+03  0.7561462E-02  0.1151637E+00
         -1   -1    0    0    0  501 -0.00000000000E+00  0.00000000000E+00  0.17447260043E+03  0.17447260043E+03  0.00000000000E+00 0.  1.
          1   -1    0    0  501    0  0.00000000000E+00 -0.00000000000E+00 -0.25672638172E+03  0.25672638172E+03  0.00000000000E+00 0. -1.
         25    2    1    2    0    0  0.12272522039E+03  0.13159054293E+03 -0.57122937091E+02  0.22646721868E+03  0.12508725148E+03 0.  0.
         23    2    1    2    0    0 -0.12272522039E+03 -0.13159054293E+03 -0.25130844197E+02  0.20473176347E+03  0.94371526067E+02 0.  0.
          5    1    3    3  502    0  0.23471696574E+02  0.97034528849E+02  0.11952733454E+02  0.10063280065E+03  0.41800000000E+01 0. -1.
         -5    1    3    3    0  502  0.99253523820E+02  0.34556014084E+02 -0.69075670545E+02  0.12583441803E+03  0.41800000000E+01 0. -1.
        -11    1    4    4    0    0 -0.98092541617E+02 -0.13357150180E+03  0.49582912763E+01  0.16579528783E+03  0.00000000000E+00 0.  1.
         11    1    4    4    0    0 -0.24632678777E+02  0.19809588644E+01 -0.30089135473E+02  0.38936475640E+02  0.00000000000E+00 0. -1.
</event>
<event>
 8    1  0.7026811E-009  0.2511993E+03  0.7561462E-02  0.1112549E+00
         -2   -1    0    0    0  501 -0.00000000000E+00  0.00000000000E+00  0.15562876664E+03  0.15562876664E+03  0.00000000000E+00 0.  1.
          2   -1    0    0  501    0  0.00000000000E+00 -0.00000000000E+00 -0.42871368701E+03  0.42871368701E+03  0.00000000000E+00 0. -1.
         25    2    1    2    0    0 -0.52982505859E+02  0.22508789533E+03 -0.10022305539E+03  0.28136099424E+03  0.12509053399E+03 0.  0.
         23    2    1    2    0    0  0.52982505859E+02 -0.22508789533E+03 -0.17286186498E+03  0.30298145941E+03  0.91895776988E+02 0.  0.
          5    1    3    3  502    0  0.16046766749E+02  0.15729423317E+03 -0.94726375309E+02  0.18436250457E+03  0.41800000000E+01 0. -1.
         -5    1    3    3    0  502 -0.69029272608E+02  0.67793662165E+02 -0.54966800833E+01  0.96998489671E+02  0.41800000000E+01 0. -1.
        -11    1    4    4    0    0 -0.19775318450E+02 -0.10604791766E+03 -0.59361954616E+02  0.12313027944E+03  0.00000000000E+00 0.  1.
         11    1    4    4    0    0  0.72757824309E+02 -0.11903997768E+03 -0.11349991036E+03  0.17985117997E+03  0.00000000000E+00 0. -1.
</event>
<event>
 8    1  0.7026811E-009  0.2653440E+03  0.7561462E-02  0.1103974E+00
         -2   -1    0    0    0  501 -0.00000000000E+00  0.00000000000E+00  0.75718654408E+02  0.75718654408E+02  0.00000000000E+00 0.  1.
          2   -1    0    0  501    0  0.00000000000E+00 -0.00000000000E+00 -0.13048215317E+04  0.13048215317E+04  0.00000000000E+00 0. -1.
         25    2    1    2    0    0 -0.80440499525E+02 -0.24899275336E+03 -0.92493070369E+03  0.96933639350E+03  0.12509265340E+03 0.  0.
         23    2    1    2    0    0  0.80440499525E+02  0.24899275336E+03 -0.30417217362E+03  0.41120379264E+03  0.89998792670E+02 0.  0.
          5    1    3    3  502    0 -0.61390274138E+02 -0.91272501949E+02 -0.56883001103E+03  0.57938285202E+03  0.41800000000E+01 0.  1.
         -5    1    3    3    0  502 -0.19050225388E+02 -0.15772025141E+03 -0.35610069267E+03  0.38995354148E+03  0.41800000000E+01 0.  1.
        -11    1    4    4    0    0  0.28603898067E+02  0.94298538704E+02 -0.18347352250E+03  0.20826168838E+03  0.00000000000E+00 0. -1.
         11    1    4    4    0    0  0.51836601458E+02  0.15469421466E+03 -0.12069865112E+03  0.20294210426E+03  0.00000000000E+00 0.  1.
</event>
<event>
 8    1  0.7026811E-009  0.1955056E+03  0.7561462E-02  0.1153587E+00
          2   -1    0    0  501    0  0.00000000000E+00  0.00000000000E+00  0.50320581610E+03  0.50320581610E+03  0.00000000000E+00 0. -1.
         -2   -1    0    0    0  501 -0.00000000000E+00 -0.00000000000E+00 -0.77779074180E+02  0.77779074180E+02  0.00000000000E+00 0.  1.
         25    2    1    2    0    0  0.10561607061E+03  0.12537748526E+03  0.19726743901E+03  0.28537740066E+03  0.12510615545E+03 0.  0.
         23    2    1    2    0    0 -0.10561607061E+03 -0.12537748526E+03  0.22815930291E+03  0.29560748962E+03  0.91939394341E+02 0.  0.
          5    1    3    3  502    0  0.36680350594E+02  0.13123018326E+03  0.14074290042E+03  0.19594092359E+03  0.41800000000E+01 0. -1.
         -5    1    3    3    0  502  0.68935720019E+02 -0.58526979948E+01  0.56524538592E+02  0.89436477074E+02  0.41800000000E+01 0. -1.
        -11    1    4    4    0    0 -0.11943368599E+03 -0.97176433373E+02  0.16895766120E+03  0.22859211673E+03  0.00000000000E+00 0. -1.
         11    1    4    4    0    0  0.13817615379E+02 -0.28201051891E+02  0.59201641701E+02  0.67015372883E+02  0.00000000000E+00 0.  1.
</event>
<event>
 8    1  0.7026811E-009  0.1210309E+03  0.7561462E-02  0.1241406E+00
          3   -1    0    0  501    0  0.00000000000E+00  0.00000000000E+00  0.11378891820E+03  0.11378891820E+03  0.00000000000E+00 0. -1.
         -3   -1    0    0    0  501 -0.00000000000E+00 -0.00000000000E+00 -0.18156446692E+03  0.18156446692E+03  0.00000000000E+00 0.  1.
         25    2    1    2    0    0 -0.62296772476E+02 -0.52070678814E+02 -0.77435884420E+02  0.16803375892E+03  0.12508710760E+03 0.  0.
         23    2    1    2    0    0  0.62296772476E+02  0.52070678814E+02  0.96603356981E+01  0.12731962620E+03  0.97594680581E+02 0.  0.
          5    1    3    3  502    0 -0.65975170743E+02 -0.71039451975E+02 -0.97602545812E+01  0.97529799861E+02  0.41800000000E+01 0.  1.
         -5    1    3    3    0  502  0.36783982664E+01  0.18968773161E+02 -0.67675629839E+02  0.70503959060E+02  0.41800000000E+01 0.  1.
        -11    1    4    4    0    0 -0.22048857940E+01 -0.24804196876E+02 -0.63528653424E+01  0.25699583695E+02  0.00000000000E+00 0.  1.
         11    1    4    4    0    0  0.64501658270E+02  0.76874875690E+02  0.16013201040E+02  0.10162004251E+03  0.00000000000E+00 0. -1.
</event>
<event>
 8    1  0.7026811E-009  0.1834254E+03  0.7561462E-02  0.1164528E+00
         -2   -1    0    0    0  501 -0.00000000000E+00  0.00000000000E+00  0.45269223405E+02  0.45269223405E+02  0.00000000000E+00 0.  1.
          2   -1    0    0  501    0  0.00000000000E+00 -0.00000000000E+00 -0.87843425892E+03  0.87843425892E+03  0.00000000000E+00 0. -1.
         25    2    1    2    0    0 -0.94194318226E+02  0.13725034989E+03 -0.41750566547E+03  0.46654917818E+03  0.12508767657E+03 0.  0.
         23    2    1    2    0    0  0.94194318226E+02 -0.13725034989E+03 -0.41565937004E+03  0.45715430414E+03  0.92234037961E+02 0.  0.
          5    1    3    3  502    0 -0.28166012144E+02 -0.81929815889E+01 -0.16568366292E+03  0.16831220320E+03  0.41800000000E+01 0.  1.
         -5    1    3    3    0  502 -0.66028306082E+02  0.14544333148E+03 -0.25182200255E+03  0.29823697498E+03  0.41800000000E+01 0.  1.
        -11    1    4    4    0    0  0.14273892245E+01 -0.50207600901E+02 -0.20501981936E+03  0.21108284383E+03  0.00000000000E+00 0. -1.
         11    1    4    4    0    0  0.92766929002E+02 -0.87042748994E+02 -0.21063955068E+03  0.24607146031E+03  0.00000000000E+00 0.  1.
</event>
<event>
 8    1  0.7026811E-009  0.6338638E+02  0.7561462E-02  0.1384146E+00
          1   -1    0    0  501    0  0.00000000000E+00  0.00000000000E+00  0.15763086851E+03  0.15763086851E+03  0.00000000000E+00 0. -1.
         -1   -1    0    0    0  501 -0.00000000000E+00 -0.00000000000E+00 -0.73795937028E+02  0.73795937028E+02  0.00000000000E+00 0.  1.
         25    2    1    2    0    0 -0.53342816056E+01  0.99912837306E+00  0.37594522397E+02  0.13074515908E+03  0.12510593787E+03 0.  0.
         23    2    1    2    0    0  0.53342816056E+01 -0.99912837306E+00  0.46240409082E+02  0.10068164646E+03  0.89270183619E+02 0.  0.
          5    1    3    3  502    0  0.37433050653E+02 -0.95445832103E+01 -0.30597070131E+02  0.49456904983E+02  0.41800000000E+01 0.  1.
         -5    1    3    3    0  502 -0.42767332259E+02  0.10543711583E+02  0.68191592528E+02  0.81288254096E+02  0.41800000000E+01 0.  1.
        -11    1    4    4    0    0  0.96896695059E+01 -0.21038992054E+02 -0.20456553456E+02  0.30903065561E+02  0.00000000000E+00 0.  1.
         11    1    4    4    0    0 -0.43553879003E+01  0.20039863681E+02  0.66696962537E+02  0.69778580896E+02  0.00000000000E+00 0. -1.
</event>
<event>
 8    1  0.7026811E-009  0.1030601E+03  0.7561462E-02  0.1273990E+00
          2   -1    0    0  501    0  0.00000000000E+00  0.00000000000E+00  0.59857922055E+02  0.59857922055E+02  0.00000000000E+00 0. -1.
         -2   -1    0    0    0  501 -0.00000000000E+00 -0.00000000000E+00 -0.26822571501E+03  0.26822571501E+03  0.00000000000E+00 0.  1.
         25    2    1    2    0    0 -0.29084603204E+02  0.56312896096E+02 -0.90458812047E+02  0.16687730868E+03  0.12509269789E+03 0.  0.
         23    2    1    2    0    0  0.29084603204E+02 -0.56312896096E+02 -0.11790898091E+03  0.16120632838E+03  0.89821468042E+02 0.  0.
          5    1    3    3  502    0 -0.22244344160E+02  0.85677899184E+02 -0.10127615226E+03  0.13457282293E+03  0.41800000000E+01 0.  1.
         -5    1    3    3    0  502 -0.68402590442E+01 -0.29365003088E+02  0.10817340215E+02  0.32304485748E+02  0.41800000000E+01 0.  1.
        -11    1    4    4    0    0 -0.17740198507E+02 -0.70284187233E+01 -0.82260697301E+02  0.84444867418E+02  0.00000000000E+00 0.  1.
         11    1    4    4    0    0  0.46824801711E+02 -0.49284477373E+02 -0.35648283608E+02  0.76761460964E+02  0.00000000000E+00 0. -1.
</event>
<event>
 8    1  0.7026811E-009  0.1524010E+03  0.7561462E-02  0.1197553E+00
          1   -1    0    0  501    0  0.00000000000E+00  0.00000000000E+00  0.14508326753E+04  0.14508326753E+04  0.00000000000E+00 0. -1.
         -1   -1    0    0    0  501 -0.00000000000E+00 -0.00000000000E+00 -0.16812471889E+02  0.16812471889E+02  0.00000000000E+00 0.  1.
         25    2    1    2    0    0 -0.39233199715E+02  0.10489156829E+03  0.72114145228E+03  0.74042832257E+03  0.12509045368E+03 0.  0.
         23    2    1    2    0    0  0.39233199715E+02 -0.10489156829E+03  0.71287875117E+03  0.72721682466E+03  0.90037276407E+02 0.  0.
          5    1    3    3  502    0 -0.56140034516E+02  0.12752510102E+01  0.35765761182E+03  0.36206321194E+03  0.41800000000E+01 0. -1.
         -5    1    3    3    0  502  0.16906834801E+02  0.10361631728E+03  0.36348384046E+03  0.37836511063E+03  0.41800000000E+01 0. -1.
        -11    1    4    4    0    0  0.58528799155E+02 -0.10897634885E+03  0.59841697172E+03  0.61106819340E+03  0.00000000000E+00 0.  1.
         11    1    4    4    0    0 -0.19295599440E+02  0.40847805537E+01  0.11446177945E+03  0.11614863126E+03  0.00000000000E+00 0. -1.
</event>
<event>
 8    1  0.7026811E-009  0.1157610E+03  0.7561462E-02  0.1250259E+00
         -3   -1    0    0    0  501 -0.00000000000E+00  0.00000000000E+00  0.13569508960E+03  0.13569508960E+03  0.00000000000E+00 0.  1.
          3   -1    0    0  501    0  0.00000000000E+00 -0.00000000000E+00 -0.12671875630E+03  0.12671875630E+03  0.00000000000E+00 0. -1.
         25    2    1    2    0    0 -0.51105174360E+02  0.50232425591E+02  0.20269657266E+02  0.14557938718E+03  0.12508982189E+03 0.  0.
         23    2    1    2    0    0  0.51105174360E+02 -0.50232425591E+02 -0.11293323967E+02  0.11683445871E+03  0.91584475483E+02 0.  0.
          5    1    3    3  502    0 -0.13030271656E+02  0.87294990374E+02  0.25651665129E+02  0.92009149805E+02  0.41800000000E+01 0.  1.
         -5    1    3    3    0  502 -0.38074902704E+02 -0.37062564784E+02 -0.53820078635E+01  0.53570237379E+02  0.41800000000E+01 0.  1.
        -11    1    4    4    0    0  0.24946491305E+02  0.78567179155E+01  0.30853496959E+02  0.40447419194E+02  0.00000000000E+00 0.  1.
         11    1    4    4    0    0  0.26158683055E+02 -0.58089143506E+02 -0.42146820925E+02  0.76387039519E+02  0.00000000000E+00 0. -1.
</event>
<event>
 8    1  0.7026811E-009  0.8801729E+02  0.7561462E-02  0.1307725E+00
          1   -1    0    0  501    0  0.00000000000E+00  0.00000000000E+00  0.18437666265E+03  0.18437666265E+03  0.00000000000E+00 0. -1.
         -1   -1    0    0    0  501 -0.00000000000E+00 -0.00000000000E+00 -0.82302662201E+02  0.82302662201E+02  0.00000000000E+00 0.  1.
         25    2    1    2    0    0  0.54161898904E+02 -0.15196969708E+02  0.40728683742E+02  0.14307111447E+03  0.12508420737E+03 0.  0.
         23    2    1    2    0    0 -0.54161898904E+02  0.15196969708E+02  0.61345316707E+02  0.12360821039E+03  0.91385352282E+02 0.  0.
          5    1    3    3  502    0 -0.15094112690E+01  0.20331720066E+02 -0.36101835261E+02  0.41670997978E+02  0.41800000000E+01 0.  1.
         -5    1    3    3    0  502  0.55671310173E+02 -0.35528689774E+02  0.76830519004E+02  0.10140011649E+03  0.41800000000E+01 0.  1.
        -11    1    4    4    0    0 -0.70668986509E+02  0.16230911650E+02  0.73374462871E+02  0.10315696752E+03  0.00000000000E+00 0. -1.
         11    1    4    4    0    0  0.16507087605E+02 -0.10339419428E+01 -0.12029146164E+02  0.20451242861E+02  0.00000000000E+00 0.  1.
</event>
<event>
 8    1  0.7026811E-009  0.8519796E+02  0.7561462E-02  0.1314916E+00
          2   -1    0    0  501    0  0.00000000000E+00  0.00000000000E+00  0.22357907272E+03  0.22357907272E+03  0.00000000000E+00 0. -1.
         -2   -1    0    0    0  501 -0.00000000000E+00 -0.00000000000E+00 -0.71502219868E+02  0.71502219868E+02  0.00000000000E+00 0.  1.
         25    2    1    2    0    0  0.59090362898E+02  0.26103342415E+02  0.77396539920E+02  0.16066018017E+03  0.12509361946E+03 0.  0.
         23    2    1    2    0    0 -0.59090362898E+02 -0.26103342415E+02  0.74680312929E+02  0.13442111241E+03  0.91207624957E+02 0.  0.
          5    1    3    3  502    0  0.61827136027E+02  0.15496846327E+02 -0.16549283788E+02  0.65985590770E+02  0.41800000000E+01 0. -1.
         -5    1    3    3    0  502 -0.27367731296E+01  0.10606496088E+02  0.93945823707E+02  0.94674589402E+02  0.41800000000E+01 0. -1.
        -11    1    4    4    0    0  0.12557437278E+02  0.85651102131E+01 -0.10008392725E+02  0.18199402982E+02  0.00000000000E+00 0.  1.
         11    1    4    4    0    0 -0.71647800176E+02 -0.34668452628E+02  0.84688705654E+02  0.11622170943E+03  0.00000000000E+00 0. -1.
</event>
<event>
 8    1  0.7026811E-009  0.7558049E+02  0.7561462E-02  0.1342083E+00
          1   -1    0    0  501    0  0.00000000000E+00  0.00000000000E+00  0.15875756045E+03  0.15875756045E+03  0.00000000000E+00 0. -1.
         -1   -1    0    0    0  501 -0.00000000000E+00 -0.00000000000E+00 -0.84495691073E+02  0.84495691073E+02  0.00000000000E+00 0.  1.
         25    2    1    2    0    0  0.13419712506E+02 -0.39930734640E+02  0.42762749235E+02  0.13874565739E+03  0.12508857849E+03 0.  0.
         23    2    1    2    0    0 -0.13419712506E+02  0.39930734640E+02  0.31499120144E+02  0.10450759414E+03  0.90305539198E+02 0.  0.
          5    1    3    3  502    0  0.19932862474E+02  0.23850950212E+02  0.63839317639E+02  0.71127475064E+02  0.41800000000E+01 0.  1.
         -5    1    3    3    0  502 -0.65131499674E+01 -0.63781684851E+02 -0.21076568404E+02  0.67618182323E+02  0.41800000000E+01 0.  1.
        -11    1    4    4    0    0 -0.24787758370E+02  0.17316287479E+02  0.59512333798E+02  0.66753311912E+02  0.00000000000E+00 0. -1.
         11    1    4    4    0    0  0.11368045864E+02  0.22614447160E+02 -0.28013213654E+02  0.37754282225E+02  0.00000000000E+00 0.  1.
</event>
<event>
 8    1  0.7026811E-009  0.1197892E+03  0.7561462E-02  0.1243445E+00
          1   -1    0    0  501    0  0.00000000000E+00  0.00000000000E+00  0.20543255407E+03  0.20543255407E+03  0.00000000000E+00 0. -1.
         -1   -1    0    0    0  501 -0.00000000000E+00 -0.00000000000E+00 -0.12751364538E+03  0.12751364538E+03  0.00000000000E+00 0.  1.
         25    2    1    2    0    0 -0.27845171895E+02 -0.48236221545E+02  0.15171706471E+03  0.20437096421E+03  0.12508931458E+03 0.  0.
         23    2    1    2    0    0  0.27845171895E+02  0.48236221545E+02 -0.73798156017E+02  0.12857523524E+03  0.89349519406E+02 0.  0.
          5    1    3    3  502    0  0.35353562922E+02 -0.62055587965E+02  0.88782383220E+02  0.11401997360E+03  0.41800000000E+01 0.  1.
         -5    1    3    3    0  502 -0.63198734817E+02  0.13819366420E+02  0.62934681493E+02  0.90350990617E+02  0.41800000000E+01 0.  1.
        -11    1    4    4    0    0  0.44507615963E+02 -0.74117900358E+01 -0.19831987303E+02  0.49286613098E+02  0.00000000000E+00 0. -1.
         11    1    4    4    0    0 -0.16662444068E+02  0.55648011580E+02 -0.53966168715E+02  0.79288622140E+02  0.00000000000E+00 0.  1.
</event>
<event>
 8    1  0.7026811E-009  0.1061519E+03  0.7561462E-02  0.1267867E+00
          1   -1    0    0  501    0  0.00000000000E+00  0.00000000000E+00  0.11165623722E+03  0.11165623722E+03  0.00000000000E+00 0. -1.
         -1   -1    0    0    0  501 -0.00000000000E+00 -0.00000000000E+00 -0.15992531053E+03  0.15992531053E+03  0.00000000000E+00 0.  1.
         25    2    1    2    0    0  0.37740975784E+02 -0.59641244788E+02 -0.61591067489E+02  0.15627740181E+03  0.12509079658E+03 0.  0.
         23    2    1    2    0    0 -0.37740975784E+02  0.59641244788E+02  0.13321994181E+02  0.11530414594E+03  0.90200394728E+02 0.  0.
          5    1    3    3  502    0 -0.44569681006E+02 -0.11275867437E+02 -0.32255158187E+02  0.56315799569E+02  0.41800000000E+01 0.  1.
         -5    1    3    3    0  502  0.82310656790E+02 -0.48365377350E+02 -0.29335909302E+02  0.99961602238E+02  0.41800000000E+01 0.  1.
        -11    1    4    4    0    0 -0.77573916339E+01  0.12510121951E+02 -0.37187161767E+02  0.39994565587E+02  0.00000000000E+00 0.  1.
         11    1    4    4    0    0 -0.29983584150E+02  0.47131122836E+02  0.50509155948E+02  0.75309580353E+02  0.00000000000E+00 0. -1.
</event>
<event>
 8    1  0.7026811E-009  0.8274285E+02  0.7561462E-02  0.1321443E+00
          1   -1    0    0  501    0  0.00000000000E+00  0.00000000000E+00  0.41901352792E+02  0.41901352792E+02  0.00000000000E+00 0. -1.
         -1   -1    0    0    0  501 -0.00000000000E+00 -0.00000000000E+00 -0.40036897777E+03  0.40036897777E+03  0.00000000000E+00 0.  1.
         25    2    1    2    0    0 -0.48786906579E+02 -0.47795866473E+02 -0.21011605206E+03  0.25389746198E+03  0.12510219328E+03 0.  0.
         23    2    1    2    0    0  0.48786906579E+02  0.47795866473E+02 -0.14835157292E+03  0.18837286857E+03  0.93869810496E+02 0.  0.
          5    1    3    3  502    0 -0.45140770902E+02 -0.20031750458E+02 -0.84791366160E+01  0.50282485836E+02  0.41800000000E+01 0.  1.
         -5    1    3    3    0  502 -0.36461356770E+01 -0.27764116015E+02 -0.20163691544E+03  0.20361497615E+03  0.41800000000E+01 0.  1.
        -11    1    4    4    0    0  0.18243057592E+02 -0.11036700048E+02  0.44774614041E+01  0.21786820762E+02  0.00000000000E+00 0. -1.
         11    1    4    4    0    0  0.30543848987E+02  0.58832566521E+02 -0.15282903432E+03  0.16658604781E+03  0.00000000000E+00 0.  1.
</event>
<event>
 8    1  0.7026811E-009  0.1007730E+03  0.7561462E-02  0.1278679E+00
          1   -1    0    0  501    0  0.00000000000E+00  0.00000000000E+00  0.14657758137E+04  0.14657758137E+04  0.00000000000E+00 0. -1.
         -1   -1    0    0    0  501 -0.00000000000E+00 -0.00000000000E+00 -0.95225913696E+01  0.95225913696E+01  0.00000000000E+00 0.  1.
         25    2    1    2    0    0 -0.22676787423E+02  0.30575746828E+00  0.10829459214E+04  0.10903821104E+04  0.12508776037E+03 0.  0.
         23    2    1    2    0    0  0.22676787423E+02 -0.30575746828E+00  0.37330730094E+03  0.38491629469E+03  0.91037809785E+02 0.  0.
          5    1    3    3  502    0  0.14922557181E+02 -0.45700638501E+02  0.21293487231E+03  0.21833452159E+03  0.41800000000E+01 0. -1.
         -5    1    3    3    0  502 -0.37599344605E+02  0.46006395969E+02  0.87001104909E+03  0.87204758879E+03  0.41800000000E+01 0. -1.
        -11    1    4    4    0    0  0.13035813065E+01 -0.44561049018E+02  0.16898310128E+03  0.17476462724E+03  0.00000000000E+00 0.  1.
         11    1    4    4    0    0  0.21373206117E+02  0.44255291549E+02  0.20432419966E+03  0.21015166746E+03  0.00000000000E+00 0. -1.
</event>
<event>
 8    1  0.7026811E-009  0.7747930E+02  0.7561462E-02  0.1336361E+00
         -1   -1    0    0    0  501 -0.00000000000E+00  0.00000000000E+00  0.72264538303E+02  0.72264538303E+02  0.00000000000E+00 0.  1.
          1   -1    0    0  501    0  0.00000000000E+00 -0.00000000000E+00 -0.20687480321E+03  0.20687480321E+03  0.00000000000E+00 0. -1.
         25    2    1    2    0    0 -0.80756034238E+01  0.20365406324E+02 -0.16996622899E+02  0.12812277391E+03  0.12508634961E+03 0.  0.
         23    2    1    2    0    0  0.80756034238E+01 -0.20365406324E+02 -0.11761364200E+03  0.15101656760E+03  0.92157852394E+02 0.  0.
          5    1    3    3  502    0 -0.45299060270E+02  0.34179716426E+02 -0.50442725206E+02  0.76040770660E+02  0.41800000000E+01 0. -1.
         -5    1    3    3    0  502  0.37223456846E+02 -0.13814310101E+02  0.33446102308E+02  0.52082003252E+02  0.41800000000E+01 0. -1.
        -11    1    4    4    0    0  0.28284001467E+02 -0.24601606993E+02 -0.65553116572E+01  0.38055169380E+02  0.00000000000E+00 0.  1.
         11    1    4    4    0    0 -0.20208398044E+02  0.42362006682E+01 -0.11105833035E+03  0.11296139822E+03  0.00000000000E+00 0. -1.
</event>
<event>
 8    1  0.7026811E-009  0.9057388E+02  0.7561462E-02  0.1301468E+00
         -1   -1    0    0    0  501 -0.00000000000E+00  0.00000000000E+00  0.28278748014E+02  0.28278748014E+02  0.00000000000E+00 0.  1.
          1   -1    0    0  501    0  0.00000000000E+00 -0.00000000000E+00 -0.56550659647E+03  0.56550659647E+03  0.00000000000E+00 0. -1.
         25    2    1    2    0    0  0.86854898825E+01 -0.61220985032E+02 -0.35497342866E+03  0.38141615146E+03  0.12509475929E+03 0.  0.
         23    2    1    2    0    0 -0.86854898825E+01  0.61220985032E+02 -0.18225441980E+03  0.21236919302E+03  0.89780587350E+02 0.  0.
          5    1    3    3  502    0  0.17461542562E+02 -0.66539607934E+02 -0.36186345309E+03  0.36836809847E+03  0.41800000000E+01 0. -1.
         -5    1    3    3    0  502 -0.87760526796E+01  0.53186229027E+01  0.68900244291E+01  0.13048052991E+02  0.41800000000E+01 0. -1.
        -11    1    4    4    0    0 -0.42074097734E+02  0.51237094532E+02 -0.15343915528E+03  0.16714976497E+03  0.00000000000E+00 0. -1.
         11    1    4    4    0    0  0.33388607852E+02  0.99838904993E+01 -0.28815264513E+02  0.45219428045E+02  0.00000000000E+00 0.  1.
</event>
<event>
 8    1  0.7026811E-009  0.1869044E+03  0.7561462E-02  0.1161283E+00
          2   -1    0    0  501    0  0.00000000000E+00  0.00000000000E+00  0.22846416023E+03  0.22846416023E+03  0.00000000000E+00 0. -1.
         -2   -1    0    0    0  501 -0.00000000000E+00 -0.00000000000E+00 -0.16216456793E+03  0.16216456793E+03  0.00000000000E+00 0.  1.
         25    2    1    2    0    0  0.15672566379E+03  0.10251967548E+02  0.45543774731E+02  0.20588819506E+03  0.12509067479E+03 0.  0.
         23    2    1    2    0    0 -0.15672566379E+03 -0.10251967548E+02  0.20755817576E+02  0.18474053310E+03  0.95027491161E+02 0.  0.
          5    1    3    3  502    0 -0.17335031635E+02  0.37079027901E+01  0.24294231160E+02  0.30363364975E+02  0.41800000000E+01 0. -1.
         -5    1    3    3    0  502  0.17406069542E+03  0.65440647580E+01  0.21249543570E+02  0.17552483009E+03  0.41800000000E+01 0. -1.
        -11    1    4    4    0    0 -0.24406325228E+02 -0.38951036150E+02  0.17860254587E+02  0.49313696091E+02  0.00000000000E+00 0.  1.
         11    1    4    4    0    0 -0.13231933856E+03  0.28699068602E+02  0.28955629895E+01  0.13542683700E+03  0.00000000000E+00 0. -1.
</event>
<event>
 8    1  0.7026811E-009  0.4182039E+03  0.7561462E-02  0.1037652E+00
          2   -1    0    0  501    0  0.00000000000E+00  0.00000000000E+00  0.66024198643E+03  0.66024198643E+03  0.00000000000E+00 0. -1.
         -2   -1    0    0    0  501 -0.00000000000E+00 -0.00000000000E+00 -0.29532558091E+03  0.29532558091E+03  0.00000000000E+00 0.  1.
         25    2    1    2    0    0  0.79339270705E+02 -0.40228576787E+03  0.52532099893E+02  0.43189785786E+03  0.12509028421E+03 0.  0.
         23    2    1    2    0    0 -0.79339270705E+02  0.40228576787E+03  0.31238430563E+03  0.52366970947E+03  0.92290039092E+02 0.  0.
          5    1    3    3  502    0  0.19480560684E+02 -0.33715206187E+03  0.22916594585E+02  0.33851683529E+03  0.41800000000E+01 0.  1.
         -5    1    3    3    0  502  0.59858710022E+02 -0.65133706001E+02  0.29615505308E+02  0.93381022577E+02  0.41800000000E+01 0.  1.
        -11    1    4    4    0    0 -0.21633102948E+02  0.12821164123E+03  0.48259270673E+02  0.13869092723E+03  0.00000000000E+00 0. -1.
         11    1    4    4    0    0 -0.57706167758E+02  0.27407412663E+03  0.26412503495E+03  0.38497878224E+03  0.00000000000E+00 0.  1.
</event>
<event>
 8    1  0.7026811E-009  0.1120051E+03  0.7561462E-02  0.1256901E+00
          2   -1    0    0  501    0  0.00000000000E+00  0.00000000000E+00  0.46502019450E+03  0.46502019450E+03  0.00000000000E+00 0. -1.
         -2   -1    0    0    0  501 -0.00000000000E+00 -0.00000000000E+00 -0.35217417047E+02  0.35217417047E+02  0.00000000000E+00 0.  1.
         25    2    1    2    0    0  0.26143007889E+02 -0.12039853976E+02  0.11960197545E+03  0.17544648835E+03  0.12509365610E+03 0.  0.
         23    2    1    2    0    0 -0.26143007889E+02  0.12039853976E+02  0.31020080200E+03  0.32479112320E+03  0.91849448559E+02 0.  0.
          5    1    3    3  502    0  0.10250804326E+02 -0.68437470900E+02  0.58825008939E+02  0.90920957371E+02  0.41800000000E+01 0. -1.
         -5    1    3    3    0  502  0.15892203563E+02  0.56397616924E+02  0.60776966514E+02  0.84525530979E+02  0.41800000000E+01 0. -1.
        -11    1    4    4    0    0 -0.36268762225E+02 -0.33448970891E+02  0.17257781424E+03  0.17949194615E+03  0.00000000000E+00 0.  1.
         11    1    4    4    0    0  0.10125754335E+02  0.45488824868E+02  0.13762298776E+03  0.14529917704E+03  0.00000000000E+00 0. -1.
</event>
<event>
 8    1  0.7026811E-009  0.1508150E+03  0.7561462E-02  0.1199475E+00
          2   -1    0    0  501    0  0.00000000000E+00  0.00000000000E+00  0.89387305207E+03  0.89387305207E+03  0.00000000000E+00 0. -1.
         -2   -1    0    0    0  501 -0.00000000000E+00 -0.00000000000E+00 -0.27729598460E+02  0.27729598460E+02  0.00000000000E+00 0.  1.
         25    2    1    2    0    0  0.10619283534E+03 -0.28542944997E+02  0.55448897562E+03  0.57896190957E+03  0.12508897097E+03 0.  0.
         23    2    1    2    0    0 -0.10619283534E+03  0.28542944997E+02  0.31165447798E+03  0.34264074095E+03  0.90457424948E+02 0.  0.
          5    1    3    3  502    0  0.11080202279E+03 -0.65031969305E+02  0.45502542779E+03  0.47283385837E+03  0.41800000000E+01 0. -1.
         -5    1    3    3    0  502 -0.46091874500E+01  0.36489024308E+02  0.99463547836E+02  0.10612805120E+03  0.41800000000E+01 0. -1.
        -11    1    4    4    0    0  0.81916493201E+01 -0.12157607793E+02  0.10788489799E+02  0.18201704810E+02  0.00000000000E+00 0.  1.
         11    1    4    4    0    0 -0.11438448466E+03  0.40700552790E+02  0.30086598818E+03  0.32443903614E+03  0.00000000000E+00 0. -1.
</event>
<event>
 8    1  0.7026811E-009  0.8408947E+02  0.7561462E-02  0.1317831E+00
          1   -1    0    0  501    0  0.00000000000E+00  0.00000000000E+00  0.27454812150E+02  0.27454812150E+02  0.00000000000E+00 0. -1.
         -1   -1    0    0    0  501 -0.00000000000E+00 -0.00000000000E+00 -0.10022402638E+04  0.10022402638E+04  0.00000000000E+00 0.  1.
         25    2    1    2    0    0  0.47083093846E+02  0.44104412583E+02 -0.85607479700E+03  0.86756813868E+03  0.12509356600E+03 0.  0.
         23    2    1    2    0    0 -0.47083093846E+02 -0.44104412583E+02 -0.11871065460E+03  0.16212693722E+03  0.89615329726E+02 0.  0.
          5    1    3    3  502    0 -0.12394144665E+02 -0.13580877137E+02 -0.55364141506E+03  0.55396240298E+03  0.41800000000E+01 0. -1.
         -5    1    3    3    0  502  0.59477238511E+02  0.57685289720E+02 -0.30243338195E+03  0.31360573570E+03  0.41800000000E+01 0. -1.
        -11    1    4    4    0    0 -0.20486256238E+02 -0.29800174342E+02 -0.12597785008E+03  0.13106546378E+03  0.00000000000E+00 0.  1.
         11    1    4    4    0    0 -0.26596837608E+02 -0.14304238242E+02  0.72671954760E+01  0.31061473444E+02  0.00000000000E+00 0. -1.
</event>
<event>
 8    1  0.7026811E-009  0.7335160E+02  0.7561462E-02  0.1349053E+00
         -1   -1    0    0    0  501 -0.00000000000E+00  0.00000000000E+00  0.36381770750E+02  0.36381770750E+02  0.00000000000E+00 0.  1.
          1   -1    0    0  501    0  0.00000000000E+00 -0.00000000000E+00 -0.39808213457E+03  0.39808213457E+03  0.00000000000E+00 0. -1.
         25    2    1    2    0    0 -0.13720238814E+02  0.35437980209E+02 -0.26831123621E+03  0.29846625676E+03  0.12508833500E+03 0.  0.
         23    2    1    2    0    0  0.13720238814E+02 -0.35437980209E+02 -0.93389127612E+02  0.13599764856E+03  0.91267386638E+02 0.  0.
          5    1    3    3  502    0  0.13089342786E+01  0.33155776105E+02 -0.39965529627E+01  0.33681799739E+02  0.41800000000E+01 0.  1.
         -5    1    3    3    0  502 -0.15029173093E+02  0.22822041036E+01 -0.26431468325E+03  0.26478445702E+03  0.41800000000E+01 0.  1.
        -11    1    4    4    0    0  0.50407458220E+02 -0.66176371713E+01 -0.59911468016E+02  0.78575371242E+02  0.00000000000E+00 0.  1.
         11    1    4    4    0    0 -0.36687219406E+02 -0.28820343038E+02 -0.33477659596E+02  0.57422277320E+02  0.00000000000E+00 0. -1.
</event>
<event>
 8    1  0.7026811E-009  0.8686603E+02  0.7561462E-02  0.1310624E+00
         -1   -1    0    0    0  501 -0.00000000000E+00  0.00000000000E+00  0.37046610974E+02  0.37046610974E+02  0.00000000000E+00 0.  1.
          1   -1    0    0  501    0  0.00000000000E+00 -0.00000000000E+00 -0.49637765639E+03  0.49637765639E+03  0.00000000000E+00 0. -1.
         25    2    1    2    0    0  0.55551036881E+02 -0.27014590847E+02 -0.16587028208E+03  0.21673974143E+03  0.12508980463E+03 0.  0.
         23    2    1    2    0    0 -0.55551036881E+02  0.27014590847E+02 -0.29346076333E+03  0.31668452593E+03  0.10175541032E+03 0.  0.
          5    1    3    3  502    0  0.15233679098E+02 -0.42584878334E+02 -0.16723891033E+03  0.17329703509E+03  0.41800000000E+01 0. -1.
         -5    1    3    3    0  502  0.40317357783E+02  0.15570287487E+02  0.13686282532E+01  0.43442706342E+02  0.41800000000E+01 0. -1.
        -11    1    4    4    0    0 -0.38142918546E+02 -0.13765065098E+02 -0.32454860217E+02  0.51939168304E+02  0.00000000000E+00 0.  1.
         11    1    4    4    0    0 -0.17408118335E+02  0.40779655945E+02 -0.26100590311E+03  0.26474535762E+03  0.00000000000E+00 0. -1.
</event>
<event>
 8    1  0.7026811E-009  0.1967994E+03  0.7561462E-02  0.1152468E+00
          2   -1    0    0  501    0  0.00000000000E+00  0.00000000000E+00  0.67893733696E+03  0.67893733696E+03  0.00000000000E+00 0.  1.
         -2   -1    0    0    0  501 -0.00000000000E+00 -0.00000000000E+00 -0.64093871951E+02  0.64093871951E+02  0.00000000000E+00 0. -1.
         25    2    1    2    0    0 -0.27865656512E+02 -0.17282654884E+03  0.28100543156E+03  0.35391660599E+03  0.12508957043E+03 0.  0.
         23    2    1    2    0    0  0.27865656512E+02  0.17282654884E+03  0.33383803344E+03  0.38911460292E+03  0.96523731970E+02 0.  0.
          5    1    3    3  502    0 -0.57084996315E+02 -0.52209489771E+02  0.17216328639E+03  0.18879141190E+03  0.41800000000E+01 0.  1.
         -5    1    3    3    0  502  0.29219339804E+02 -0.12061705907E+03  0.10884214517E+03  0.16512519409E+03  0.41800000000E+01 0.  1.
        -11    1    4    4    0    0 -0.27825123106E+02  0.56541247599E+02  0.62768787118E+02  0.88944200441E+02  0.00000000000E+00 0.  1.
         11    1    4    4    0    0  0.55690779618E+02  0.11628530124E+03  0.27106924633E+03  0.30017040248E+03  0.00000000000E+00 0. -1.
</event>
<event>
 8    1  0.7026811E-009  0.1151956E+03  0.7561462E-02  0.1251240E+00
         -1   -1    0    0    0  501 -0.00000000000E+00  0.00000000000E+00  0.20317715139E+02  0.20317715139E+02  0.00000000000E+00 0.  1.
          1   -1    0    0  501    0  0.00000000000E+00 -0.00000000000E+00 -0.95365423677E+03  0.95365423677E+03  0.00000000000E+00 0. -1.
         25    2    1    2    0    0  0.54615767168E+02  0.50177546213E+02 -0.67476975487E+03  0.69026256224E+03  0.12509002590E+03 0.  0.
         23    2    1    2    0    0 -0.54615767168E+02 -0.50177546213E+02 -0.25856676677E+03  0.28370938967E+03  0.90186344555E+02 0.  0.
          5    1    3    3  502    0 -0.14312485542E+02  0.44830209793E+02 -0.50063103232E+03  0.50285534488E+03  0.41800000000E+01 0.  1.
         -5    1    3    3    0  502  0.68928252710E+02  0.53473364203E+01 -0.17413872255E+03  0.18740721736E+03  0.41800000000E+01 0.  1.
        -11    1    4    4    0    0  0.46145906372E+01 -0.54314526044E+02 -0.92741226613E+02  0.10757461271E+03  0.00000000000E+00 0.  1.
         11    1    4    4    0    0 -0.59230357805E+02  0.41369798302E+01 -0.16582554015E+03  0.17613477696E+03  0.00000000000E+00 0. -1.
</event>
<event>
 8    1  0.7026811E-009  0.1913517E+03  0.7561462E-02  0.1157248E+00
          4   -1    0    0  501    0  0.00000000000E+00  0.00000000000E+00  0.98508975443E+03  0.98508975443E+03  0.00000000000E+00 0. -1.
         -4   -1    0    0    0  501 -0.00000000000E+00 -0.00000000000E+00 -0.46374556800E+02  0.46374556800E+02  0.00000000000E+00 0.  1.
         25    2    1    2    0    0 -0.15128115170E+03 -0.10279844993E+03  0.55022483455E+03  0.59317058020E+03  0.12510180050E+03 0.  0.
         23    2    1    2    0    0  0.15128115170E+03  0.10279844993E+03  0.38849036309E+03  0.43829373104E+03  0.87881307952E+02 0.  0.
          5    1    3    3  502    0 -0.12324288284E+03 -0.11419934030E+03  0.32503579140E+03  0.36591807223E+03  0.41800000000E+01 0. -1.
         -5    1    3    3    0  502 -0.28038268865E+02  0.11400890369E+02  0.22518904315E+03  0.22725250796E+03  0.41800000000E+01 0. -1.
        -11    1    4    4    0    0  0.53177198070E+02  0.24455843597E+02  0.22309881496E+03  0.23064904925E+03  0.00000000000E+00 0. -1.
         11    1    4    4    0    0  0.98103953634E+02  0.78342606332E+02  0.16539154812E+03  0.20764468179E+03  0.00000000000E+00 0.  1.
</event>
<event>
 8    1  0.7026811E-009  0.9403277E+02  0.7561462E-02  0.1293370E+00
         -1   -1    0    0    0  501 -0.00000000000E+00  0.00000000000E+00  0.30973283750E+03  0.30973283750E+03  0.00000000000E+00 0.  1.
          1   -1    0    0  501    0  0.00000000000E+00 -0.00000000000E+00 -0.42782301742E+02  0.42782301742E+02  0.00000000000E+00 0. -1.
         25    2    1    2    0    0  0.22699215198E+02 -0.34966333861E+02  0.18404337270E+03  0.22640138068E+03  0.12509086003E+03 0.  0.
         23    2    1    2    0    0 -0.22699215198E+02  0.34966333861E+02  0.82907163054E+02  0.12611375856E+03  0.85400137811E+02 0.  0.
          5    1    3    3  502    0  0.68014590523E+02 -0.39802810418E+02  0.78250682619E+02  0.11113455795E+03  0.41800000000E+01 0. -1.
         -5    1    3    3    0  502 -0.45315375326E+02  0.48364765565E+01  0.10579269008E+03  0.11526682273E+03  0.41800000000E+01 0. -1.
        -11    1    4    4    0    0 -0.36559267397E+02  0.16030703615E+02  0.92512576607E+02  0.10075783008E+03  0.00000000000E+00 0.  1.
         11    1    4    4    0    0  0.13860052200E+02  0.18935630247E+02 -0.96054135525E+01  0.25355928485E+02  0.00000000000E+00 0. -1.
</event>
<event>
 8    1  0.7026811E-009  0.1038888E+03  0.7561462E-02  0.1272324E+00
         -2   -1    0    0    0  501 -0.00000000000E+00  0.00000000000E+00  0.26272561040E+03  0.26272561040E+03  0.00000000000E+00 0. -1.
          2   -1    0    0  501    0  0.00000000000E+00 -0.00000000000E+00 -0.93931035895E+02  0.93931035895E+02  0.00000000000E+00 0.  1.
         25    2    1    2    0    0 -0.11717551040E+02  0.14708105022E+02  0.21766670059E+03  0.25175319425E+03  0.12508896399E+03 0.  0.
         23    2    1    2    0    0  0.11717551040E+02 -0.14708105022E+02 -0.48872126093E+02  0.10490345204E+03  0.90898955909E+02 0.  0.
          5    1    3    3  502    0  0.33856168293E+01 -0.53105277382E+02  0.12449593067E+03  0.13545605207E+03  0.41800000000E+01 0.  1.
         -5    1    3    3    0  502 -0.15103167870E+02  0.67813382405E+02  0.93170769922E+02  0.11629714219E+03  0.41800000000E+01 0.  1.
        -11    1    4    4    0    0 -0.11903118351E+02  0.31078388886E+02 -0.40965594100E+02  0.52780018778E+02  0.00000000000E+00 0.  1.
         11    1    4    4    0    0  0.23620669392E+02 -0.45786493908E+02 -0.79065319926E+01  0.52123433262E+02  0.00000000000E+00 0. -1.
</event>
<event>
 8    1  0.7026811E-009  0.8770365E+02  0.7561462E-02  0.1308510E+00
          2   -1    0    0  501    0  0.00000000000E+00  0.00000000000E+00  0.61698298493E+03  0.61698298493E+03  0.00000000000E+00 0.  1.
         -2   -1    0    0    0  501 -0.00000000000E+00 -0.00000000000E+00 -0.23733677659E+02  0.23733677659E+02  0.00000000000E+00 0. -1.
         25    2    1    2    0    0 -0.96857567277E+01 -0.46014151933E+02  0.40188909815E+03  0.42352529145E+03  0.12509080390E+03 0.  0.
         23    2    1    2    0    0  0.96857567277E+01  0.46014151933E+02  0.19136020912E+03  0.21719137114E+03  0.91335896574E+02 0.  0.
          5    1    3    3  502    0 -0.37162066013E+02 -0.10171471192E+02  0.30341121205E+02  0.49219244331E+02  0.41800000000E+01 0.  1.
         -5    1    3    3    0  502  0.27476309285E+02 -0.35842680741E+02  0.37154797695E+03  0.37430604712E+03  0.41800000000E+01 0.  1.
        -11    1    4    4    0    0 -0.11549876432E+02 -0.19369204641E+02  0.12973878585E+02  0.26017057088E+02  0.00000000000E+00 0. -1.
         11    1    4    4    0    0  0.21235633159E+02  0.65383356573E+02  0.17838633053E+03  0.19117431405E+03  0.00000000000E+00 0.  1.
</event>
<event>
 8    1  0.7026811E-009  0.8300229E+02  0.7561462E-02  0.1320741E+00
          2   -1    0    0  501    0  0.00000000000E+00  0.00000000000E+00  0.74744213366E+02  0.74744213366E+02  0.00000000000E+00 0. -1.
         -2   -1    0    0    0  501 -0.00000000000E+00 -0.00000000000E+00 -0.20591901762E+03  0.20591901762E+03  0.00000000000E+00 0.  1.
         25    2    1    2    0    0 -0.29990914785E+02 -0.40044301981E+02 -0.11127524394E+03  0.17473795041E+03  0.12509264691E+03 0.  0.
         23    2    1    2    0    0  0.29990914785E+02  0.40044301981E+02 -0.19899560309E+02  0.10592528057E+03  0.91220455340E+02 0.  0.
          5    1    3    3  502    0  0.79368011140E+01 -0.38641859270E+01  0.25979832832E+02  0.27755159138E+02  0.41800000000E+01 0.  1.
         -5    1    3    3    0  502 -0.37927715899E+02 -0.36180116054E+02 -0.13725507678E+03  0.14698279128E+03  0.41800000000E+01 0.  1.
        -11    1    4    4    0    0  0.36800243776E+01  0.66348116367E+02 -0.17104778446E+02  0.68616241303E+02  0.00000000000E+00 0.  1.
         11    1    4    4    0    0  0.26310890407E+02 -0.26303814387E+02 -0.27947818636E+01  0.37309039266E+02  0.00000000000E+00 0. -1.
</event>
<event>
 8    1  0.7026811E-009  0.1138174E+03  0.7561462E-02  0.1253660E+00
         -2   -1    0    0    0  501 -0.00000000000E+00  0.00000000000E+00  0.19478169249E+02  0.19478169249E+02  0.00000000000E+00 0.  1.
          2   -1    0    0  501    0  0.00000000000E+00 -0.00000000000E+00 -0.94874198268E+03  0.94874198268E+03  0.00000000000E+00 0. -1.
         25    2    1    2    0    0  0.55106738269E+02  0.60711576307E+02 -0.58143710703E+03  0.60036650738E+03  0.12509270823E+03 0.  0.
         23    2    1    2    0    0 -0.55106738269E+02 -0.60711576307E+02 -0.34782670641E+03  0.36785364456E+03  0.87236678192E+02 0.  0.
          5    1    3    3  502    0  0.63368639637E+02  0.72196421429E+02 -0.57700650962E+03  0.58496315466E+03  0.41800000000E+01 0. -1.
         -5    1    3    3    0  502 -0.82619013672E+01 -0.11484845123E+02 -0.44305974025E+01  0.15403352721E+02  0.41800000000E+01 0. -1.
        -11    1    4    4    0    0 -0.36809283817E+02  0.14321801532E+02 -0.81695772874E+02  0.90742694911E+02  0.00000000000E+00 0.  1.
         11    1    4    4    0    0 -0.18297454453E+02 -0.75033377839E+02 -0.26613093353E+03  0.27711094964E+03  0.00000000000E+00 0. -1.
</event>
<event>
 8    1  0.7026811E-009  0.9925290E+02  0.7561462E-02  0.1281875E+00
          4   -1    0    0  501    0  0.00000000000E+00  0.00000000000E+00  0.50075293123E+03  0.50075293123E+03  0.00000000000E+00 0. -1.
         -4   -1    0    0    0  501 -0.00000000000E+00 -0.00000000000E+00 -0.28542110532E+02  0.28542110532E+02  0.00000000000E+00 0.  1.
         25    2    1    2    0    0  0.16655025176E+02 -0.46551878051E+02  0.23970769633E+03  0.27486664220E+03  0.12508966424E+03 0.  0.
         23    2    1    2    0    0 -0.16655025176E+02  0.46551878051E+02  0.23250312437E+03  0.25442839956E+03  0.90728388335E+02 0.  0.
          5    1    3    3  502    0  0.38655412481E+02 -0.63686393495E+02  0.68303075724E+02  0.10115819385E+03  0.41800000000E+01 0.  1.
         -5    1    3    3    0  502 -0.22000387305E+02  0.17134515444E+02  0.17140462061E+03  0.17370844835E+03  0.41800000000E+01 0.  1.
        -11    1    4    4    0    0  0.31043354087E+02  0.31503059340E+01  0.36137977541E+02  0.47744818370E+02  0.00000000000E+00 0.  1.
         11    1    4    4    0    0 -0.47698379263E+02  0.43401572117E+02  0.19636514683E+03  0.20668358119E+03  0.00000000000E+00 0. -1.
</event>
<event>
 8    1  0.7026811E-009  0.9455192E+02  0.7561462E-02  0.1292188E+00
         -2   -1    0    0    0  501 -0.00000000000E+00  0.00000000000E+00  0.43404904675E+02  0.43404904675E+02  0.00000000000E+00 0.  1.
          2   -1    0    0  501    0  0.00000000000E+00 -0.00000000000E+00 -0.44284435760E+03  0.44284435760E+03  0.00000000000E+00 0. -1.
         25    2    1    2    0    0  0.44592697755E+02 -0.42576315143E+02 -0.32545175998E+03  0.35407250700E+03  0.12508893172E+03 0.  0.
         23    2    1    2    0    0 -0.44592697755E+02  0.42576315143E+02 -0.73987692949E+02  0.13217675527E+03  0.90527700859E+02 0.  0.
          5    1    3    3  502    0  0.10214369338E+00  0.10126051718E+02 -0.25554667853E+03  0.25578140015E+03  0.41800000000E+01 0.  1.
         -5    1    3    3    0  502  0.44490554061E+02 -0.52702366861E+02 -0.69905081448E+02  0.98291106849E+02  0.41800000000E+01 0.  1.
        -11    1    4    4    0    0 -0.72492878349E+02  0.30342448802E+02 -0.58712932744E+02  0.98097350025E+02  0.00000000000E+00 0.  1.
         11    1    4    4    0    0  0.27900180594E+02  0.12233866341E+02 -0.15274760205E+02  0.34079405249E+02  0.00000000000E+00 0. -1.
</event>
<event>
 8    1  0.7026811E-009  0.2617007E+03  0.7561462E-02  0.1106126E+00
          2   -1    0    0  501    0  0.00000000000E+00  0.00000000000E+00  0.71289705768E+03  0.71289705768E+03  0.00000000000E+00 0. -1.
         -2   -1    0    0    0  501 -0.00000000000E+00 -0.00000000000E+00 -0.10954946480E+03  0.10954946480E+03  0.00000000000E+00 0.  1.
         25    2    1    2    0    0  0.10039523755E+03 -0.23099589750E+03  0.23236801657E+03  0.36480283548E+03  0.12509158750E+03 0.  0.
         23    2    1    2    0    0 -0.10039523755E+03  0.23099589750E+03  0.37097957631E+03  0.45764368701E+03  0.91507321205E+02 0.  0.
          5    1    3    3  502    0  0.26872994959E+02 -0.37395692692E+01 -0.51490618009E+01  0.27930762142E+02  0.41800000000E+01 0. -1.
         -5    1    3    3    0  502  0.73522242590E+02 -0.22725632823E+03  0.23751707837E+03  0.33687207334E+03  0.41800000000E+01 0. -1.
        -11    1    4    4    0    0 -0.11657819839E+02  0.87990047879E+02  0.70939304220E+02  0.11362454916E+03  0.00000000000E+00 0.  1.
         11    1    4    4    0    0 -0.88737417710E+02  0.14300584962E+03  0.30004027209E+03  0.34401913785E+03  0.00000000000E+00 0. -1.
</event>
<event>
 8    1  0.7026811E-009  0.6690318E+02  0.7561462E-02  0.1370952E+00
          2   -1    0    0  501    0  0.00000000000E+00  0.00000000000E+00  0.21288578339E+03  0.21288578339E+03  0.00000000000E+00 0. -1.
         -2   -1    0    0    0  501 -0.00000000000E+00 -0.00000000000E+00 -0.60793875721E+02  0.60793875721E+02  0.00000000000E+00 0.  1.
         25    2    1    2    0    0 -0.34867101258E+02 -0.20968357905E+01  0.92546717057E+02  0.15948785608E+03  0.12510543525E+03 0.  0.
         23    2    1    2    0    0  0.34867101258E+02  0.20968357905E+01  0.59545190613E+02  0.11419180303E+03  0.90961677004E+02 0.  0.
          5    1    3    3  502    0  0.30344906520E+02 -0.43334166275E+01  0.88757038608E+02  0.93994021905E+02  0.41800000000E+01 0.  1.
         -5    1    3    3    0  502 -0.65212007779E+02  0.22365808369E+01  0.37896784483E+01  0.65493834176E+02  0.41800000000E+01 0.  1.
        -11    1    4    4    0    0  0.21640180194E+02  0.79063814041E+01 -0.21713526096E+02  0.31658892610E+02  0.00000000000E+00 0.  1.
         11    1    4    4    0    0  0.13226921064E+02 -0.58095456136E+01  0.81258716709E+02  0.82532910419E+02  0.00000000000E+00 0. -1.
</event>
<event>
 8    1  0.7026811E-009  0.7347383E+02  0.7561462E-02  0.1348663E+00
         -2   -1    0    0    0  501 -0.00000000000E+00  0.00000000000E+00  0.48415328311E+03  0.48415328311E+03  0.00000000000E+00 0.  1.
          2   -1    0    0  501    0  0.00000000000E+00 -0.00000000000E+00 -0.30868360218E+02  0.30868360218E+02  0.00000000000E+00 0. -1.
         25    2    1    2    0    0 -0.12641833056E+02  0.29860618335E+01  0.37733412988E+03  0.39774003284E+03  0.12508939061E+03 0.  0.
         23    2    1    2    0    0  0.12641833056E+02 -0.29860618335E+01  0.75950793015E+02  0.11728161049E+03  0.88417875406E+02 0.  0.
          5    1    3    3  502    0  0.12865450629E+02  0.31326490949E+02  0.22577027408E+02  0.40915320134E+02  0.41800000000E+01 0. -1.
         -5    1    3    3    0  502 -0.25507283685E+02 -0.28340429116E+02  0.35475710247E+03  0.35682471270E+03  0.41800000000E+01 0. -1.
        -11    1    4    4    0    0  0.27669832671E+02  0.28411715433E+02  0.73212941604E+01  0.40329227144E+02  0.00000000000E+00 0. -1.
         11    1    4    4    0    0 -0.15027999614E+02 -0.31397777266E+02  0.68629498854E+02  0.76952383346E+02  0.00000000000E+00 0.  1.
</event>
<event>
 8    1  0.7026811E-009  0.6831074E+02  0.7561462E-02  0.1365934E+00
          2   -1    0    0  501    0  0.00000000000E+00  0.00000000000E+00  0.21900981854E+03  0.21900981854E+03  0.00000000000E+00 0.  1.
         -2   -1    0    0    0  501 -0.00000000000E+00 -0.00000000000E+00 -0.90084418353E+02  0.90084418353E+02  0.00000000000E+00 0. -1.
         25    2    1    2    0    0  0.74273862814E+01  0.35093885577E+02  0.16069338952E+03  0.20677549544E+03  0.12508794191E+03 0.  0.
         23    2    1    2    0    0 -0.74273862814E+01 -0.35093885577E+02 -0.31767989333E+02  0.10231874144E+03  0.90405601776E+02 0.  0.
          5    1    3    3  502    0 -0.18216058541E+02  0.60494106900E+01 -0.16310311817E+02  0.25532701189E+02  0.41800000000E+01 0.  1.
         -5    1    3    3    0  502  0.25643444823E+02  0.29044474887E+02  0.17700370133E+03  0.18124279426E+03  0.41800000000E+01 0.  1.
        -11    1    4    4    0    0 -0.18214908320E+02 -0.53586990579E+02  0.79933590492E+01  0.57159795602E+02  0.00000000000E+00 0.  1.
         11    1    4    4    0    0  0.10787522039E+02  0.18493105002E+02 -0.39761348382E+02  0.45158945842E+02  0.00000000000E+00 0. -1.
</event>
<event>
 8    1  0.7026811E-009  0.9611720E+02  0.7561462E-02  0.1288680E+00
          1   -1    0    0  501    0  0.00000000000E+00  0.00000000000E+00  0.67916236545E+02  0.67916236545E+02  0.00000000000E+00 0. -1.
         -1   -1    0    0    0  501 -0.00000000000E+00 -0.00000000000E+00 -0.25082598463E+03  0.25082598463E+03  0.00000000000E+00 0.  1.
         25    2    1    2    0    0 -0.86003085788E+01  0.24394220302E+01 -0.14393731973E+02  0.12622789064E+03  0.12508550982E+03 0.  0.
         23    2    1    2    0    0  0.86003085788E+01 -0.24394220302E+01 -0.16851601611E+03  0.19251433054E+03  0.92650977805E+02 0.  0.
          5    1    3    3  502    0 -0.63821277903E+02  0.12062377696E+01  0.11644437326E+02  0.65020580152E+02  0.41800000000E+01 0.  1.
         -5    1    3    3    0  502  0.55220969324E+02  0.12331842606E+01 -0.26038169299E+02  0.61207310486E+02  0.41800000000E+01 0.  1.
        -11    1    4    4    0    0 -0.19627995693E+02 -0.28399169219E+02 -0.14138175533E+03  0.14553546567E+03  0.00000000000E+00 0.  1.
         11    1    4    4    0    0  0.28228304272E+02  0.25959747189E+02 -0.27134260785E+02  0.46978864870E+02  0.00000000000E+00 0. -1.
</event>
<event>
 8    1  0.7026811E-009  0.9517778E+02  0.7561462E-02  0.1290776E+00
         -1   -1    0    0    0  501 -0.00000000000E+00  0.00000000000E+00  0.20623857139E+02  0.20623857139E+02  0.00000000000E+00 0.  1.
          1   -1    0    0  501    0  0.00000000000E+00 -0.00000000000E+00 -0.64920635084E+03  0.64920635084E+03  0.00000000000E+00 0. -1.
         25    2    1    2    0    0 -0.14279677925E+02  0.17282827043E+02 -0.44657825727E+03  0.46430801713E+03  0.12508872687E+03 0.  0.
         23    2    1    2    0    0  0.14279677925E+02 -0.17282827043E+02 -0.18200423643E+03  0.20552219085E+03  0.92796678506E+02 0.  0.
          5    1    3    3  502    0 -0.17604807302E+02 -0.46336741178E+02 -0.30461020517E+03  0.30864522079E+03  0.41800000000E+01 0. -1.
         -5    1    3    3    0  502  0.33251293774E+01  0.63619568221E+02 -0.14196805210E+03  0.15566279634E+03  0.41800000000E+01 0. -1.
        -11    1    4    4    0    0 -0.26161090972E+02 -0.24320162162E+02 -0.25926439493E+02  0.44136756034E+02  0.00000000000E+00 0.  1.
         11    1    4    4    0    0  0.40440768896E+02  0.70373351192E+01 -0.15607779694E+03  0.16138543482E+03  0.00000000000E+00 0. -1.
</event>
<event>
 8    1  0.7026811E-009  0.1444609E+03  0.7561462E-02  0.1207449E+00
         -1   -1    0    0    0  501 -0.00000000000E+00  0.00000000000E+00  0.80800264330E+02  0.80800264330E+02  0.00000000000E+00 0.  1.
          1   -1    0    0  501    0  0.00000000000E+00 -0.00000000000E+00 -0.44607298454E+03  0.44607298454E+03  0.00000000000E+00 0. -1.
         25    2    1    2    0    0  0.11880057517E+03  0.29047358953E+02 -0.58771533370E+02  0.18455657579E+03  0.12509880419E+03 0.  0.
         23    2    1    2    0    0 -0.11880057517E+03 -0.29047358953E+02 -0.30650118684E+03  0.34231667307E+03  0.90996710972E+02 0.  0.
          5    1    3    3  502    0  0.27282425714E+02  0.38132277231E+02  0.30683861898E+02  0.56190507211E+02  0.41800000000E+01 0. -1.
         -5    1    3    3    0  502  0.91518149460E+02 -0.90849182775E+01 -0.89455395268E+02  0.12836606858E+03  0.41800000000E+01 0. -1.
        -11    1    4    4    0    0 -0.11933921175E+03  0.13865144807E+01 -0.26690403283E+03  0.29237225010E+03  0.00000000000E+00 0. -1.
         11    1    4    4    0    0  0.53863657137E+00 -0.30433873434E+02 -0.39597154003E+02  0.49944422979E+02  0.00000000000E+00 0.  1.
</event>
<event>
 8    1  0.7026811E-009  0.8438931E+02  0.7561462E-02  0.1317037E+00
         -2   -1    0    0    0  501 -0.00000000000E+00  0.00000000000E+00  0.26111345806E+02  0.26111345806E+02  0.00000000000E+00 0.  1.
          2   -1    0    0  501    0  0.00000000000E+00 -0.00000000000E+00 -0.47966277684E+03  0.47966277684E+03  0.00000000000E+00 0. -1.
         25    2    1    2    0    0  0.31003573876E+02  0.26894030038E+01 -0.23412589204E+03  0.26726049122E+03  0.12507910442E+03 0.  0.
         23    2    1    2    0    0 -0.31003573876E+02 -0.26894030038E+01 -0.21942553899E+03  0.23851363142E+03  0.88163091654E+02 0.  0.
          5    1    3    3  502    0  0.18514236850E+02  0.36265939117E+02 -0.22679073902E+03  0.23045499997E+03  0.41800000000E+01 0. -1.
         -5    1    3    3    0  502  0.12489337026E+02 -0.33576536113E+02 -0.73351530247E+01  0.36805491257E+02  0.41800000000E+01 0. -1.
        -11    1    4    4    0    0  0.28496055067E+02 -0.13121155631E+02 -0.97880716003E+02  0.10278533186E+03  0.00000000000E+00 0. -1.
         11    1    4    4    0    0 -0.59499628943E+02  0.10431752628E+02 -0.12154482299E+03  0.13572829956E+03  0.00000000000E+00 0.  1.
</event>
<event>
 8    1  0.7026811E-009  0.1657942E+03  0.7561462E-02  0.1182306E+00
         -2   -1    0    0    0  501 -0.00000000000E+00  0.00000000000E+00  0.12564367114E+03  0.12564367114E+03  0.00000000000E+00 0.  1.
          2   -1    0    0  501    0  0.00000000000E+00 -0.00000000000E+00 -0.27031807479E+03  0.27031807479E+03  0.00000000000E+00 0. -1.
         25    2    1    2    0    0  0.69496776015E+02 -0.10571097062E+03  0.66285359241E+01  0.17802977346E+03  0.12508417791E+03 0.  0.
         23    2    1    2    0    0 -0.69496776015E+02  0.10571097062E+03 -0.15130293957E+03  0.21793197247E+03  0.92720838616E+02 0.  0.
          5    1    3    3  502    0  0.89550024248E+02 -0.27075983095E+02 -0.12697256849E+02  0.94504012798E+02  0.41800000000E+01 0. -1.
         -5    1    3    3    0  502 -0.20053248233E+02 -0.78634987528E+02  0.19325792773E+02  0.83525760664E+02  0.41800000000E+01 0. -1.
        -11    1    4    4    0    0 -0.67062547351E+02  0.18678097825E+02 -0.62239417558E+02  0.93380949307E+02  0.00000000000E+00 0.  1.
         11    1    4    4    0    0 -0.24342286647E+01  0.87032872798E+02 -0.89063522013E+02  0.12455102316E+03  0.00000000000E+00 0. -1.
</event>
<event>
 8    1  0.7026811E-009  0.1003808E+03  0.7561462E-02  0.1279497E+00
          2   -1    0    0  501    0  0.00000000000E+00  0.00000000000E+00  0.94131949791E+03  0.94131949791E+03  0.00000000000E+00 0.  1.
         -2   -1    0    0    0  501 -0.00000000000E+00 -0.00000000000E+00 -0.22394664028E+02  0.22394664028E+02  0.00000000000E+00 0. -1.
         25    2    1    2    0    0  0.18129281799E+02 -0.75514073979E+02  0.67720845009E+03  0.69302932928E+03  0.12508924870E+03 0.  0.
         23    2    1    2    0    0 -0.18129281799E+02  0.75514073979E+02  0.24171638380E+03  0.27068483266E+03  0.93874502454E+02 0.  0.
          5    1    3    3  502    0  0.18757277410E+02 -0.27420711740E+02  0.32994779699E+02  0.47009135022E+02  0.41800000000E+01 0.  1.
         -5    1    3    3    0  502 -0.62799561077E+00 -0.48093362240E+02  0.64421367039E+03  0.64602019425E+03  0.41800000000E+01 0.  1.
        -11    1    4    4    0    0  0.36048120241E+02  0.41759248851E+02  0.14141578027E+03  0.15179500896E+03  0.00000000000E+00 0.  1.
         11    1    4    4    0    0 -0.54177402040E+02  0.33754825129E+02  0.10030060353E+03  0.11888982370E+03  0.00000000000E+00 0. -1.
</event>
<event>
 8    1  0.7026811E-009  0.9035715E+02  0.7561462E-02  0.1301989E+00
          4   -1    0    0  501    0  0.00000000000E+00  0.00000000000E+00  0.12458484804E+03  0.12458484804E+03  0.00000000000E+00 0. -1.
         -4   -1    0    0    0  501 -0.00000000000E+00 -0.00000000000E+00 -0.11493027037E+03  0.11493027037E+03  0.00000000000E+00 0.  1.
         25    2    1    2    0    0  0.40059080756E+01 -0.12231736913E+02  0.54050961366E+02  0.13686768255E+03  0.12508234654E+03 0.  0.
         23    2    1    2    0    0 -0.40059080756E+01  0.12231736913E+02 -0.44396383697E+02  0.10264743587E+03  0.91650392891E+02 0.  0.
          5    1    3    3  502    0 -0.25999029744E+01 -0.60914242775E+02  0.61849003851E+02  0.86948698355E+02  0.41800000000E+01 0. -1.
         -5    1    3    3    0  502  0.66058110501E+01  0.48682505862E+02 -0.77980424853E+01  0.49918984197E+02  0.41800000000E+01 0. -1.
        -11    1    4    4    0    0 -0.26423650674E+02  0.31231019684E+02 -0.57421737653E+02  0.70504197468E+02  0.00000000000E+00 0.  1.
         11    1    4    4    0    0  0.22417742599E+02 -0.18999282771E+02  0.13025353956E+02  0.32143238398E+02  0.00000000000E+00 0. -1.
</event>
<event>
 8    1  0.7026811E-009  0.1760467E+03  0.7561462E-02  0.1171685E+00
          2   -1    0    0  501    0  0.00000000000E+00  0.00000000000E+00  0.56556313385E+03  0.56556313385E+03  0.00000000000E+00 0. -1.
         -2   -1    0    0    0  501 -0.00000000000E+00 -0.00000000000E+00 -0.76279653577E+02  0.76279653577E+02  0.00000000000E+00 0.  1.
         25    2    1    2    0    0  0.14186400716E+03 -0.70984211930E+02  0.37653484923E+03  0.42730550595E+03  0.12508935947E+03 0.  0.
         23    2    1    2    0    0 -0.14186400716E+03  0.70984211930E+02  0.11274863104E+03  0.21453728148E+03  0.90276444722E+02 0.  0.
          5    1    3    3  502    0  0.16014107488E+02 -0.52363304948E+02  0.21358760561E+03  0.22053458916E+03  0.41800000000E+01 0.  1.
         -5    1    3    3    0  502  0.12584989968E+03 -0.18620906982E+02  0.16294724362E+03  0.20677091679E+03  0.41800000000E+01 0.  1.
        -11    1    4    4    0    0 -0.92167632907E+02  0.12294288861E+02  0.10005839271E+03  0.13659320645E+03  0.00000000000E+00 0. -1.
         11    1    4    4    0    0 -0.49696374258E+02  0.58689923069E+02  0.12690238321E+02  0.77944075034E+02  0.00000000000E+00 0.  1.
</event>
<event>
 8    1  0.7026811E-009  0.4410092E+03  0.7561462E-02  0.1030438E+00
         -1   -1    0    0    0  501 -0.00000000000E+00  0.00000000000E+00  0.54075042867E+03  0.54075042867E+03  0.00000000000E+00 0.  1.
          1   -1    0    0  501    0  0.00000000000E+00 -0.00000000000E+00 -0.42508484763E+03  0.42508484763E+03  0.00000000000E+00 0. -1.
         25    2    1    2    0    0 -0.42527264127E+03 -0.63442776987E+02  0.24159063429E+03  0.50881565858E+03  0.12508211094E+03 0.  0.
         23    2    1    2    0    0  0.42527264127E+03  0.63442776987E+02 -0.12592505325E+03  0.45701961771E+03  0.90155457824E+02 0.  0.
          5    1    3    3  502    0 -0.43100663929E+03 -0.63516441602E+02  0.22409529842E+03  0.48993595157E+03  0.41800000000E+01 0.  1.
         -5    1    3    3    0  502  0.57339980198E+01  0.73664615084E-01  0.17495335868E+02  0.18879707013E+02  0.41800000000E+01 0.  1.
        -11    1    4    4    0    0  0.22094543709E+03  0.78212191321E+02 -0.71766242910E+02  0.24512124890E+03  0.00000000000E+00 0.  1.
         11    1    4    4    0    0  0.20432720418E+03 -0.14769414334E+02 -0.54158810339E+02  0.21189836881E+03  0.00000000000E+00 0. -1.
</event>
<event>
 8    1  0.7026811E-009  0.1241027E+03  0.7561462E-02  0.1236478E+00
         -3   -1    0    0    0  501 -0.00000000000E+00  0.00000000000E+00  0.20965185065E+03  0.20965185065E+03  0.00000000000E+00 0.  1.
          3   -1    0    0  501    0  0.00000000000E+00 -0.00000000000E+00 -0.11579155296E+03  0.11579155296E+03  0.00000000000E+00 0. -1.
         25    2    1    2    0    0  0.58958407199E+02 -0.84481322224E+02 -0.17444298058E+00  0.16205512336E+03  0.12509454421E+03 0.  0.
         23    2    1    2    0    0 -0.58958407199E+02  0.84481322224E+02  0.94034740672E+02  0.16338828025E+03  0.85088248812E+02 0.  0.
          5    1    3    3  502    0 -0.99052255617E+01 -0.14095360310E+02 -0.48968903823E+02  0.52078965209E+02  0.41800000000E+01 0.  1.
         -5    1    3    3    0  502  0.68863632761E+02 -0.70385961914E+02  0.48794460842E+02  0.10997615815E+03  0.41800000000E+01 0.  1.
        -11    1    4    4    0    0  0.10692953026E+02  0.55429726576E+02  0.53257397661E+02  0.77608918549E+02  0.00000000000E+00 0.  1.
         11    1    4    4    0    0 -0.69651360225E+02  0.29051595648E+02  0.40777343010E+02  0.85779361701E+02  0.00000000000E+00 0. -1.
</event>
<event>
 8    1  0.7026811E-009  0.1372401E+03  0.7561462E-02  0.1217092E+00
          2   -1    0    0  501    0  0.00000000000E+00  0.00000000000E+00  0.43473291367E+03  0.43473291367E+03  0.00000000000E+00 0. -1.
         -2   -1    0    0    0  501 -0.00000000000E+00 -0.00000000000E+00 -0.66699656980E+02  0.66699656980E+02  0.00000000000E+00 0.  1.
         25    2    1    2    0    0  0.48401343063E+02  0.10172079128E+03  0.29469187813E+03  0.33938240990E+03  0.12508919906E+03 0.  0.
         23    2    1    2    0    0 -0.48401343063E+02 -0.10172079128E+03  0.73341378558E+02  0.16205016075E+03  0.90506836219E+02 0.  0.
          5    1    3    3  502    0  0.40571979300E+02 -0.48779743757E+01  0.17094801587E+03  0.17581404002E+03  0.41800000000E+01 0.  1.
         -5    1    3    3    0  502  0.78293637634E+01  0.10659876566E+03  0.12374386227E+03  0.16356836988E+03  0.41800000000E+01 0.  1.
        -11    1    4    4    0    0 -0.61681450906E+02 -0.80742888758E+02  0.86954296108E+02  0.13373505555E+03  0.00000000000E+00 0. -1.
         11    1    4    4    0    0  0.13280107842E+02 -0.20977902523E+02 -0.13612917550E+02  0.28315105206E+02  0.00000000000E+00 0.  1.
</event>
<event>
 8    1  0.7026811E-009  0.1367359E+03  0.7561462E-02  0.1217790E+00
         -2   -1    0    0    0  501 -0.00000000000E+00  0.00000000000E+00  0.20056304976E+02  0.20056304976E+02  0.00000000000E+00 0.  1.
          2   -1    0    0  501    0  0.00000000000E+00 -0.00000000000E+00 -0.93941881217E+03  0.93941881217E+03  0.00000000000E+00 0. -1.
         25    2    1    2    0    0 -0.70148464858E+02 -0.46534424273E+02 -0.51381047616E+03  0.53547656479E+03  0.12509071217E+03 0.  0.
         23    2    1    2    0    0  0.70148464858E+02  0.46534424273E+02 -0.40555203103E+03  0.42399855235E+03  0.90642499714E+02 0.  0.
          5    1    3    3  502    0  0.21289657589E+02 -0.53894514276E+02 -0.22744305335E+03  0.23474599700E+03  0.41800000000E+01 0.  1.
         -5    1    3    3    0  502 -0.91438122447E+02  0.73600900039E+01 -0.28636742280E+03  0.30073056779E+03  0.41800000000E+01 0.  1.
        -11    1    4    4    0    0  0.75430604738E+02 -0.12782671208E+01 -0.25796324531E+03  0.26876838733E+03  0.00000000000E+00 0. -1.
         11    1    4    4    0    0 -0.52821398801E+01  0.47812691393E+02 -0.14758878572E+03  0.15523016502E+03  0.00000000000E+00 0.  1.
</event>
<event>
 8    1  0.7026811E-009  0.9976414E+02  0.7561462E-02  0.1280793E+00
         -3   -1    0    0    0  501 -0.00000000000E+00  0.00000000000E+00  0.69430845172E+02  0.69430845172E+02  0.00000000000E+00 0.  1.
          3   -1    0    0  501    0  0.00000000000E+00 -0.00000000000E+00 -0.27820641388E+03  0.27820641388E+03  0.00000000000E+00 0. -1.
         25    2    1    2    0    0  0.70567788434E+02  0.32246681432E+02 -0.16135154340E+03  0.21840609194E+03  0.12508892521E+03 0.  0.
         23    2    1    2    0    0 -0.70567788434E+02 -0.32246681432E+02 -0.47424025305E+02  0.12923116711E+03  0.91825895851E+02 0.  0.
          5    1    3    3  502    0  0.13820063650E+01  0.10524289809E+02  0.20013453045E+02  0.23036521447E+02  0.41800000000E+01 0.  1.
         -5    1    3    3    0  502  0.69185782069E+02  0.21722391623E+02 -0.18136499645E+03  0.19536957049E+03  0.41800000000E+01 0.  1.
        -11    1    4    4    0    0 -0.52606034240E+02 -0.61640540422E+02 -0.49085825903E+02  0.94743703573E+02  0.00000000000E+00 0. -1.
         11    1    4    4    0    0 -0.17961754194E+02  0.29393858990E+02  0.16618005983E+01  0.34487463538E+02  0.00000000000E+00 0.  1.
</event>
<event>
 8    1  0.7026811E-009  0.1514487E+03  0.7561462E-02  0.1198704E+00
          1   -1    0    0  501    0  0.00000000000E+00  0.00000000000E+00  0.41478127815E+03  0.41478127815E+03  0.00000000000E+00 0. -1.
         -1   -1    0    0    0  501 -0.00000000000E+00 -0.00000000000E+00 -0.11934329091E+03  0.11934329091E+03  0.00000000000E+00 0.  1.
         25    2    1    2    0    0  0.15553595959E+02 -0.12455729604E+03  0.33087004423E+03  0.37534137889E+03  0.12509888166E+03 0.  0.
         23    2    1    2    0    0 -0.15553595959E+02  0.12455729604E+03 -0.35432056997E+02  0.15878319018E+03  0.90555157093E+02 0.  0.
          5    1    3    3  502    0  0.23793315533E+02  0.18003009782E+02  0.31260642176E+02  0.43415784854E+02  0.41800000000E+01 0. -1.
         -5    1    3    3    0  502 -0.82397195737E+01 -0.14256030582E+03  0.29960940206E+03  0.33192559403E+03  0.41800000000E+01 0. -1.
        -11    1    4    4    0    0 -0.17322893512E+02  0.25446501959E+02  0.27574284242E+02  0.41327330582E+02  0.00000000000E+00 0.  1.
         11    1    4    4    0    0  0.17692975529E+01  0.99110794077E+02 -0.63006341239E+02  0.11745585959E+03  0.00000000000E+00 0. -1.
</event>
<event>
 8    1  0.7026811E-009  0.1170349E+03  0.7561462E-02  0.1248070E+00
          3   -1    0    0  501    0  0.00000000000E+00  0.00000000000E+00  0.13499883148E+03  0.13499883148E+03  0.00000000000E+00 0. -1.
         -3   -1    0    0    0  501 -0.00000000000E+00 -0.00000000000E+00 -0.21214189342E+03  0.21214189342E+03  0.00000000000E+00 0.  1.
         25    2    1    2    0    0 -0.88280448423E+02 -0.68327321496E+02  0.24989542612E+02  0.16951406114E+03  0.12509388173E+03 0.  0.
         23    2    1    2    0    0  0.88280448423E+02  0.68327321496E+02 -0.10213260455E+03  0.17762666376E+03  0.93048924390E+02 0.  0.
          5    1    3    3  502    0 -0.13310054858E+02 -0.72595295505E+01 -0.46566006941E+02  0.49150012534E+02  0.41800000000E+01 0. -1.
         -5    1    3    3    0  502 -0.74970393565E+02 -0.61067791946E+02  0.71555549553E+02  0.12036404860E+03  0.41800000000E+01 0. -1.
        -11    1    4    4    0    0  0.35645499603E+01  0.27117595723E+02 -0.74634357731E+02  0.79488095764E+02  0.00000000000E+00 0.  1.
         11    1    4    4    0    0  0.84715898462E+02  0.41209725774E+02 -0.27498246823E+02  0.98138567999E+02  0.00000000000E+00 0. -1.
</event>
<event>
 8    1  0.7026811E-009  0.1051409E+03  0.7561462E-02  0.1269842E+00
          1   -1    0    0  501    0  0.00000000000E+00  0.00000000000E+00  0.67370561778E+03  0.67370561778E+03  0.00000000000E+00 0.  1.
         -1   -1    0    0    0  501 -0.00000000000E+00 -0.00000000000E+00 -0.17636027497E+02  0.17636027497E+02  0.00000000000E+00 0. -1.
         25    2    1    2    0    0  0.15100492894E+02  0.10529699786E+02  0.37851590969E+03  0.39907450320E+03  0.12508903129E+03 0.  0.
         23    2    1    2    0    0 -0.15100492894E+02 -0.10529699786E+02  0.27755368059E+03  0.29226714208E+03  0.89694689170E+02 0.  0.
          5    1    3    3  502    0  0.40653524759E+02 -0.42959678682E+02  0.12043113012E+03  0.13423625654E+03  0.41800000000E+01 0.  1.
         -5    1    3    3    0  502 -0.25553031866E+02  0.53489378468E+02  0.25808477958E+03  0.26483824666E+03  0.41800000000E+01 0.  1.
        -11    1    4    4    0    0 -0.52281694818E+02  0.20169089492E+01  0.15972329187E+03  0.16807430946E+03  0.00000000000E+00 0. -1.
         11    1    4    4    0    0  0.37181201924E+02 -0.12546608736E+02  0.11783038872E+03  0.12419283261E+03  0.00000000000E+00 0.  1.
</event>
<event>
 8    1  0.7026811E-009  0.9791774E+02  0.7561462E-02  0.1284737E+00
         -1   -1    0    0    0  501 -0.00000000000E+00  0.00000000000E+00  0.35142670964E+02  0.35142670964E+02  0.00000000000E+00 0.  1.
          1   -1    0    0  501    0  0.00000000000E+00 -0.00000000000E+00 -0.59905183659E+03  0.59905183659E+03  0.00000000000E+00 0. -1.
         25    2    1    2    0    0 -0.47807974297E+02  0.23294631699E+02 -0.48193617545E+03  0.50073681764E+03  0.12508653429E+03 0.  0.
         23    2    1    2    0    0  0.47807974297E+02 -0.23294631699E+02 -0.81972990178E+02  0.13345768991E+03  0.90901823998E+02 0.  0.
          5    1    3    3  502    0  0.23933291183E+02  0.30211848771E+02 -0.52438489504E+02  0.65213693458E+02  0.41800000000E+01 0. -1.
         -5    1    3    3    0  502 -0.71741265480E+02 -0.69172170723E+01 -0.42949768594E+03  0.43552312418E+03  0.41800000000E+01 0. -1.
        -11    1    4    4    0    0  0.34224378737E+02  0.19901342049E+02 -0.78652792101E+02  0.88054717197E+02  0.00000000000E+00 0. -1.
         11    1    4    4    0    0  0.13583595560E+02 -0.43195973747E+02 -0.33201980765E+01  0.45402972717E+02  0.00000000000E+00 0.  1.
</event>
<event>
 8    1  0.7026811E-009  0.1440403E+03  0.7561462E-02  0.1207994E+00
          2   -1    0    0  501    0  0.00000000000E+00  0.00000000000E+00  0.66540599239E+03  0.66540599239E+03  0.00000000000E+00 0.  1.
         -2   -1    0    0    0  501 -0.00000000000E+00 -0.00000000000E+00 -0.36571585170E+02  0.36571585170E+02  0.00000000000E+00 0. -1.
         25    2    1    2    0    0  0.15022183840E+02  0.10704194022E+03  0.25958108165E+03  0.30775588255E+03  0.12509077632E+03 0.  0.
         23    2    1    2    0    0 -0.15022183840E+02 -0.10704194022E+03  0.36925332557E+03  0.39422169501E+03  0.85901591362E+02 0.  0.
          5    1    3    3  502    0  0.61535768234E+02  0.30713808865E+02  0.70543441120E+02  0.98609524450E+02  0.41800000000E+01 0. -1.
         -5    1    3    3    0  502 -0.46513584394E+02  0.76328131354E+02  0.18903764053E+03  0.20914635810E+03  0.41800000000E+01 0. -1.
        -11    1    4    4    0    0 -0.42707650903E+02 -0.46564377868E+02  0.11287460697E+03  0.12935556281E+03  0.00000000000E+00 0. -1.
         11    1    4    4    0    0  0.27685467062E+02 -0.60477562352E+02  0.25637871860E+03  0.26486613219E+03  0.00000000000E+00 0.  1.
</event>
<event>
 8    1  0.7026811E-009  0.1282081E+03  0.7561462E-02  0.1230139E+00
         -2   -1    0    0    0  501 -0.00000000000E+00  0.00000000000E+00  0.71063092581E+02  0.71063092581E+02  0.00000000000E+00 0.  1.
          2   -1    0    0  501    0  0.00000000000E+00 -0.00000000000E+00 -0.37842302543E+03  0.37842302543E+03  0.00000000000E+00 0. -1.
         25    2    1    2    0    0 -0.33740223521E+02  0.10711124613E+03 -0.23470505089E+03  0.28869618773E+03  0.12509119139E+03 0.  0.
         23    2    1    2    0    0  0.33740223521E+02 -0.10711124613E+03 -0.72654881960E+02  0.16078993029E+03  0.89238153713E+02 0.  0.
          5    1    3    3  502    0 -0.37239019709E+02  0.12921857343E+02 -0.44817793646E+01  0.39890822659E+02  0.41800000000E+01 0. -1.
         -5    1    3    3    0  502  0.34987961888E+01  0.94189388785E+02 -0.23022327153E+03  0.24880536507E+03  0.41800000000E+01 0. -1.
        -11    1    4    4    0    0  0.68912909303E+01 -0.90704737620E+02 -0.11076032445E+02  0.91637971454E+02  0.00000000000E+00 0.  1.
         11    1    4    4    0    0  0.26848932590E+02 -0.16406508508E+02 -0.61578849515E+02  0.69151958832E+02  0.00000000000E+00 0. -1.
</event>
<event>
 8    1  0.7026811E-009  0.1231599E+03  0.7561462E-02  0.1237973E+00
         -2   -1    0    0    0  501 -0.00000000000E+00  0.00000000000E+00  0.35914639924E+02  0.35914639924E+02  0.00000000000E+00 0.  1.
          2   -1    0    0  501    0  0.00000000000E+00 -0.00000000000E+00 -0.50200263638E+03  0.50200263638E+03  0.00000000000E+00 0. -1.
         25    2    1    2    0    0  0.33787024233E+02  0.68096232305E+02 -0.29468357308E+03  0.32903637251E+03  0.12509143189E+03 0.  0.
         23    2    1    2    0    0 -0.33787024233E+02 -0.68096232305E+02 -0.17140442337E+03  0.20888090379E+03  0.92049420177E+02 0.  0.
          5    1    3    3  502    0  0.59060754266E+02  0.81224401248E+02 -0.14389208576E+03  0.17552202368E+03  0.41800000000E+01 0. -1.
         -5    1    3    3    0  502 -0.25273730034E+02 -0.13128168943E+02 -0.15079148732E+03  0.15351434883E+03  0.41800000000E+01 0. -1.
        -11    1    4    4    0    0 -0.50688022252E+02 -0.41261630436E+01 -0.54435672944E+02  0.74495256965E+02  0.00000000000E+00 0. -1.
         11    1    4    4    0    0  0.16900998020E+02 -0.63970069261E+02 -0.11696875043E+03  0.13438564682E+03  0.00000000000E+00 0.  1.
</event>
<event>
 8    1  0.7026811E-009  0.1071087E+03  0.7561462E-02  0.1266020E+00
         -1   -1    0    0    0  501 -0.00000000000E+00  0.00000000000E+00  0.28413009411E+02  0.28413009411E+02  0.00000000000E+00 0.  1.
          1   -1    0    0  501    0  0.00000000000E+00 -0.00000000000E+00 -0.51133569681E+03  0.51133569681E+03  0.00000000000E+00 0. -1.
         25    2    1    2    0    0 -0.25360454765E+02 -0.34880253033E+01 -0.36274200606E+03  0.38455787910E+03  0.12509068882E+03 0.  0.
         23    2    1    2    0    0  0.25360454765E+02  0.34880253033E+01 -0.12018068133E+03  0.15519082712E+03  0.94791759502E+02 0.  0.
          5    1    3    3  502    0 -0.72678715018E+02 -0.65009371613E+01 -0.15408319478E+03  0.17053903106E+03  0.41800000000E+01 0.  1.
         -5    1    3    3    0  502  0.47318260254E+02  0.30129118579E+01 -0.20865881128E+03  0.21401884804E+03  0.41800000000E+01 0.  1.
        -11    1    4    4    0    0 -0.49066064546E+01  0.43268087724E+02 -0.79898022425E+02  0.90993934905E+02  0.00000000000E+00 0. -1.
         11    1    4    4    0    0  0.30267061219E+02 -0.39780062420E+02 -0.40282658908E+02  0.64196892212E+02  0.00000000000E+00 0.  1.
</event>
<event>
 8    1  0.7026811E-009  0.1714928E+03  0.7561462E-02  0.1176300E+00
         -2   -1    0    0    0  501 -0.00000000000E+00  0.00000000000E+00  0.10113930236E+03  0.10113930236E+03  0.00000000000E+00 0.  1.
          2   -1    0    0  501    0  0.00000000000E+00 -0.00000000000E+00 -0.36691635046E+03  0.36691635046E+03  0.00000000000E+00 0. -1.
         25    2    1    2    0    0 -0.76101994840E+02  0.13594576650E+03 -0.10141382903E+03  0.22406491660E+03  0.12509019579E+03 0.  0.
         23    2    1    2    0    0  0.76101994840E+02 -0.13594576650E+03 -0.16436321907E+03  0.24399073623E+03  0.90793427814E+02 0.  0.
          5    1    3    3  502    0 -0.13608927766E+02  0.88971833194E+02 -0.11342521783E+03  0.14485835308E+03  0.41800000000E+01 0. -1.
         -5    1    3    3    0  502 -0.62493067074E+02  0.46973933307E+02  0.12011388806E+02  0.79206563514E+02  0.41800000000E+01 0. -1.
        -11    1    4    4    0    0  0.87691370970E+02 -0.84223970782E+02 -0.14066363467E+03  0.18592931967E+03  0.00000000000E+00 0. -1.
         11    1    4    4    0    0 -0.11589376130E+02 -0.51721795720E+02 -0.23699584404E+02  0.58061416556E+02  0.00000000000E+00 0.  1.
</event>
<event>
 8    1  0.7026811E-009  0.9453973E+02  0.7561462E-02  0.1292216E+00
         -1   -1    0    0    0  501 -0.00000000000E+00  0.00000000000E+00  0.16802084037E+03  0.16802084037E+03  0.00000000000E+00 0.  1.
          1   -1    0    0  501    0  0.00000000000E+00 -0.00000000000E+00 -0.83930085645E+02  0.83930085645E+02  0.00000000000E+00 0. -1.
         25    2    1    2    0    0  0.18891353367E+02 -0.34115353263E+02  0.81092104425E+02  0.15409134289E+03  0.12508985568E+03 0.  0.
         23    2    1    2    0    0 -0.18891353367E+02  0.34115353263E+02  0.29986503028E+01  0.97859583123E+02  0.89703765501E+02 0.  0.
          5    1    3    3  502    0 -0.38834298746E+02  0.21333794036E+02  0.72152543089E+01  0.45086204340E+02  0.41800000000E+01 0. -1.
         -5    1    3    3    0  502  0.57725652113E+02 -0.55449147299E+02  0.73876850116E+02  0.10900513855E+03  0.41800000000E+01 0. -1.
        -11    1    4    4    0    0 -0.36571537418E+02  0.26544474648E+02  0.37259647603E+02  0.58569342006E+02  0.00000000000E+00 0.  1.
         11    1    4    4    0    0  0.17680184051E+02  0.75708786155E+01 -0.34260997300E+02  0.39290241118E+02  0.00000000000E+00 0. -1.
</event>
<event>
 8    1  0.7026811E-009  0.1934463E+03  0.7561462E-02  0.1155389E+00
         -2   -1    0    0    0  501 -0.00000000000E+00  0.00000000000E+00  0.15060352564E+04  0.15060352564E+04  0.00000000000E+00 0. -1.
          2   -1    0    0  501    0  0.00000000000E+00 -0.00000000000E+00 -0.30390567066E+02  0.30390567066E+02  0.00000000000E+00 0.  1.
         25    2    1    2    0    0  0.63519463152E+02 -0.16415257575E+03  0.95285983996E+03  0.97702122017E+03  0.12509116570E+03 0.  0.
         23    2    1    2    0    0 -0.63519463152E+02  0.16415257575E+03  0.52278484933E+03  0.55940460325E+03  0.92998500655E+02 0.  0.
          5    1    3    3  502    0  0.93719410231E+02 -0.12087113588E+03  0.55684558808E+03  0.57748388783E+03  0.41800000000E+01 0. -1.
         -5    1    3    3    0  502 -0.30199947079E+02 -0.43281439863E+02  0.39601425188E+03  0.39953733234E+03  0.41800000000E+01 0. -1.
        -11    1    4    4    0    0 -0.36327399241E+02  0.40788245984E+02  0.67028854726E+02  0.86465185548E+02  0.00000000000E+00 0.  1.
         11    1    4    4    0    0 -0.27192063911E+02  0.12336432976E+03  0.45575599461E+03  0.47293941771E+03  0.00000000000E+00 0. -1.
</event>
<event>
 8    1  0.7026811E-009  0.1165898E+03  0.7561462E-02  0.1248831E+00
          2   -1    0    0  501    0  0.00000000000E+00  0.00000000000E+00  0.11137480805E+03  0.11137480805E+03  0.00000000000E+00 0. -1.
         -2   -1    0    0    0  501 -0.00000000000E+00 -0.00000000000E+00 -0.19319497890E+03  0.19319497890E+03  0.00000000000E+00 0.  1.
         25    2    1    2    0    0  0.83161503488E+02  0.14480126483E+01 -0.92575227787E+02  0.17645237058E+03  0.12508930362E+03 0.  0.
         23    2    1    2    0    0 -0.83161503488E+02 -0.14480126483E+01  0.10755056937E+02  0.12811741637E+03  0.96852819907E+02 0.  0.
          5    1    3    3  502    0  0.14463884077E+02 -0.29011799313E+02  0.21977052684E+02  0.39387202067E+02  0.41800000000E+01 0.  1.
         -5    1    3    3    0  502  0.68697619411E+02  0.30459811961E+02 -0.11455228047E+03  0.13706516851E+03  0.41800000000E+01 0.  1.
        -11    1    4    4    0    0 -0.81594769280E+02  0.34973957539E+02  0.18897707703E+02  0.90763469723E+02  0.00000000000E+00 0. -1.
         11    1    4    4    0    0 -0.15667342084E+01 -0.36421970187E+02 -0.81426507654E+01  0.37353946644E+02  0.00000000000E+00 0.  1.
</event>
<event>
 8    1  0.7026811E-009  0.1820136E+03  0.7561462E-02  0.1165868E+00
          2   -1    0    0  501    0  0.00000000000E+00  0.00000000000E+00  0.12031558989E+04  0.12031558989E+04  0.00000000000E+00 0. -1.
         -2   -1    0    0    0  501 -0.00000000000E+00 -0.00000000000E+00 -0.62500549224E+02  0.62500549224E+02  0.00000000000E+00 0.  1.
         25    2    1    2    0    0 -0.13928566718E+03 -0.45435195017E+02  0.11215282881E+03  0.22292115781E+03  0.12510288392E+03 0.  0.
         23    2    1    2    0    0  0.13928566718E+03  0.45435195017E+02  0.10285025209E+04  0.10427352903E+04  0.89524277157E+02 0.  0.
          5    1    3    3  502    0  0.88535040599E+01 -0.43018621414E+02  0.20443332159E+02  0.48624978687E+02  0.41800000000E+01 0. -1.
         -5    1    3    3    0  502 -0.14813917124E+03 -0.24165736029E+01  0.91709496650E+02  0.17429617913E+03  0.41800000000E+01 0. -1.
        -11    1    4    4    0    0  0.10486354349E+03  0.72850283672E+02  0.76842126221E+03  0.77895748459E+03  0.00000000000E+00 0.  1.
         11    1    4    4    0    0  0.34422123684E+02 -0.27415088655E+02  0.26008125868E+03  0.26377780574E+03  0.00000000000E+00 0. -1.
</event>
<event>
 8    1  0.7026811E-009  0.1320189E+03  0.7561462E-02  0.1224490E+00
          2   -1    0    0  501    0  0.00000000000E+00  0.00000000000E+00  0.19461056908E+03  0.19461056908E+03  0.00000000000E+00 0. -1.
         -2   -1    0    0    0  501 -0.00000000000E+00 -0.00000000000E+00 -0.11202039150E+03  0.11202039150E+03  0.00000000000E+00 0.  1.
         25    2    1    2    0    0  0.79231528284E+02  0.60774814966E+02  0.49888745937E+02  0.16765221710E+03  0.12508863145E+03 0.  0.
         23    2    1    2    0    0 -0.79231528284E+02 -0.60774814966E+02  0.32701431645E+02  0.13897874348E+03  0.90964247367E+02 0.  0.
          5    1    3    3  502    0 -0.21224103603E+02 -0.60352536308E+01 -0.18334379631E+02  0.28991528704E+02  0.41800000000E+01 0. -1.
         -5    1    3    3    0  502  0.10045563189E+03  0.66810068597E+02  0.68223125567E+02  0.13866068839E+03  0.41800000000E+01 0. -1.
        -11    1    4    4    0    0 -0.10854904053E+02 -0.50579395748E+02 -0.16303300138E+02  0.54239301356E+02  0.00000000000E+00 0.  1.
         11    1    4    4    0    0 -0.68376624231E+02 -0.10195419218E+02  0.49004731783E+02  0.84739442123E+02  0.00000000000E+00 0. -1.
</event>
<event>
 8    1  0.7026811E-009  0.1820401E+03  0.7561462E-02  0.1165843E+00
         -2   -1    0    0    0  501 -0.00000000000E+00  0.00000000000E+00  0.24758112523E+03  0.24758112523E+03  0.00000000000E+00 0.  1.
          2   -1    0    0  501    0  0.00000000000E+00 -0.00000000000E+00 -0.14582997377E+03  0.14582997377E+03  0.00000000000E+00 0. -1.
         25    2    1    2    0    0  0.92613314464E+02 -0.11903837365E+03  0.14678552845E+02  0.19648971997E+03  0.12508153231E+03 0.  0.
         23    2    1    2    0    0 -0.92613314464E+02  0.11903837365E+03  0.87072598619E+02  0.19692137902E+03  0.91918614378E+02 0.  0.
          5    1    3    3  502    0  0.32602168480E+02 -0.12292785473E+03  0.36502847385E+02  0.13237858258E+03  0.41800000000E+01 0.  1.
         -5    1    3    3    0  502  0.60011145984E+02  0.38894810850E+01 -0.21824294540E+02  0.64111137391E+02  0.41800000000E+01 0.  1.
        -11    1    4    4    0    0 -0.85131537843E+01  0.85640565100E+02  0.39608360642E+02  0.94739655956E+02  0.00000000000E+00 0. -1.
         11    1    4    4    0    0 -0.84100160680E+02  0.33397808549E+02  0.47464237976E+02  0.10218172307E+03  0.00000000000E+00 0.  1.
</event>
<event>
 8    1  0.7026811E-009  0.7822203E+02  0.7561462E-02  0.1334174E+00
          4   -1    0    0  501    0  0.00000000000E+00  0.00000000000E+00  0.55698549965E+02  0.55698549965E+02  0.00000000000E+00 0. -1.
         -4   -1    0    0    0  501 -0.00000000000E+00 -0.00000000000E+00 -0.21736919168E+03  0.21736919168E+03  0.00000000000E+00 0.  1.
         25    2    1    2    0    0 -0.12186119473E+02  0.55963071369E+01 -0.73165327407E+02  0.14553757976E+03  0.12509277288E+03 0.  0.
         23    2    1    2    0    0  0.12186119473E+02 -0.55963071369E+01 -0.88505314307E+02  0.12753016188E+03  0.90834637488E+02 0.  0.
          5    1    3    3  502    0 -0.82712337403E+01 -0.31136259706E+02  0.24725417504E+02  0.40825220720E+02  0.41800000000E+01 0.  1.
         -5    1    3    3    0  502 -0.39148857330E+01  0.36732566843E+02 -0.97890744910E+02  0.10471235904E+03  0.41800000000E+01 0.  1.
        -11    1    4    4    0    0  0.21650201954E+02 -0.43030206599E+02 -0.69323957060E+02  0.84416473197E+02  0.00000000000E+00 0.  1.
         11    1    4    4    0    0 -0.94640824810E+01  0.37433899462E+02 -0.19181357247E+02  0.43113688684E+02  0.00000000000E+00 0. -1.
</event>
<event>
 8    1  0.7026811E-009  0.2843391E+03  0.7561462E-02  0.1093342E+00
         -2   -1    0    0    0  501 -0.00000000000E+00  0.00000000000E+00  0.21020982447E+03  0.21020982447E+03  0.00000000000E+00 0.  1.
          2   -1    0    0  501    0  0.00000000000E+00 -0.00000000000E+00 -0.48106760046E+03  0.48106760046E+03  0.00000000000E+00 0. -1.
         25    2    1    2    0    0  0.71463294071E+02 -0.27307721297E+03 -0.32533705754E+02  0.31045809663E+03  0.12509045169E+03 0.  0.
         23    2    1    2    0    0 -0.71463294071E+02  0.27307721297E+03 -0.23832407024E+03  0.38081932831E+03  0.92449076310E+02 0.  0.
          5    1    3    3  502    0  0.22084988829E+02 -0.13070222991E+03 -0.76911917133E+02  0.15330927901E+03  0.41800000000E+01 0. -1.
         -5    1    3    3    0  502  0.49378305242E+02 -0.14237498307E+03  0.44378211379E+02  0.15714881761E+03  0.41800000000E+01 0. -1.
        -11    1    4    4    0    0 -0.13298032390E+02  0.13255546861E+03 -0.16475011052E+03  0.21187352086E+03  0.00000000000E+00 0.  1.
         11    1    4    4    0    0 -0.58165261681E+02  0.14052174436E+03 -0.73573959718E+02  0.16894580745E+03  0.00000000000E+00 0. -1.
</event>
<event>
 8    1  0.7026811E-009  0.1710920E+03  0.7561462E-02  0.1176714E+00
          2   -1    0    0  501    0  0.00000000000E+00  0.00000000000E+00  0.21336974948E+04  0.21336974948E+04  0.00000000000E+00 0. -1.
         -2   -1    0    0    0  501 -0.00000000000E+00 -0.00000000000E+00 -0.21087811277E+02  0.21087811277E+02  0.00000000000E+00 0.  1.
         25    2    1    2    0    0 -0.12825865091E+03  0.49758872399E+02  0.17103672453E+04  0.17204447137E+04  0.12509065608E+03 0.  0.
         23    2    1    2    0    0  0.12825865091E+03 -0.49758872399E+02  0.40224243827E+03  0.43434059240E+03  0.89031141476E+02 0.  0.
          5    1    3    3  502    0 -0.11695092069E+03 -0.14407224070E+02  0.12348132642E+04  0.12404299076E+04  0.41800000000E+01 0. -1.
         -5    1    3    3    0  502 -0.11307730220E+02  0.64166096469E+02  0.47555398110E+03  0.48001480607E+03  0.41800000000E+01 0. -1.
        -11    1    4    4    0    0 -0.54641357642E+00  0.14867429757E+02  0.79587901064E+02  0.80966493262E+02  0.00000000000E+00 0.  1.
         11    1    4    4    0    0  0.12880506448E+03 -0.64626302157E+02  0.32265453720E+03  0.35337409914E+03  0.00000000000E+00 0. -1.
</event>
<event>
 8    1  0.7026811E-009  0.2223726E+03  0.7561462E-02  0.1132126E+00
          1   -1    0    0  501    0  0.00000000000E+00  0.00000000000E+00  0.80020513382E+03  0.80020513382E+03  0.00000000000E+00 0. -1.
         -1   -1    0    0    0  501 -0.00000000000E+00 -0.00000000000E+00 -0.70822184570E+02  0.70822184570E+02  0.00000000000E+00 0.  1.
         25    2    1    2    0    0 -0.14032884996E+03  0.15764881867E+03  0.40041875069E+03  0.46960392725E+03  0.12508931380E+03 0.  0.
         23    2    1    2    0    0  0.14032884996E+03 -0.15764881867E+03  0.32896419856E+03  0.40142339114E+03  0.91531190659E+02 0.  0.
          5    1    3    3  502    0 -0.33902646266E+02 -0.61664733760E+00  0.10869732352E+02  0.35852380104E+02  0.41800000000E+01 0. -1.
         -5    1    3    3    0  502 -0.10642620370E+03  0.15826546600E+03  0.38954901834E+03  0.43375154715E+03  0.41800000000E+01 0. -1.
        -11    1    4    4    0    0  0.13239986654E+03 -0.11181330166E+03  0.30049980523E+03  0.34688913508E+03  0.00000000000E+00 0.  1.
         11    1    4    4    0    0  0.79289834231E+01 -0.45835517006E+02  0.28464393325E+02  0.54534256066E+02  0.00000000000E+00 0. -1.
</event>
<event>
 8    1  0.7026811E-009  0.8514661E+02  0.7561462E-02  0.1315050E+00
         -1   -1    0    0    0  501 -0.00000000000E+00  0.00000000000E+00  0.54326244985E+03  0.54326244985E+03  0.00000000000E+00 0.  1.
          1   -1    0    0  501    0  0.00000000000E+00 -0.00000000000E+00 -0.25258428166E+02  0.25258428166E+02  0.00000000000E+00 0. -1.
         25    2    1    2    0    0  0.57089400167E+01 -0.15955162809E+02  0.39205945785E+03  0.41187772751E+03  0.12508191201E+03 0.  0.
         23    2    1    2    0    0 -0.57089400167E+01  0.15955162809E+02  0.12594456383E+03  0.15664315050E+03  0.91585393074E+02 0.  0.
          5    1    3    3  502    0  0.23468015081E+02  0.46370818295E+02  0.10102843229E+03  0.11368912460E+03  0.41800000000E+01 0. -1.
         -5    1    3    3    0  502 -0.17759075064E+02 -0.62325981104E+02  0.29103102556E+03  0.29818860291E+03  0.41800000000E+01 0. -1.
        -11    1    4    4    0    0  0.14047244143E+02  0.27104057347E+02  0.13005410732E+03  0.13358901835E+03  0.00000000000E+00 0.  1.
         11    1    4    4    0    0 -0.19756184160E+02 -0.11148894538E+02 -0.41095434829E+01  0.23054132159E+02  0.00000000000E+00 0. -1.
</event>
<event>
 8    1  0.7026811E-009  0.1090111E+03  0.7561462E-02  0.1262412E+00
         -4   -1    0    0    0  501 -0.00000000000E+00  0.00000000000E+00  0.29606980962E+03  0.29606980962E+03  0.00000000000E+00 0.  1.
          4   -1    0    0  501    0  0.00000000000E+00 -0.00000000000E+00 -0.81802654769E+02  0.81802654769E+02  0.00000000000E+00 0. -1.
         25    2    1    2    0    0 -0.27295885590E+02 -0.95764659399E+02  0.55106467015E+02  0.16911622995E+03  0.12509053187E+03 0.  0.
         23    2    1    2    0    0  0.27295885590E+02  0.95764659399E+02  0.15916068783E+03  0.20875623444E+03  0.91274889792E+02 0.  0.
          5    1    3    3  502    0 -0.61837350716E+01 -0.76012662388E+02 -0.27748379203E+02  0.81262589001E+02  0.41800000000E+01 0. -1.
         -5    1    3    3    0  502 -0.21112150518E+02 -0.19751997011E+02  0.82854846218E+02  0.87853640945E+02  0.41800000000E+01 0. -1.
        -11    1    4    4    0    0  0.21120182839E+02  0.53241941042E+01 -0.39609971724E+01  0.22138172115E+02  0.00000000000E+00 0. -1.
         11    1    4    4    0    0  0.61757027513E+01  0.90440465295E+02  0.16312168501E+03  0.18661806233E+03  0.00000000000E+00 0.  1.
</event>
<event>
 8    1  0.7026811E-009  0.1038496E+03  0.7561462E-02  0.1272403E+00
          1   -1    0    0  501    0  0.00000000000E+00  0.00000000000E+00  0.40577147462E+03  0.40577147462E+03  0.00000000000E+00 0. -1.
         -1   -1    0    0    0  501 -0.00000000000E+00 -0.00000000000E+00 -0.44915249527E+02  0.44915249527E+02  0.00000000000E+00 0.  1.
         25    2    1    2    0    0 -0.22422909708E+02 -0.70571225059E+02  0.15599486704E+03  0.21322541960E+03  0.12509035269E+03 0.  0.
         23    2    1    2    0    0  0.22422909708E+02  0.70571225059E+02  0.20486135805E+03  0.23746130455E+03  0.94533647175E+02 0.  0.
          5    1    3    3  502    0  0.10652346560E+02  0.91396748373E+01  0.11788666609E+03  0.11879286420E+03  0.41800000000E+01 0.  1.
         -5    1    3    3    0  502 -0.33075256268E+02 -0.79710899897E+02  0.38108200951E+02  0.94432555399E+02  0.41800000000E+01 0.  1.
        -11    1    4    4    0    0 -0.62757950299E+01  0.76989258015E+02  0.88628068924E+02  0.11756558193E+03  0.00000000000E+00 0.  1.
         11    1    4    4    0    0  0.28698704737E+02 -0.64180329560E+01  0.11623328913E+03  0.11989572262E+03  0.00000000000E+00 0. -1.
</event>
<event>
 8    1  0.7026811E-009  0.8476554E+02  0.7561462E-02  0.1316047E+00
         -2   -1    0    0    0  501 -0.00000000000E+00  0.00000000000E+00  0.17981367100E+03  0.17981367100E+03  0.00000000000E+00 0.  1.
          2   -1    0    0  501    0  0.00000000000E+00 -0.00000000000E+00 -0.72433811574E+02  0.72433811574E+02  0.00000000000E+00 0. -1.
         25    2    1    2    0    0 -0.28126794002E+01  0.32296847540E+02  0.78539447409E+02  0.15120459985E+03  0.12507353314E+03 0.  0.
         23    2    1    2    0    0  0.28126794002E+01 -0.32296847540E+02  0.28840412019E+02  0.10104288272E+03  0.91251834265E+02 0.  0.
          5    1    3    3  502    0 -0.53270000123E+02  0.49008318606E+02  0.27947882114E+02  0.77704985170E+02  0.41800000000E+01 0. -1.
         -5    1    3    3    0  502  0.50457320723E+02 -0.16711471065E+02  0.50591565294E+02  0.73499614683E+02  0.41800000000E+01 0. -1.
        -11    1    4    4    0    0  0.14150070030E+02 -0.65820172822E+01  0.58285763989E+02  0.60338857439E+02  0.00000000000E+00 0.  1.
         11    1    4    4    0    0 -0.11337390629E+02 -0.25714830258E+02 -0.29445351970E+02  0.40704025282E+02  0.00000000000E+00 0. -1.
</event>
<event>
 8    1  0.7026811E-009  0.1042092E+03  0.7561462E-02  0.1271686E+00
          1   -1    0    0  501    0  0.00000000000E+00  0.00000000000E+00  0.16902723314E+03  0.16902723314E+03  0.00000000000E+00 0. -1.
         -1   -1    0    0    0  501 -0.00000000000E+00 -0.00000000000E+00 -0.82899972861E+02  0.82899972861E+02  0.00000000000E+00 0.  1.
         25    2    1    2    0    0  0.46595652654E+02 -0.10842533373E+02  0.56439699966E+02  0.14533030161E+03  0.12508693559E+03 0.  0.
         23    2    1    2    0    0 -0.46595652654E+02  0.10842533373E+02  0.29687560312E+02  0.10659690440E+03  0.90514271876E+02 0.  0.
          5    1    3    3  502    0  0.14264446613E+02  0.56257948619E+02  0.15425009355E+02  0.60198293444E+02  0.41800000000E+01 0.  1.
         -5    1    3    3    0  502  0.32331206041E+02 -0.67100481992E+02  0.41014690611E+02  0.85132008161E+02  0.41800000000E+01 0.  1.
        -11    1    4    4    0    0 -0.35377029815E+02 -0.21498899388E+02 -0.20224781512E+02  0.46073622612E+02  0.00000000000E+00 0.  1.
         11    1    4    4    0    0 -0.11218622839E+02  0.32341432761E+02  0.49912341824E+02  0.60523281783E+02  0.00000000000E+00 0. -1.
</event>
<event>
 8    1  0.7026811E-009  0.1247840E+03  0.7561462E-02  0.1235407E+00
         -1   -1    0    0    0  501 -0.00000000000E+00  0.00000000000E+00  0.12993296353E+03  0.12993296353E+03  0.00000000000E+00 0.  1.
          1   -1    0    0  501    0  0.00000000000E+00 -0.00000000000E+00 -0.15411428613E+03  0.15411428613E+03  0.00000000000E+00 0. -1.
         25    2    1    2    0    0  0.62055482123E+02  0.60997593045E+02 -0.31319580146E+02  0.15556838435E+03  0.12509603067E+03 0.  0.
         23    2    1    2    0    0 -0.62055482123E+02 -0.60997593045E+02  0.71382575503E+01  0.12847886531E+03  0.94256431571E+02 0.  0.
          5    1    3    3  502    0  0.10350464566E+02  0.88630100492E+02 -0.36642324256E+02  0.96553400545E+02  0.41800000000E+01 0.  1.
         -5    1    3    3    0  502  0.51705017557E+02 -0.27632507447E+02  0.53227441096E+01  0.59014983803E+02  0.41800000000E+01 0.  1.
        -11    1    4    4    0    0 -0.27094112507E+02 -0.60731167679E+02  0.42363671254E+02  0.78848248568E+02  0.00000000000E+00 0.  1.
         11    1    4    4    0    0 -0.34961369616E+02 -0.26642536590E+00 -0.35225413703E+02  0.49630616745E+02  0.00000000000E+00 0. -1.
</event>
<event>
 8    1  0.7026811E-009  0.2248888E+03  0.7561462E-02  0.1130290E+00
          2   -1    0    0  501    0  0.00000000000E+00  0.00000000000E+00  0.95915617236E+03  0.95915617236E+03  0.00000000000E+00 0. -1.
         -2   -1    0    0    0  501 -0.00000000000E+00 -0.00000000000E+00 -0.69268212009E+02  0.69268212009E+02  0.00000000000E+00 0.  1.
         25    2    1    2    0    0  0.20045003918E+03  0.80189347416E+02  0.28040019350E+03  0.37534372932E+03  0.12509235382E+03 0.  0.
         23    2    1    2    0    0 -0.20045003918E+03 -0.80189347416E+02  0.60948776685E+03  0.65308065504E+03  0.91806614150E+02 0.  0.
          5    1    3    3  502    0  0.15846297373E+03  0.22229887256E+02  0.12130239067E+03  0.20083929972E+03  0.41800000000E+01 0. -1.
         -5    1    3    3    0  502  0.41987065450E+02  0.57959460160E+02  0.15909780282E+03  0.17450442960E+03  0.41800000000E+01 0. -1.
        -11    1    4    4    0    0 -0.16819742803E+03 -0.78781821700E+02  0.58120448309E+03  0.61016030794E+03  0.00000000000E+00 0. -1.
         11    1    4    4    0    0 -0.32252611149E+02 -0.14075257156E+01  0.28283283760E+02  0.42920347096E+02  0.00000000000E+00 0.  1.
</event>
<event>
 8    1  0.7026811E-009  0.1874994E+03  0.7561462E-02  0.1160736E+00
         -2   -1    0    0    0  501 -0.00000000000E+00  0.00000000000E+00  0.95163074022E+02  0.95163074022E+02  0.00000000000E+00 0.  1.
          2   -1    0    0  501    0  0.00000000000E+00 -0.00000000000E+00 -0.42706720044E+03  0.42706720044E+03  0.00000000000E+00 0. -1.
         25    2    1    2    0    0  0.94706072706E+02  0.12274010702E+03 -0.84190258547E+02  0.21626549407E+03  0.12509352586E+03 0.  0.
         23    2    1    2    0    0 -0.94706072706E+02 -0.12274010702E+03 -0.24771386787E+03  0.30596478040E+03  0.90652702268E+02 0.  0.
          5    1    3    3  502    0 -0.13822023884E+02 -0.14457163409E+02 -0.23301489055E+02  0.30991768428E+02  0.41800000000E+01 0.  1.
         -5    1    3    3    0  502  0.10852809659E+03  0.13719727043E+03 -0.60888769492E+02  0.18527372564E+03  0.41800000000E+01 0.  1.
        -11    1    4    4    0    0 -0.42870754597E+02 -0.12027686069E+03 -0.17493734580E+03  0.21658139295E+03  0.00000000000E+00 0.  1.
         11    1    4    4    0    0 -0.51835318109E+02 -0.24632463245E+01 -0.72776522072E+02  0.89383387443E+02  0.00000000000E+00 0. -1.
</event>
<event>
 8    1  0.7026811E-009  0.3977842E+03  0.7561462E-02  0.1044550E+00
         -2   -1    0    0    0  501 -0.00000000000E+00  0.00000000000E+00  0.95819382205E+03  0.95819382205E+03  0.00000000000E+00 0.  1.
          2   -1    0    0  501    0  0.00000000000E+00 -0.00000000000E+00 -0.18344601015E+03  0.18344601015E+03  0.00000000000E+00 0. -1.
         25    2    1    2    0    0  0.18919491744E+03  0.34227608421E+03  0.24966802856E+03  0.48055003580E+03  0.12508628147E+03 0.  0.
         23    2    1    2    0    0 -0.18919491744E+03 -0.34227608421E+03  0.52507978334E+03  0.66108979641E+03  0.91560392297E+02 0.  0.
          5    1    3    3  502    0  0.65420955782E+02  0.49225472167E+02  0.10744317776E+02  0.82679872581E+02  0.41800000000E+01 0. -1.
         -5    1    3    3    0  502  0.12377396166E+03  0.29305061204E+03  0.23892371079E+03  0.39787016322E+03  0.41800000000E+01 0. -1.
        -11    1    4    4    0    0 -0.16233944650E+03 -0.32561872344E+03  0.50889523768E+03  0.62558453615E+03  0.00000000000E+00 0.  1.
         11    1    4    4    0    0 -0.26855470944E+02 -0.16657360769E+02  0.16184545657E+02  0.35505260252E+02  0.00000000000E+00 0. -1.
</event>
<event>
 8    1  0.7026811E-009  0.1809766E+03  0.7561462E-02  0.1166861E+00
         -2   -1    0    0    0  501 -0.00000000000E+00  0.00000000000E+00  0.96966095310E+02  0.96966095310E+02  0.00000000000E+00 0.  1.
          2   -1    0    0  501    0  0.00000000000E+00 -0.00000000000E+00 -0.37935026114E+03  0.37935026114E+03  0.00000000000E+00 0. -1.
         25    2    1    2    0    0  0.81457159089E+02  0.11977106667E+03 -0.22652172808E+03  0.29654376864E+03  0.12508291750E+03 0.  0.
         23    2    1    2    0    0 -0.81457159089E+02 -0.11977106667E+03 -0.55862437749E+02  0.17977258781E+03  0.90648740737E+02 0.  0.
          5    1    3    3  502    0  0.89521383425E+02  0.21157722961E+02 -0.10134273585E+03  0.13692899562E+03  0.41800000000E+01 0. -1.
         -5    1    3    3    0  502 -0.80642243363E+01  0.98613343711E+02 -0.12517899223E+03  0.15961477302E+03  0.41800000000E+01 0. -1.
        -11    1    4    4    0    0 -0.47961716206E+00 -0.81101825232E+02 -0.24754944929E+02  0.84797071807E+02  0.00000000000E+00 0. -1.
         11    1    4    4    0    0 -0.80977541927E+02 -0.38669241439E+02 -0.31107492820E+02  0.94975516000E+02  0.00000000000E+00 0.  1.
</event>
<event>
 8    1  0.7026811E-009  0.8834178E+02  0.7561462E-02  0.1306918E+00
          1   -1    0    0  501    0  0.00000000000E+00  0.00000000000E+00  0.62012128448E+03  0.62012128448E+03  0.00000000000E+00 0. -1.
         -1   -1    0    0    0  501 -0.00000000000E+00 -0.00000000000E+00 -0.31260579032E+02  0.31260579032E+02  0.00000000000E+00 0.  1.
         25    2    1    2    0    0  0.23771717504E+02  0.74960302866E+02  0.39766423606E+03  0.42422685585E+03  0.12508972389E+03 0.  0.
         23    2    1    2    0    0 -0.23771717504E+02 -0.74960302866E+02  0.19119646939E+03  0.22715500766E+03  0.94123142964E+02 0.  0.
          5    1    3    3  502    0 -0.25786348212E+01  0.36496728486E+02  0.16765581393E+02  0.40462546474E+02  0.41800000000E+01 0. -1.
         -5    1    3    3    0  502  0.26350352325E+02  0.38463574380E+02  0.38089865467E+03  0.38376430938E+03  0.41800000000E+01 0. -1.
        -11    1    4    4    0    0  0.83461615311E+01 -0.54120948900E+02  0.32012079449E+02  0.63431133939E+02  0.00000000000E+00 0.  1.
         11    1    4    4    0    0 -0.32117879035E+02 -0.20839353967E+02  0.15918438994E+03  0.16372387372E+03  0.00000000000E+00 0. -1.
</event>
<event>
 8    1  0.7026811E-009  0.1236302E+03  0.7561462E-02  0.1237226E+00
          2   -1    0    0  501    0  0.00000000000E+00  0.00000000000E+00  0.10900359380E+04  0.10900359380E+04  0.00000000000E+00 0. -1.
         -2   -1    0    0    0  501 -0.00000000000E+00 -0.00000000000E+00 -0.18539686542E+02  0.18539686542E+02  0.00000000000E+00 0.  1.
         25    2    1    2    0    0 -0.15925124881E+02 -0.73273516116E+02  0.78756177508E+03  0.80095182507E+03  0.12509060220E+03 0.  0.
         23    2    1    2    0    0  0.15925124881E+02  0.73273516116E+02  0.28393447638E+03  0.30762379946E+03  0.91602387280E+02 0.  0.
          5    1    3    3  502    0  0.17316797512E+02  0.30963560447E+02  0.16334770047E+03  0.16720812540E+03  0.41800000000E+01 0.  1.
         -5    1    3    3    0  502 -0.33241922392E+02 -0.10423707656E+03  0.62421407460E+03  0.63374369967E+03  0.41800000000E+01 0.  1.
        -11    1    4    4    0    0 -0.27498363289E+02  0.25716212155E+02  0.38373918796E+02  0.53759103368E+02  0.00000000000E+00 0.  1.
         11    1    4    4    0    0  0.43423488170E+02  0.47557303962E+02  0.24556055758E+03  0.25386469610E+03  0.00000000000E+00 0. -1.
</event>
<event>
 8    1  0.7026811E-009  0.1828154E+03  0.7561462E-02  0.1165106E+00
         -3   -1    0    0    0  501 -0.00000000000E+00  0.00000000000E+00  0.41695974428E+03  0.41695974428E+03  0.00000000000E+00 0.  1.
          3   -1    0    0  501    0  0.00000000000E+00 -0.00000000000E+00 -0.93361188216E+02  0.93361188216E+02  0.00000000000E+00 0. -1.
         25    2    1    2    0    0  0.10831735723E+02  0.16111820999E+03  0.21360874646E+03  0.29555390268E+03  0.12508800398E+03 0.  0.
         23    2    1    2    0    0 -0.10831735723E+02 -0.16111820999E+03  0.10998980961E+03  0.21476702981E+03  0.89166780744E+02 0.  0.
          5    1    3    3  502    0 -0.27780102631E+02  0.14294670067E+03  0.10732394325E+03  0.18094583314E+03  0.41800000000E+01 0.  1.
         -5    1    3    3    0  502  0.38611838354E+02  0.18171509316E+02  0.10628480321E+03  0.11460806955E+03  0.41800000000E+01 0.  1.
        -11    1    4    4    0    0 -0.36160494493E+02 -0.42604700965E+02  0.64451434991E+02  0.85303747741E+02  0.00000000000E+00 0.  1.
         11    1    4    4    0    0  0.25328758770E+02 -0.11851350902E+03  0.45538374616E+02  0.12946328207E+03  0.00000000000E+00 0. -1.
</event>
<event>
 8    1  0.7026811E-009  0.1278110E+03  0.7561462E-02  0.1230740E+00
          2   -1    0    0  501    0  0.00000000000E+00  0.00000000000E+00  0.16663726483E+03  0.16663726483E+03  0.00000000000E+00 0. -1.
         -2   -1    0    0    0  501 -0.00000000000E+00 -0.00000000000E+00 -0.11980713279E+03  0.11980713279E+03  0.00000000000E+00 0.  1.
         25    2    1    2    0    0  0.54890819988E+01  0.82320719011E+02 -0.11401230739E+02  0.15028028263E+03  0.12508934601E+03 0.  0.
         23    2    1    2    0    0 -0.54890819988E+01 -0.82320719011E+02  0.58231362779E+02  0.13616411500E+03  0.91339716457E+02 0.  0.
          5    1    3    3  502    0 -0.31729103571E+02  0.89620374154E+02  0.24094501930E+02  0.98166006846E+02  0.41800000000E+01 0.  1.
         -5    1    3    3    0  502  0.37218185570E+02 -0.72996551425E+01 -0.35495732669E+02  0.52114275780E+02  0.41800000000E+01 0.  1.
        -11    1    4    4    0    0 -0.42761985437E+02 -0.71805697235E+02  0.46794668383E+02  0.95783018030E+02  0.00000000000E+00 0.  1.
         11    1    4    4    0    0  0.37272903438E+02 -0.10515021776E+02  0.11436694397E+02  0.40381096968E+02  0.00000000000E+00 0. -1.
</event>
<event>
 8    1  0.7026811E-009  0.1419099E+03  0.7561462E-02  0.1210782E+00
          2   -1    0    0  501    0  0.00000000000E+00  0.00000000000E+00  0.39211877105E+03  0.39211877105E+03  0.00000000000E+00 0. -1.
         -2   -1    0    0    0  501 -0.00000000000E+00 -0.00000000000E+00 -0.64637388247E+02  0.64637388247E+02  0.00000000000E+00 0.  1.
         25    2    1    2    0    0  0.52208243128E+02  0.98591693480E+02  0.13065144652E+03  0.21251623354E+03  0.12508927359E+03 0.  0.
         23    2    1    2    0    0 -0.52208243128E+02 -0.98591693480E+02  0.19682993628E+03  0.24423992575E+03  0.92005950034E+02 0.  0.
          5    1    3    3  502    0 -0.57200743522E+01  0.84717212405E+02  0.20856632027E+02  0.87533975277E+02  0.41800000000E+01 0.  1.
         -5    1    3    3    0  502  0.57928317480E+02  0.13874481076E+02  0.10979481450E+03  0.12498225827E+03  0.41800000000E+01 0.  1.
        -11    1    4    4    0    0  0.15225729778E+02 -0.58920400626E+02  0.12019265905E+03  0.13472086604E+03  0.00000000000E+00 0.  1.
         11    1    4    4    0    0 -0.67433972906E+02 -0.39671292854E+02  0.76637277223E+02  0.10951905971E+03  0.00000000000E+00 0. -1.
</event>
<event>
 8    1  0.7026811E-009  0.8946152E+02  0.7561462E-02  0.1304161E+00
          2   -1    0    0  501    0  0.00000000000E+00  0.00000000000E+00  0.16184737788E+03  0.16184737788E+03  0.00000000000E+00 0.  1.
         -2   -1    0    0    0  501 -0.00000000000E+00 -0.00000000000E+00 -0.77135339186E+02  0.77135339186E+02  0.00000000000E+00 0. -1.
         25    2    1    2    0    0  0.25633194746E+02 -0.13759298412E+02  0.46924592273E+02  0.13673137886E+03  0.12508866311E+03 0.  0.
         23    2    1    2    0    0 -0.25633194746E+02  0.13759298412E+02  0.37787446419E+02  0.10225133820E+03  0.90449245941E+02 0.  0.
          5    1    3    3  502    0 -0.48668014818E+02  0.22330992538E+01  0.33918612720E+02  0.59510562822E+02  0.41800000000E+01 0.  1.
         -5    1    3    3    0  502  0.74301209564E+02 -0.15992397666E+02  0.13005979553E+02  0.77220816040E+02  0.41800000000E+01 0.  1.
        -11    1    4    4    0    0 -0.37964744153E+02  0.39880912824E+01 -0.19483670210E+02  0.42858372292E+02  0.00000000000E+00 0. -1.
         11    1    4    4    0    0  0.12331549407E+02  0.97712071295E+01  0.57271116629E+02  0.59392965909E+02  0.00000000000E+00 0.  1.
</event>
<event>
 8    1  0.7026811E-009  0.1269873E+03  0.7561462E-02  0.1231996E+00
         -1   -1    0    0    0  501 -0.00000000000E+00  0.00000000000E+00  0.78679341062E+03  0.78679341062E+03  0.00000000000E+00 0.  1.
          1   -1    0    0  501    0  0.00000000000E+00 -0.00000000000E+00 -0.26938295951E+02  0.26938295951E+02  0.00000000000E+00 0. -1.
         25    2    1    2    0    0 -0.40356726191E+02  0.72614856475E+02  0.28328837166E+03  0.32062734588E+03  0.12509200886E+03 0.  0.
         23    2    1    2    0    0  0.40356726191E+02 -0.72614856475E+02  0.47656674302E+03  0.49310436070E+03  0.95574406919E+02 0.  0.
          5    1    3    3  502    0 -0.80380308115E+02  0.74530175589E+02  0.20003065253E+03  0.22813477454E+03  0.41800000000E+01 0. -1.
         -5    1    3    3    0  502  0.40023581925E+02 -0.19153191135E+01  0.83257719129E+02  0.92492571334E+02  0.41800000000E+01 0. -1.
        -11    1    4    4    0    0  0.24015407151E+02  0.51223373906E+01  0.26686966338E+02  0.36265304263E+02  0.00000000000E+00 0. -1.
         11    1    4    4    0    0  0.16341319040E+02 -0.77737193866E+02  0.44987977668E+03  0.45683905643E+03  0.00000000000E+00 0.  1.
</event>
<event>
 8    1  0.7026811E-009  0.8050306E+02  0.7561462E-02  0.1327630E+00
          4   -1    0    0  501    0  0.00000000000E+00  0.00000000000E+00  0.75645679271E+02  0.75645679271E+02  0.00000000000E+00 0. -1.
         -4   -1    0    0    0  501 -0.00000000000E+00 -0.00000000000E+00 -0.27612823403E+03  0.27612823403E+03  0.00000000000E+00 0.  1.
         25    2    1    2    0    0 -0.10920513986E+02  0.29026248730E+02 -0.88467877865E-01  0.12887847747E+03  0.12509146009E+03 0.  0.
         23    2    1    2    0    0  0.10920513986E+02 -0.29026248730E+02 -0.20039408689E+03  0.22289543584E+03  0.92535423044E+02 0.  0.
          5    1    3    3  502    0  0.25026160941E+02  0.60415918348E+02  0.30251415855E+02  0.72173488779E+02  0.41800000000E+01 0.  1.
         -5    1    3    3    0  502 -0.35946674927E+02 -0.31389669619E+02 -0.30339883732E+02  0.56704988687E+02  0.41800000000E+01 0.  1.
        -11    1    4    4    0    0 -0.98060074879E+00 -0.34471369821E+02 -0.20584818504E+03  0.20871682299E+03  0.00000000000E+00 0.  1.
         11    1    4    4    0    0  0.11901114735E+02  0.54451210912E+01  0.54540981537E+01  0.14178612848E+02  0.00000000000E+00 0. -1.
</event>
<event>
 8    1  0.7026811E-009  0.1288136E+03  0.7561462E-02  0.1229227E+00
          1   -1    0    0  501    0  0.00000000000E+00  0.00000000000E+00  0.16904847012E+04  0.16904847012E+04  0.00000000000E+00 0. -1.
         -1   -1    0    0    0  501 -0.00000000000E+00 -0.00000000000E+00 -0.10916634185E+02  0.10916634185E+02  0.00000000000E+00 0.  1.
         25    2    1    2    0    0  0.80095633683E+02  0.13746883608E+01  0.10771459430E+04  0.10873398006E+04  0.12508900527E+03 0.  0.
         23    2    1    2    0    0 -0.80095633683E+02 -0.13746883608E+01  0.60242212407E+03  0.61406153480E+03  0.87988366522E+02 0.  0.
          5    1    3    3  502    0 -0.42829810724E+01 -0.45154844351E+02  0.21223399881E+03  0.21706691721E+03  0.41800000000E+01 0.  1.
         -5    1    3    3    0  502  0.84378614755E+02  0.46529532712E+02  0.86491194416E+03  0.87027288340E+03  0.41800000000E+01 0.  1.
        -11    1    4    4    0    0  0.79883265799E+00 -0.29856738411E+02  0.99738514602E+02  0.10411452472E+03  0.00000000000E+00 0.  1.
         11    1    4    4    0    0 -0.80894466341E+02  0.28482050050E+02  0.50268360947E+03  0.50994701008E+03  0.00000000000E+00 0. -1.
</event>
<event>
 8    1  0.7026811E-009  0.1092151E+03  0.7561462E-02  0.1262030E+00
          1   -1    0    0  501    0  0.00000000000E+00  0.00000000000E+00  0.95634794368E+02  0.95634794368E+02  0.00000000000E+00 0. -1.
         -1   -1    0    0    0  501 -0.00000000000E+00 -0.00000000000E+00 -0.13738548357E+03  0.13738548357E+03  0.00000000000E+00 0.  1.
         25    2    1    2    0    0 -0.18653926128E+02 -0.30092455588E+02 -0.38537465563E+02  0.13559964702E+03  0.12509437707E+03 0.  0.
         23    2    1    2    0    0  0.18653926128E+02  0.30092455588E+02 -0.32132236367E+01  0.97420630920E+02  0.90702423780E+02 0.  0.
          5    1    3    3  502    0 -0.31234457202E+02 -0.74128701063E+02 -0.92524128573E+01  0.81078574122E+02  0.41800000000E+01 0. -1.
         -5    1    3    3    0  502  0.12580531074E+02  0.44036245475E+02 -0.29285052706E+02  0.54521072895E+02  0.41800000000E+01 0. -1.
        -11    1    4    4    0    0 -0.34080206420E+02  0.11081734190E+02  0.14460706299E+02  0.38644240567E+02  0.00000000000E+00 0. -1.
         11    1    4    4    0    0  0.52734132548E+02  0.19010721398E+02 -0.17673929936E+02  0.58776390354E+02  0.00000000000E+00 0.  1.
</event>
<event>
 8    1  0.7026811E-009  0.1022232E+03  0.7561462E-02  0.1275689E+00
         -2   -1    0    0    0  501 -0.00000000000E+00  0.00000000000E+00  0.29157615282E+03  0.29157615282E+03  0.00000000000E+00 0.  1.
          2   -1    0    0  501    0  0.00000000000E+00 -0.00000000000E+00 -0.13306513993E+03  0.13306513993E+03  0.00000000000E+00 0. -1.
         25    2    1    2    0    0 -0.89944696654E+02  0.61929537893E+01  0.23010813828E+03  0.27699995903E+03  0.12510324082E+03 0.  0.
         23    2    1    2    0    0  0.89944696654E+02 -0.61929537893E+01 -0.71597125391E+02  0.14764133372E+03  0.92430589773E+02 0.  0.
          5    1    3    3  502    0 -0.22071522861E+02 -0.28517010356E+02  0.18917614807E+01  0.36351384603E+02  0.41800000000E+01 0. -1.
         -5    1    3    3    0  502 -0.67873173792E+02  0.34709964146E+02  0.22821637680E+03  0.24064857442E+03  0.41800000000E+01 0. -1.
        -11    1    4    4    0    0  0.42988576100E+02 -0.11609858713E+02  0.16644117323E+02  0.47537702258E+02  0.00000000000E+00 0.  1.
         11    1    4    4    0    0  0.46956120553E+02  0.54169049233E+01 -0.88241242714E+02  0.10010363146E+03  0.00000000000E+00 0. -1.
</event>
<event>
 8    1  0.7026811E-009  0.1052899E+03  0.7561462E-02  0.1269550E+00
         -1   -1    0    0    0  501 -0.00000000000E+00  0.00000000000E+00  0.18731055661E+02  0.18731055661E+02  0.00000000000E+00 0.  1.
          1   -1    0    0  501    0  0.00000000000E+00 -0.00000000000E+00 -0.93229920006E+03  0.93229920006E+03  0.00000000000E+00 0. -1.
         25    2    1    2    0    0 -0.52694333907E+02  0.49112514560E+02 -0.59121692176E+03  0.60858327097E+03  0.12508963669E+03 0.  0.
         23    2    1    2    0    0  0.52694333907E+02 -0.49112514560E+02 -0.32235122263E+03  0.34244698475E+03  0.90393001508E+02 0.  0.
          5    1    3    3  502    0  0.11389093961E+02  0.34562960960E+02 -0.43264472693E+02  0.56688594347E+02  0.41800000000E+01 0. -1.
         -5    1    3    3    0  502 -0.64083427868E+02  0.14549553600E+02 -0.54795244907E+03  0.55189467662E+03  0.41800000000E+01 0. -1.
        -11    1    4    4    0    0  0.68005077230E+02 -0.13491958145E+02 -0.14258487828E+03  0.15854706234E+03  0.00000000000E+00 0.  1.
         11    1    4    4    0    0 -0.15310743323E+02 -0.35620556416E+02 -0.17976634435E+03  0.18389992241E+03  0.00000000000E+00 0. -1.
</event>
<event>
 8    1  0.7026811E-009  0.1229457E+03  0.7561462E-02  0.1238315E+00
          2   -1    0    0  501    0  0.00000000000E+00  0.00000000000E+00  0.68274981564E+02  0.68274981564E+02  0.00000000000E+00 0.  1.
         -2   -1    0    0    0  501 -0.00000000000E+00 -0.00000000000E+00 -0.31837680182E+03  0.31837680182E+03  0.00000000000E+00 0. -1.
         25    2    1    2    0    0 -0.10446445427E+02 -0.97213379346E+02 -0.11978404894E+03  0.19888656444E+03  0.12509227710E+03 0.  0.
         23    2    1    2    0    0  0.10446445427E+02  0.97213379346E+02 -0.13031777132E+03  0.18776521894E+03  0.93346058180E+02 0.  0.
          5    1    3    3  502    0  0.10587898876E+02 -0.97916504110E+02 -0.13878159527E+03  0.17022793239E+03  0.41800000000E+01 0. -1.
         -5    1    3    3    0  502 -0.21034344303E+02  0.70312476382E+00  0.18997546329E+02  0.28658632054E+02  0.41800000000E+01 0. -1.
        -11    1    4    4    0    0  0.41669949861E+02  0.28792434274E+02 -0.20451775408E+02  0.54622926599E+02  0.00000000000E+00 0.  1.
         11    1    4    4    0    0 -0.31223504434E+02  0.68420945072E+02 -0.10986599591E+03  0.13314229234E+03  0.00000000000E+00 0. -1.
</event>
<event>
 8    1  0.7026811E-009  0.1077611E+03  0.7561462E-02  0.1264773E+00
         -2   -1    0    0    0  501 -0.00000000000E+00  0.00000000000E+00  0.92621297277E+01  0.92621297277E+01  0.00000000000E+00 0.  1.
          2   -1    0    0  501    0  0.00000000000E+00 -0.00000000000E+00 -0.27944436277E+04  0.27944436277E+04  0.00000000000E+00 0. -1.
         25    2    1    2    0    0  0.84204094667E+02 -0.77666427523E+01 -0.22185227718E+04  0.22236546028E+04  0.12508338667E+03 0.  0.
         23    2    1    2    0    0 -0.84204094667E+02  0.77666427523E+01 -0.56665872617E+03  0.58005115454E+03  0.90590174107E+02 0.  0.
          5    1    3    3  502    0  0.90222934823E+02 -0.11863828506E+02 -0.22093213794E+04  0.22111986248E+04  0.41800000000E+01 0.  1.
         -5    1    3    3    0  502 -0.60188401560E+01  0.40971857535E+01 -0.92013923666E+01  0.12455978059E+02  0.41800000000E+01 0.  1.
        -11    1    4    4    0    0 -0.32228518753E+01  0.31483751055E+02 -0.78270869488E+02  0.84427142348E+02  0.00000000000E+00 0.  1.
         11    1    4    4    0    0 -0.80981242792E+02 -0.23717108303E+02 -0.48838785668E+03  0.49562401220E+03  0.00000000000E+00 0. -1.
</event>
<event>
 8    1  0.7026811E-009  0.1747814E+03  0.7561462E-02  0.1172951E+00
         -2   -1    0    0    0  501 -0.00000000000E+00  0.00000000000E+00  0.40321279280E+03  0.40321279280E+03  0.00000000000E+00 0. -1.
          2   -1    0    0  501    0  0.00000000000E+00 -0.00000000000E+00 -0.84283998093E+02  0.84283998093E+02  0.00000000000E+00 0.  1.
         25    2    1    2    0    0 -0.14727492515E+03 -0.22809707793E+02  0.16885957936E+03  0.25762576786E+03  0.12508913773E+03 0.  0.
         23    2    1    2    0    0  0.14727492515E+03  0.22809707793E+02  0.15006921535E+03  0.22987102303E+03  0.90054047587E+02 0.  0.
          5    1    3    3  502    0 -0.14326317267E+03  0.10839009351E+02  0.17103759788E+03  0.22341251768E+03  0.41800000000E+01 0.  1.
         -5    1    3    3    0  502 -0.40117524780E+01 -0.33648717144E+02 -0.21780185216E+01  0.34213250183E+02  0.41800000000E+01 0.  1.
        -11    1    4    4    0    0  0.12874466190E+03  0.50560356272E+02  0.10432318819E+03  0.17324798754E+03  0.00000000000E+00 0.  1.
         11    1    4    4    0    0  0.18530263252E+02 -0.27750648479E+02  0.45746027160E+02  0.56623035490E+02  0.00000000000E+00 0. -1.
</event>
<event>
 8    1  0.7026811E-009  0.1134483E+03  0.7561462E-02  0.1254314E+00
         -2   -1    0    0    0  501 -0.00000000000E+00  0.00000000000E+00  0.25369036662E+02  0.25369036662E+02  0.00000000000E+00 0.  1.
          2   -1    0    0  501    0  0.00000000000E+00 -0.00000000000E+00 -0.74417747812E+03  0.74417747812E+03  0.00000000000E+00 0. -1.
         25    2    1    2    0    0  0.76732642515E+02 -0.21445839392E+01 -0.49063022670E+03  0.51210992880E+03  0.12508422025E+03 0.  0.
         23    2    1    2    0    0 -0.76732642515E+02  0.21445839392E+01 -0.22817821476E+03  0.25743658598E+03  0.91191010767E+02 0.  0.
          5    1    3    3  502    0  0.10536157787E+03 -0.16088159314E+02 -0.29141804926E+03  0.31032538213E+03  0.41800000000E+01 0. -1.
         -5    1    3    3    0  502 -0.28628935352E+02  0.13943575375E+02 -0.19921217744E+03  0.20178454667E+03  0.41800000000E+01 0. -1.
        -11    1    4    4    0    0 -0.48949959157E+01  0.14426929694E+02  0.25723441491E+01  0.15450379925E+02  0.00000000000E+00 0.  1.
         11    1    4    4    0    0 -0.71837646599E+02 -0.12282345755E+02 -0.23075055891E+03  0.24198620606E+03  0.00000000000E+00 0. -1.
</event>
<event>
 8    1  0.7026811E-009  0.1084985E+03  0.7561462E-02  0.1263376E+00
         -2   -1    0    0    0  501 -0.00000000000E+00  0.00000000000E+00  0.16573604553E+03  0.16573604553E+03  0.00000000000E+00 0.  1.
          2   -1    0    0  501    0  0.00000000000E+00 -0.00000000000E+00 -0.87421142781E+02  0.87421142781E+02  0.00000000000E+00 0. -1.
         25    2    1    2    0    0 -0.46784639135E+02 -0.32880623115E+01  0.64922344658E+02  0.14852804147E+03  0.12508418947E+03 0.  0.
         23    2    1    2    0    0  0.46784639135E+02  0.32880623115E+01  0.13392558088E+02  0.10462914684E+03  0.92565025487E+02 0.  0.
          5    1    3    3  502    0 -0.51108574553E+01  0.47193621638E+02 -0.10268549518E+02  0.48747043976E+02  0.41800000000E+01 0. -1.
         -5    1    3    3    0  502 -0.41673781679E+02 -0.50481683949E+02  0.75190894177E+02  0.99780997494E+02  0.41800000000E+01 0. -1.
        -11    1    4    4    0    0 -0.14718618683E+01  0.41913071747E+02  0.63895168901E+01  0.42422846283E+02  0.00000000000E+00 0.  1.
         11    1    4    4    0    0  0.48256501003E+02 -0.38625009435E+02  0.70030411981E+01  0.62206300557E+02  0.00000000000E+00 0. -1.
</event>
<event>
 8    1  0.7026811E-009  0.9721009E+02  0.7561462E-02  0.1286275E+00
         -1   -1    0    0    0  501 -0.00000000000E+00  0.00000000000E+00  0.86373405947E+02  0.86373405947E+02  0.00000000000E+00 0.  1.
          1   -1    0    0  501    0  0.00000000000E+00 -0.00000000000E+00 -0.16635493979E+03  0.16635493979E+03  0.00000000000E+00 0. -1.
         25    2    1    2    0    0  0.39295688205E+02 -0.32553097375E+02 -0.37658882424E+02  0.14024774494E+03  0.12508950106E+03 0.  0.
         23    2    1    2    0    0 -0.39295688205E+02  0.32553097375E+02 -0.42322651417E+02  0.11248060079E+03  0.90867064833E+02 0.  0.
          5    1    3    3  502    0  0.29975962487E+02  0.31767480076E+02  0.24470287155E+02  0.50239411530E+02  0.41800000000E+01 0. -1.
         -5    1    3    3    0  502  0.93197257175E+01 -0.64320577451E+02 -0.62129169579E+02  0.90008333412E+02  0.41800000000E+01 0. -1.
        -11    1    4    4    0    0  0.16601015877E+02 -0.58468911359E+01  0.15429244685E+02  0.23406013237E+02  0.00000000000E+00 0.  1.
         11    1    4    4    0    0 -0.55896704082E+02  0.38399988511E+02 -0.57751896101E+02  0.89074587555E+02  0.00000000000E+00 0. -1.
</event>
<event>
 8    1  0.7026811E-009  0.9331449E+02  0.7561462E-02  0.1295018E+00
         -2   -1    0    0    0  501 -0.00000000000E+00  0.00000000000E+00  0.29229378487E+03  0.29229378487E+03  0.00000000000E+00 0.  1.
          2   -1    0    0  501    0  0.00000000000E+00 -0.00000000000E+00 -0.55620961611E+02  0.55620961611E+02  0.00000000000E+00 0. -1.
         25    2    1    2    0    0  0.78114157468E+01 -0.41656600268E+02  0.61826929014E+02  0.14583586758E+03  0.12509692467E+03 0.  0.
         23    2    1    2    0    0 -0.78114157468E+01  0.41656600268E+02  0.17484589425E+03  0.20207887890E+03  0.92024431539E+02 0.  0.
          5    1    3    3  502    0 -0.28149807980E+02  0.26415054557E+01  0.80685202990E+02  0.85597684676E+02  0.41800000000E+01 0. -1.
         -5    1    3    3    0  502  0.35961223727E+02 -0.44298105724E+02 -0.18858273976E+02  0.60238182907E+02  0.41800000000E+01 0. -1.
        -11    1    4    4    0    0 -0.47031568726E+02  0.39736727232E+02  0.11613320003E+03  0.13144541109E+03  0.00000000000E+00 0.  1.
         11    1    4    4    0    0  0.39220152979E+02  0.19198730361E+01  0.58712694216E+02  0.70633467806E+02  0.00000000000E+00 0. -1.
</event>
<event>
 8    1  0.7026811E-009  0.1287250E+03  0.7561462E-02  0.1229360E+00
          2   -1    0    0  501    0  0.00000000000E+00  0.00000000000E+00  0.22319090644E+03  0.22319090644E+03  0.00000000000E+00 0. -1.
         -2   -1    0    0    0  501 -0.00000000000E+00 -0.00000000000E+00 -0.24814959553E+03  0.24814959553E+03  0.00000000000E+00 0.  1.
         25    2    1    2    0    0 -0.57413223308E+02  0.85760225440E+02 -0.19418935777E+03  0.25300067664E+03  0.12509492886E+03 0.  0.
         23    2    1    2    0    0  0.57413223308E+02 -0.85760225440E+02  0.16923066868E+03  0.21833982534E+03  0.91554167731E+02 0.  0.
          5    1    3    3  502    0 -0.91250109041E+02  0.67184665327E+02 -0.17774825421E+03  0.21083708385E+03  0.41800000000E+01 0. -1.
         -5    1    3    3    0  502  0.33836885734E+02  0.18575560113E+02 -0.16441103568E+02  0.42163592781E+02  0.41800000000E+01 0. -1.
        -11    1    4    4    0    0  0.10918594946E+02 -0.49231804815E+01 -0.10453714868E+02  0.15897596554E+02  0.00000000000E+00 0.  1.
         11    1    4    4    0    0  0.46494628361E+02 -0.80837044959E+02  0.17968438355E+03  0.20244222879E+03  0.00000000000E+00 0. -1.
</event>
<event>
 8    1  0.7026811E-009  0.1123978E+03  0.7561462E-02  0.1256193E+00
         -2   -1    0    0    0  501 -0.00000000000E+00  0.00000000000E+00  0.38162008151E+03  0.38162008151E+03  0.00000000000E+00 0.  1.
          2   -1    0    0  501    0  0.00000000000E+00 -0.00000000000E+00 -0.54151971242E+02  0.54151971242E+02  0.00000000000E+00 0. -1.
         25    2    1    2    0    0  0.46272199652E+01  0.95235763773E+02  0.18612905827E+03  0.24368433496E+03  0.12508703731E+03 0.  0.
         23    2    1    2    0    0 -0.46272199652E+01 -0.95235763773E+02  0.14133905199E+03  0.19208771779E+03  0.88485602458E+02 0.  0.
          5    1    3    3  502    0 -0.29226201643E+02  0.51421941889E+02  0.17793753374E+03  0.18755699210E+03  0.41800000000E+01 0.  1.
         -5    1    3    3    0  502  0.33853421608E+02  0.43813821884E+02  0.81915245331E+01  0.56127342862E+02  0.41800000000E+01 0.  1.
        -11    1    4    4    0    0  0.23067649266E+02 -0.65000983301E+02  0.13361186079E+03  0.15036413674E+03  0.00000000000E+00 0.  1.
         11    1    4    4    0    0 -0.27694869231E+02 -0.30234780472E+02  0.77271911977E+01  0.41723581051E+02  0.00000000000E+00 0. -1.
</event>
<event>
 8    1  0.7026811E-009  0.7168301E+02  0.7561462E-02  0.1354462E+00
         -1   -1    0    0    0  501 -0.00000000000E+00  0.00000000000E+00  0.15775268305E+03  0.15775268305E+03  0.00000000000E+00 0.  1.
          1   -1    0    0  501    0  0.00000000000E+00 -0.00000000000E+00 -0.23598675075E+03  0.23598675075E+03  0.00000000000E+00 0. -1.
         25    2    1    2    0    0  0.52409115071E+02 -0.15825755950E+02  0.11222287569E+03  0.17673469845E+03  0.12507601655E+03 0.  0.
         23    2    1    2    0    0 -0.52409115071E+02  0.15825755950E+02 -0.19045694339E+03  0.21700473535E+03  0.88430978661E+02 0.  0.
          5    1    3    3  502    0  0.65052215104E+02 -0.60633768097E-01  0.26550500044E+01  0.65240448013E+02  0.41800000000E+01 0. -1.
         -5    1    3    3    0  502 -0.12643100033E+02 -0.15765122182E+02  0.10956782568E+03  0.11149425044E+03  0.41800000000E+01 0. -1.
        -11    1    4    4    0    0 -0.19638150126E+02  0.15086294432E+02 -0.10541597951E+01  0.24786376761E+02  0.00000000000E+00 0.  1.
         11    1    4    4    0    0 -0.32770964944E+02  0.73946151728E+00 -0.18940278359E+03  0.19221835859E+03  0.00000000000E+00 0. -1.
</event>
<event>
 8    1  0.7026811E-009  0.1500817E+03  0.7561462E-02  0.1200373E+00
         -2   -1    0    0    0  501 -0.00000000000E+00  0.00000000000E+00  0.22584167184E+03  0.22584167184E+03  0.00000000000E+00 0.  1.
          2   -1    0    0  501    0  0.00000000000E+00 -0.00000000000E+00 -0.14073759045E+03  0.14073759045E+03  0.00000000000E+00 0. -1.
         25    2    1    2    0    0  0.61411596067E+02 -0.10284005133E+03  0.12268483870E+03  0.21224554927E+03  0.12509653573E+03 0.  0.
         23    2    1    2    0    0 -0.61411596067E+02  0.10284005133E+03 -0.37580757307E+02  0.15433371301E+03  0.89772609200E+02 0.  0.
          5    1    3    3  502    0 -0.19500179444E+02  0.13253329855E+02  0.44469404461E+02  0.50506515260E+02  0.41800000000E+01 0.  1.
         -5    1    3    3    0  502  0.80911775511E+02 -0.11609338118E+03  0.78215434238E+02  0.16173903401E+03  0.41800000000E+01 0.  1.
        -11    1    4    4    0    0  0.12126540017E+02  0.75586218208E+01 -0.30599977636E+02  0.33771946464E+02  0.00000000000E+00 0. -1.
         11    1    4    4    0    0 -0.73538136083E+02  0.95281429509E+02 -0.69807796705E+01  0.12056176655E+03  0.00000000000E+00 0.  1.
</event>
<event>
 8    1  0.7026811E-009  0.9295362E+02  0.7561462E-02  0.1295853E+00
         -2   -1    0    0    0  501 -0.00000000000E+00  0.00000000000E+00  0.45082635232E+02  0.45082635232E+02  0.00000000000E+00 0.  1.
          2   -1    0    0  501    0  0.00000000000E+00 -0.00000000000E+00 -0.48681239345E+03  0.48681239345E+03  0.00000000000E+00 0. -1.
         25    2    1    2    0    0  0.29459304740E+02  0.83242886793E+02 -0.14914387893E+03  0.21374832790E+03  0.12508885729E+03 0.  0.
         23    2    1    2    0    0 -0.29459304740E+02 -0.83242886793E+02 -0.29258587928E+03  0.31814670078E+03  0.88394556551E+02 0.  0.
          5    1    3    3  502    0 -0.85555176465E+01  0.33313556341E+02  0.15159520320E+02  0.37818955229E+02  0.41800000000E+01 0. -1.
         -5    1    3    3    0  502  0.38014822386E+02  0.49929330452E+02 -0.16430339925E+03  0.17592937267E+03  0.41800000000E+01 0. -1.
        -11    1    4    4    0    0 -0.22534237399E+02 -0.59110020754E+02 -0.28497470375E+03  0.29191157597E+03  0.00000000000E+00 0. -1.
         11    1    4    4    0    0 -0.69250673406E+01 -0.24132866039E+02 -0.76111755296E+01  0.26235124811E+02  0.00000000000E+00 0.  1.
</event>
<event>
 8    1  0.7026811E-009  0.2673110E+03  0.7561462E-02  0.1102829E+00
          1   -1    0    0  501    0  0.00000000000E+00  0.00000000000E+00  0.70436530785E+03  0.70436530785E+03  0.00000000000E+00 0. -1.
         -1   -1    0    0    0  501 -0.00000000000E+00 -0.00000000000E+00 -0.10431792848E+03  0.10431792848E+03  0.00000000000E+00 0.  1.
         25    2    1    2    0    0  0.24038519012E+03 -0.54772362163E+02  0.35347199127E+03  0.44874718057E+03  0.12508609903E+03 0.  0.
         23    2    1    2    0    0 -0.24038519012E+03  0.54772362163E+02  0.24657538810E+03  0.35993605576E+03  0.89272005336E+02 0.  0.
          5    1    3    3  502    0  0.18034448003E+03 -0.93132668024E+02  0.28439354598E+03  0.34942093058E+03  0.41800000000E+01 0.  1.
         -5    1    3    3    0  502  0.60040710087E+02  0.38360305861E+02  0.69078445286E+02  0.99326249988E+02  0.41800000000E+01 0.  1.
        -11    1    4    4    0    0 -0.27452251733E+02  0.37676474982E+02  0.28357491755E+02  0.54564551046E+02  0.00000000000E+00 0.  1.
         11    1    4    4    0    0 -0.21293293838E+03  0.17095887182E+02  0.21821789634E+03  0.30537150471E+03  0.00000000000E+00 0. -1.
</event>
<event>
 8    1  0.7026811E-009  0.1113165E+03  0.7561462E-02  0.1258151E+00
          3   -1    0    0  501    0  0.00000000000E+00  0.00000000000E+00  0.19168521445E+03  0.19168521445E+03  0.00000000000E+00 0. -1.
         -3   -1    0    0    0  501 -0.00000000000E+00 -0.00000000000E+00 -0.92024080150E+02  0.92024080150E+02  0.00000000000E+00 0.  1.
         25    2    1    2    0    0 -0.69869756062E+02 -0.26790970903E+02  0.43445652028E+02  0.15210462514E+03  0.12509497742E+03 0.  0.
         23    2    1    2    0    0  0.69869756062E+02  0.26790970903E+02  0.56215482271E+02  0.13160466946E+03  0.92520644409E+02 0.  0.
          5    1    3    3  502    0 -0.32949181043E+02 -0.63564657595E+02  0.63814548254E+02  0.95999391641E+02  0.41800000000E+01 0.  1.
         -5    1    3    3    0  502 -0.36920575020E+02  0.36773686692E+02 -0.20368896227E+02  0.56105233501E+02  0.41800000000E+01 0.  1.
        -11    1    4    4    0    0  0.25055823852E+02  0.43998823674E+02  0.65420790455E+02  0.82725876347E+02  0.00000000000E+00 0. -1.
         11    1    4    4    0    0  0.44813932210E+02 -0.17207852772E+02 -0.92053081838E+01  0.48878793110E+02  0.00000000000E+00 0.  1.
</event>
<event>
 8    1  0.7026811E-009  0.1069096E+03  0.7561462E-02  0.1266402E+00
          2   -1    0    0  501    0  0.00000000000E+00  0.00000000000E+00  0.24191658873E+03  0.24191658873E+03  0.00000000000E+00 0. -1.
         -2   -1    0    0    0  501 -0.00000000000E+00 -0.00000000000E+00 -0.68284322156E+02  0.68284322156E+02  0.00000000000E+00 0.  1.
         25    2    1    2    0    0  0.55391750992E+02  0.18442496656E+02  0.51440340400E+02  0.14731807990E+03  0.12509251090E+03 0.  0.
         23    2    1    2    0    0 -0.55391750992E+02 -0.18442496656E+02  0.12219192617E+03  0.16288283099E+03  0.90507336980E+02 0.  0.
          5    1    3    3  502    0  0.75894994752E+02 -0.36522005719E+01  0.76495389663E+02  0.10789998071E+03  0.41800000000E+01 0. -1.
         -5    1    3    3    0  502 -0.20503243760E+02  0.22094697228E+02 -0.25055049263E+02  0.39418099191E+02  0.41800000000E+01 0. -1.
        -11    1    4    4    0    0  0.25106136968E+02 -0.25096139765E+01  0.35030224623E+02  0.43170973037E+02  0.00000000000E+00 0.  1.
         11    1    4    4    0    0 -0.80497887960E+02 -0.15932882679E+02  0.87161701551E+02  0.11971185795E+03  0.00000000000E+00 0. -1.
</event>
<event>
 8    1  0.7026811E-009  0.1131373E+03  0.7561462E-02  0.1254868E+00
          1   -1    0    0  501    0  0.00000000000E+00  0.00000000000E+00  0.32533904650E+03  0.32533904650E+03  0.00000000000E+00 0. -1.
         -1   -1    0    0    0  501 -0.00000000000E+00 -0.00000000000E+00 -0.70391916406E+02  0.70391916406E+02  0.00000000000E+00 0.  1.
         25    2    1    2    0    0 -0.79393891536E+02 -0.34200793895E+02  0.21522264298E+03  0.26351693717E+03  0.12508919142E+03 0.  0.
         23    2    1    2    0    0  0.79393891536E+02  0.34200793895E+02  0.39724487117E+02  0.13221402574E+03  0.91811924108E+02 0.  0.
          5    1    3    3  502    0  0.26546970256E+02 -0.12131746988E+01  0.99775267940E+02  0.10333823066E+03  0.41800000000E+01 0. -1.
         -5    1    3    3    0  502 -0.10594086179E+03 -0.32987619197E+02  0.11544737504E+03  0.16017870651E+03  0.41800000000E+01 0. -1.
        -11    1    4    4    0    0  0.51313893339E+02  0.31301350609E+02  0.69024622068E+02  0.91527529472E+02  0.00000000000E+00 0. -1.
         11    1    4    4    0    0  0.28079998197E+02  0.28994432864E+01 -0.29300134951E+02  0.40686496265E+02  0.00000000000E+00 0.  1.
</event>
<event>
 8    1  0.7026811E-009  0.1227579E+03  0.7561462E-02  0.1238616E+00
          1   -1    0    0  501    0  0.00000000000E+00  0.00000000000E+00  0.70967982255E+02  0.70967982255E+02  0.00000000000E+00 0. -1.
         -1   -1    0    0    0  501 -0.00000000000E+00 -0.00000000000E+00 -0.28891070141E+03  0.28891070141E+03  0.00000000000E+00 0.  1.
         25    2    1    2    0    0 -0.28471603521E+02  0.51110569591E+02 -0.29644687767E+02  0.14124025689E+03  0.12508828931E+03 0.  0.
         23    2    1    2    0    0  0.28471603521E+02 -0.51110569591E+02 -0.18829803138E+03  0.21863842677E+03  0.94465287307E+02 0.  0.
          5    1    3    3  502    0 -0.65739055801E+02 -0.59992097127E+01  0.14843835068E+01  0.66161089541E+02  0.41800000000E+01 0. -1.
         -5    1    3    3    0  502  0.37267452281E+02  0.57109779304E+02 -0.31129071274E+02  0.75079167350E+02  0.41800000000E+01 0. -1.
        -11    1    4    4    0    0  0.35545190381E+02  0.19189656616E+02 -0.72142315260E+02  0.82681419505E+02  0.00000000000E+00 0.  1.
         11    1    4    4    0    0 -0.70735868607E+01 -0.70300226208E+02 -0.11615571612E+03  0.13595700726E+03  0.00000000000E+00 0. -1.
</event>
<event>
 8    1  0.7026811E-009  0.1043803E+03  0.7561462E-02  0.1271345E+00
          2   -1    0    0  501    0  0.00000000000E+00  0.00000000000E+00  0.16582604183E+02  0.16582604183E+02  0.00000000000E+00 0. -1.
         -2   -1    0    0    0  501 -0.00000000000E+00 -0.00000000000E+00 -0.10074845716E+04  0.10074845716E+04  0.00000000000E+00 0.  1.
         25    2    1    2    0    0 -0.99590906214E+01  0.51239240861E+02 -0.71079947787E+03  0.72360706665E+03  0.12508655355E+03 0.  0.
         23    2    1    2    0    0  0.99590906214E+01 -0.51239240861E+02 -0.28010248955E+03  0.30046010913E+03  0.95363668334E+02 0.  0.
          5    1    3    3  502    0 -0.45482786332E+02  0.94837366899E+00 -0.10292871699E+03  0.11261161772E+03  0.41800000000E+01 0.  1.
         -5    1    3    3    0  502  0.35523695710E+02  0.50290867192E+02 -0.60787076088E+03  0.61099544893E+03  0.41800000000E+01 0.  1.
        -11    1    4    4    0    0  0.42702999613E+02 -0.53603158844E+02 -0.23423194599E+03  0.24405214470E+03  0.00000000000E+00 0.  1.
         11    1    4    4    0    0 -0.32743908991E+02  0.23639179830E+01 -0.45870543565E+02  0.56407964431E+02  0.00000000000E+00 0. -1.
</event>
<event>
 8    1  0.7026811E-009  0.1013033E+03  0.7561462E-02  0.1277579E+00
          1   -1    0    0  501    0  0.00000000000E+00  0.00000000000E+00  0.24065965735E+03  0.24065965735E+03  0.00000000000E+00 0. -1.
         -1   -1    0    0    0  501 -0.00000000000E+00 -0.00000000000E+00 -0.61530414342E+02  0.61530414342E+02  0.00000000000E+00 0.  1.
         25    2    1    2    0    0 -0.55593049105E+02  0.22499314214E+01  0.91084153927E+02  0.16443652046E+03  0.12508955538E+03 0.  0.
         23    2    1    2    0    0  0.55593049105E+02 -0.22499314214E+01  0.88045089080E+02  0.13775355123E+03  0.90157938449E+02 0.  0.
          5    1    3    3  502    0 -0.27937516259E+02  0.63431087194E+02  0.50670136809E+02  0.85958959984E+02  0.41800000000E+01 0.  1.
         -5    1    3    3    0  502 -0.27655532845E+02 -0.61181155772E+02  0.40414017119E+02  0.78477560476E+02  0.41800000000E+01 0.  1.
        -11    1    4    4    0    0  0.37996264278E+02 -0.18216668161E+02  0.10188571098E+03  0.11025543615E+03  0.00000000000E+00 0. -1.
         11    1    4    4    0    0  0.17596784827E+02  0.15966736740E+02 -0.13840621903E+02  0.27498115081E+02  0.00000000000E+00 0.  1.
</event>
<event>
 8    1  0.7026811E-009  0.2690717E+03  0.7561462E-02  0.1101812E+00
          2   -1    0    0  501    0  0.00000000000E+00  0.00000000000E+00  0.22502968468E+04  0.22502968468E+04  0.00000000000E+00 0. -1.
         -2   -1    0    0    0  501 -0.00000000000E+00 -0.00000000000E+00 -0.35095878405E+02  0.35095878405E+02  0.00000000000E+00 0.  1.
         25    2    1    2    0    0 -0.88802719279E+02 -0.24332156892E+03  0.11699017225E+04  0.12047446615E+04  0.12509336613E+03 0.  0.
         23    2    1    2    0    0  0.88802719279E+02  0.24332156892E+03  0.10452992459E+04  0.10806480637E+04  0.89768676437E+02 0.  0.
          5    1    3    3  502    0 -0.62396983034E+02 -0.22484564904E+03  0.79802628981E+03  0.83145197156E+03  0.41800000000E+01 0. -1.
         -5    1    3    3    0  502 -0.26405736244E+02 -0.18475919880E+02  0.37187543274E+03  0.37329268998E+03  0.41800000000E+01 0. -1.
        -11    1    4    4    0    0 -0.61596967310E+01  0.10089974478E+03  0.32903530914E+03  0.34421350210E+03  0.00000000000E+00 0.  1.
         11    1    4    4    0    0  0.94962416010E+02  0.14242182414E+03  0.71626393674E+03  0.73643456160E+03  0.00000000000E+00 0. -1.
</event>
<event>
 8    1  0.7026811E-009  0.1446790E+03  0.7561462E-02  0.1207168E+00
         -2   -1    0    0    0  501 -0.00000000000E+00  0.00000000000E+00  0.90748757473E+02  0.90748757473E+02  0.00000000000E+00 0.  1.
          2   -1    0    0  501    0  0.00000000000E+00 -0.00000000000E+00 -0.33246761892E+03  0.33246761892E+03  0.00000000000E+00 0. -1.
         25    2    1    2    0    0 -0.25774874207E+02 -0.10817713634E+03 -0.33459648835E+02  0.17068660727E+03  0.12509089829E+03 0.  0.
         23    2    1    2    0    0  0.25774874207E+02  0.10817713634E+03 -0.20825921261E+03  0.25252976912E+03  0.89625597281E+02 0.  0.
          5    1    3    3  502    0 -0.74857709424E+02 -0.48625723043E+02 -0.25860683800E+02  0.93028946937E+02  0.41800000000E+01 0.  1.
         -5    1    3    3    0  502  0.49082835217E+02 -0.59551413298E+02 -0.75989650345E+01  0.77657660333E+02  0.41800000000E+01 0.  1.
        -11    1    4    4    0    0  0.15066481294E+01  0.95159903970E+02 -0.89586222486E+02  0.13070336098E+03  0.00000000000E+00 0.  1.
         11    1    4    4    0    0  0.24268226077E+02  0.13017232371E+02 -0.11867299012E+03  0.12182640814E+03  0.00000000000E+00 0. -1.
</event>
<event>
 8    1  0.7026811E-009  0.1579928E+03  0.7561462E-02  0.1190982E+00
         -2   -1    0    0    0  501 -0.00000000000E+00  0.00000000000E+00  0.37037324043E+03  0.37037324043E+03  0.00000000000E+00 0.  1.
          2   -1    0    0  501    0  0.00000000000E+00 -0.00000000000E+00 -0.13056566927E+03  0.13056566927E+03  0.00000000000E+00 0. -1.
         25    2    1    2    0    0 -0.11038345905E+03 -0.44034717667E+02 -0.45647923067E+02  0.17847942813E+03  0.12509040328E+03 0.  0.
         23    2    1    2    0    0  0.11038345905E+03  0.44034717667E+02  0.28545549423E+03  0.32245948157E+03  0.91497069244E+02 0.  0.
          5    1    3    3  502    0 -0.11528457581E+03 -0.77167116613E+02 -0.36640399264E+02  0.14354542335E+03  0.41800000000E+01 0. -1.
         -5    1    3    3    0  502  0.49011167515E+01  0.33132398947E+02 -0.90075238037E+01  0.34934004787E+02  0.41800000000E+01 0. -1.
        -11    1    4    4    0    0  0.12142136887E+03  0.29079420932E+02  0.20620701223E+03  0.24106035227E+03  0.00000000000E+00 0. -1.
         11    1    4    4    0    0 -0.11037909820E+02  0.14955296734E+02  0.79248481996E+02  0.81399129309E+02  0.00000000000E+00 0.  1.
</event>
<event>
 8    1  0.7026811E-009  0.1088876E+03  0.7561462E-02  0.1262644E+00
         -1   -1    0    0    0  501 -0.00000000000E+00  0.00000000000E+00  0.13363116747E+02  0.13363116747E+02  0.00000000000E+00 0.  1.
          1   -1    0    0  501    0  0.00000000000E+00 -0.00000000000E+00 -0.94435908517E+03  0.94435908517E+03  0.00000000000E+00 0. -1.
         25    2    1    2    0    0 -0.11459658786E+02  0.14161893382E+02 -0.56663773093E+03  0.58056683318E+03  0.12509055388E+03 0.  0.
         23    2    1    2    0    0  0.11459658786E+02 -0.14161893382E+02 -0.36435823749E+03  0.37715536873E+03  0.95694116515E+02 0.  0.
          5    1    3    3  502    0 -0.40936313067E+02  0.59352083344E+02 -0.31409938073E+03  0.32229543108E+03  0.41800000000E+01 0.  1.
         -5    1    3    3    0  502  0.29476654281E+02 -0.45190189962E+02 -0.25253835021E+03  0.25827140210E+03  0.41800000000E+01 0.  1.
        -11    1    4    4    0    0  0.61070949115E+01  0.38259686419E+02 -0.22204602742E+03  0.22540083963E+03  0.00000000000E+00 0. -1.
         11    1    4    4    0    0  0.53525638743E+01 -0.52421579801E+02 -0.14231221007E+03  0.15175452910E+03  0.00000000000E+00 0.  1.
</event>
<event>
 8    1  0.7026811E-009  0.1494048E+03  0.7561462E-02  0.1201206E+00
         -2   -1    0    0    0  501 -0.00000000000E+00  0.00000000000E+00  0.51764792347E+02  0.51764792347E+02  0.00000000000E+00 0.  1.
          2   -1    0    0  501    0  0.00000000000E+00 -0.00000000000E+00 -0.53364011815E+03  0.53364011815E+03  0.00000000000E+00 0. -1.
         25    2    1    2    0    0 -0.11026949402E+03 -0.44999605947E+02 -0.32973818869E+03  0.37223469570E+03  0.12508824788E+03 0.  0.
         23    2    1    2    0    0  0.11026949402E+03  0.44999605947E+02 -0.15213713711E+03  0.21317021480E+03  0.90063900321E+02 0.  0.
          5    1    3    3  502    0 -0.11442362780E+03 -0.75048187522E+02 -0.22756502795E+03  0.26557166904E+03  0.41800000000E+01 0.  1.
         -5    1    3    3    0  502  0.41541337775E+01  0.30048581575E+02 -0.10217316073E+03  0.10666302666E+03  0.41800000000E+01 0.  1.
        -11    1    4    4    0    0  0.81701277143E+02  0.57699330257E+02 -0.15193879912E+03  0.18190577252E+03  0.00000000000E+00 0. -1.
         11    1    4    4    0    0  0.28568216874E+02 -0.12699724310E+02 -0.19833799652E+00  0.31264442277E+02  0.00000000000E+00 0.  1.
</event>
<event>
 8    1  0.7026811E-009  0.1331954E+03  0.7561462E-02  0.1222790E+00
          1   -1    0    0  501    0  0.00000000000E+00  0.00000000000E+00  0.40710286148E+03  0.40710286148E+03  0.00000000000E+00 0. -1.
         -1   -1    0    0    0  501 -0.00000000000E+00 -0.00000000000E+00 -0.54875873592E+02  0.54875873592E+02  0.00000000000E+00 0.  1.
         25    2    1    2    0    0  0.29932403508E+02 -0.97903934643E+02  0.19510653938E+03  0.25336709191E+03  0.12508873793E+03 0.  0.
         23    2    1    2    0    0 -0.29932403508E+02  0.97903934643E+02  0.15712044851E+03  0.20861164316E+03  0.91383002375E+02 0.  0.
          5    1    3    3  502    0  0.59281104746E+01 -0.12100583956E+03  0.17885320716E+03  0.21606364297E+03  0.41800000000E+01 0. -1.
         -5    1    3    3    0  502  0.24004293033E+02  0.23101904919E+02  0.16253332218E+02  0.37303448944E+02  0.41800000000E+01 0. -1.
        -11    1    4    4    0    0 -0.28615266762E+02  0.23099683945E+02  0.11918114720E+03  0.12472599864E+03  0.00000000000E+00 0. -1.
         11    1    4    4    0    0 -0.13171367455E+01  0.74804250698E+02  0.37939301312E+02  0.83885644516E+02  0.00000000000E+00 0.  1.
</event>
<event>
 8    1  0.7026811E-009  0.1035815E+03  0.7561462E-02  0.1272940E+00
         -1   -1    0    0    0  501 -0.00000000000E+00  0.00000000000E+00  0.50474889789E+02  0.50474889789E+02  0.00000000000E+00 0.  1.
          1   -1    0    0  501    0  0.00000000000E+00 -0.00000000000E+00 -0.32545119081E+03  0.32545119081E+03  0.00000000000E+00 0. -1.
         25    2    1    2    0    0 -0.18083588487E+01  0.63700575073E+02 -0.12049248295E+03  0.18501026142E+03  0.12509726198E+03 0.  0.
         23    2    1    2    0    0  0.18083588487E+01 -0.63700575073E+02 -0.15448381807E+03  0.19091581918E+03  0.92317747709E+02 0.  0.
          5    1    3    3  502    0  0.41455431162E+02  0.76542034333E+02 -0.47935441059E+02  0.99461121561E+02  0.41800000000E+01 0.  1.
         -5    1    3    3    0  502 -0.43263790011E+02 -0.12841459260E+02 -0.72557041895E+02  0.85549139859E+02  0.41800000000E+01 0.  1.
        -11    1    4    4    0    0 -0.18531074877E+02 -0.27301488821E+02 -0.14425836355E+03  0.14798394333E+03  0.00000000000E+00 0. -1.
         11    1    4    4    0    0  0.20339433725E+02 -0.36399086252E+02 -0.10225454516E+02  0.42931875854E+02  0.00000000000E+00 0.  1.
</event>
<event>
 8    1  0.7026811E-009  0.1121050E+03  0.7561462E-02  0.1256721E+00
          1   -1    0    0  501    0  0.00000000000E+00  0.00000000000E+00  0.22552809196E+03  0.22552809196E+03  0.00000000000E+00 0. -1.
         -1   -1    0    0    0  501 -0.00000000000E+00 -0.00000000000E+00 -0.84270385562E+02  0.84270385562E+02  0.00000000000E+00 0.  1.
         25    2    1    2    0    0  0.83415929393E+02 -0.96202513581E+01  0.95185814797E+02  0.17820961746E+03  0.12509021507E+03 0.  0.
         23    2    1    2    0    0 -0.83415929393E+02  0.96202513581E+01  0.46071891598E+02  0.13158886005E+03  0.90234374727E+02 0.  0.
          5    1    3    3  502    0  0.96096571583E+02  0.23691066409E+02  0.10143421217E+03  0.14178219033E+03  0.41800000000E+01 0. -1.
         -5    1    3    3    0  502 -0.12680642190E+02 -0.33311317767E+02 -0.62483973712E+01  0.36427427132E+02  0.41800000000E+01 0. -1.
        -11    1    4    4    0    0 -0.24541662294E+02 -0.10980217265E+02  0.61685402811E+02  0.67290023624E+02  0.00000000000E+00 0. -1.
         11    1    4    4    0    0 -0.58874267099E+02  0.20600468623E+02 -0.15613511213E+02  0.64298836431E+02  0.00000000000E+00 0.  1.
</event>
<event>
 8    1  0.7026811E-009  0.1389766E+03  0.7561462E-02  0.1214713E+00
          2   -1    0    0  501    0  0.00000000000E+00  0.00000000000E+00  0.35202358330E+03  0.35202358330E+03  0.00000000000E+00 0. -1.
         -2   -1    0    0    0  501 -0.00000000000E+00 -0.00000000000E+00 -0.68817807289E+02  0.68817807289E+02  0.00000000000E+00 0.  1.
         25    2    1    2    0    0 -0.81620975814E+02  0.55122926519E+02  0.20427773237E+03  0.25899396387E+03  0.12509180893E+03 0.  0.
         23    2    1    2    0    0  0.81620975814E+02 -0.55122926519E+02  0.78928043642E+02  0.16184742671E+03  0.10131353680E+03 0.  0.
          5    1    3    3  502    0 -0.98273280548E+02  0.35449561361E+00  0.15376977200E+03  0.18253870416E+03  0.41800000000E+01 0. -1.
         -5    1    3    3    0  502  0.16652304734E+02  0.54768430905E+02  0.50507960367E+02  0.76455259709E+02  0.41800000000E+01 0. -1.
        -11    1    4    4    0    0  0.88056123049E+02 -0.25205942100E+02  0.17542941035E+02  0.93257573975E+02  0.00000000000E+00 0.  1.
         11    1    4    4    0    0 -0.64351472347E+01 -0.29916984419E+02  0.61385102607E+02  0.68589852739E+02  0.00000000000E+00 0. -1.
</event>
<event>
 8    1  0.7026811E-009  0.1009777E+03  0.7561462E-02  0.1278253E+00
          1   -1    0    0  501    0  0.00000000000E+00  0.00000000000E+00  0.17163534454E+03  0.17163534454E+03  0.00000000000E+00 0. -1.
         -1   -1    0    0    0  501 -0.00000000000E+00 -0.00000000000E+00 -0.89832554303E+02  0.89832554303E+02  0.00000000000E+00 0.  1.
         25    2    1    2    0    0  0.56187767684E+02 -0.21578866199E+02  0.31131036817E+02  0.14226742049E+03  0.12509262479E+03 0.  0.
         23    2    1    2    0    0 -0.56187767684E+02  0.21578866199E+02  0.50671753415E+02  0.11920047835E+03  0.89545601456E+02 0.  0.
          5    1    3    3  502    0 -0.24838260439E+02  0.26518843768E+02 -0.12085292594E+02  0.38519020672E+02  0.41800000000E+01 0. -1.
         -5    1    3    3    0  502  0.81026028123E+02 -0.48097709967E+02  0.43216329410E+02  0.10374839982E+03  0.41800000000E+01 0. -1.
        -11    1    4    4    0    0 -0.24438715232E+02 -0.98863873716E+01  0.66694559595E+02  0.71715798378E+02  0.00000000000E+00 0. -1.
         11    1    4    4    0    0 -0.31749052452E+02  0.31465253570E+02 -0.16022806180E+02  0.47484679968E+02  0.00000000000E+00 0.  1.
</event>
<event>
 8    1  0.7026811E-009  0.1623830E+03  0.7561462E-02  0.1186032E+00
          1   -1    0    0  501    0  0.00000000000E+00  0.00000000000E+00  0.26384344243E+04  0.26384344243E+04  0.00000000000E+00 0. -1.
         -1   -1    0    0    0  501 -0.00000000000E+00 -0.00000000000E+00 -0.11958076143E+02  0.11958076143E+02  0.00000000000E+00 0.  1.
         25    2    1    2    0    0  0.27571136794E+02 -0.12041742896E+03  0.18981092211E+04  0.19062336324E+04  0.12509005197E+03 0.  0.
         23    2    1    2    0    0 -0.27571136794E+02  0.12041742896E+03  0.72836712706E+03  0.74415886809E+03  0.89404834316E+02 0.  0.
          5    1    3    3  502    0  0.46713281123E+02  0.62991904938E+01  0.55927866992E+03  0.56127703807E+03  0.41800000000E+01 0.  1.
         -5    1    3    3    0  502 -0.19142144329E+02 -0.12671661946E+03  0.13388305512E+04  0.13449565943E+04  0.41800000000E+01 0.  1.
        -11    1    4    4    0    0 -0.43345473698E+02  0.12539992623E+03  0.68526057684E+03  0.69798712722E+03  0.00000000000E+00 0. -1.
         11    1    4    4    0    0  0.15774336904E+02 -0.49824972669E+01  0.43106550213E+02  0.46171740871E+02  0.00000000000E+00 0.  1.
</event>
<event>
 8    1  0.7026811E-009  0.8872687E+02  0.7561462E-02  0.1305964E+00
          1   -1    0    0  501    0  0.00000000000E+00  0.00000000000E+00  0.27293656031E+03  0.27293656031E+03  0.00000000000E+00 0. -1.
         -1   -1    0    0    0  501 -0.00000000000E+00 -0.00000000000E+00 -0.64417662657E+02  0.64417662657E+02  0.00000000000E+00 0.  1.
         25    2    1    2    0    0  0.38605451654E+02 -0.34575437578E+02  0.17872882379E+03  0.22422568736E+03  0.12508926668E+03 0.  0.
         23    2    1    2    0    0 -0.38605451654E+02  0.34575437578E+02  0.29790073864E+02  0.11312853560E+03  0.96045693741E+02 0.  0.
          5    1    3    3  502    0 -0.11292057283E+02 -0.49603504825E+02  0.16119671711E+03  0.16908539929E+03  0.41800000000E+01 0.  1.
         -5    1    3    3    0  502  0.49897508937E+02  0.15028067247E+02  0.17532106681E+02  0.55140288066E+02  0.41800000000E+01 0.  1.
        -11    1    4    4    0    0 -0.25262488767E+02  0.48599679792E+02  0.57444394743E+02  0.79372417766E+02  0.00000000000E+00 0. -1.
         11    1    4    4    0    0 -0.13342962887E+02 -0.14024242214E+02 -0.27654320879E+02  0.33756117839E+02  0.00000000000E+00 0.  1.
</event>
<event>
 8    1  0.7026811E-009  0.1486642E+03  0.7561462E-02  0.1202124E+00
         -2   -1    0    0    0  501 -0.00000000000E+00  0.00000000000E+00  0.10354053278E+04  0.10354053278E+04  0.00000000000E+00 0.  1.
          2   -1    0    0  501    0  0.00000000000E+00 -0.00000000000E+00 -0.22322761011E+02  0.22322761011E+02  0.00000000000E+00 0. -1.
         25    2    1    2    0    0 -0.82632675396E+02 -0.65571015432E+02  0.47242463162E+03  0.49995837603E+03  0.12508248517E+03 0.  0.
         23    2    1    2    0    0  0.82632675396E+02  0.65571015432E+02  0.54065793521E+03  0.55776971282E+03  0.87569015793E+02 0.  0.
          5    1    3    3  502    0  0.22586288208E+02 -0.52195506624E+02  0.18319487181E+03  0.19186543405E+03  0.41800000000E+01 0.  1.
         -5    1    3    3    0  502 -0.10521896360E+03 -0.13375508807E+02  0.28922975981E+03  0.30809294198E+03  0.41800000000E+01 0.  1.
        -11    1    4    4    0    0  0.62417122913E+02  0.85438992069E+02  0.46722552529E+03  0.47905679212E+03  0.00000000000E+00 0.  1.
         11    1    4    4    0    0  0.20215552483E+02 -0.19867976637E+02  0.73432409925E+02  0.78712920700E+02  0.00000000000E+00 0. -1.
</event>
<event>
 8    1  0.7026811E-009  0.1609142E+03  0.7561462E-02  0.1187669E+00
         -2   -1    0    0    0  501 -0.00000000000E+00  0.00000000000E+00  0.37580399942E+02  0.37580399942E+02  0.00000000000E+00 0.  1.
          2   -1    0    0  501    0  0.00000000000E+00 -0.00000000000E+00 -0.77174946834E+03  0.77174946834E+03  0.00000000000E+00 0. -1.
         25    2    1    2    0    0  0.11709576525E+03 -0.37342070232E+02 -0.50073041920E+03  0.53055446376E+03  0.12510490739E+03 0.  0.
         23    2    1    2    0    0 -0.11709576525E+03  0.37342070232E+02 -0.23343864920E+03  0.27877540452E+03  0.90090370066E+02 0.  0.
          5    1    3    3  502    0  0.14921725797E+02  0.41184537245E+02 -0.16940550788E+03  0.17502720506E+03  0.41800000000E+01 0.  1.
         -5    1    3    3    0  502  0.10217403946E+03 -0.78526607477E+02 -0.33132491132E+03  0.35552725871E+03  0.41800000000E+01 0.  1.
        -11    1    4    4    0    0 -0.92110004374E+01  0.39928666539E+02 -0.39960341382E+02  0.57236088476E+02  0.00000000000E+00 0.  1.
         11    1    4    4    0    0 -0.10788476482E+03 -0.25865963066E+01 -0.19347830781E+03  0.22153931605E+03  0.00000000000E+00 0. -1.
</event>
<event>
 8    1  0.7026811E-009  0.1337988E+03  0.7561462E-02  0.1221925E+00
          2   -1    0    0  501    0  0.00000000000E+00  0.00000000000E+00  0.22395566918E+03  0.22395566918E+03  0.00000000000E+00 0. -1.
         -2   -1    0    0    0  501 -0.00000000000E+00 -0.00000000000E+00 -0.14146864486E+03  0.14146864486E+03  0.00000000000E+00 0.  1.
         25    2    1    2    0    0  0.14395985450E+02  0.89789980472E+02 -0.66576686676E+02  0.16837188776E+03  0.12508857818E+03 0.  0.
         23    2    1    2    0    0 -0.14395985450E+02 -0.89789980472E+02  0.14906371101E+03  0.19705242628E+03  0.91324606611E+02 0.  0.
          5    1    3    3  502    0 -0.51286843427E+02  0.16591864811E+02 -0.10475085784E+02  0.55071136803E+02  0.41800000000E+01 0. -1.
         -5    1    3    3    0  502  0.65682828876E+02  0.73198115661E+02 -0.56101600892E+02  0.11330075096E+03  0.41800000000E+01 0. -1.
        -11    1    4    4    0    0 -0.42634293556E+02 -0.43767227251E+02  0.33937277853E+02  0.69892717763E+02  0.00000000000E+00 0. -1.
         11    1    4    4    0    0  0.28238308106E+02 -0.46022753221E+02  0.11512643315E+03  0.12715970851E+03  0.00000000000E+00 0.  1.
</event>
<event>
 8    1  0.7026811E-009  0.1218777E+03  0.7561462E-02  0.1240031E+00
         -2   -1    0    0    0  501 -0.00000000000E+00  0.00000000000E+00  0.17551975805E+02  0.17551975805E+02  0.00000000000E+00 0.  1.
          2   -1    0    0  501    0  0.00000000000E+00 -0.00000000000E+00 -0.11779042291E+04  0.11779042291E+04  0.00000000000E+00 0. -1.
         25    2    1    2    0    0 -0.26272888244E+02  0.88841881901E+02 -0.56216757106E+03  0.58332054198E+03  0.12508929653E+03 0.  0.
         23    2    1    2    0    0  0.26272888244E+02 -0.88841881901E+02 -0.59818468222E+03  0.61213566291E+03  0.91115372631E+02 0.  0.
          5    1    3    3  502    0  0.19156366084E+02 -0.13565263226E+01 -0.32394475100E+03  0.32454041447E+03  0.41800000000E+01 0. -1.
         -5    1    3    3    0  502 -0.45429254328E+02  0.90198408224E+02 -0.23822282006E+03  0.25878012751E+03  0.41800000000E+01 0. -1.
        -11    1    4    4    0    0 -0.22059704450E+02 -0.20120565682E+00 -0.48850805117E+02  0.53601046675E+02  0.00000000000E+00 0.  1.
         11    1    4    4    0    0  0.48332592694E+02 -0.88640676244E+02 -0.54933387710E+03  0.55853461623E+03  0.00000000000E+00 0. -1.
</event>
<event>
 8    1  0.7026811E-009  0.1211064E+03  0.7561462E-02  0.1241283E+00
          1   -1    0    0  501    0  0.00000000000E+00  0.00000000000E+00  0.11985474797E+04  0.11985474797E+04  0.00000000000E+00 0. -1.
         -1   -1    0    0    0  501 -0.00000000000E+00 -0.00000000000E+00 -0.15647907878E+02  0.15647907878E+02  0.00000000000E+00 0.  1.
         25    2    1    2    0    0 -0.54210337038E+02  0.86372149866E+01  0.92678561865E+03  0.93679870513E+03  0.12508744490E+03 0.  0.
         23    2    1    2    0    0  0.54210337038E+02 -0.86372149866E+01  0.25611395314E+03  0.27739668242E+03  0.91330171895E+02 0.  0.
          5    1    3    3  502    0  0.40847446012E+02 -0.30768677129E-02  0.27980512202E+03  0.28280186096E+03  0.41800000000E+01 0. -1.
         -5    1    3    3    0  502 -0.95057783049E+02  0.86402918543E+01  0.64698049663E+03  0.65399684416E+03  0.41800000000E+01 0. -1.
        -11    1    4    4    0    0  0.20484482150E+02 -0.48942611251E+02  0.11020563832E+03  0.12231220676E+03  0.00000000000E+00 0.  1.
         11    1    4    4    0    0  0.33725854887E+02  0.40305396265E+02  0.14590831482E+03  0.15508447566E+03  0.00000000000E+00 0. -1.
</event>
<event>
 8    1  0.7026811E-009  0.1073194E+03  0.7561462E-02  0.1265616E+00
         -2   -1    0    0    0  501 -0.00000000000E+00  0.00000000000E+00  0.21175877596E+03  0.21175877596E+03  0.00000000000E+00 0.  1.
          2   -1    0    0  501    0  0.00000000000E+00 -0.00000000000E+00 -0.75987015435E+02  0.75987015435E+02  0.00000000000E+00 0. -1.
         25    2    1    2    0    0  0.37212739381E+02  0.14509747997E+02  0.15294101783E+02  0.13219201591E+03  0.12508196817E+03 0.  0.
         23    2    1    2    0    0 -0.37212739381E+02 -0.14509747997E+02  0.12047765874E+03  0.15555377549E+03  0.89926581464E+02 0.  0.
          5    1    3    3  502    0  0.38691975503E+02  0.65768180929E+02  0.23807769138E+02  0.80042519091E+02  0.41800000000E+01 0. -1.
         -5    1    3    3    0  502 -0.14792361216E+01 -0.51258432932E+02 -0.85136673554E+01  0.52149496815E+02  0.41800000000E+01 0. -1.
        -11    1    4    4    0    0  0.17463102574E+02 -0.25591069581E+02  0.82341208085E+02  0.87976913691E+02  0.00000000000E+00 0.  1.
         11    1    4    4    0    0 -0.54675841956E+02  0.11081321584E+02  0.38136450653E+02  0.67576861795E+02  0.00000000000E+00 0. -1.
</event>
<event>
 8    1  0.7026811E-009  0.1745695E+03  0.7561462E-02  0.1173165E+00
         -2   -1    0    0    0  501 -0.00000000000E+00  0.00000000000E+00  0.21054282294E+03  0.21054282294E+03  0.00000000000E+00 0.  1.
          2   -1    0    0  501    0  0.00000000000E+00 -0.00000000000E+00 -0.19054530651E+03  0.19054530651E+03  0.00000000000E+00 0. -1.
         25    2    1    2    0    0  0.15823743077E+03 -0.48500689903E+02  0.38609311484E+02  0.21101971466E+03  0.12508892686E+03 0.  0.
         23    2    1    2    0    0 -0.15823743077E+03  0.48500689903E+02 -0.18611795055E+02  0.19006841479E+03  0.91587127742E+02 0.  0.
          5    1    3    3  502    0  0.12684495877E+03 -0.22455800144E+01 -0.21595083240E+02  0.12875754818E+03  0.41800000000E+01 0.  1.
         -5    1    3    3    0  502  0.31392472006E+02 -0.46255109888E+02  0.60204394724E+02  0.82262166477E+02  0.41800000000E+01 0.  1.
        -11    1    4    4    0    0 -0.85777242319E+02  0.18661841432E+02 -0.55081875101E+02  0.10363403201E+03  0.00000000000E+00 0. -1.
         11    1    4    4    0    0 -0.72460188453E+02  0.29838848471E+02  0.36470080047E+02  0.86434382784E+02  0.00000000000E+00 0.  1.
</event>
<event>
 8    1  0.7026811E-009  0.9329687E+02  0.7561462E-02  0.1295059E+00
         -1   -1    0    0    0  501 -0.00000000000E+00  0.00000000000E+00  0.40074604135E+03  0.40074604135E+03  0.00000000000E+00 0.  1.
          1   -1    0    0  501    0  0.00000000000E+00 -0.00000000000E+00 -0.48281782269E+02  0.48281782269E+02  0.00000000000E+00 0. -1.
         25    2    1    2    0    0 -0.32592909424E+02  0.77080858210E+02  0.14881889865E+03  0.21165453207E+03  0.12508724916E+03 0.  0.
         23    2    1    2    0    0  0.32592909424E+02 -0.77080858210E+02  0.20364536043E+03  0.23737329155E+03  0.88718038020E+02 0.  0.
          5    1    3    3  502    0  0.11712642322E+02  0.35792221938E+02  0.14605034729E+03  0.15088553769E+03  0.41800000000E+01 0. -1.
         -5    1    3    3    0  502 -0.44305551746E+02  0.41288636271E+02  0.27685513604E+01  0.60768994374E+02  0.41800000000E+01 0. -1.
        -11    1    4    4    0    0  0.28459960732E+02 -0.32398040124E+02  0.18293880902E+03  0.18795268079E+03  0.00000000000E+00 0.  1.
         11    1    4    4    0    0  0.41329486921E+01 -0.44682818085E+02  0.20706551405E+02  0.49420610762E+02  0.00000000000E+00 0. -1.
</event>
<event>
 8    1  0.7026811E-009  0.1345697E+03  0.7561462E-02  0.1220828E+00
          2   -1    0    0  501    0  0.00000000000E+00  0.00000000000E+00  0.14227272045E+03  0.14227272045E+03  0.00000000000E+00 0.  1.
         -2   -1    0    0    0  501 -0.00000000000E+00 -0.00000000000E+00 -0.25432786344E+03  0.25432786344E+03  0.00000000000E+00 0. -1.
         25    2    1    2    0    0  0.66568984417E+02 -0.69778186222E+02 -0.18703053742E+03  0.24480127602E+03  0.12508724096E+03 0.  0.
         23    2    1    2    0    0 -0.66568984417E+02  0.69778186222E+02  0.74975394437E+02  0.15179930787E+03  0.90118228685E+02 0.  0.
          5    1    3    3  502    0  0.93300861879E+02 -0.68151582935E+02 -0.97442516715E+02  0.15120253155E+03  0.41800000000E+01 0. -1.
         -5    1    3    3    0  502 -0.26731877462E+02 -0.16266032870E+01 -0.89588020709E+02  0.93598744465E+02  0.41800000000E+01 0. -1.
        -11    1    4    4    0    0  0.81371544607E+01  0.47882072067E+02  0.50802739026E+02  0.70283884360E+02  0.00000000000E+00 0.  1.
         11    1    4    4    0    0 -0.74706138878E+02  0.21896114155E+02  0.24172655411E+02  0.81515423514E+02  0.00000000000E+00 0. -1.
</event>
<event>
 8    1  0.7026811E-009  0.2142214E+03  0.7561462E-02  0.1138266E+00
          2   -1    0    0  501    0  0.00000000000E+00  0.00000000000E+00  0.88957161642E+02  0.88957161642E+02  0.00000000000E+00 0. -1.
         -2   -1    0    0    0  501 -0.00000000000E+00 -0.00000000000E+00 -0.54454308943E+03  0.54454308943E+03  0.00000000000E+00 0.  1.
         25    2    1    2    0    0 -0.86053198332E+02 -0.16532115300E+03 -0.29566879954E+03  0.37121870050E+03  0.12508816094E+03 0.  0.
         23    2    1    2    0    0  0.86053198332E+02  0.16532115300E+03 -0.15991712824E+03  0.26228155057E+03  0.92097162239E+02 0.  0.
          5    1    3    3  502    0 -0.39427304934E+01 -0.13721759713E+03 -0.18933593345E+03  0.23390122312E+03  0.41800000000E+01 0.  1.
         -5    1    3    3    0  502 -0.82110467838E+02 -0.28103555870E+02 -0.10633286609E+03  0.13731747737E+03  0.41800000000E+01 0.  1.
        -11    1    4    4    0    0 -0.50081044803E+01  0.77651894964E+02 -0.37739658856E+02  0.86482251083E+02  0.00000000000E+00 0. -1.
         11    1    4    4    0    0  0.91061302812E+02  0.87669258032E+02 -0.12217746939E+03  0.17579929949E+03  0.00000000000E+00 0.  1.
</event>
<event>
 8    1  0.7026811E-009  0.1049438E+03  0.7561462E-02  0.1270230E+00
         -1   -1    0    0    0  501 -0.00000000000E+00  0.00000000000E+00  0.22447267248E+03  0.22447267248E+03  0.00000000000E+00 0. -1.
          1   -1    0    0  501    0  0.00000000000E+00 -0.00000000000E+00 -0.83680230754E+02  0.83680230754E+02  0.00000000000E+00 0.  1.
         25    2    1    2    0    0 -0.16967023479E+02  0.15315994163E+02  0.16431170134E+03  0.20777066174E+03  0.12509137908E+03 0.  0.
         23    2    1    2    0    0  0.16967023479E+02 -0.15315994163E+02 -0.23519259616E+02  0.10038224149E+03  0.94873490877E+02 0.  0.
          5    1    3    3  502    0  0.28794830500E+02 -0.43602534425E+02  0.65782265210E+02  0.84113626054E+02  0.41800000000E+01 0.  1.
         -5    1    3    3    0  502 -0.45761853979E+02  0.58918528588E+02  0.98529436128E+02  0.12365703568E+03  0.41800000000E+01 0.  1.
        -11    1    4    4    0    0  0.16271458313E+02  0.31750462713E+02  0.15828758896E+02  0.39030780755E+02  0.00000000000E+00 0. -1.
         11    1    4    4    0    0  0.69556516627E+00 -0.47066456877E+02 -0.39348018512E+02  0.61351460738E+02  0.00000000000E+00 0.  1.
</event>
<event>
 8    1  0.7026811E-009  0.2045498E+03  0.7561462E-02  0.1145956E+00
         -1   -1    0    0    0  501 -0.00000000000E+00  0.00000000000E+00  0.52306414224E+02  0.52306414224E+02  0.00000000000E+00 0.  1.
          1   -1    0    0  501    0  0.00000000000E+00 -0.00000000000E+00 -0.98812452440E+03  0.98812452440E+03  0.00000000000E+00 0. -1.
         25    2    1    2    0    0 -0.19276436360E+03 -0.47580359115E+01 -0.36775750543E+03  0.43367339353E+03  0.12508513370E+03 0.  0.
         23    2    1    2    0    0  0.19276436360E+03  0.47580359115E+01 -0.56806060475E+03  0.60675754510E+03  0.91000709246E+02 0.  0.
          5    1    3    3  502    0 -0.17265278196E+03 -0.38142482985E+02 -0.22819855790E+03  0.28871419493E+03  0.41800000000E+01 0. -1.
         -5    1    3    3    0  502 -0.20111581647E+02  0.33384447073E+02 -0.13955894753E+03  0.14495919860E+03  0.41800000000E+01 0. -1.
        -11    1    4    4    0    0  0.79573861283E+02 -0.25059931727E+01 -0.11604935414E+03  0.14073283908E+03  0.00000000000E+00 0.  1.
         11    1    4    4    0    0  0.11319050232E+03  0.72640290842E+01 -0.45201125061E+03  0.46602470601E+03  0.00000000000E+00 0. -1.
</event>
<event>
 8    1  0.7026811E-009  0.8866597E+02  0.7561462E-02  0.1306115E+00
          1   -1    0    0  501    0  0.00000000000E+00  0.00000000000E+00  0.25740428199E+03  0.25740428199E+03  0.00000000000E+00 0. -1.
         -1   -1    0    0    0  501 -0.00000000000E+00 -0.00000000000E+00 -0.59326036692E+02  0.59326036692E+02  0.00000000000E+00 0.  1.
         25    2    1    2    0    0 -0.40911387376E+02  0.55846114935E+01  0.74254194920E+02  0.15121912366E+03  0.12509439793E+03 0.  0.
         23    2    1    2    0    0  0.40911387376E+02 -0.55846114935E+01  0.12382405038E+03  0.16551119502E+03  0.10176753276E+03 0.  0.
          5    1    3    3  502    0 -0.38310102935E+02 -0.54750815213E+02  0.57890613351E+02  0.88510515011E+02  0.41800000000E+01 0. -1.
         -5    1    3    3    0  502 -0.26012844411E+01  0.60335426706E+02  0.16363581569E+02  0.62708608646E+02  0.41800000000E+01 0. -1.
        -11    1    4    4    0    0  0.17722531508E+02  0.11423136365E+02 -0.13613107749E+02  0.25097666625E+02  0.00000000000E+00 0.  1.
         11    1    4    4    0    0  0.23188855869E+02 -0.17007747858E+02  0.13743715812E+03  0.14041352840E+03  0.00000000000E+00 0. -1.
</event>
<event>
 8    1  0.7026811E-009  0.9786050E+02  0.7561462E-02  0.1284860E+00
          1   -1    0    0  501    0  0.00000000000E+00  0.00000000000E+00  0.24763604202E+02  0.24763604202E+02  0.00000000000E+00 0. -1.
         -1   -1    0    0    0  501 -0.00000000000E+00 -0.00000000000E+00 -0.54179790655E+03  0.54179790655E+03  0.00000000000E+00 0.  1.
         25    2    1    2    0    0  0.23517801359E+02 -0.26913637207E+02 -0.33416151685E+03  0.35859498372E+03  0.12509601177E+03 0.  0.
         23    2    1    2    0    0 -0.23517801359E+02  0.26913637207E+02 -0.18287278550E+03  0.20796652703E+03  0.92359026844E+02 0.  0.
          5    1    3    3  502    0  0.61732046548E+02  0.14174447823E+02 -0.24560103525E+03  0.25367124681E+03  0.41800000000E+01 0.  1.
         -5    1    3    3    0  502 -0.38214245189E+02 -0.41088085030E+02 -0.88560481595E+02  0.10492373691E+03  0.41800000000E+01 0.  1.
        -11    1    4    4    0    0  0.15182246203E+02  0.33445249830E+02 -0.15632881068E+03  0.16058574776E+03  0.00000000000E+00 0.  1.
         11    1    4    4    0    0 -0.38700047562E+02 -0.65316126233E+01 -0.26543974824E+02  0.47380779270E+02  0.00000000000E+00 0. -1.
</event>
<event>
 8    1  0.7026811E-009  0.1186070E+03  0.7561462E-02  0.1245413E+00
          1   -1    0    0  501    0  0.00000000000E+00  0.00000000000E+00  0.70108510864E+02  0.70108510864E+02  0.00000000000E+00 0. -1.
         -1   -1    0    0    0  501 -0.00000000000E+00 -0.00000000000E+00 -0.31116924877E+03  0.31116924877E+03  0.00000000000E+00 0.  1.
         25    2    1    2    0    0 -0.31451659717E+02  0.80950545763E+02 -0.19815647592E+03  0.24990943568E+03  0.12508612767E+03 0.  0.
         23    2    1    2    0    0  0.31451659717E+02 -0.80950545763E+02 -0.42904261982E+02  0.13136832395E+03  0.88739298406E+02 0.  0.
          5    1    3    3  502    0  0.24731545824E+02  0.68571758256E+02 -0.43841815187E+02  0.85166381560E+02  0.41800000000E+01 0.  1.
         -5    1    3    3    0  502 -0.56183205541E+02  0.12378787507E+02 -0.15431466073E+03  0.16474305412E+03  0.41800000000E+01 0.  1.
        -11    1    4    4    0    0  0.46054699783E+02 -0.33719213659E+02 -0.56274332821E+02  0.80154982854E+02  0.00000000000E+00 0.  1.
         11    1    4    4    0    0 -0.14603040066E+02 -0.47231332105E+02  0.13370070839E+02  0.51213341092E+02  0.00000000000E+00 0. -1.
</event>
<event>
 8    1  0.7026811E-009  0.9069240E+02  0.7561462E-02  0.1301184E+00
         -2   -1    0    0    0  501 -0.00000000000E+00  0.00000000000E+00  0.20623780151E+02  0.20623780151E+02  0.00000000000E+00 0.  1.
          2   -1    0    0  501    0  0.00000000000E+00 -0.00000000000E+00 -0.18110150086E+04  0.18110150086E+04  0.00000000000E+00 0. -1.
         25    2    1    2    0    0  0.53267878458E+02  0.27733893930E+02 -0.16500332754E+04  0.16558578307E+04  0.12509480313E+03 0.  0.
         23    2    1    2    0    0 -0.53267878458E+02 -0.27733893930E+02 -0.14035795305E+03  0.17578095806E+03  0.87131822463E+02 0.  0.
          5    1    3    3  502    0  0.36074318532E+02  0.65238961516E+02 -0.55021895726E+03  0.55526196690E+03  0.41800000000E+01 0. -1.
         -5    1    3    3    0  502  0.17193559926E+02 -0.37505067586E+02 -0.10998143182E+04  0.11005958638E+04  0.41800000000E+01 0. -1.
        -11    1    4    4    0    0 -0.12504618301E+02 -0.20258011459E+02  0.52597417447E+01  0.24380676577E+02  0.00000000000E+00 0.  1.
         11    1    4    4    0    0 -0.40763260157E+02 -0.74758824705E+01 -0.14561769479E+03  0.15140028148E+03  0.00000000000E+00 0. -1.
</event>
<event>
 8    1  0.7026811E-009  0.9791678E+02  0.7561462E-02  0.1284739E+00
          1   -1    0    0  501    0  0.00000000000E+00  0.00000000000E+00  0.14555348770E+03  0.14555348770E+03  0.00000000000E+00 0. -1.
         -1   -1    0    0    0  501 -0.00000000000E+00 -0.00000000000E+00 -0.10594503111E+03  0.10594503111E+03  0.00000000000E+00 0.  1.
         25    2    1    2    0    0  0.19695373679E+02 -0.12101395212E+02  0.77777196932E+02  0.14909777147E+03  0.12508597676E+03 0.  0.
         23    2    1    2    0    0 -0.19695373679E+02  0.12101395212E+02 -0.38168740348E+02  0.10240074734E+03  0.92166744580E+02 0.  0.
          5    1    3    3  502    0  0.54897256534E+02  0.23520352759E+02  0.78638839912E+02  0.98835496213E+02  0.41800000000E+01 0.  1.
         -5    1    3    3    0  502 -0.35201882855E+02 -0.35621747971E+02 -0.86164298029E+00  0.50262275253E+02  0.41800000000E+01 0.  1.
        -11    1    4    4    0    0 -0.13968189364E+02 -0.35299815060E+02 -0.39300067633E+02  0.54641399811E+02  0.00000000000E+00 0. -1.
         11    1    4    4    0    0 -0.57271843149E+01  0.47401210272E+02  0.11313272843E+01  0.47759347534E+02  0.00000000000E+00 0.  1.
</event>
<event>
 8    1  0.7026811E-009  0.1198677E+03  0.7561462E-02  0.1243316E+00
          4   -1    0    0  501    0  0.00000000000E+00  0.00000000000E+00  0.46372363654E+02  0.46372363654E+02  0.00000000000E+00 0.  1.
         -4   -1    0    0    0  501 -0.00000000000E+00 -0.00000000000E+00 -0.34424136510E+03  0.34424136510E+03  0.00000000000E+00 0. -1.
         25    2    1    2    0    0  0.17691037415E+02  0.60581642146E+02 -0.19479522144E+03  0.23995056297E+03  0.12509191102E+03 0.  0.
         23    2    1    2    0    0 -0.17691037415E+02 -0.60581642146E+02 -0.10307378001E+03  0.15066316579E+03  0.89955973847E+02 0.  0.
          5    1    3    3  502    0  0.69352431458E+02  0.52063292862E+02 -0.13324550301E+03  0.15903516179E+03  0.41800000000E+01 0.  1.
         -5    1    3    3    0  502 -0.51661394043E+02  0.85183492843E+01 -0.61549718423E+02  0.80915401173E+02  0.41800000000E+01 0.  1.
        -11    1    4    4    0    0 -0.41047369350E+02 -0.64749299808E+02 -0.47372009229E+02  0.90119174511E+02  0.00000000000E+00 0.  1.
         11    1    4    4    0    0  0.23356331935E+02  0.41676576619E+01 -0.55701770784E+02  0.60543991282E+02  0.00000000000E+00 0. -1.
</event>
<event>
 8    1  0.7026811E-009  0.1199135E+03  0.7561462E-02  0.1243240E+00
          1   -1    0    0  501    0  0.00000000000E+00  0.00000000000E+00  0.72203691443E+03  0.72203691443E+03  0.00000000000E+00 0. -1.
         -1   -1    0    0    0  501 -0.00000000000E+00 -0.00000000000E+00 -0.27175980069E+02  0.27175980069E+02  0.00000000000E+00 0.  1.
         25    2    1    2    0    0 -0.76906580245E+02 -0.20651685325E+02  0.28835578550E+03  0.32424903918E+03  0.12508903305E+03 0.  0.
         23    2    1    2    0    0  0.76906580245E+02  0.20651685325E+02  0.40650514887E+03  0.42496385532E+03  0.94903783289E+02 0.  0.
          5    1    3    3  502    0 -0.68125725132E+02  0.31047218700E+02  0.24456593564E+03  0.25580268468E+03  0.41800000000E+01 0.  1.
         -5    1    3    3    0  502 -0.87808551134E+01 -0.51698904025E+02  0.43789849854E+02  0.68446354499E+02  0.41800000000E+01 0.  1.
        -11    1    4    4    0    0  0.41908369835E+02 -0.29379378765E+02  0.98907923054E+02  0.11136532944E+03  0.00000000000E+00 0.  1.
         11    1    4    4    0    0  0.34998210410E+02  0.50031064090E+02  0.30759722581E+03  0.31359852588E+03  0.00000000000E+00 0. -1.
</event>
<event>
 8    1  0.7026811E-009  0.1057864E+03  0.7561462E-02  0.1268578E+00
         -1   -1    0    0    0  501 -0.00000000000E+00  0.00000000000E+00  0.33963904004E+02  0.33963904004E+02  0.00000000000E+00 0. -1.
          1   -1    0    0  501    0  0.00000000000E+00 -0.00000000000E+00 -0.46873311687E+03  0.46873311687E+03  0.00000000000E+00 0.  1.
         25    2    1    2    0    0  0.49809152708E+02 -0.65300897911E+00 -0.35183800516E+03  0.37672059383E+03  0.12508815222E+03 0.  0.
         23    2    1    2    0    0 -0.49809152708E+02  0.65300897911E+00 -0.82931207710E+02  0.12597642705E+03  0.80691367852E+02 0.  0.
          5    1    3    3  502    0  0.89740129424E+02  0.10721945758E+01 -0.19314710912E+03  0.21302046520E+03  0.41800000000E+01 0.  1.
         -5    1    3    3    0  502 -0.39930976716E+02 -0.17252035549E+01 -0.15869089603E+03  0.16370012863E+03  0.41800000000E+01 0.  1.
        -11    1    4    4    0    0 -0.52241361865E+02 -0.23488676778E+02 -0.84021323691E+02  0.10168805565E+03  0.00000000000E+00 0.  1.
         11    1    4    4    0    0  0.24322091575E+01  0.24141685757E+02  0.10901159812E+01  0.24288371404E+02  0.00000000000E+00 0. -1.
</event>
<event>
 8    1  0.7026811E-009  0.1093060E+03  0.7561462E-02  0.1261860E+00
         -2   -1    0    0    0  501 -0.00000000000E+00  0.00000000000E+00  0.68263540313E+02  0.68263540313E+02  0.00000000000E+00 0.  1.
          2   -1    0    0  501    0  0.00000000000E+00 -0.00000000000E+00 -0.43895096835E+03  0.43895096835E+03  0.00000000000E+00 0. -1.
         25    2    1    2    0    0 -0.49969443246E+01  0.63238002209E+02 -0.37057269327E+03  0.39622717551E+03  0.12509132360E+03 0.  0.
         23    2    1    2    0    0  0.49969443246E+01 -0.63238002209E+02 -0.11473476765E+00  0.11098733315E+03  0.91072282173E+02 0.  0.
          5    1    3    3  502    0  0.13005480779E+02  0.88161875857E+02 -0.34398469233E+03  0.35536544548E+03  0.41800000000E+01 0.  1.
         -5    1    3    3    0  502 -0.18002425103E+02 -0.24923873647E+02 -0.26588000943E+02  0.40861730034E+02  0.41800000000E+01 0.  1.
        -11    1    4    4    0    0 -0.34484936625E+02 -0.20202004377E+02 -0.25390058388E+02  0.47349624073E+02  0.00000000000E+00 0. -1.
         11    1    4    4    0    0  0.39481880950E+02 -0.43035997832E+02  0.25275323620E+02  0.63637709079E+02  0.00000000000E+00 0.  1.
</event>
<event>
 8    1  0.7026811E-009  0.1013826E+03  0.7561462E-02  0.1277415E+00
          4   -1    0    0  501    0  0.00000000000E+00  0.00000000000E+00  0.10878137248E+03  0.10878137248E+03  0.00000000000E+00 0. -1.
         -4   -1    0    0    0  501 -0.00000000000E+00 -0.00000000000E+00 -0.13522003588E+03  0.13522003588E+03  0.00000000000E+00 0.  1.
         25    2    1    2    0    0  0.39280849665E+02  0.34229403473E+02 -0.51739826890E+02  0.14504660357E+03  0.12508745064E+03 0.  0.
         23    2    1    2    0    0 -0.39280849665E+02 -0.34229403473E+02  0.25301163497E+02  0.98954804791E+02  0.80232582561E+02 0.  0.
          5    1    3    3  502    0 -0.32909547858E+02 -0.21261580625E+02  0.16041775384E+01  0.39435249923E+02  0.41800000000E+01 0. -1.
         -5    1    3    3    0  502  0.72190397523E+02  0.55490984098E+02 -0.53344004429E+02  0.10561135365E+03  0.41800000000E+01 0. -1.
        -11    1    4    4    0    0 -0.28097131207E+02  0.74430501087E+01  0.43343600060E+02  0.52187311131E+02  0.00000000000E+00 0. -1.
         11    1    4    4    0    0 -0.11183718458E+02 -0.41672453582E+02 -0.18042436562E+02  0.46767493660E+02  0.00000000000E+00 0.  1.
</event>
<event>
 8    1  0.7026811E-009  0.2177124E+03  0.7561462E-02  0.1135600E+00
          2   -1    0    0  501    0  0.00000000000E+00  0.00000000000E+00  0.71405908741E+02  0.71405908741E+02  0.00000000000E+00 0. -1.
         -2   -1    0    0    0  501 -0.00000000000E+00 -0.00000000000E+00 -0.74496131926E+03  0.74496131926E+03  0.00000000000E+00 0.  1.
         25    2    1    2    0    0 -0.16476230548E+03 -0.10689278776E+03 -0.44070257481E+03  0.49843619014E+03  0.12508873176E+03 0.  0.
         23    2    1    2    0    0  0.16476230548E+03  0.10689278776E+03 -0.23285283571E+03  0.31793103786E+03  0.91033050891E+02 0.  0.
          5    1    3    3  502    0  0.40247189234E+01 -0.53849887795E+02 -0.13063939250E+03  0.14142182311E+03  0.41800000000E+01 0. -1.
         -5    1    3    3    0  502 -0.16878702440E+03 -0.53042899969E+02 -0.31006318230E+03  0.35701436703E+03  0.41800000000E+01 0. -1.
        -11    1    4    4    0    0  0.88071461519E+02  0.23835913140E+02 -0.15766615408E+03  0.18216297437E+03  0.00000000000E+00 0.  1.
         11    1    4    4    0    0  0.76690843962E+02  0.83056874625E+02 -0.75186681635E+02  0.13576806350E+03  0.00000000000E+00 0. -1.
</event>
<event>
 8    1  0.7026811E-009  0.1585383E+03  0.7561462E-02  0.1190357E+00
          2   -1    0    0  501    0  0.00000000000E+00  0.00000000000E+00  0.12911040171E+04  0.12911040171E+04  0.00000000000E+00 0.  1.
         -2   -1    0    0    0  501 -0.00000000000E+00 -0.00000000000E+00 -0.24432906434E+02  0.24432906434E+02  0.00000000000E+00 0. -1.
         25    2    1    2    0    0 -0.12896651195E+03 -0.51185847217E+02  0.60369480997E+03  0.63194145832E+03  0.12510088329E+03 0.  0.
         23    2    1    2    0    0  0.12896651195E+03  0.51185847217E+02  0.66297630069E+03  0.68359546521E+03  0.92265012948E+02 0.  0.
          5    1    3    3  502    0 -0.14248586192E+03 -0.59937583558E+02  0.42118377496E+03  0.44867357785E+03  0.41800000000E+01 0.  1.
         -5    1    3    3    0  502  0.13519349966E+02  0.87517363412E+01  0.18251103500E+03  0.18326788047E+03  0.41800000000E+01 0.  1.
        -11    1    4    4    0    0  0.11298397617E+03  0.25941151659E+02  0.62296562977E+03  0.63365960744E+03  0.00000000000E+00 0.  1.
         11    1    4    4    0    0  0.15982535782E+02  0.25244695558E+02  0.40010670918E+02  0.49935857769E+02  0.00000000000E+00 0. -1.
</event>
<event>
 8    1  0.7026811E-009  0.9992244E+02  0.7561462E-02  0.1280459E+00
         -1   -1    0    0    0  501 -0.00000000000E+00  0.00000000000E+00  0.64294810771E+02  0.64294810771E+02  0.00000000000E+00 0.  1.
          1   -1    0    0  501    0  0.00000000000E+00 -0.00000000000E+00 -0.26358743748E+03  0.26358743748E+03  0.00000000000E+00 0. -1.
         25    2    1    2    0    0 -0.29135317254E+01  0.63878549198E+02 -0.15023352845E+03  0.20568618676E+03  0.12509091349E+03 0.  0.
         23    2    1    2    0    0  0.29135317254E+01 -0.63878549198E+02 -0.49059098259E+02  0.12219606149E+03  0.91848378358E+02 0.  0.
          5    1    3    3  502    0  0.52119116404E+00 -0.20961959277E+02 -0.10922738023E+03  0.11130035207E+03  0.41800000000E+01 0.  1.
         -5    1    3    3    0  502 -0.34347228895E+01  0.84840508475E+02 -0.41006148213E+02  0.94385834694E+02  0.41800000000E+01 0.  1.
        -11    1    4    4    0    0 -0.53250042418E+01 -0.77418616342E+02 -0.77941594896E+01  0.77991965924E+02  0.00000000000E+00 0.  1.
         11    1    4    4    0    0  0.82385359672E+01  0.13540067145E+02 -0.41264938769E+02  0.44204095566E+02  0.00000000000E+00 0. -1.
</event>
<event>
 8    1  0.7026811E-009  0.8525823E+02  0.7561462E-02  0.1314759E+00
          2   -1    0    0  501    0  0.00000000000E+00  0.00000000000E+00  0.66134930382E+02  0.66134930382E+02  0.00000000000E+00 0. -1.
         -2   -1    0    0    0  501 -0.00000000000E+00 -0.00000000000E+00 -0.31495014985E+03  0.31495014985E+03  0.00000000000E+00 0.  1.
         25    2    1    2    0    0 -0.26873953300E+00  0.54487053087E+02 -0.24436817657E+03  0.27987166360E+03  0.12507370304E+03 0.  0.
         23    2    1    2    0    0  0.26873953300E+00 -0.54487053087E+02 -0.44470429003E+01  0.10121341663E+03  0.85179036978E+02 0.  0.
          5    1    3    3  502    0  0.12440706758E+02 -0.16554071657E+01 -0.21446077214E+03  0.21486834747E+03  0.41800000000E+01 0.  1.
         -5    1    3    3    0  502 -0.12709446291E+02  0.56142460253E+02 -0.29907404425E+02  0.65003316129E+02  0.41800000000E+01 0.  1.
        -11    1    4    4    0    0 -0.34019700068E+02  0.13529102118E+01  0.68248957182E+01  0.34723904739E+02  0.00000000000E+00 0.  1.
         11    1    4    4    0    0  0.34288439601E+02 -0.55839963299E+02 -0.11271938618E+02  0.66489511892E+02  0.00000000000E+00 0. -1.
</event>
<event>
 8    1  0.7026811E-009  0.7971776E+02  0.7561462E-02  0.1329854E+00
          1   -1    0    0  501    0  0.00000000000E+00  0.00000000000E+00  0.71837748010E+02  0.71837748010E+02  0.00000000000E+00 0. -1.
         -1   -1    0    0    0  501 -0.00000000000E+00 -0.00000000000E+00 -0.22678405726E+03  0.22678405726E+03  0.00000000000E+00 0.  1.
         25    2    1    2    0    0  0.28952216887E+02  0.59566057010E+02 -0.10390934129E+03  0.17558067238E+03  0.12508027540E+03 0.  0.
         23    2    1    2    0    0 -0.28952216887E+02 -0.59566057010E+02 -0.51036967952E+02  0.12304113289E+03  0.90266285371E+02 0.  0.
          5    1    3    3  502    0 -0.11885492743E+01  0.33814225233E+02 -0.12563697274E+03  0.13018039713E+03  0.41800000000E+01 0.  1.
         -5    1    3    3    0  502  0.30140766161E+02  0.25751831777E+02  0.21727631442E+02  0.45400275250E+02  0.41800000000E+01 0.  1.
        -11    1    4    4    0    0 -0.40512017655E+02 -0.61614468731E+02 -0.32265192752E+01  0.73810410906E+02  0.00000000000E+00 0. -1.
         11    1    4    4    0    0  0.11559800768E+02  0.20484117208E+01 -0.47810448676E+02  0.49230721984E+02  0.00000000000E+00 0.  1.
</event>
<event>
 8    1  0.7026811E-009  0.1068893E+03  0.7561462E-02  0.1266441E+00
          1   -1    0    0  501    0  0.00000000000E+00  0.00000000000E+00  0.34716035992E+03  0.34716035992E+03  0.00000000000E+00 0. -1.
         -1   -1    0    0    0  501 -0.00000000000E+00 -0.00000000000E+00 -0.51274668950E+02  0.51274668950E+02  0.00000000000E+00 0.  1.
         25    2    1    2    0    0 -0.18066879231E+02 -0.53433402397E+02  0.23725852633E+03  0.27408488766E+03  0.12509746883E+03 0.  0.
         23    2    1    2    0    0  0.18066879231E+02  0.53433402397E+02  0.58627164638E+02  0.12435014121E+03  0.94043992735E+02 0.  0.
          5    1    3    3  502    0 -0.66285332268E+02 -0.31655261859E+02  0.82818012511E+02  0.11077949482E+03  0.41800000000E+01 0.  1.
         -5    1    3    3    0  502  0.48218453037E+02 -0.21778140538E+02  0.15444051382E+03  0.16330539283E+03  0.41800000000E+01 0.  1.
        -11    1    4    4    0    0  0.43386048587E+02  0.31262598563E+02 -0.36086173333E+01  0.53597774207E+02  0.00000000000E+00 0.  1.
         11    1    4    4    0    0 -0.25319169356E+02  0.22170803834E+02  0.62235781971E+02  0.70752367007E+02  0.00000000000E+00 0. -1.
</event>
<event>
 8    1  0.7026811E-009  0.1130310E+03  0.7561462E-02  0.1255058E+00
         -1   -1    0    0    0  501 -0.00000000000E+00  0.00000000000E+00  0.21798261763E+02  0.21798261763E+02  0.00000000000E+00 0.  1.
          1   -1    0    0  501    0  0.00000000000E+00 -0.00000000000E+00 -0.82767571038E+03  0.82767571038E+03  0.00000000000E+00 0. -1.
         25    2    1    2    0    0  0.75871894614E+02  0.22576427405E+02 -0.49505173280E+03  0.51671102818E+03  0.12509128279E+03 0.  0.
         23    2    1    2    0    0 -0.75871894614E+02 -0.22576427405E+02 -0.31082571582E+03  0.33276294396E+03  0.88613270980E+02 0.  0.
          5    1    3    3  502    0  0.85143817111E+02  0.27148774018E+01 -0.48463946221E+03  0.49208710700E+03  0.41800000000E+01 0. -1.
         -5    1    3    3    0  502 -0.92719224961E+01  0.19861550003E+02 -0.10412270595E+02  0.24623921179E+02  0.41800000000E+01 0. -1.
        -11    1    4    4    0    0 -0.83388707352E+02  0.10945360584E+02 -0.23209093122E+03  0.24685963175E+03  0.00000000000E+00 0. -1.
         11    1    4    4    0    0  0.75168127371E+01 -0.33521787989E+02 -0.78734784599E+02  0.85903312215E+02  0.00000000000E+00 0.  1.
</event>
<event>
 8    1  0.7026811E-009  0.2755599E+03  0.7561462E-02  0.1098139E+00
         -2   -1    0    0    0  501 -0.00000000000E+00  0.00000000000E+00  0.63584002809E+02  0.63584002809E+02  0.00000000000E+00 0.  1.
          2   -1    0    0  501    0  0.00000000000E+00 -0.00000000000E+00 -0.12980079314E+04  0.12980079314E+04  0.00000000000E+00 0. -1.
         25    2    1    2    0    0 -0.16881561194E+03 -0.19494616249E+03 -0.47983242149E+03  0.55891766852E+03  0.12508833025E+03 0.  0.
         23    2    1    2    0    0  0.16881561194E+03  0.19494616249E+03 -0.75459150711E+03  0.80267426570E+03  0.91514573219E+02 0.  0.
          5    1    3    3  502    0 -0.74831116711E+02 -0.17372288137E+03 -0.29549581684E+03  0.35087688113E+03  0.41800000000E+01 0.  1.
         -5    1    3    3    0  502 -0.93984495227E+02 -0.21223281126E+02 -0.18433660465E+03  0.20804078739E+03  0.41800000000E+01 0.  1.
        -11    1    4    4    0    0  0.99900350271E+02  0.67420640639E+02 -0.44150254280E+03  0.45765720585E+03  0.00000000000E+00 0. -1.
         11    1    4    4    0    0  0.68915261667E+02  0.12752552185E+03 -0.31308896431E+03  0.34501705985E+03  0.00000000000E+00 0.  1.
</event>
<event>
 8    1  0.7026811E-009  0.1073211E+03  0.7561462E-02  0.1265613E+00
          2   -1    0    0  501    0  0.00000000000E+00  0.00000000000E+00  0.21156094110E+03  0.21156094110E+03  0.00000000000E+00 0. -1.
         -2   -1    0    0    0  501 -0.00000000000E+00 -0.00000000000E+00 -0.69268510545E+02  0.69268510545E+02  0.00000000000E+00 0.  1.
         25    2    1    2    0    0  0.30013034567E+02  0.33082593901E+02  0.11660220214E+03  0.17674662471E+03  0.12509218816E+03 0.  0.
         23    2    1    2    0    0 -0.30013034567E+02 -0.33082593901E+02  0.25690228421E+02  0.10408282694E+03  0.90432332516E+02 0.  0.
          5    1    3    3  502    0 -0.39748824747E+02  0.21348513048E+02  0.90531230614E+02  0.10123785949E+03  0.41800000000E+01 0. -1.
         -5    1    3    3    0  502  0.69761859315E+02  0.11734080853E+02  0.26070971524E+02  0.75508765218E+02  0.41800000000E+01 0. -1.
        -11    1    4    4    0    0 -0.57241148721E+02 -0.40647516247E+02  0.78016380564E+01  0.70637350179E+02  0.00000000000E+00 0.  1.
         11    1    4    4    0    0  0.27228114154E+02  0.75649223461E+01  0.17888590364E+02  0.33445476760E+02  0.00000000000E+00 0. -1.
</event>
<event>
 8    1  0.7026811E-009  0.1158160E+03  0.7561462E-02  0.1250163E+00
         -4   -1    0    0    0  501 -0.00000000000E+00  0.00000000000E+00  0.38576788147E+02  0.38576788147E+02  0.00000000000E+00 0.  1.
          4   -1    0    0  501    0  0.00000000000E+00 -0.00000000000E+00 -0.38429243705E+03  0.38429243705E+03  0.00000000000E+00 0. -1.
         25    2    1    2    0    0  0.27740740423E+02  0.46690916634E+02 -0.20305891451E+03  0.24460114462E+03  0.12508879570E+03 0.  0.
         23    2    1    2    0    0 -0.27740740423E+02 -0.46690916634E+02 -0.14265673439E+03  0.17826808058E+03  0.92081346160E+02 0.  0.
          5    1    3    3  502    0 -0.65009300094E+01  0.84518750903E+02 -0.13445334834E+03  0.15899954914E+03  0.41800000000E+01 0. -1.
         -5    1    3    3    0  502  0.34241670432E+02 -0.37827834270E+02 -0.68605566166E+02  0.85601595479E+02  0.41800000000E+01 0. -1.
        -11    1    4    4    0    0 -0.89652005412E+01 -0.67179688276E+02 -0.58127353935E+02  0.89287594957E+02  0.00000000000E+00 0.  1.
         11    1    4    4    0    0 -0.18775539882E+02  0.20488771643E+02 -0.84529380455E+02  0.88980485621E+02  0.00000000000E+00 0. -1.
</event>
<event>
 8    1  0.7026811E-009  0.1278110E+03  0.7561462E-02  0.1230740E+00
          1   -1    0    0  501    0  0.00000000000E+00  0.00000000000E+00  0.83795803692E+03  0.83795803692E+03  0.00000000000E+00 0. -1.
         -1   -1    0    0    0  501 -0.00000000000E+00 -0.00000000000E+00 -0.29789025015E+02  0.29789025015E+02  0.00000000000E+00 0.  1.
         25    2    1    2    0    0 -0.58390612908E+02 -0.54988109648E+02  0.65666026507E+03  0.67326450673E+03  0.12509690808E+03 0.  0.
         23    2    1    2    0    0  0.58390612908E+02  0.54988109648E+02  0.15150874683E+03  0.19448255521E+03  0.91844477437E+02 0.  0.
          5    1    3    3  502    0 -0.78997361913E+02 -0.80248034879E+02  0.44382335580E+03  0.45790498342E+03  0.41800000000E+01 0. -1.
         -5    1    3    3    0  502  0.20606749005E+02  0.25259925231E+02  0.21283690928E+03  0.21535952331E+03  0.41800000000E+01 0. -1.
        -11    1    4    4    0    0 -0.16582425481E+02 -0.82752631810E+00  0.65129009430E+02  0.67211974409E+02  0.00000000000E+00 0. -1.
         11    1    4    4    0    0  0.74973038388E+02  0.55815635966E+02  0.86379737399E+02  0.12727058080E+03  0.00000000000E+00 0.  1.
</event>
<event>
 8    1  0.7026811E-009  0.9559176E+02  0.7561462E-02  0.1289849E+00
         -2   -1    0    0    0  501 -0.00000000000E+00  0.00000000000E+00  0.46530310461E+02  0.46530310461E+02  0.00000000000E+00 0.  1.
          2   -1    0    0  501    0  0.00000000000E+00 -0.00000000000E+00 -0.35119600929E+03  0.35119600929E+03  0.00000000000E+00 0. -1.
         25    2    1    2    0    0 -0.35042285177E+02  0.40175446249E+02 -0.22724662456E+03  0.26482968408E+03  0.12510677425E+03 0.  0.
         23    2    1    2    0    0  0.35042285177E+02 -0.40175446249E+02 -0.77419074277E+02  0.13289663568E+03  0.93945593196E+02 0.  0.
          5    1    3    3  502    0  0.12476510761E+02 -0.19938187383E+02 -0.16301316827E+03  0.16475424142E+03  0.41800000000E+01 0. -1.
         -5    1    3    3    0  502 -0.47518795938E+02  0.60113633633E+02 -0.64233456283E+02  0.10007544265E+03  0.41800000000E+01 0. -1.
        -11    1    4    4    0    0 -0.22902763584E+02 -0.79025753334E+01  0.72989253547E+01  0.25303390841E+02  0.00000000000E+00 0.  1.
         11    1    4    4    0    0  0.57945048762E+02 -0.32272870916E+02 -0.84717999631E+02  0.10759324484E+03  0.00000000000E+00 0. -1.
</event>
<event>
 8    1  0.7026811E-009  0.9981507E+02  0.7561462E-02  0.1280685E+00
         -2   -1    0    0    0  501 -0.00000000000E+00  0.00000000000E+00  0.11268202128E+02  0.11268202128E+02  0.00000000000E+00 0.  1.
          2   -1    0    0  501    0  0.00000000000E+00 -0.00000000000E+00 -0.11541530170E+04  0.11541530170E+04  0.00000000000E+00 0. -1.
         25    2    1    2    0    0  0.24891219036E+02 -0.14090952364E+02 -0.76899373768E+03  0.77962645877E+03  0.12509164206E+03 0.  0.
         23    2    1    2    0    0 -0.24891219036E+02  0.14090952364E+02 -0.37389107720E+03  0.38579476035E+03  0.90691409653E+02 0.  0.
          5    1    3    3  502    0  0.48057670421E+01  0.46514648883E+02 -0.14616993968E+03  0.15352469386E+03  0.41800000000E+01 0.  1.
         -5    1    3    3    0  502  0.20085451994E+02 -0.60605601247E+02 -0.62282379799E+03  0.62610176491E+03  0.41800000000E+01 0.  1.
        -11    1    4    4    0    0 -0.40759581276E+02  0.40773778502E+02 -0.30251262857E+03  0.30795735893E+03  0.00000000000E+00 0. -1.
         11    1    4    4    0    0  0.15868362240E+02 -0.26682826137E+02 -0.71378448628E+02  0.77837401418E+02  0.00000000000E+00 0.  1.
</event>
<event>
 8    1  0.7026811E-009  0.1236361E+03  0.7561462E-02  0.1237216E+00
         -4   -1    0    0    0  501 -0.00000000000E+00  0.00000000000E+00  0.49107398596E+02  0.49107398596E+02  0.00000000000E+00 0.  1.
          4   -1    0    0  501    0  0.00000000000E+00 -0.00000000000E+00 -0.66540479298E+03  0.66540479298E+03  0.00000000000E+00 0. -1.
         25    2    1    2    0    0 -0.16535313582E+02  0.10899450544E+03 -0.51132279909E+03  0.53782043988E+03  0.12508637762E+03 0.  0.
         23    2    1    2    0    0  0.16535313582E+02 -0.10899450544E+03 -0.10497459529E+03  0.17669175170E+03  0.89705577590E+02 0.  0.
          5    1    3    3  502    0  0.21852390267E+02  0.36953776909E+01 -0.11022514341E+02  0.25102808589E+02  0.41800000000E+01 0.  1.
         -5    1    3    3    0  502 -0.38387703849E+02  0.10529912775E+03 -0.50030028475E+03  0.51271763129E+03  0.41800000000E+01 0.  1.
        -11    1    4    4    0    0  0.20433158229E+02 -0.59419289263E+02 -0.26112897949E+01  0.62888669299E+02  0.00000000000E+00 0.  1.
         11    1    4    4    0    0 -0.38978446472E+01 -0.49575216173E+02 -0.10236330549E+03  0.11380308240E+03  0.00000000000E+00 0. -1.
</event>
<event>
 8    1  0.7026811E-009  0.1155038E+03  0.7561462E-02  0.1250704E+00
          2   -1    0    0  501    0  0.00000000000E+00  0.00000000000E+00  0.67017132042E+03  0.67017132042E+03  0.00000000000E+00 0. -1.
         -2   -1    0    0    0  501 -0.00000000000E+00 -0.00000000000E+00 -0.24533282346E+02  0.24533282346E+02  0.00000000000E+00 0.  1.
         25    2    1    2    0    0  0.57707299707E+02 -0.43350347852E+02  0.34073279247E+03  0.37007369300E+03  0.12508524010E+03 0.  0.
         23    2    1    2    0    0 -0.57707299707E+02  0.43350347852E+02  0.30490524560E+03  0.32463090976E+03  0.84903672942E+02 0.  0.
          5    1    3    3  502    0  0.61202394063E+02  0.16328262555E+02  0.27002713172E+03  0.27738866138E+03  0.41800000000E+01 0.  1.
         -5    1    3    3    0  502 -0.34950943559E+01 -0.59678610407E+02  0.70705660744E+02  0.92685031617E+02  0.41800000000E+01 0.  1.
        -11    1    4    4    0    0 -0.38241494225E+02  0.66892730227E+02  0.25225405464E+03  0.26375965825E+03  0.00000000000E+00 0. -1.
         11    1    4    4    0    0 -0.19465805482E+02 -0.23542382376E+02  0.52651190966E+02  0.60871251516E+02  0.00000000000E+00 0.  1.
</event>
<event>
 8    1  0.7026811E-009  0.1029862E+03  0.7561462E-02  0.1274139E+00
         -1   -1    0    0    0  501 -0.00000000000E+00  0.00000000000E+00  0.14445199467E+03  0.14445199467E+03  0.00000000000E+00 0.  1.
          1   -1    0    0  501    0  0.00000000000E+00 -0.00000000000E+00 -0.26147499725E+03  0.26147499725E+03  0.00000000000E+00 0. -1.
         25    2    1    2    0    0 -0.67952981421E+02  0.35497274921E+02  0.86432645731E+02  0.17028163398E+03  0.12509024107E+03 0.  0.
         23    2    1    2    0    0  0.67952981421E+02 -0.35497274921E+02 -0.20345564831E+03  0.23564535794E+03  0.90867319101E+02 0.  0.
          5    1    3    3  502    0  0.27343082343E+02  0.15701944766E+02  0.62249775599E+02  0.69904951066E+02  0.41800000000E+01 0.  1.
         -5    1    3    3    0  502 -0.95296063764E+02  0.19795330155E+02  0.24182870132E+02  0.10037668291E+03  0.41800000000E+01 0.  1.
        -11    1    4    4    0    0  0.38236152840E+02 -0.18011478425E+02 -0.16236010223E+02  0.45277199196E+02  0.00000000000E+00 0.  1.
         11    1    4    4    0    0  0.29716828581E+02 -0.17485796496E+02 -0.18721963808E+03  0.19036815875E+03  0.00000000000E+00 0. -1.
</event>
<event>
 8    1  0.7026811E-009  0.8340940E+02  0.7561462E-02  0.1319645E+00
          2   -1    0    0  501    0  0.00000000000E+00  0.00000000000E+00  0.40537440263E+03  0.40537440263E+03  0.00000000000E+00 0. -1.
         -2   -1    0    0    0  501 -0.00000000000E+00 -0.00000000000E+00 -0.39427278251E+02  0.39427278251E+02  0.00000000000E+00 0.  1.
         25    2    1    2    0    0  0.29856954961E+01  0.60335555034E+02  0.16147092512E+03  0.21300285289E+03  0.12509221439E+03 0.  0.
         23    2    1    2    0    0 -0.29856954961E+01 -0.60335555034E+02  0.20447619926E+03  0.23179882799E+03  0.90944417178E+02 0.  0.
          5    1    3    3  502    0 -0.10077785136E+02  0.29353121602E+02  0.17406185395E+03  0.17685635104E+03  0.41800000000E+01 0. -1.
         -5    1    3    3    0  502  0.13063480632E+02  0.30982433432E+02 -0.12590928829E+02  0.36146501855E+02  0.41800000000E+01 0. -1.
        -11    1    4    4    0    0 -0.27537913030E+02  0.82711961208E+01  0.10254919532E+03  0.10650392856E+03  0.00000000000E+00 0.  1.
         11    1    4    4    0    0  0.24552217534E+02 -0.68606751155E+02  0.10192700394E+03  0.12529489943E+03  0.00000000000E+00 0. -1.
</event>
<event>
 8    1  0.7026811E-009  0.1263702E+03  0.7561462E-02  0.1232943E+00
          2   -1    0    0  501    0  0.00000000000E+00  0.00000000000E+00  0.86652677196E+03  0.86652677196E+03  0.00000000000E+00 0. -1.
         -2   -1    0    0    0  501 -0.00000000000E+00 -0.00000000000E+00 -0.22589066352E+02  0.22589066352E+02  0.00000000000E+00 0.  1.
         25    2    1    2    0    0  0.61678189970E+02 -0.44138380619E+02  0.59617457900E+03  0.61386088482E+03  0.12509461023E+03 0.  0.
         23    2    1    2    0    0 -0.61678189970E+02  0.44138380619E+02  0.24776312661E+03  0.27525495349E+03  0.92878020824E+02 0.  0.
          5    1    3    3  502    0  0.28456739259E+02 -0.81501482906E+02  0.26063725879E+03  0.27459339176E+03  0.41800000000E+01 0. -1.
         -5    1    3    3    0  502  0.33221450711E+02  0.37363102288E+02  0.33553732020E+03  0.33926749306E+03  0.41800000000E+01 0. -1.
        -11    1    4    4    0    0  0.21126886225E+02  0.21840993349E+02  0.38110023276E+02  0.48741647348E+02  0.00000000000E+00 0.  1.
         11    1    4    4    0    0 -0.82805076194E+02  0.22297387270E+02  0.20965310333E+03  0.22651330614E+03  0.00000000000E+00 0. -1.
</event>
<event>
 8    1  0.7026811E-009  0.6477590E+02  0.7561462E-02  0.1378816E+00
         -1   -1    0    0    0  501 -0.00000000000E+00  0.00000000000E+00  0.44788865241E+02  0.44788865241E+02  0.00000000000E+00 0.  1.
          1   -1    0    0  501    0  0.00000000000E+00 -0.00000000000E+00 -0.29418954562E+03  0.29418954562E+03  0.00000000000E+00 0. -1.
         25    2    1    2    0    0 -0.32935501640E+02  0.10695566936E+02 -0.15920170933E+03  0.20540720615E+03  0.12509114143E+03 0.  0.
         23    2    1    2    0    0  0.32935501640E+02 -0.10695566936E+02 -0.90198971053E+02  0.13357120471E+03  0.92229441770E+02 0.  0.
          5    1    3    3  502    0 -0.56292289484E+02  0.99987819791E+00 -0.16883528575E+03  0.17802428971E+03  0.41800000000E+01 0. -1.
         -5    1    3    3    0  502  0.23356787844E+02  0.96956887379E+01  0.96335764171E+01  0.27382916446E+02  0.41800000000E+01 0. -1.
        -11    1    4    4    0    0  0.28051947562E+02  0.71605469856E+01  0.10792122855E+02  0.30897493601E+02  0.00000000000E+00 0.  1.
         11    1    4    4    0    0  0.48835540785E+01 -0.17856113921E+02 -0.10099109391E+03  0.10267371111E+03  0.00000000000E+00 0. -1.
</event>
<event>
 8    1  0.7026811E-009  0.7596659E+02  0.7561462E-02  0.1340904E+00
          1   -1    0    0  501    0  0.00000000000E+00  0.00000000000E+00  0.19945625990E+03  0.19945625990E+03  0.00000000000E+00 0. -1.
         -1   -1    0    0    0  501 -0.00000000000E+00 -0.00000000000E+00 -0.10873426030E+03  0.10873426030E+03  0.00000000000E+00 0.  1.
         25    2    1    2    0    0 -0.86893347406E+01  0.31389541805E+02  0.14772132412E+03  0.19629152688E+03  0.12509183047E+03 0.  0.
         23    2    1    2    0    0  0.86893347406E+01 -0.31389541805E+02 -0.56999324514E+02  0.11189899332E+03  0.90618176089E+02 0.  0.
          5    1    3    3  502    0 -0.19776465873E+02  0.66316613009E+02  0.14324303574E+03  0.15913843486E+03  0.41800000000E+01 0.  1.
         -5    1    3    3    0  502  0.11087131132E+02 -0.34927071203E+02  0.44782883856E+01  0.37153092017E+02  0.41800000000E+01 0.  1.
        -11    1    4    4    0    0 -0.48501710095E+01 -0.31808588909E+02  0.17192011296E+02  0.36481169658E+02  0.00000000000E+00 0. -1.
         11    1    4    4    0    0  0.13539505750E+02  0.41904710411E+00 -0.74191335810E+02  0.75417823661E+02  0.00000000000E+00 0.  1.
</event>
<event>
 8    1  0.7026811E-009  0.1061008E+03  0.7561462E-02  0.1267966E+00
          2   -1    0    0  501    0  0.00000000000E+00  0.00000000000E+00  0.13244185715E+04  0.13244185715E+04  0.00000000000E+00 0. -1.
         -2   -1    0    0    0  501 -0.00000000000E+00 -0.00000000000E+00 -0.99860119904E+01  0.99860119904E+01  0.00000000000E+00 0.  1.
         25    2    1    2    0    0 -0.21133161771E+02  0.28292279997E+02  0.81776742537E+03  0.82803280592E+03  0.12509077524E+03 0.  0.
         23    2    1    2    0    0  0.21133161771E+02 -0.28292279997E+02  0.49666513417E+03  0.50637177760E+03  0.92136084224E+02 0.  0.
          5    1    3    3  502    0 -0.24760527540E+02 -0.39058399458E+02  0.15437179106E+03  0.16120410840E+03  0.41800000000E+01 0.  1.
         -5    1    3    3    0  502  0.36273657692E+01  0.67350679455E+02  0.66339563432E+03  0.66682869752E+03  0.41800000000E+01 0.  1.
        -11    1    4    4    0    0 -0.27125184487E+02  0.16995236206E+02  0.13930674793E+03  0.14293699208E+03  0.00000000000E+00 0.  1.
         11    1    4    4    0    0  0.48258346258E+02 -0.45287516203E+02  0.35735838624E+03  0.36343478551E+03  0.00000000000E+00 0. -1.
</event>
<event>
 8    1  0.7026811E-009  0.1135546E+03  0.7561462E-02  0.1254125E+00
         -4   -1    0    0    0  501 -0.00000000000E+00  0.00000000000E+00  0.68078868807E+02  0.68078868807E+02  0.00000000000E+00 0.  1.
          4   -1    0    0  501    0  0.00000000000E+00 -0.00000000000E+00 -0.21560903447E+03  0.21560903447E+03  0.00000000000E+00 0. -1.
         25    2    1    2    0    0 -0.21748603939E+02 -0.12079677870E+02 -0.38357058195E+02  0.13318214623E+03  0.12508916727E+03 0.  0.
         23    2    1    2    0    0  0.21748603939E+02  0.12079677870E+02 -0.10917310746E+03  0.15050575705E+03  0.10056985195E+03 0.  0.
          5    1    3    3  502    0  0.52241145287E+02 -0.80465051419E+01 -0.11501497072E+02  0.54255325460E+02  0.41800000000E+01 0.  1.
         -5    1    3    3    0  502 -0.73989749226E+02 -0.40331727283E+01 -0.26855561123E+02  0.78926820765E+02  0.41800000000E+01 0.  1.
        -11    1    4    4    0    0  0.23025788044E+02 -0.40867084857E+02 -0.31530280280E+02  0.56519590535E+02  0.00000000000E+00 0.  1.
         11    1    4    4    0    0 -0.12771841045E+01  0.52946762727E+02 -0.77642827184E+02  0.93986166512E+02  0.00000000000E+00 0. -1.
</event>
<event>
 8    1  0.7026811E-009  0.1454484E+03  0.7561462E-02  0.1206180E+00
         -3   -1    0    0    0  501 -0.00000000000E+00  0.00000000000E+00  0.42997593556E+03  0.42997593556E+03  0.00000000000E+00 0.  1.
          3   -1    0    0  501    0  0.00000000000E+00 -0.00000000000E+00 -0.72429121741E+02  0.72429121741E+02  0.00000000000E+00 0. -1.
         25    2    1    2    0    0  0.11754624489E+03 -0.75095798143E+02  0.18911660062E+03  0.26621047495E+03  0.12508568966E+03 0.  0.
         23    2    1    2    0    0 -0.11754624489E+03  0.75095798143E+02  0.16843021320E+03  0.23619458235E+03  0.89233656362E+02 0.  0.
          5    1    3    3  502    0  0.88330165687E+02 -0.81882303658E+02  0.20043781457E+03  0.23387971210E+03  0.41800000000E+01 0.  1.
         -5    1    3    3    0  502  0.29216079201E+02  0.67865055157E+01 -0.11321213951E+02  0.32330762848E+02  0.41800000000E+01 0.  1.
        -11    1    4    4    0    0 -0.52622366092E+02  0.25979010263E+02  0.13679895689E+03  0.14885555748E+03  0.00000000000E+00 0.  1.
         11    1    4    4    0    0 -0.64923878796E+02  0.49116787880E+02  0.31631256312E+02  0.87339024872E+02  0.00000000000E+00 0. -1.
</event>
<event>
 8    1  0.7026811E-009  0.9083162E+02  0.7561462E-02  0.1300850E+00
          1   -1    0    0  501    0  0.00000000000E+00  0.00000000000E+00  0.20709591754E+03  0.20709591754E+03  0.00000000000E+00 0. -1.
         -1   -1    0    0    0  501 -0.00000000000E+00 -0.00000000000E+00 -0.65940792794E+02  0.65940792794E+02  0.00000000000E+00 0.  1.
         25    2    1    2    0    0  0.24016916910E+02  0.76777223324E+01  0.11890299351E+03  0.17441420536E+03  0.12508650385E+03 0.  0.
         23    2    1    2    0    0 -0.24016916910E+02 -0.76777223324E+01  0.22252131238E+02  0.98622504981E+02  0.92711819236E+02 0.  0.
          5    1    3    3  502    0 -0.14561692964E+02 -0.29536973105E+02  0.11590535680E+03  0.12056533422E+03  0.41800000000E+01 0. -1.
         -5    1    3    3    0  502  0.38578609874E+02  0.37214695437E+02  0.29976367136E+01  0.53848871132E+02  0.41800000000E+01 0. -1.
        -11    1    4    4    0    0  0.33790509596E+02  0.81654163357E+01  0.16280659792E+02  0.38386618058E+02  0.00000000000E+00 0.  1.
         11    1    4    4    0    0 -0.57807426506E+02 -0.15843138668E+02  0.59714714456E+01  0.60235886923E+02  0.00000000000E+00 0. -1.
</event>
<event>
 8    1  0.7026811E-009  0.1101357E+03  0.7561462E-02  0.1260319E+00
         -2   -1    0    0    0  501 -0.00000000000E+00  0.00000000000E+00  0.24825672535E+02  0.24825672535E+02  0.00000000000E+00 0.  1.
          2   -1    0    0  501    0  0.00000000000E+00 -0.00000000000E+00 -0.59698266414E+03  0.59698266414E+03  0.00000000000E+00 0. -1.
         25    2    1    2    0    0 -0.17382345492E+02 -0.52122642250E+02 -0.29753810145E+03  0.32740862452E+03  0.12509424377E+03 0.  0.
         23    2    1    2    0    0  0.17382345492E+02  0.52122642250E+02 -0.27461889015E+03  0.29439971216E+03  0.90756486927E+02 0.  0.
          5    1    3    3  502    0 -0.57971375331E+02 -0.12954433372E+02 -0.23779989938E+03  0.24514233059E+03  0.41800000000E+01 0. -1.
         -5    1    3    3    0  502  0.40589029840E+02 -0.39168208879E+02 -0.59738202074E+02  0.82266293931E+02  0.41800000000E+01 0. -1.
        -11    1    4    4    0    0 -0.31390374132E+02  0.45008895158E+02 -0.11649658392E+03  0.12877348445E+03  0.00000000000E+00 0.  1.
         11    1    4    4    0    0  0.48772719624E+02  0.71137470928E+01 -0.15812230623E+03  0.16562622771E+03  0.00000000000E+00 0. -1.
</event>
<event>
 8    1  0.7026811E-009  0.1004295E+03  0.7561462E-02  0.1279395E+00
          1   -1    0    0  501    0  0.00000000000E+00  0.00000000000E+00  0.26288756931E+03  0.26288756931E+03  0.00000000000E+00 0. -1.
         -1   -1    0    0    0  501 -0.00000000000E+00 -0.00000000000E+00 -0.10546977523E+03  0.10546977523E+03  0.00000000000E+00 0.  1.
         25    2    1    2    0    0  0.19463699919E+02 -0.26031913955E+02  0.21808859951E+03  0.25351046037E+03  0.12509364541E+03 0.  0.
         23    2    1    2    0    0 -0.19463699919E+02  0.26031913955E+02 -0.60670805430E+02  0.11484688417E+03  0.91936739198E+02 0.  0.
          5    1    3    3  502    0  0.59037808145E+02 -0.54244779177E+02  0.12903769149E+03  0.15197419875E+03  0.41800000000E+01 0. -1.
         -5    1    3    3    0  502 -0.39574108226E+02  0.28212865223E+02  0.89050908015E+02  0.10153626162E+03  0.41800000000E+01 0. -1.
        -11    1    4    4    0    0 -0.22243559907E+02  0.46284754777E+02 -0.74269686850E+02  0.90294190660E+02  0.00000000000E+00 0.  1.
         11    1    4    4    0    0  0.27798599876E+01 -0.20252840823E+02  0.13598881420E+02  0.24552693515E+02  0.00000000000E+00 0. -1.
</event>
<event>
 8    1  0.7026811E-009  0.1017455E+03  0.7561462E-02  0.1276668E+00
          1   -1    0    0  501    0  0.00000000000E+00  0.00000000000E+00  0.78183774300E+03  0.78183774300E+03  0.00000000000E+00 0. -1.
         -1   -1    0    0    0  501 -0.00000000000E+00 -0.00000000000E+00 -0.32132013189E+02  0.32132013189E+02  0.00000000000E+00 0.  1.
         25    2    1    2    0    0  0.23563189582E+02  0.23778284378E+02  0.68203108854E+03  0.69421512685E+03  0.12509039093E+03 0.  0.
         23    2    1    2    0    0 -0.23563189582E+02 -0.23778284378E+02  0.67674641273E+02  0.11975462934E+03  0.92955276698E+02 0.  0.
          5    1    3    3  502    0  0.62061119833E+01 -0.40146865766E+02  0.94494556034E+02  0.10294163481E+03  0.41800000000E+01 0.  1.
         -5    1    3    3    0  502  0.17357077599E+02  0.63925150144E+02  0.58753653250E+03  0.59127349204E+03  0.41800000000E+01 0.  1.
        -11    1    4    4    0    0  0.34436816218E+02 -0.15231790742E+02  0.39964090321E+02  0.54909291341E+02  0.00000000000E+00 0. -1.
         11    1    4    4    0    0 -0.58000005800E+02 -0.85464936359E+01  0.27710550952E+02  0.64845338000E+02  0.00000000000E+00 0.  1.
</event>
<event>
 8    1  0.7026811E-009  0.1044492E+03  0.7561462E-02  0.1271209E+00
          1   -1    0    0  501    0  0.00000000000E+00  0.00000000000E+00  0.37951406514E+02  0.37951406514E+02  0.00000000000E+00 0. -1.
         -1   -1    0    0    0  501 -0.00000000000E+00 -0.00000000000E+00 -0.40481963511E+03  0.40481963511E+03  0.00000000000E+00 0.  1.
         25    2    1    2    0    0 -0.57612626989E+02 -0.13253665102E+01 -0.23771889101E+03  0.27473372772E+03  0.12508948243E+03 0.  0.
         23    2    1    2    0    0  0.57612626989E+02  0.13253665102E+01 -0.12914933758E+03  0.16803731390E+03  0.90752499041E+02 0.  0.
          5    1    3    3  502    0 -0.27976116431E+02  0.60701191658E+02 -0.94581027546E+02  0.11588934779E+03  0.41800000000E+01 0.  1.
         -5    1    3    3    0  502 -0.29636510558E+02 -0.62026558168E+02 -0.14313786347E+03  0.15884437993E+03  0.41800000000E+01 0.  1.
        -11    1    4    4    0    0  0.62177536313E+02 -0.79874078360E+01 -0.13977498094E+03  0.15318906620E+03  0.00000000000E+00 0.  1.
         11    1    4    4    0    0 -0.45649093239E+01  0.93127743462E+01  0.10625643360E+02  0.14848247707E+02  0.00000000000E+00 0. -1.
</event>
<event>
 8    1  0.7026811E-009  0.1567385E+03  0.7561462E-02  0.1192429E+00
         -3   -1    0    0    0  501 -0.00000000000E+00  0.00000000000E+00  0.40029946768E+02  0.40029946768E+02  0.00000000000E+00 0.  1.
          3   -1    0    0  501    0  0.00000000000E+00 -0.00000000000E+00 -0.76708720705E+03  0.76708720705E+03  0.00000000000E+00 0. -1.
         25    2    1    2    0    0 -0.21752043906E+02 -0.13101284516E+03 -0.30703452508E+03  0.35714899069E+03  0.12509070687E+03 0.  0.
         23    2    1    2    0    0  0.21752043906E+02  0.13101284516E+03 -0.42002273520E+03  0.44996816313E+03  0.91731852340E+02 0.  0.
          5    1    3    3  502    0  0.25469919035E+02  0.90017637501E+01 -0.93693321553E+02  0.97599484783E+02  0.41800000000E+01 0. -1.
         -5    1    3    3    0  502 -0.47221962941E+02 -0.14001460891E+03 -0.21334120353E+03  0.25954950590E+03  0.41800000000E+01 0. -1.
        -11    1    4    4    0    0 -0.99270184622E+01  0.14472626328E+02 -0.57761932247E+01  0.18476120170E+02  0.00000000000E+00 0.  1.
         11    1    4    4    0    0  0.31679062368E+02  0.11654021883E+03 -0.41424654198E+03  0.43149204296E+03  0.00000000000E+00 0. -1.
</event>
<event>
 8    1  0.7026811E-009  0.1645874E+03  0.7561462E-02  0.1183613E+00
          1   -1    0    0  501    0  0.00000000000E+00  0.00000000000E+00  0.55866132993E+03  0.55866132993E+03  0.00000000000E+00 0. -1.
         -1   -1    0    0    0  501 -0.00000000000E+00 -0.00000000000E+00 -0.58457792483E+02  0.58457792483E+02  0.00000000000E+00 0.  1.
         25    2    1    2    0    0 -0.67215908418E+02  0.12264644286E+03  0.25787005760E+03  0.31891160541E+03  0.12509003624E+03 0.  0.
         23    2    1    2    0    0  0.67215908418E+02 -0.12264644286E+03  0.24233347985E+03  0.29820751700E+03  0.10316045489E+03 0.  0.
          5    1    3    3  502    0 -0.10179584005E+03  0.10606918095E+03  0.18380958174E+03  0.23540709195E+03  0.41800000000E+01 0.  1.
         -5    1    3    3    0  502  0.34579931631E+02  0.16577261909E+02  0.74060475854E+02  0.83504513457E+02  0.41800000000E+01 0.  1.
        -11    1    4    4    0    0 -0.42529529151E+00 -0.23500719640E+02 -0.43240831868E+01  0.23899004061E+02  0.00000000000E+00 0.  1.
         11    1    4    4    0    0  0.67641203710E+02 -0.99145723220E+02  0.24665756303E+03  0.27430851294E+03  0.00000000000E+00 0. -1.
</event>
<event>
 8    1  0.7026811E-009  0.1597726E+03  0.7561462E-02  0.1188954E+00
          2   -1    0    0  501    0  0.00000000000E+00  0.00000000000E+00  0.10886451473E+04  0.10886451473E+04  0.00000000000E+00 0. -1.
         -2   -1    0    0    0  501 -0.00000000000E+00 -0.00000000000E+00 -0.30327045951E+02  0.30327045951E+02  0.00000000000E+00 0.  1.
         25    2    1    2    0    0  0.14623611454E+03 -0.13256896015E+02  0.57141365560E+03  0.60309312696E+03  0.12508799899E+03 0.  0.
         23    2    1    2    0    0 -0.14623611454E+03  0.13256896015E+02  0.48690444571E+03  0.51587906625E+03  0.86570926159E+02 0.  0.
          5    1    3    3  502    0  0.15225172320E+03 -0.21683212164E+02  0.36139655090E+03  0.39277943977E+03  0.41800000000E+01 0.  1.
         -5    1    3    3    0  502 -0.60156086554E+01  0.84263161493E+01  0.21001710470E+03  0.21031368719E+03  0.41800000000E+01 0.  1.
        -11    1    4    4    0    0 -0.55282272201E+02  0.28686247885E+02  0.97490605053E+02  0.11568685539E+03  0.00000000000E+00 0.  1.
         11    1    4    4    0    0 -0.90953842343E+02 -0.15429351870E+02  0.38941384066E+03  0.40019221086E+03  0.00000000000E+00 0. -1.
</event>
<event>
 8    1  0.7026811E-009  0.1711699E+03  0.7561462E-02  0.1176633E+00
         -1   -1    0    0    0  501 -0.00000000000E+00  0.00000000000E+00  0.20670150635E+03  0.20670150635E+03  0.00000000000E+00 0.  1.
          1   -1    0    0  501    0  0.00000000000E+00 -0.00000000000E+00 -0.21012032775E+03  0.21012032775E+03  0.00000000000E+00 0. -1.
         25    2    1    2    0    0 -0.34839358089E+01  0.15364377708E+03 -0.91302225007E+02  0.21817825269E+03  0.12508839119E+03 0.  0.
         23    2    1    2    0    0  0.34839358089E+01 -0.15364377708E+03  0.87883403603E+02  0.19864358141E+03  0.90095681143E+02 0.  0.
          5    1    3    3  502    0 -0.20857639878E+02  0.14174981141E+03 -0.11676307736E+03  0.18487600930E+03  0.41800000000E+01 0.  1.
         -5    1    3    3    0  502  0.17373704069E+02  0.11893965667E+02  0.25460852357E+02  0.33302243395E+02  0.41800000000E+01 0.  1.
        -11    1    4    4    0    0  0.45700658113E+02 -0.93301580930E+02  0.43294163283E+02  0.11255274199E+03  0.00000000000E+00 0. -1.
         11    1    4    4    0    0 -0.42216722304E+02 -0.60342196152E+02  0.44589240320E+02  0.86090839413E+02  0.00000000000E+00 0.  1.
</event>
<event>
 8    1  0.7026811E-009  0.1761524E+03  0.7561462E-02  0.1171580E+00
          2   -1    0    0  501    0  0.00000000000E+00  0.00000000000E+00  0.59661485869E+03  0.59661485869E+03  0.00000000000E+00 0. -1.
         -2   -1    0    0    0  501 -0.00000000000E+00 -0.00000000000E+00 -0.77379642000E+02  0.77379642000E+02  0.00000000000E+00 0.  1.
         25    2    1    2    0    0 -0.13630067237E+03  0.54798525261E+02  0.98857036518E+02  0.21679731711E+03  0.12509041281E+03 0.  0.
         23    2    1    2    0    0  0.13630067237E+03 -0.54798525261E+02  0.42037818017E+03  0.45719718358E+03  0.10358908556E+03 0.  0.
          5    1    3    3  502    0 -0.70604249123E+02 -0.34332172663E+02  0.61659864717E+02  0.99915311093E+02  0.41800000000E+01 0.  1.
         -5    1    3    3    0  502 -0.65696423250E+02  0.89130697925E+02  0.37197171801E+02  0.11688200602E+03  0.41800000000E+01 0.  1.
        -11    1    4    4    0    0  0.24874880457E+02 -0.44497793582E+02  0.54662689747E+02  0.74745053093E+02  0.00000000000E+00 0.  1.
         11    1    4    4    0    0  0.11142579192E+03 -0.10300731679E+02  0.36571549042E+03  0.38245213049E+03  0.00000000000E+00 0. -1.
</event>
<event>
 8    1  0.7026811E-009  0.1440050E+03  0.7561462E-02  0.1208039E+00
         -1   -1    0    0    0  501 -0.00000000000E+00  0.00000000000E+00  0.99027580515E+02  0.99027580515E+02  0.00000000000E+00 0.  1.
          1   -1    0    0  501    0  0.00000000000E+00 -0.00000000000E+00 -0.29151992302E+03  0.29151992302E+03  0.00000000000E+00 0. -1.
         25    2    1    2    0    0 -0.11736348576E+03  0.22829116906E+01 -0.37235042764E+02  0.17555172905E+03  0.12511019817E+03 0.  0.
         23    2    1    2    0    0  0.11736348576E+03 -0.22829116906E+01 -0.15525729974E+03  0.21499577449E+03  0.91317875837E+02 0.  0.
          5    1    3    3  502    0 -0.33057284466E+02  0.38384290375E+02 -0.62281807906E+02  0.80390508146E+02  0.41800000000E+01 0. -1.
         -5    1    3    3    0  502 -0.84306201296E+02 -0.36101378685E+02  0.25046765142E+02  0.95161220904E+02  0.41800000000E+01 0. -1.
        -11    1    4    4    0    0  0.62466939093E+02 -0.44015657834E+02 -0.58783383731E+02  0.96410491219E+02  0.00000000000E+00 0.  1.
         11    1    4    4    0    0  0.54896546670E+02  0.41732746143E+02 -0.96473916012E+02  0.11858528327E+03  0.00000000000E+00 0. -1.
</event>
<event>
 8    1  0.7026811E-009  0.1011418E+03  0.7561462E-02  0.1277913E+00
         -1   -1    0    0    0  501 -0.00000000000E+00  0.00000000000E+00  0.42723494684E+02  0.42723494684E+02  0.00000000000E+00 0.  1.
          1   -1    0    0  501    0  0.00000000000E+00 -0.00000000000E+00 -0.57929970943E+03  0.57929970943E+03  0.00000000000E+00 0. -1.
         25    2    1    2    0    0  0.25239152747E+02 -0.59344601439E+02 -0.47290700506E+03  0.49339993054E+03  0.12507461561E+03 0.  0.
         23    2    1    2    0    0 -0.25239152747E+02  0.59344601439E+02 -0.63669209687E+02  0.12862327357E+03  0.91276402709E+02 0.  0.
          5    1    3    3  502    0 -0.11392796330E+02 -0.84330281856E+02 -0.20796649733E+03  0.22474191566E+03  0.41800000000E+01 0.  1.
         -5    1    3    3    0  502  0.36631949077E+02  0.24985680417E+02 -0.26494050773E+03  0.26865801488E+03  0.41800000000E+01 0.  1.
        -11    1    4    4    0    0 -0.28969984359E+02  0.25793953823E+02  0.16105824597E+02  0.41999828970E+02  0.00000000000E+00 0.  1.
         11    1    4    4    0    0  0.37308316118E+01  0.33550647616E+02 -0.79775034284E+02  0.86623444604E+02  0.00000000000E+00 0. -1.
</event>
<event>
 8    1  0.7026811E-009  0.1725982E+03  0.7561462E-02  0.1175165E+00
          2   -1    0    0  501    0  0.00000000000E+00  0.00000000000E+00  0.58593532556E+02  0.58593532556E+02  0.00000000000E+00 0.  1.
         -2   -1    0    0    0  501 -0.00000000000E+00 -0.00000000000E+00 -0.59131022491E+03  0.59131022491E+03  0.00000000000E+00 0. -1.
         25    2    1    2    0    0  0.24155894405E+02 -0.14761755292E+03 -0.29182520018E+03  0.35097573676E+03  0.12509025210E+03 0.  0.
         23    2    1    2    0    0 -0.24155894405E+02  0.14761755292E+03 -0.24089149218E+03  0.29892802071E+03  0.94629812391E+02 0.  0.
          5    1    3    3  502    0 -0.35000084044E+02 -0.12308669658E+03 -0.16511117526E+03  0.20893662521E+03  0.41800000000E+01 0. -1.
         -5    1    3    3    0  502  0.59155978449E+02 -0.24530856340E+02 -0.12671402492E+03  0.14203911155E+03  0.41800000000E+01 0. -1.
        -11    1    4    4    0    0  0.69204532842E+01  0.51645093007E+02 -0.16402243580E+03  0.17210016779E+03  0.00000000000E+00 0. -1.
         11    1    4    4    0    0 -0.31076347690E+02  0.95972459918E+02 -0.76869056381E+02  0.12682785292E+03  0.00000000000E+00 0.  1.
</event>
<event>
 8    1  0.7026811E-009  0.9603767E+02  0.7561462E-02  0.1288856E+00
         -1   -1    0    0    0  501 -0.00000000000E+00  0.00000000000E+00  0.51229149212E+02  0.51229149212E+02  0.00000000000E+00 0.  1.
          1   -1    0    0  501    0  0.00000000000E+00 -0.00000000000E+00 -0.27830062750E+03  0.27830062750E+03  0.00000000000E+00 0. -1.
         25    2    1    2    0    0 -0.63047627631E+01  0.27458145282E+01 -0.19878311174E+03  0.23496679022E+03  0.12508947781E+03 0.  0.
         23    2    1    2    0    0  0.63047627631E+01 -0.27458145282E+01 -0.28288366548E+02  0.94562986498E+02  0.89970201748E+02 0.  0.
          5    1    3    3  502    0  0.31841335558E+02  0.41242533154E+02 -0.15964972140E+03  0.16798905659E+03  0.41800000000E+01 0.  1.
         -5    1    3    3    0  502 -0.38146098321E+02 -0.38496718626E+02 -0.39133390344E+02  0.66977733628E+02  0.41800000000E+01 0.  1.
        -11    1    4    4    0    0 -0.37282032514E+02  0.12422476834E+02 -0.28275127076E+02  0.48412298956E+02  0.00000000000E+00 0.  1.
         11    1    4    4    0    0  0.43586795277E+02 -0.15168291362E+02 -0.13239471892E-01  0.46150687542E+02  0.00000000000E+00 0. -1.
</event>
<event>
 8    1  0.7026811E-009  0.1034178E+03  0.7561462E-02  0.1273269E+00
         -1   -1    0    0    0  501 -0.00000000000E+00  0.00000000000E+00  0.31075034248E+03  0.31075034248E+03  0.00000000000E+00 0. -1.
          1   -1    0    0  501    0  0.00000000000E+00 -0.00000000000E+00 -0.64426997392E+02  0.64426997392E+02  0.00000000000E+00 0.  1.
         25    2    1    2    0    0  0.69250028094E+02 -0.14778692055E+02  0.56342998922E+02  0.15438594010E+03  0.12508600578E+03 0.  0.
         23    2    1    2    0    0 -0.69250028094E+02  0.14778692055E+02  0.18998034616E+03  0.22079139977E+03  0.87420444715E+02 0.  0.
          5    1    3    3  502    0 -0.56347447628E+01 -0.17969205605E+02  0.74662137858E+02  0.77113876365E+02  0.41800000000E+01 0.  1.
         -5    1    3    3    0  502  0.74884772856E+02  0.31905135503E+01 -0.18319138936E+02  0.77272063735E+02  0.41800000000E+01 0.  1.
        -11    1    4    4    0    0 -0.39130834736E+02 -0.36172413469E+02  0.87729484493E+02  0.10264564371E+03  0.00000000000E+00 0.  1.
         11    1    4    4    0    0 -0.30119193358E+02  0.50951105523E+02  0.10225086167E+03  0.11814575606E+03  0.00000000000E+00 0. -1.
</event>
<event>
 8    1  0.7026811E-009  0.1303464E+03  0.7561462E-02  0.1226943E+00
          1   -1    0    0  501    0  0.00000000000E+00  0.00000000000E+00  0.20514843813E+03  0.20514843813E+03  0.00000000000E+00 0. -1.
         -1   -1    0    0    0  501 -0.00000000000E+00 -0.00000000000E+00 -0.11824736538E+03  0.11824736538E+03  0.00000000000E+00 0.  1.
         25    2    1    2    0    0  0.49695229990E+02  0.89690571507E+02  0.33840846790E+01  0.16178018146E+03  0.12508941036E+03 0.  0.
         23    2    1    2    0    0 -0.49695229990E+02 -0.89690571507E+02  0.83516988065E+02  0.16161562205E+03  0.92900524716E+02 0.  0.
          5    1    3    3  502    0  0.44276194473E+02  0.13176485260E+02  0.52922911384E+02  0.70372637510E+02  0.41800000000E+01 0. -1.
         -5    1    3    3    0  502  0.54190355169E+01  0.76514086248E+02 -0.49538826705E+02  0.91407543953E+02  0.41800000000E+01 0. -1.
        -11    1    4    4    0    0 -0.50197223202E+02 -0.24602366617E+01  0.21929199430E+02  0.54833418362E+02  0.00000000000E+00 0.  1.
         11    1    4    4    0    0  0.50199321211E+00 -0.87230334846E+02  0.61587788635E+02  0.10678220368E+03  0.00000000000E+00 0. -1.
</event>
<event>
 8    1  0.7026811E-009  0.1214353E+03  0.7561462E-02  0.1240748E+00
          3   -1    0    0  501    0  0.00000000000E+00  0.00000000000E+00  0.13264930435E+04  0.13264930435E+04  0.00000000000E+00 0. -1.
         -3   -1    0    0    0  501 -0.00000000000E+00 -0.00000000000E+00 -0.13879181764E+02  0.13879181764E+02  0.00000000000E+00 0.  1.
         25    2    1    2    0    0 -0.39666952771E+02  0.65945202434E+02  0.85946540466E+03  0.87192360337E+03  0.12509097266E+03 0.  0.
         23    2    1    2    0    0  0.39666952771E+02 -0.65945202434E+02  0.45314845711E+03  0.46844862193E+03  0.90434232118E+02 0.  0.
          5    1    3    3  502    0  0.14699571673E+02  0.69415935426E+02  0.69488918943E+03  0.69851493004E+03  0.41800000000E+01 0. -1.
         -5    1    3    3    0  502 -0.54366524444E+02 -0.34707329922E+01  0.16457621523E+03  0.17340867333E+03  0.41800000000E+01 0. -1.
        -11    1    4    4    0    0 -0.82751572355E+01  0.18378387060E+02  0.52783836725E+02  0.56501121738E+02  0.00000000000E+00 0.  1.
         11    1    4    4    0    0  0.47942110006E+02 -0.84323589494E+02  0.40036462039E+03  0.41194750019E+03  0.00000000000E+00 0. -1.
</event>
<event>
 8    1  0.7026811E-009  0.1022123E+03  0.7561462E-02  0.1275711E+00
          2   -1    0    0  501    0  0.00000000000E+00  0.00000000000E+00  0.50459720426E+03  0.50459720426E+03  0.00000000000E+00 0. -1.
         -2   -1    0    0    0  501 -0.00000000000E+00 -0.00000000000E+00 -0.31132417822E+02  0.31132417822E+02  0.00000000000E+00 0.  1.
         25    2    1    2    0    0 -0.54416751132E+02 -0.36922766884E+02  0.30438327375E+03  0.33559154591E+03  0.12509210537E+03 0.  0.
         23    2    1    2    0    0  0.54416751132E+02  0.36922766884E+02  0.16908151268E+03  0.20013807617E+03  0.84511644667E+02 0.  0.
          5    1    3    3  502    0 -0.41365226783E+02  0.26493317901E+02  0.40359470886E+02  0.63712927812E+02  0.41800000000E+01 0. -1.
         -5    1    3    3    0  502 -0.13051524350E+02 -0.63416084785E+02  0.26402380286E+03  0.27187861809E+03  0.41800000000E+01 0. -1.
        -11    1    4    4    0    0  0.64422678463E+02  0.43977637661E+02  0.17080644082E+03  0.18777421106E+03  0.00000000000E+00 0. -1.
         11    1    4    4    0    0 -0.10005927330E+02 -0.70548707768E+01 -0.17249281347E+01  0.12363865111E+02  0.00000000000E+00 0.  1.
</event>
<event>
 8    1  0.7026811E-009  0.1172490E+03  0.7561462E-02  0.1247706E+00
         -1   -1    0    0    0  501 -0.00000000000E+00  0.00000000000E+00  0.46982013509E+02  0.46982013509E+02  0.00000000000E+00 0.  1.
          1   -1    0    0  501    0  0.00000000000E+00 -0.00000000000E+00 -0.50734655285E+03  0.50734655285E+03  0.00000000000E+00 0. -1.
         25    2    1    2    0    0  0.61878973545E+02 -0.71858542933E+02 -0.32484038926E+03  0.36077898491E+03  0.12509012709E+03 0.  0.
         23    2    1    2    0    0 -0.61878973545E+02  0.71858542933E+02 -0.13552415008E+03  0.19354958145E+03  0.10050864473E+03 0.  0.
          5    1    3    3  502    0  0.31091403779E+02 -0.53119500805E+02 -0.39749285404E+02  0.73388247321E+02  0.41800000000E+01 0. -1.
         -5    1    3    3    0  502  0.30787569765E+02 -0.18739042128E+02 -0.28509110386E+03  0.28739073759E+03  0.41800000000E+01 0. -1.
        -11    1    4    4    0    0 -0.77108160768E+02  0.16164296232E+02 -0.92740354682E+02  0.12168700143E+03  0.00000000000E+00 0. -1.
         11    1    4    4    0    0  0.15229187223E+02  0.55694246701E+02 -0.42783795397E+02  0.71862580024E+02  0.00000000000E+00 0.  1.
</event>
<event>
 8    1  0.7026811E-009  0.2135708E+03  0.7561462E-02  0.1138769E+00
         -2   -1    0    0    0  501 -0.00000000000E+00  0.00000000000E+00  0.83100600105E+03  0.83100600105E+03  0.00000000000E+00 0.  1.
          2   -1    0    0  501    0  0.00000000000E+00 -0.00000000000E+00 -0.64347084257E+02  0.64347084257E+02  0.00000000000E+00 0. -1.
         25    2    1    2    0    0 -0.14219468773E+03  0.11815061760E+03  0.22990859678E+03  0.32044380107E+03  0.12508944445E+03 0.  0.
         23    2    1    2    0    0  0.14219468773E+03 -0.11815061760E+03  0.53675032000E+03  0.57490928423E+03  0.90779300590E+02 0.  0.
          5    1    3    3  502    0  0.22731494382E+02  0.19549355696E+02  0.22824438060E+02  0.37912076146E+02  0.41800000000E+01 0. -1.
         -5    1    3    3    0  502 -0.16492618211E+03  0.98601261904E+02  0.20708415873E+03  0.28253172493E+03  0.41800000000E+01 0. -1.
        -11    1    4    4    0    0  0.90571952583E+02 -0.18498409002E+02  0.21078627836E+03  0.23016586383E+03  0.00000000000E+00 0. -1.
         11    1    4    4    0    0  0.51622735145E+02 -0.99652208598E+02  0.32596404165E+03  0.34474342040E+03  0.00000000000E+00 0.  1.
</event>
<event>
 8    1  0.7026811E-009  0.1146130E+03  0.7561462E-02  0.1252258E+00
         -2   -1    0    0    0  501 -0.00000000000E+00  0.00000000000E+00  0.24348628941E+03  0.24348628941E+03  0.00000000000E+00 0. -1.
          2   -1    0    0  501    0  0.00000000000E+00 -0.00000000000E+00 -0.65425728812E+02  0.65425728812E+02  0.00000000000E+00 0.  1.
         25    2    1    2    0    0 -0.48410815359E+02  0.29850734345E+02  0.13792644248E+03  0.19469458961E+03  0.12509039253E+03 0.  0.
         23    2    1    2    0    0  0.48410815359E+02 -0.29850734345E+02  0.40134118117E+02  0.11421742861E+03  0.90554956669E+02 0.  0.
          5    1    3    3  502    0 -0.15456676269E+00 -0.39459466021E+02  0.87912525320E+02  0.96452878950E+02  0.41800000000E+01 0. -1.
         -5    1    3    3    0  502 -0.48256248596E+02  0.69310200365E+02  0.50013917158E+02  0.98241710657E+02  0.41800000000E+01 0. -1.
        -11    1    4    4    0    0  0.16638569534E+01 -0.52859029920E+02  0.31057404833E+02  0.61330317617E+02  0.00000000000E+00 0. -1.
         11    1    4    4    0    0  0.46746958405E+02  0.23008295576E+02  0.90767132841E+01  0.52887110996E+02  0.00000000000E+00 0.  1.
</event>
<event>
 8    1  0.7026811E-009  0.1547055E+03  0.7561462E-02  0.1194807E+00
         -1   -1    0    0    0  501 -0.00000000000E+00  0.00000000000E+00  0.11814074045E+03  0.11814074045E+03  0.00000000000E+00 0.  1.
          1   -1    0    0  501    0  0.00000000000E+00 -0.00000000000E+00 -0.30048404749E+03  0.30048404749E+03  0.00000000000E+00 0. -1.
         25    2    1    2    0    0  0.69525981224E+02  0.91718395131E+02  0.17250986840E+02  0.17085330946E+03  0.12508849162E+03 0.  0.
         23    2    1    2    0    0 -0.69525981224E+02 -0.91718395131E+02 -0.19959429388E+03  0.24777147849E+03  0.91141084761E+02 0.  0.
          5    1    3    3  502    0  0.21926939644E+02 -0.28683688273E+02 -0.11581553568E+02  0.38146421040E+02  0.41800000000E+01 0.  1.
         -5    1    3    3    0  502  0.47599041580E+02  0.12040208340E+03  0.28832540408E+02  0.13270688842E+03  0.41800000000E+01 0.  1.
        -11    1    4    4    0    0 -0.73658981004E+02 -0.26654468744E+02 -0.13446686321E+03  0.15561954725E+03  0.00000000000E+00 0. -1.
         11    1    4    4    0    0  0.41329997793E+01 -0.65063926387E+02 -0.65127430675E+02  0.92151931235E+02  0.00000000000E+00 0.  1.
</event>
<event>
 8    1  0.7026811E-009  0.7823016E+02  0.7561462E-02  0.1334150E+00
          1   -1    0    0  501    0  0.00000000000E+00  0.00000000000E+00  0.12490056564E+04  0.12490056564E+04  0.00000000000E+00 0. -1.
         -1   -1    0    0    0  501 -0.00000000000E+00 -0.00000000000E+00 -0.12277897979E+02  0.12277897979E+02  0.00000000000E+00 0.  1.
         25    2    1    2    0    0 -0.15469322586E+02  0.17854038740E+02  0.99754922050E+03  0.10056378989E+04  0.12508025336E+03 0.  0.
         23    2    1    2    0    0  0.15469322586E+02 -0.17854038740E+02  0.23917853793E+03  0.25564565547E+03  0.87122106914E+02 0.  0.
          5    1    3    3  502    0  0.32773249581E+01 -0.23368230903E+02  0.37442928471E+02  0.44455150060E+02  0.41800000000E+01 0.  1.
         -5    1    3    3    0  502 -0.18746647544E+02  0.41222269643E+02  0.96010629203E+03  0.96118274886E+03  0.41800000000E+01 0.  1.
        -11    1    4    4    0    0  0.44884494891E+02  0.10572099560E+02  0.92308746137E+02  0.10318571502E+03  0.00000000000E+00 0.  1.
         11    1    4    4    0    0 -0.29415172305E+02 -0.28426138300E+02  0.14686979179E+03  0.15245994045E+03  0.00000000000E+00 0. -1.
</event>
<event>
 8    1  0.7026811E-009  0.1531365E+03  0.7561462E-02  0.1196671E+00
          2   -1    0    0  501    0  0.00000000000E+00  0.00000000000E+00  0.22816083373E+03  0.22816083373E+03  0.00000000000E+00 0. -1.
         -2   -1    0    0    0  501 -0.00000000000E+00 -0.00000000000E+00 -0.12490037311E+03  0.12490037311E+03  0.00000000000E+00 0.  1.
         25    2    1    2    0    0  0.11743919854E+03  0.48416667141E+02  0.77080606023E+02  0.19423013641E+03  0.12509111502E+03 0.  0.
         23    2    1    2    0    0 -0.11743919854E+03 -0.48416667141E+02  0.26179854598E+02  0.15883107043E+03  0.91683068975E+02 0.  0.
          5    1    3    3  502    0  0.28141175370E+02  0.78758693625E+02  0.40023868273E+02  0.92812930156E+02  0.41800000000E+01 0. -1.
         -5    1    3    3    0  502  0.89298023166E+02 -0.30342026484E+02  0.37056737750E+02  0.10141720626E+03  0.41800000000E+01 0. -1.
        -11    1    4    4    0    0 -0.73644853415E+02 -0.21480132861E+02  0.59913356011E+02  0.97337406842E+02  0.00000000000E+00 0. -1.
         11    1    4    4    0    0 -0.43794345121E+02 -0.26936534280E+02 -0.33733501413E+02  0.61493663585E+02  0.00000000000E+00 0.  1.
</event>
<event>
 8    1  0.7026811E-009  0.8209155E+02  0.7561462E-02  0.1323219E+00
          1   -1    0    0  501    0  0.00000000000E+00  0.00000000000E+00  0.83740321443E+02  0.83740321443E+02  0.00000000000E+00 0. -1.
         -1   -1    0    0    0  501 -0.00000000000E+00 -0.00000000000E+00 -0.14759782498E+03  0.14759782498E+03  0.00000000000E+00 0.  1.
         25    2    1    2    0    0 -0.23524267365E+02 -0.10063519671E+02 -0.38428461511E+02  0.13333634266E+03  0.12508864072E+03 0.  0.
         23    2    1    2    0    0  0.23524267365E+02  0.10063519671E+02 -0.25429042025E+02  0.98001803758E+02  0.91121083061E+02 0.  0.
          5    1    3    3  502    0 -0.28050933743E+02  0.49867442858E+02 -0.44751752494E+02  0.72758563017E+02  0.41800000000E+01 0. -1.
         -5    1    3    3    0  502  0.45266663785E+01 -0.59930962529E+02  0.63232909830E+01  0.60577779647E+02  0.41800000000E+01 0. -1.
        -11    1    4    4    0    0  0.33159018102E+02  0.74948035751E+00 -0.55739471248E+02  0.64861166019E+02  0.00000000000E+00 0.  1.
         11    1    4    4    0    0 -0.96347507370E+01  0.93140393135E+01  0.30310429223E+02  0.33140637739E+02  0.00000000000E+00 0. -1.
</event>
<event>
 8    1  0.7026811E-009  0.1145480E+03  0.7561462E-02  0.1252372E+00
         -1   -1    0    0    0  501 -0.00000000000E+00  0.00000000000E+00  0.24766680223E+03  0.24766680223E+03  0.00000000000E+00 0.  1.
          1   -1    0    0  501    0  0.00000000000E+00 -0.00000000000E+00 -0.65599583160E+02  0.65599583160E+02  0.00000000000E+00 0. -1.
         25    2    1    2    0    0  0.12792810244E+02 -0.55474174043E+02  0.69148012044E+02  0.15385187008E+03  0.12509160795E+03 0.  0.
         23    2    1    2    0    0 -0.12792810244E+02  0.55474174043E+02  0.11291920702E+03  0.15941451530E+03  0.97062868261E+02 0.  0.
          5    1    3    3  502    0  0.28004086372E+02 -0.84544442199E+02  0.79228209159E+02  0.11927519896E+03  0.41800000000E+01 0. -1.
         -5    1    3    3    0  502 -0.15211276129E+02  0.29070268156E+02 -0.10080197115E+02  0.34576671124E+02  0.41800000000E+01 0. -1.
        -11    1    4    4    0    0 -0.32712267377E+02  0.73212875225E+02  0.10392600800E+03  0.13126626632E+03  0.00000000000E+00 0.  1.
         11    1    4    4    0    0  0.19919457133E+02 -0.17738701182E+02  0.89931990275E+01  0.28148248984E+02  0.00000000000E+00 0. -1.
</event>
<event>
 8    1  0.7026811E-009  0.9841859E+02  0.7561462E-02  0.1283657E+00
          2   -1    0    0  501    0  0.00000000000E+00  0.00000000000E+00  0.10092734238E+03  0.10092734238E+03  0.00000000000E+00 0. -1.
         -2   -1    0    0    0  501 -0.00000000000E+00 -0.00000000000E+00 -0.12814392771E+03  0.12814392771E+03  0.00000000000E+00 0.  1.
         25    2    1    2    0    0 -0.22858952689E+02  0.20826718927E+02  0.67946105104E+01  0.12903312917E+03  0.12508835978E+03 0.  0.
         23    2    1    2    0    0  0.22858952689E+02 -0.20826718927E+02 -0.34011195836E+02  0.10003814092E+03  0.88851473013E+02 0.  0.
          5    1    3    3  502    0  0.33258960948E+02 -0.34400539350E+02  0.13526786971E+02  0.49899919405E+02  0.41800000000E+01 0.  1.
         -5    1    3    3    0  502 -0.56117913637E+02  0.55227258277E+02 -0.67321764609E+01  0.79133209765E+02  0.41800000000E+01 0.  1.
        -11    1    4    4    0    0  0.39412263739E+02 -0.31336230428E+02 -0.52744716508E+02  0.72919757199E+02  0.00000000000E+00 0.  1.
         11    1    4    4    0    0 -0.16553311050E+02  0.10509511501E+02  0.18733520672E+02  0.27118383718E+02  0.00000000000E+00 0. -1.
</event>
<event>
 8    1  0.7026811E-009  0.1023820E+03  0.7561462E-02  0.1275365E+00
         -2   -1    0    0    0  501 -0.00000000000E+00  0.00000000000E+00  0.17220497448E+02  0.17220497448E+02  0.00000000000E+00 0.  1.
          2   -1    0    0  501    0  0.00000000000E+00 -0.00000000000E+00 -0.73543984039E+03  0.73543984039E+03  0.00000000000E+00 0. -1.
         25    2    1    2    0    0  0.10948178146E+02 -0.10483608384E+02 -0.48235871209E+03  0.49854528777E+03  0.12509079974E+03 0.  0.
         23    2    1    2    0    0 -0.10948178146E+02  0.10483608384E+02 -0.23586063086E+03  0.25411505007E+03  0.93351233708E+02 0.  0.
          5    1    3    3  502    0  0.43693895317E+02 -0.51860343307E+02 -0.33865268838E+03  0.34540087933E+03  0.41800000000E+01 0.  1.
         -5    1    3    3    0  502 -0.32745717170E+02  0.41376734923E+02 -0.14370602371E+03  0.15314440844E+03  0.41800000000E+01 0.  1.
        -11    1    4    4    0    0 -0.42206476513E+02  0.25394853604E+02 -0.76148730559E+02  0.90691313889E+02  0.00000000000E+00 0.  1.
         11    1    4    4    0    0  0.31258298367E+02 -0.14911245219E+02 -0.15971190030E+03  0.16342373618E+03  0.00000000000E+00 0. -1.
</event>
<event>
 8    1  0.7026811E-009  0.9357270E+02  0.7561462E-02  0.1294423E+00
          2   -1    0    0  501    0  0.00000000000E+00  0.00000000000E+00  0.10554459498E+04  0.10554459498E+04  0.00000000000E+00 0. -1.
         -2   -1    0    0    0  501 -0.00000000000E+00 -0.00000000000E+00 -0.25596353956E+02  0.25596353956E+02  0.00000000000E+00 0.  1.
         25    2    1    2    0    0  0.15667062917E+02  0.66381309963E+02  0.89519959026E+03  0.90646612100E+03  0.12508631799E+03 0.  0.
         23    2    1    2    0    0 -0.15667062917E+02 -0.66381309963E+02  0.13465000557E+03  0.17457618275E+03  0.87717070220E+02 0.  0.
          5    1    3    3  502    0  0.11476088653E+02  0.88275584191E+02  0.36284032629E+03  0.37362394751E+03  0.41800000000E+01 0. -1.
         -5    1    3    3    0  502  0.41909742645E+01 -0.21894274228E+02  0.53235926397E+03  0.53284217349E+03  0.41800000000E+01 0. -1.
        -11    1    4    4    0    0 -0.25204846894E+02 -0.54992692601E+02  0.14456816223E+03  0.15671449861E+03  0.00000000000E+00 0. -1.
         11    1    4    4    0    0  0.95377839774E+01 -0.11388617362E+02 -0.99181566521E+01  0.17861684131E+02  0.00000000000E+00 0.  1.
</event>
<event>
 8    1  0.7026811E-009  0.1317502E+03  0.7561462E-02  0.1224882E+00
         -3   -1    0    0    0  501 -0.00000000000E+00  0.00000000000E+00  0.21400169216E+03  0.21400169216E+03  0.00000000000E+00 0.  1.
          3   -1    0    0  501    0  0.00000000000E+00 -0.00000000000E+00 -0.11327589551E+03  0.11327589551E+03  0.00000000000E+00 0. -1.
         25    2    1    2    0    0  0.87901040774E+02  0.68719161229E+02  0.55769890973E+02  0.17665251612E+03  0.12508762778E+03 0.  0.
         23    2    1    2    0    0 -0.87901040774E+02 -0.68719161229E+02  0.44955905677E+02  0.15062507155E+03  0.90652979188E+02 0.  0.
          5    1    3    3  502    0  0.51617493904E+02 -0.12670048197E+02 -0.22602709250E+02  0.57907259162E+02  0.41800000000E+01 0. -1.
         -5    1    3    3    0  502  0.36283546870E+02  0.81389209426E+02  0.78372600222E+02  0.11874525696E+03  0.41800000000E+01 0. -1.
        -11    1    4    4    0    0 -0.61043342097E+02 -0.71457367906E+02  0.67290122328E+02  0.11558722077E+03  0.00000000000E+00 0.  1.
         11    1    4    4    0    0 -0.26857698677E+02  0.27382066772E+01 -0.22334216651E+02  0.35037850782E+02  0.00000000000E+00 0. -1.
</event>
<event>
 8    1  0.7026811E-009  0.1034143E+03  0.7561462E-02  0.1273276E+00
         -1   -1    0    0    0  501 -0.00000000000E+00  0.00000000000E+00  0.11385253913E+03  0.11385253913E+03  0.00000000000E+00 0.  1.
          1   -1    0    0  501    0  0.00000000000E+00 -0.00000000000E+00 -0.11018596045E+03  0.11018596045E+03  0.00000000000E+00 0. -1.
         25    2    1    2    0    0 -0.33783460270E+01 -0.19498156133E+02 -0.28515340407E+02  0.12981350378E+03  0.12508728877E+03 0.  0.
         23    2    1    2    0    0  0.33783460270E+01  0.19498156133E+02  0.32181919079E+02  0.94224995795E+02  0.86319653628E+02 0.  0.
          5    1    3    3  502    0  0.47536315553E+02 -0.41718442041E+02 -0.37104252830E+02  0.73446086899E+02  0.41800000000E+01 0.  1.
         -5    1    3    3    0  502 -0.50914661580E+02  0.22220285907E+02  0.85889124233E+01  0.56367416885E+02  0.41800000000E+01 0.  1.
        -11    1    4    4    0    0  0.99670567742E+01 -0.33180825737E+02  0.64997272086E+01  0.35249905973E+02  0.00000000000E+00 0.  1.
         11    1    4    4    0    0 -0.65887107472E+01  0.52678981871E+02  0.25682191870E+02  0.58975089822E+02  0.00000000000E+00 0. -1.
</event>
<event>
 8    1  0.7026811E-009  0.1409240E+03  0.7561462E-02  0.1212091E+00
          1   -1    0    0  501    0  0.00000000000E+00  0.00000000000E+00  0.86370359793E+03  0.86370359793E+03  0.00000000000E+00 0.  1.
         -1   -1    0    0    0  501 -0.00000000000E+00 -0.00000000000E+00 -0.25208036856E+02  0.25208036856E+02  0.00000000000E+00 0. -1.
         25    2    1    2    0    0 -0.96730839013E+01  0.95446351414E+02  0.42274816891E+03  0.45118275471E+03  0.12508512814E+03 0.  0.
         23    2    1    2    0    0  0.96730839013E+01 -0.95446351414E+02  0.41574739216E+03  0.43772888007E+03  0.97760440922E+02 0.  0.
          5    1    3    3  502    0 -0.41312947328E+02  0.10426088966E+03  0.23360806306E+03  0.25916653382E+03  0.41800000000E+01 0.  1.
         -5    1    3    3    0  502  0.31639863426E+02 -0.88145382436E+01  0.18914010585E+03  0.19201622089E+03  0.41800000000E+01 0.  1.
        -11    1    4    4    0    0  0.30759189542E+02  0.73094923372E+01  0.81939104216E+02  0.87826950415E+02  0.00000000000E+00 0.  1.
         11    1    4    4    0    0 -0.21086105641E+02 -0.10275584375E+03  0.33380828795E+03  0.34990192966E+03  0.00000000000E+00 0. -1.
</event>
<event>
 8    1  0.7026811E-009  0.1137095E+03  0.7561462E-02  0.1253851E+00
         -3   -1    0    0    0  501 -0.00000000000E+00  0.00000000000E+00  0.31603529582E+02  0.31603529582E+02  0.00000000000E+00 0.  1.
          3   -1    0    0  501    0  0.00000000000E+00 -0.00000000000E+00 -0.52209508223E+03  0.52209508223E+03  0.00000000000E+00 0. -1.
         25    2    1    2    0    0 -0.66332488952E+02 -0.58471203456E+01 -0.23751154289E+03  0.27657003237E+03  0.12508022184E+03 0.  0.
         23    2    1    2    0    0  0.66332488952E+02  0.58471203456E+01 -0.25298000976E+03  0.27712857944E+03  0.91472270643E+02 0.  0.
          5    1    3    3  502    0  0.19980179131E+02  0.34203260062E+02 -0.36023750225E+02  0.53705246831E+02  0.41800000000E+01 0.  1.
         -5    1    3    3    0  502 -0.86312668083E+02 -0.40050380407E+02 -0.20148779266E+03  0.22286478554E+03  0.41800000000E+01 0.  1.
        -11    1    4    4    0    0  0.26209014008E+02  0.34291681821E+02 -0.20094572977E+03  0.20552863102E+03  0.00000000000E+00 0. -1.
         11    1    4    4    0    0  0.40123474944E+02 -0.28444561476E+02 -0.52034279994E+02  0.71599948419E+02  0.00000000000E+00 0.  1.
</event>
<event>
 8    1  0.7026811E-009  0.1039686E+03  0.7561462E-02  0.1272165E+00
         -2   -1    0    0    0  501 -0.00000000000E+00  0.00000000000E+00  0.28394654617E+02  0.28394654617E+02  0.00000000000E+00 0.  1.
          2   -1    0    0  501    0  0.00000000000E+00 -0.00000000000E+00 -0.56363738052E+03  0.56363738052E+03  0.00000000000E+00 0. -1.
         25    2    1    2    0    0 -0.42761838154E+02 -0.34230271871E+00 -0.18686836399E+03  0.22890184902E+03  0.12509028359E+03 0.  0.
         23    2    1    2    0    0  0.42761838154E+02  0.34230271871E+00 -0.34837436191E+03  0.36313018612E+03  0.93113608352E+02 0.  0.
          5    1    3    3  502    0  0.83047783696E+01 -0.42202106751E+02 -0.16708801558E+02  0.46331885430E+02  0.41800000000E+01 0. -1.
         -5    1    3    3    0  502 -0.51066616524E+02  0.41859804032E+02 -0.17015956243E+03  0.18256996359E+03  0.41800000000E+01 0. -1.
        -11    1    4    4    0    0  0.36806692175E+02 -0.41974563241E+02 -0.14636560435E+03  0.15665084323E+03  0.00000000000E+00 0.  1.
         11    1    4    4    0    0  0.59551459797E+01  0.42316865960E+02 -0.20200875756E+03  0.20647934289E+03  0.00000000000E+00 0. -1.
</event>
<event>
 8    1  0.7026811E-009  0.1198922E+03  0.7561462E-02  0.1243275E+00
         -1   -1    0    0    0  501 -0.00000000000E+00  0.00000000000E+00  0.18706247191E+03  0.18706247191E+03  0.00000000000E+00 0.  1.
          1   -1    0    0  501    0  0.00000000000E+00 -0.00000000000E+00 -0.86255988052E+02  0.86255988052E+02  0.00000000000E+00 0. -1.
         25    2    1    2    0    0  0.45214481769E+02 -0.28779132317E+02  0.96944879344E+02  0.16708814104E+03  0.12509016518E+03 0.  0.
         23    2    1    2    0    0 -0.45214481769E+02  0.28779132317E+02  0.38616045180E+01  0.10623031893E+03  0.91637224159E+02 0.  0.
          5    1    3    3  502    0  0.54656471189E+02 -0.72571086087E+02  0.61146401731E+02  0.10959127348E+03  0.41800000000E+01 0. -1.
         -5    1    3    3    0  502 -0.94419894205E+01  0.43791953771E+02  0.35798477614E+02  0.57496867556E+02  0.41800000000E+01 0. -1.
        -11    1    4    4    0    0 -0.25537746939E+02 -0.31432613217E+02  0.12299061100E+02  0.42325554885E+02  0.00000000000E+00 0.  1.
         11    1    4    4    0    0 -0.19676734830E+02  0.60211745534E+02 -0.84374565816E+01  0.63904764043E+02  0.00000000000E+00 0. -1.
</event>
<event>
 8    1  0.7026811E-009  0.1988336E+03  0.7561462E-02  0.1150727E+00
         -1   -1    0    0    0  501 -0.00000000000E+00  0.00000000000E+00  0.58127319802E+02  0.58127319802E+02  0.00000000000E+00 0.  1.
          1   -1    0    0  501    0  0.00000000000E+00 -0.00000000000E+00 -0.81838116189E+03  0.81838116189E+03  0.00000000000E+00 0. -1.
         25    2    1    2    0    0  0.35151173362E+02  0.18284867291E+03 -0.33028345659E+03  0.39925385210E+03  0.12508890658E+03 0.  0.
         23    2    1    2    0    0 -0.35151173362E+02 -0.18284867291E+03 -0.42997038550E+03  0.47725462959E+03  0.90709464143E+02 0.  0.
          5    1    3    3  502    0  0.47720295729E+02  0.18844792183E+03 -0.24507476016E+03  0.31284014501E+03  0.41800000000E+01 0.  1.
         -5    1    3    3    0  502 -0.12569122367E+02 -0.55992489174E+01 -0.85208696430E+02  0.86413707089E+02  0.41800000000E+01 0.  1.
        -11    1    4    4    0    0 -0.33086052762E+02 -0.88632907949E+02 -0.31333248930E+03  0.32730372456E+03  0.00000000000E+00 0. -1.
         11    1    4    4    0    0 -0.20651206000E+01 -0.94215764960E+02 -0.11663789620E+03  0.14995090503E+03  0.00000000000E+00 0.  1.
</event>
<event>
 8    1  0.7026811E-009  0.1332817E+03  0.7561462E-02  0.1222666E+00
          2   -1    0    0  501    0  0.00000000000E+00  0.00000000000E+00  0.59988811708E+02  0.59988811708E+02  0.00000000000E+00 0. -1.
         -2   -1    0    0    0  501 -0.00000000000E+00 -0.00000000000E+00 -0.47252939143E+03  0.47252939143E+03  0.00000000000E+00 0.  1.
         25    2    1    2    0    0  0.79343883460E+02  0.43456488586E+02 -0.36094407076E+03  0.39257113465E+03  0.12509018865E+03 0.  0.
         23    2    1    2    0    0 -0.79343883460E+02 -0.43456488586E+02 -0.51596508953E+02  0.13994706849E+03  0.93482961009E+02 0.  0.
          5    1    3    3  502    0  0.99823149765E+02  0.12567124924E+02 -0.16649978255E+03  0.19458222901E+03  0.41800000000E+01 0.  1.
         -5    1    3    3    0  502 -0.20479266304E+02  0.30889363662E+02 -0.19444428821E+03  0.19798890564E+03  0.41800000000E+01 0.  1.
        -11    1    4    4    0    0 -0.12969092704E+02 -0.58991617977E+02 -0.13631395545E+02  0.61919490482E+02  0.00000000000E+00 0.  1.
         11    1    4    4    0    0 -0.66374790756E+02  0.15535129391E+02 -0.37965113408E+02  0.78027578004E+02  0.00000000000E+00 0. -1.
</event>
<event>
 8    1  0.7026811E-009  0.2482639E+03  0.7561462E-02  0.1114407E+00
         -2   -1    0    0    0  501 -0.00000000000E+00  0.00000000000E+00  0.32403564089E+03  0.32403564089E+03  0.00000000000E+00 0.  1.
          2   -1    0    0  501    0  0.00000000000E+00 -0.00000000000E+00 -0.21177114578E+03  0.21177114578E+03  0.00000000000E+00 0. -1.
         25    2    1    2    0    0 -0.23219194232E+03  0.46956066549E+02  0.48484479262E+02  0.27224374319E+03  0.12509172919E+03 0.  0.
         23    2    1    2    0    0  0.23219194232E+03 -0.46956066549E+02  0.63780015848E+02  0.26356304349E+03  0.96330769784E+02 0.  0.
          5    1    3    3  502    0 -0.23561060763E+03  0.32457115957E+02  0.67941533747E+02  0.24738501816E+03  0.41800000000E+01 0.  1.
         -5    1    3    3    0  502  0.34186653050E+01  0.14498950592E+02 -0.19457054485E+02  0.24858725027E+02  0.41800000000E+01 0.  1.
        -11    1    4    4    0    0  0.11721433086E+03  0.43120379760E+01 -0.98761345951E+01  0.11770867031E+03  0.00000000000E+00 0.  1.
         11    1    4    4    0    0  0.11497761146E+03 -0.51268104525E+02  0.73656150443E+02  0.14585437319E+03  0.00000000000E+00 0. -1.
</event>
<event>
 8    1  0.7026811E-009  0.1159276E+03  0.7561462E-02  0.1249970E+00
         -2   -1    0    0    0  501 -0.00000000000E+00  0.00000000000E+00  0.46522688143E+02  0.46522688143E+02  0.00000000000E+00 0.  1.
          2   -1    0    0  501    0  0.00000000000E+00 -0.00000000000E+00 -0.35238402869E+03  0.35238402869E+03  0.00000000000E+00 0. -1.
         25    2    1    2    0    0 -0.23977453335E+02 -0.34299087882E+02 -0.88388366011E+02  0.15878049796E+03  0.12508955827E+03 0.  0.
         23    2    1    2    0    0  0.23977453335E+02  0.34299087882E+02 -0.21747297453E+03  0.24012621887E+03  0.92815734871E+02 0.  0.
          5    1    3    3  502    0  0.46189674393E+02 -0.37551115203E+02 -0.27409821430E+02  0.65668432175E+02  0.41800000000E+01 0.  1.
         -5    1    3    3    0  502 -0.70167127728E+02  0.32520273206E+01 -0.60978544581E+02  0.93112065784E+02  0.41800000000E+01 0.  1.
        -11    1    4    4    0    0 -0.24610912772E+01 -0.31139404234E+02 -0.66697238329E+02  0.73649447160E+02  0.00000000000E+00 0.  1.
         11    1    4    4    0    0  0.26438544612E+02  0.65438492116E+02 -0.15077573620E+03  0.16647677171E+03  0.00000000000E+00 0. -1.
</event>
<event>
 8    1  0.7026811E-009  0.1258665E+03  0.7561462E-02  0.1233721E+00
         -3   -1    0    0    0  501 -0.00000000000E+00  0.00000000000E+00  0.38656540743E+03  0.38656540743E+03  0.00000000000E+00 0.  1.
          3   -1    0    0  501    0  0.00000000000E+00 -0.00000000000E+00 -0.56040127722E+02  0.56040127722E+02  0.00000000000E+00 0. -1.
         25    2    1    2    0    0 -0.47935737289E+02  0.85572934126E+02  0.19400211625E+03  0.25080172173E+03  0.12507645881E+03 0.  0.
         23    2    1    2    0    0  0.47935737289E+02 -0.85572934126E+02  0.13652316345E+03  0.19180381342E+03  0.92355653423E+02 0.  0.
          5    1    3    3  502    0  0.16054566988E+02  0.95444523854E+01 -0.11617822633E+02  0.22389548795E+02  0.41800000000E+01 0.  1.
         -5    1    3    3    0  502 -0.63990304278E+02  0.76028481741E+02  0.20561993888E+03  0.22841217293E+03  0.41800000000E+01 0.  1.
        -11    1    4    4    0    0  0.63971444156E+02 -0.22125229906E+02  0.54697521396E+02  0.87026951645E+02  0.00000000000E+00 0.  1.
         11    1    4    4    0    0 -0.16035706867E+02 -0.63447704220E+02  0.81825642058E+02  0.10477686178E+03  0.00000000000E+00 0. -1.
</event>
<event>
 8    1  0.7026811E-009  0.2254379E+03  0.7561462E-02  0.1129893E+00
          1   -1    0    0  501    0  0.00000000000E+00  0.00000000000E+00  0.23128695015E+03  0.23128695015E+03  0.00000000000E+00 0. -1.
         -1   -1    0    0    0  501 -0.00000000000E+00 -0.00000000000E+00 -0.24111461242E+03  0.24111461242E+03  0.00000000000E+00 0.  1.
         25    2    1    2    0    0 -0.11356733590E+03 -0.16821492569E+03 -0.56813464764E+02  0.24508694644E+03  0.12508413380E+03 0.  0.
         23    2    1    2    0    0  0.11356733590E+03  0.16821492569E+03  0.46985802495E+02  0.22731461613E+03  0.90942113814E+02 0.  0.
          5    1    3    3  502    0 -0.38997827123E+02  0.73829697223E+01  0.12880181054E+02  0.41936979221E+02  0.41800000000E+01 0.  1.
         -5    1    3    3    0  502 -0.74569508772E+02 -0.17559789541E+03 -0.69693645818E+02  0.20314996721E+03  0.41800000000E+01 0.  1.
        -11    1    4    4    0    0  0.51573638927E+00  0.71117260256E+02  0.20636804271E+00  0.71119429681E+02  0.00000000000E+00 0. -1.
         11    1    4    4    0    0  0.11305159951E+03  0.97097665434E+02  0.46779434453E+02  0.15619518645E+03  0.00000000000E+00 0.  1.
</event>
<event>
 8    1  0.7026811E-009  0.1263833E+03  0.7561462E-02  0.1232923E+00
         -1   -1    0    0    0  501 -0.00000000000E+00  0.00000000000E+00  0.26700736253E+03  0.26700736253E+03  0.00000000000E+00 0.  1.
          1   -1    0    0  501    0  0.00000000000E+00 -0.00000000000E+00 -0.62942528495E+02  0.62942528495E+02  0.00000000000E+00 0. -1.
         25    2    1    2    0    0  0.59916920908E+02  0.24668665220E+02  0.13596584086E+03  0.19578886805E+03  0.12509192827E+03 0.  0.
         23    2    1    2    0    0 -0.59916920908E+02 -0.24668665220E+02  0.68098993177E+02  0.13416102298E+03  0.95724222427E+02 0.  0.
          5    1    3    3  502    0  0.98501414996E+02  0.10355863473E+02  0.10233814059E+03  0.14247926195E+03  0.41800000000E+01 0.  1.
         -5    1    3    3    0  502 -0.38584494088E+02  0.14312801748E+02  0.33627700266E+02  0.53309606105E+02  0.41800000000E+01 0.  1.
        -11    1    4    4    0    0 -0.52834986951E+02 -0.57846328679E+02  0.32012431469E+02  0.84631727836E+02  0.00000000000E+00 0.  1.
         11    1    4    4    0    0 -0.70819339567E+01  0.33177663459E+02  0.36086561707E+02  0.49529295140E+02  0.00000000000E+00 0. -1.
</event>
<event>
 8    1  0.7026811E-009  0.1295340E+03  0.7561462E-02  0.1228149E+00
          1   -1    0    0  501    0  0.00000000000E+00  0.00000000000E+00  0.92944621895E+03  0.92944621895E+03  0.00000000000E+00 0. -1.
         -1   -1    0    0    0  501 -0.00000000000E+00 -0.00000000000E+00 -0.23693688648E+02  0.23693688648E+02  0.00000000000E+00 0.  1.
         25    2    1    2    0    0 -0.33404045805E+02  0.90234852888E+02  0.58343720013E+03  0.60440582122E+03  0.12509704742E+03 0.  0.
         23    2    1    2    0    0  0.33404045805E+02 -0.90234852888E+02  0.32231533017E+03  0.34873408638E+03  0.92033319988E+02 0.  0.
          5    1    3    3  502    0 -0.23594276764E+02 -0.28218990411E+02  0.18172875598E+03  0.18546108613E+03  0.41800000000E+01 0.  1.
         -5    1    3    3    0  502 -0.98097690414E+01  0.11845384330E+03  0.40170844415E+03  0.41894473509E+03  0.41800000000E+01 0.  1.
        -11    1    4    4    0    0 -0.64879227011E+00 -0.51644464229E+02  0.51015944778E+02  0.72596131016E+02  0.00000000000E+00 0. -1.
         11    1    4    4    0    0  0.34052838075E+02 -0.38590388659E+02  0.27129938539E+03  0.27613795536E+03  0.00000000000E+00 0.  1.
</event>
<event>
 8    1  0.7026811E-009  0.3255400E+03  0.7561462E-02  0.1073127E+00
          2   -1    0    0  501    0  0.00000000000E+00  0.00000000000E+00  0.11912510893E+04  0.11912510893E+04  0.00000000000E+00 0.  1.
         -2   -1    0    0    0  501 -0.00000000000E+00 -0.00000000000E+00 -0.95689231343E+02  0.95689231343E+02  0.00000000000E+00 0. -1.
         25    2    1    2    0    0  0.27899788549E+03  0.14589607203E+03  0.45451197170E+03  0.56688006955E+03  0.12508555829E+03 0.  0.
         23    2    1    2    0    0 -0.27899788549E+03 -0.14589607203E+03  0.64104988620E+03  0.72006025104E+03  0.91740528605E+02 0.  0.
          5    1    3    3  502    0  0.76501291320E+02 -0.13778742330E+02  0.75537688799E+02  0.10846988588E+03  0.41800000000E+01 0. -1.
         -5    1    3    3    0  502  0.20249659417E+03  0.15967481436E+03  0.37897428291E+03  0.45841018367E+03  0.41800000000E+01 0. -1.
        -11    1    4    4    0    0 -0.76682798335E+02 -0.49007488725E+02  0.10489004739E+03  0.13886650983E+03  0.00000000000E+00 0. -1.
         11    1    4    4    0    0 -0.20231508715E+03 -0.96888583301E+02  0.53615983881E+03  0.58119374121E+03  0.00000000000E+00 0.  1.
</event>
<event>
 8    1  0.7026811E-009  0.7793977E+02  0.7561462E-02  0.1335002E+00
         -2   -1    0    0    0  501 -0.00000000000E+00  0.00000000000E+00  0.79182492002E+02  0.79182492002E+02  0.00000000000E+00 0.  1.
          2   -1    0    0  501    0  0.00000000000E+00 -0.00000000000E+00 -0.16278490890E+03  0.16278490890E+03  0.00000000000E+00 0. -1.
         25    2    1    2    0    0 -0.21291129974E+02  0.12277530050E+02 -0.58267562609E+02  0.14016955227E+03  0.12509334343E+03 0.  0.
         23    2    1    2    0    0  0.21291129974E+02 -0.12277530050E+02 -0.25334854293E+02  0.10179784864E+03  0.95482444388E+02 0.  0.
          5    1    3    3  502    0  0.38439736532E+02  0.44551779841E+02 -0.21063455360E+02  0.62638773801E+02  0.41800000000E+01 0. -1.
         -5    1    3    3    0  502 -0.59730866505E+02 -0.32274249791E+02 -0.37204107250E+02  0.77530778464E+02  0.41800000000E+01 0. -1.
        -11    1    4    4    0    0  0.17380657741E+02 -0.15504150444E+01 -0.61471578134E+02  0.63900281444E+02  0.00000000000E+00 0. -1.
         11    1    4    4    0    0  0.39104722323E+01 -0.10727115005E+02  0.36136723842E+02  0.37897567197E+02  0.00000000000E+00 0.  1.
</event>
<event>
 8    1  0.7026811E-009  0.9208596E+02  0.7561462E-02  0.1297877E+00
         -2   -1    0    0    0  501 -0.00000000000E+00  0.00000000000E+00  0.16453639303E+02  0.16453639303E+02  0.00000000000E+00 0.  1.
          2   -1    0    0  501    0  0.00000000000E+00 -0.00000000000E+00 -0.72881440807E+03  0.72881440807E+03  0.00000000000E+00 0. -1.
         25    2    1    2    0    0 -0.12867064444E+01  0.12787207737E+02 -0.38067445182E+03  0.40090825078E+03  0.12509683842E+03 0.  0.
         23    2    1    2    0    0  0.12867064444E+01 -0.12787207737E+02 -0.33168631694E+03  0.34435979658E+03  0.91666178934E+02 0.  0.
          5    1    3    3  502    0  0.12613238875E+02  0.50120709236E+02 -0.67171490680E+02  0.84856707745E+02  0.41800000000E+01 0.  1.
         -5    1    3    3    0  502 -0.13899945319E+02 -0.37333501499E+02 -0.31350296114E+03  0.31605154304E+03  0.41800000000E+01 0.  1.
        -11    1    4    4    0    0  0.32260111591E+02  0.26841812141E+02 -0.16473446137E+03  0.16999600125E+03  0.00000000000E+00 0.  1.
         11    1    4    4    0    0 -0.30973405147E+02 -0.39629019878E+02 -0.16695185557E+03  0.17436379533E+03  0.00000000000E+00 0. -1.
</event>
<event>
 8    1  0.7026811E-009  0.1131385E+03  0.7561462E-02  0.1254866E+00
          3   -1    0    0  501    0  0.00000000000E+00  0.00000000000E+00  0.51084569042E+02  0.51084569042E+02  0.00000000000E+00 0. -1.
         -3   -1    0    0    0  501 -0.00000000000E+00 -0.00000000000E+00 -0.42987717762E+03  0.42987717762E+03  0.00000000000E+00 0.  1.
         25    2    1    2    0    0 -0.79653874554E+02 -0.52909059528E+02 -0.15090554087E+03  0.21809532935E+03  0.12509589166E+03 0.  0.
         23    2    1    2    0    0  0.79653874554E+02  0.52909059528E+02 -0.22788706771E+03  0.26286641731E+03  0.89566340809E+02 0.  0.
          5    1    3    3  502    0 -0.13503023840E+02 -0.53610945825E+02 -0.24315960647E+01  0.55496398302E+02  0.41800000000E+01 0. -1.
         -5    1    3    3    0  502 -0.66150850715E+02  0.70188629650E+00 -0.14847394480E+03  0.16259893105E+03  0.41800000000E+01 0. -1.
        -11    1    4    4    0    0  0.69052057250E+01  0.26129201681E+02 -0.58042615380E+01  0.27642476347E+02  0.00000000000E+00 0. -1.
         11    1    4    4    0    0  0.72748668830E+02  0.26779857847E+02 -0.22208280617E+03  0.23522394096E+03  0.00000000000E+00 0.  1.
</event>
<event>
 8    1  0.7026811E-009  0.9621458E+02  0.7561462E-02  0.1288464E+00
         -2   -1    0    0    0  501 -0.00000000000E+00  0.00000000000E+00  0.50982631720E+02  0.50982631720E+02  0.00000000000E+00 0.  1.
          2   -1    0    0  501    0  0.00000000000E+00 -0.00000000000E+00 -0.38606561468E+03  0.38606561468E+03  0.00000000000E+00 0. -1.
         25    2    1    2    0    0  0.38986239414E+02 -0.68775566117E+02 -0.24659895215E+03  0.28758762642E+03  0.12508235013E+03 0.  0.
         23    2    1    2    0    0 -0.38986239414E+02  0.68775566117E+02 -0.88484030811E+02  0.14946061998E+03  0.90879303786E+02 0.  0.
          5    1    3    3  502    0 -0.35381780485E+01 -0.49757572811E+02 -0.16385981424E+02  0.52671695845E+02  0.41800000000E+01 0.  1.
         -5    1    3    3    0  502  0.42524417463E+02 -0.19017993306E+02 -0.23021297072E+03  0.23491593058E+03  0.41800000000E+01 0.  1.
        -11    1    4    4    0    0 -0.49953165753E+02  0.37513366097E+02 -0.96887697281E+02  0.11528138310E+03  0.00000000000E+00 0. -1.
         11    1    4    4    0    0  0.10966926339E+02  0.31262200020E+02  0.84036664693E+01  0.34179236878E+02  0.00000000000E+00 0.  1.
</event>
<event>
 8    1  0.7026811E-009  0.9624957E+02  0.7561462E-02  0.1288386E+00
         -2   -1    0    0    0  501 -0.00000000000E+00  0.00000000000E+00  0.45197928418E+03  0.45197928418E+03  0.00000000000E+00 0.  1.
          2   -1    0    0  501    0  0.00000000000E+00 -0.00000000000E+00 -0.30716438564E+02  0.30716438564E+02  0.00000000000E+00 0. -1.
         25    2    1    2    0    0 -0.13548057813E+02  0.44689941306E+02  0.24708570475E+03  0.28085571377E+03  0.12509134958E+03 0.  0.
         23    2    1    2    0    0  0.13548057813E+02 -0.44689941306E+02  0.17417714086E+03  0.20184000897E+03  0.90669576473E+02 0.  0.
          5    1    3    3  502    0 -0.58288563732E+02  0.41076747357E+02  0.77572496305E+02  0.10545055912E+03  0.41800000000E+01 0. -1.
         -5    1    3    3    0  502  0.44740505920E+02  0.36131939490E+01  0.16951320845E+03  0.17540515465E+03  0.41800000000E+01 0. -1.
        -11    1    4    4    0    0  0.41321019105E+01 -0.58843645621E+02  0.17514599013E+03  0.18481278840E+03  0.00000000000E+00 0.  1.
         11    1    4    4    0    0  0.94159559021E+01  0.14153704315E+02 -0.96884927423E+00  0.17027220569E+02  0.00000000000E+00 0. -1.
</event>
<event>
 8    1  0.7026811E-009  0.1105353E+03  0.7561462E-02  0.1259582E+00
          2   -1    0    0  501    0  0.00000000000E+00  0.00000000000E+00  0.26880509871E+03  0.26880509871E+03  0.00000000000E+00 0.  1.
         -2   -1    0    0    0  501 -0.00000000000E+00 -0.00000000000E+00 -0.46250945927E+02  0.46250945927E+02  0.00000000000E+00 0. -1.
         25    2    1    2    0    0 -0.25644552441E+02  0.47149259630E+01  0.12547133008E+03  0.17908824993E+03  0.12509865304E+03 0.  0.
         23    2    1    2    0    0  0.25644552441E+02 -0.47149259630E+01  0.97082822703E+02  0.13596779471E+03  0.91554864086E+02 0.  0.
          5    1    3    3  502    0  0.36713404251E+02  0.41240131944E+02  0.52579606165E+02  0.76359085372E+02  0.41800000000E+01 0.  1.
         -5    1    3    3    0  502 -0.62357956692E+02 -0.36525205981E+02  0.72891723919E+02  0.10272916456E+03  0.41800000000E+01 0.  1.
        -11    1    4    4    0    0 -0.31278645692E+02  0.12735563479E+02  0.22702258365E+02  0.40693252368E+02  0.00000000000E+00 0.  1.
         11    1    4    4    0    0  0.56923198132E+02 -0.17450489442E+02  0.74380564338E+02  0.95274542343E+02  0.00000000000E+00 0. -1.
</event>
<event>
 8    1  0.7026811E-009  0.8852491E+02  0.7561462E-02  0.1306464E+00
         -1   -1    0    0    0  501 -0.00000000000E+00  0.00000000000E+00  0.40120418348E+03  0.40120418348E+03  0.00000000000E+00 0.  1.
          1   -1    0    0  501    0  0.00000000000E+00 -0.00000000000E+00 -0.37566132304E+02  0.37566132304E+02  0.00000000000E+00 0. -1.
         25    2    1    2    0    0  0.30739250846E+01  0.56190707694E+02  0.21425039368E+03  0.25439574009E+03  0.12508843566E+03 0.  0.
         23    2    1    2    0    0 -0.30739250846E+01 -0.56190707694E+02  0.14938765749E+03  0.18437457569E+03  0.92252194035E+02 0.  0.
          5    1    3    3  502    0  0.28416786355E+01  0.67463477516E+02  0.22700187039E+03  0.23686856587E+03  0.41800000000E+01 0. -1.
         -5    1    3    3    0  502  0.23224644919E+00 -0.11272769822E+02 -0.12751476709E+02  0.17527174220E+02  0.41800000000E+01 0. -1.
        -11    1    4    4    0    0  0.34979108734E+02 -0.78466606943E+01  0.19869791995E+02  0.40986787698E+02  0.00000000000E+00 0.  1.
         11    1    4    4    0    0 -0.38053033818E+02 -0.48344047000E+02  0.12951786550E+03  0.14338778799E+03  0.00000000000E+00 0. -1.
</event>
<event>
 8    1  0.7026811E-009  0.9523421E+02  0.7561462E-02  0.1290649E+00
         -1   -1    0    0    0  501 -0.00000000000E+00  0.00000000000E+00  0.70018216525E+02  0.70018216525E+02  0.00000000000E+00 0.  1.
          1   -1    0    0  501    0  0.00000000000E+00 -0.00000000000E+00 -0.18215821553E+03  0.18215821553E+03  0.00000000000E+00 0. -1.
         25    2    1    2    0    0  0.86270592623E+01  0.16757298970E+02 -0.35429438177E+02  0.13137237419E+03  0.12509285507E+03 0.  0.
         23    2    1    2    0    0 -0.86270592623E+01 -0.16757298970E+02 -0.76710560827E+02  0.12080405786E+03  0.91399546135E+02 0.  0.
          5    1    3    3  502    0  0.15662750390E+02 -0.40944855438E+02  0.22281905702E+02  0.49353405742E+02  0.41800000000E+01 0.  1.
         -5    1    3    3    0  502 -0.70356911280E+01  0.57702154408E+02 -0.57711343879E+02  0.82018968448E+02  0.41800000000E+01 0.  1.
        -11    1    4    4    0    0 -0.41873771760E+02 -0.30880976178E+02 -0.24993782708E+02  0.57721197365E+02  0.00000000000E+00 0.  1.
         11    1    4    4    0    0  0.33246712498E+02  0.14123677208E+02 -0.51716778119E+02  0.63082860499E+02  0.00000000000E+00 0. -1.
</event>
<event>
 8    1  0.7026811E-009  0.6056889E+02  0.7561462E-02  0.1395460E+00
          2   -1    0    0  501    0  0.00000000000E+00  0.00000000000E+00  0.10079110107E+04  0.10079110107E+04  0.00000000000E+00 0. -1.
         -2   -1    0    0    0  501 -0.00000000000E+00 -0.00000000000E+00 -0.13351405753E+02  0.13351405753E+02  0.00000000000E+00 0.  1.
         25    2    1    2    0    0 -0.19417020258E+02  0.92603354907E-01  0.71804361931E+03  0.72911954757E+03  0.12510653927E+03 0.  0.
         23    2    1    2    0    0  0.19417020258E+02 -0.92603354907E-01  0.27651598566E+03  0.29214286890E+03  0.92246063737E+02 0.  0.
          5    1    3    3  502    0 -0.13104264060E+02 -0.10574321186E+02  0.71560269330E+03  0.71581298190E+03  0.41800000000E+01 0.  1.
         -5    1    3    3    0  502 -0.63127561987E+01  0.10666924541E+02  0.24409260065E+01  0.13306565663E+02  0.41800000000E+01 0.  1.
        -11    1    4    4    0    0  0.48319950015E+02 -0.23296318038E+02  0.12250927166E+03  0.13373876643E+03  0.00000000000E+00 0. -1.
         11    1    4    4    0    0 -0.28902929756E+02  0.23203714683E+02  0.15400671399E+03  0.15840410247E+03  0.00000000000E+00 0.  1.
</event>
<event>
 8    1  0.7026811E-009  0.1166124E+03  0.7561462E-02  0.1248793E+00
          2   -1    0    0  501    0  0.00000000000E+00  0.00000000000E+00  0.11106428468E+03  0.11106428468E+03  0.00000000000E+00 0. -1.
         -2   -1    0    0    0  501 -0.00000000000E+00 -0.00000000000E+00 -0.14751295849E+03  0.14751295849E+03  0.00000000000E+00 0.  1.
         25    2    1    2    0    0  0.11993684096E+02 -0.56060249681E+02  0.24746171624E+02  0.13980683694E+03  0.12508788347E+03 0.  0.
         23    2    1    2    0    0 -0.11993684096E+02  0.56060249681E+02 -0.61194845432E+02  0.11877040624E+03  0.84113020620E+02 0.  0.
          5    1    3    3  502    0 -0.55864839585E+02 -0.15082940862E+02  0.14196156381E+02  0.59727536889E+02  0.41800000000E+01 0. -1.
         -5    1    3    3    0  502  0.67858523681E+02 -0.40977308819E+02  0.10550015243E+02  0.80079300046E+02  0.41800000000E+01 0. -1.
        -11    1    4    4    0    0 -0.26550227011E+02  0.70493987223E+02 -0.29237080134E+02  0.80802992789E+02  0.00000000000E+00 0. -1.
         11    1    4    4    0    0  0.14556542915E+02 -0.14433737542E+02 -0.31957765298E+02  0.37967413448E+02  0.00000000000E+00 0.  1.
</event>
<event>
 8    1  0.7026811E-009  0.1017133E+03  0.7561462E-02  0.1276734E+00
         -4   -1    0    0    0  501 -0.00000000000E+00  0.00000000000E+00  0.28410101191E+02  0.28410101191E+02  0.00000000000E+00 0.  1.
          4   -1    0    0  501    0  0.00000000000E+00 -0.00000000000E+00 -0.60157174027E+03  0.60157174027E+03  0.00000000000E+00 0. -1.
         25    2    1    2    0    0  0.65160265474E+02 -0.34157913456E+02 -0.32517296110E+03  0.35608560905E+03  0.12508750175E+03 0.  0.
         23    2    1    2    0    0 -0.65160265474E+02  0.34157913456E+02 -0.24798867798E+03  0.27389623242E+03  0.90045202399E+02 0.  0.
          5    1    3    3  502    0 -0.10658567072E+02  0.22988018512E+01 -0.22458031286E+03  0.22488370076E+03  0.41800000000E+01 0.  1.
         -5    1    3    3    0  502  0.75818832546E+02 -0.36456715308E+02 -0.10059264824E+03  0.13120190829E+03  0.41800000000E+01 0.  1.
        -11    1    4    4    0    0 -0.16582156889E+02  0.52908112884E+02 -0.17945289586E+03  0.18782326312E+03  0.00000000000E+00 0. -1.
         11    1    4    4    0    0 -0.48578108585E+02 -0.18750199427E+02 -0.68535782121E+02  0.86072969294E+02  0.00000000000E+00 0.  1.
</event>
<event>
 8    1  0.7026811E-009  0.1217357E+03  0.7561462E-02  0.1240261E+00
         -2   -1    0    0    0  501 -0.00000000000E+00  0.00000000000E+00  0.34304591036E+02  0.34304591036E+02  0.00000000000E+00 0.  1.
          2   -1    0    0  501    0  0.00000000000E+00 -0.00000000000E+00 -0.59114730605E+03  0.59114730605E+03  0.00000000000E+00 0. -1.
         25    2    1    2    0    0 -0.54485808154E+01  0.69255493398E+02 -0.16642445161E+03  0.21947919004E+03  0.12509199162E+03 0.  0.
         23    2    1    2    0    0  0.54485808154E+01 -0.69255493398E+02 -0.39041826341E+03  0.40597270705E+03  0.86956357276E+02 0.  0.
          5    1    3    3  502    0 -0.81555516054E+01 -0.30727855045E+02 -0.83641786961E+02  0.89577536379E+02  0.41800000000E+01 0.  1.
         -5    1    3    3    0  502  0.27069707900E+01  0.99983348443E+02 -0.82782664651E+02  0.12990165366E+03  0.41800000000E+01 0.  1.
        -11    1    4    4    0    0 -0.17295795110E+02  0.15695396596E+02 -0.81691073936E+02  0.84964236968E+02  0.00000000000E+00 0. -1.
         11    1    4    4    0    0  0.22744375925E+02 -0.84950889994E+02 -0.30872718947E+03  0.32100847008E+03  0.00000000000E+00 0.  1.
</event>
<event>
 8    1  0.7026811E-009  0.1280962E+03  0.7561462E-02  0.1230308E+00
         -3   -1    0    0    0  501 -0.00000000000E+00  0.00000000000E+00  0.97057661692E+03  0.97057661692E+03  0.00000000000E+00 0.  1.
          3   -1    0    0  501    0  0.00000000000E+00 -0.00000000000E+00 -0.25354939311E+02  0.25354939311E+02  0.00000000000E+00 0. -1.
         25    2    1    2    0    0  0.10016175370E+03  0.30824323160E+02  0.37305354446E+03  0.40718498194E+03  0.12509255247E+03 0.  0.
         23    2    1    2    0    0 -0.10016175370E+03 -0.30824323160E+02  0.57216813316E+03  0.58874657429E+03  0.90904567216E+02 0.  0.
          5    1    3    3  502    0  0.36091720887E+02 -0.15853064760E+02  0.18304218255E+02  0.43662899409E+02  0.41800000000E+01 0. -1.
         -5    1    3    3    0  502  0.64070032815E+02  0.46677387921E+02  0.35474932620E+03  0.36352208253E+03  0.41800000000E+01 0. -1.
        -11    1    4    4    0    0 -0.48458673598E+02  0.30269552277E+02  0.28280115898E+03  0.28851513715E+03  0.00000000000E+00 0. -1.
         11    1    4    4    0    0 -0.51703080104E+02 -0.61093875437E+02  0.28936697418E+03  0.30023143715E+03  0.00000000000E+00 0.  1.
</event>
<event>
 8    1  0.7026811E-009  0.1012185E+03  0.7561462E-02  0.1277754E+00
         -1   -1    0    0    0  501 -0.00000000000E+00  0.00000000000E+00  0.81020257426E+01  0.81020257426E+01  0.00000000000E+00 0.  1.
          1   -1    0    0  501    0  0.00000000000E+00 -0.00000000000E+00 -0.22738133234E+04  0.22738133234E+04  0.00000000000E+00 0. -1.
         25    2    1    2    0    0  0.49282308040E+02 -0.14219974075E+02 -0.17710103748E+04  0.17761632198E+04  0.12508829742E+03 0.  0.
         23    2    1    2    0    0 -0.49282308040E+02  0.14219974075E+02 -0.49470092288E+03  0.50575212937E+03  0.91789213508E+02 0.  0.
          5    1    3    3  502    0  0.26197498809E+02 -0.49457165053E+02 -0.15567297090E+04  0.15577410501E+04  0.41800000000E+01 0.  1.
         -5    1    3    3    0  502  0.23084809232E+02  0.35237190978E+02 -0.21428066581E+03  0.21842216963E+03  0.41800000000E+01 0.  1.
        -11    1    4    4    0    0 -0.44941574796E+02 -0.33506924193E+02 -0.30372995714E+03  0.30885975131E+03  0.00000000000E+00 0.  1.
         11    1    4    4    0    0 -0.43407332447E+01  0.47726898269E+02 -0.19097096574E+03  0.19689237806E+03  0.00000000000E+00 0. -1.
</event>
<event>
 8    1  0.7026811E-009  0.6796824E+02  0.7561462E-02  0.1367142E+00
          1   -1    0    0  501    0  0.00000000000E+00  0.00000000000E+00  0.34622616533E+03  0.34622616533E+03  0.00000000000E+00 0. -1.
         -1   -1    0    0    0  501 -0.00000000000E+00 -0.00000000000E+00 -0.51422335604E+02  0.51422335604E+02  0.00000000000E+00 0.  1.
         25    2    1    2    0    0  0.43164069548E+02  0.83599020460E+01  0.25687582906E+03  0.28907741971E+03  0.12509012019E+03 0.  0.
         23    2    1    2    0    0 -0.43164069548E+02 -0.83599020460E+01  0.37928000668E+02  0.10857108122E+03  0.91739422177E+02 0.  0.
          5    1    3    3  502    0  0.32892916401E+02  0.80323557823E+01  0.22291999316E+01  0.34189244231E+02  0.41800000000E+01 0. -1.
         -5    1    3    3    0  502  0.10271153147E+02  0.32754626376E+00  0.25464662913E+03  0.25488817548E+03  0.41800000000E+01 0. -1.
        -11    1    4    4    0    0 -0.26926051055E+01  0.32853532568E+02 -0.89756540219E+01  0.34163827209E+02  0.00000000000E+00 0.  1.
         11    1    4    4    0    0 -0.40471464442E+02 -0.41213434614E+02  0.46903654690E+02  0.74407254015E+02  0.00000000000E+00 0. -1.
</event>
<event>
 8    1  0.7026811E-009  0.1542017E+03  0.7561462E-02  0.1195403E+00
          4   -1    0    0  501    0  0.00000000000E+00  0.00000000000E+00  0.94420988249E+02  0.94420988249E+02  0.00000000000E+00 0. -1.
         -4   -1    0    0    0  501 -0.00000000000E+00 -0.00000000000E+00 -0.42874409752E+03  0.42874409752E+03  0.00000000000E+00 0.  1.
         25    2    1    2    0    0  0.12953962070E+03  0.81285713897E+02 -0.81005779036E+02  0.21353520088E+03  0.12508982837E+03 0.  0.
         23    2    1    2    0    0 -0.12953962070E+03 -0.81285713897E+02 -0.25331733023E+03  0.30962988489E+03  0.91176286403E+02 0.  0.
          5    1    3    3  502    0  0.11267643688E+03  0.76213083195E+02 -0.11292325933E+03  0.17684328762E+03  0.41800000000E+01 0. -1.
         -5    1    3    3    0  502  0.16863183822E+02  0.50726307022E+01  0.31917480290E+02  0.36691913264E+02  0.41800000000E+01 0. -1.
        -11    1    4    4    0    0 -0.68103633046E+02 -0.54330572131E+02 -0.62107425716E+02  0.10699181385E+03  0.00000000000E+00 0. -1.
         11    1    4    4    0    0 -0.61435987658E+02 -0.26955141765E+02 -0.19120990452E+03  0.20263807103E+03  0.00000000000E+00 0.  1.
</event>
<event>
 8    1  0.7026811E-009  0.9937334E+02  0.7561462E-02  0.1281619E+00
          2   -1    0    0  501    0  0.00000000000E+00  0.00000000000E+00  0.21837900758E+03  0.21837900758E+03  0.00000000000E+00 0. -1.
         -2   -1    0    0    0  501 -0.00000000000E+00 -0.00000000000E+00 -0.64032853950E+02  0.64032853950E+02  0.00000000000E+00 0.  1.
         25    2    1    2    0    0  0.29575589987E+02 -0.33203292501E+02  0.68853723093E+02  0.14955236635E+03  0.12509157022E+03 0.  0.
         23    2    1    2    0    0 -0.29575589987E+02  0.33203292501E+02  0.85492430534E+02  0.13285949518E+03  0.91463192728E+02 0.  0.
          5    1    3    3  502    0  0.58909311961E+02 -0.35882488056E+02 -0.56438570571E+01  0.69333869842E+02  0.41800000000E+01 0. -1.
         -5    1    3    3    0  502 -0.29333721974E+02  0.26791955553E+01  0.74497580150E+02  0.80218496507E+02  0.41800000000E+01 0. -1.
        -11    1    4    4    0    0 -0.52006238031E+02 -0.83488569187E+01  0.32548038946E+02  0.61917098165E+02  0.00000000000E+00 0.  1.
         11    1    4    4    0    0  0.22430648044E+02  0.41552149419E+02  0.52944391589E+02  0.70942397011E+02  0.00000000000E+00 0. -1.
</event>
<event>
 8    1  0.7026811E-009  0.1108329E+03  0.7561462E-02  0.1259035E+00
         -1   -1    0    0    0  501 -0.00000000000E+00  0.00000000000E+00  0.10493363791E+03  0.10493363791E+03  0.00000000000E+00 0.  1.
          1   -1    0    0  501    0  0.00000000000E+00 -0.00000000000E+00 -0.14658634347E+03  0.14658634347E+03  0.00000000000E+00 0. -1.
         25    2    1    2    0    0 -0.17482236178E+02 -0.27222038429E+02  0.21379343798E+02  0.13094414877E+03  0.12507048332E+03 0.  0.
         23    2    1    2    0    0  0.17482236178E+02  0.27222038429E+02 -0.63032049362E+02  0.12057583261E+03  0.97564461795E+02 0.  0.
          5    1    3    3  502    0 -0.71251040580E+02 -0.20416434346E+02  0.61402078075E+01  0.74489704839E+02  0.41800000000E+01 0. -1.
         -5    1    3    3    0  502  0.53768804402E+02 -0.68056040830E+01  0.15239135990E+02  0.56454443930E+02  0.41800000000E+01 0. -1.
        -11    1    4    4    0    0  0.49681696574E+02  0.33953005359E+02 -0.63760157676E+02  0.87672317491E+02  0.00000000000E+00 0. -1.
         11    1    4    4    0    0 -0.32199460396E+02 -0.67309669303E+01  0.72810831380E+00  0.32903515121E+02  0.00000000000E+00 0.  1.
</event>
<event>
 8    1  0.7026811E-009  0.9477952E+02  0.7561462E-02  0.1291673E+00
         -2   -1    0    0    0  501 -0.00000000000E+00  0.00000000000E+00  0.18002197949E+03  0.18002197949E+03  0.00000000000E+00 0.  1.
          2   -1    0    0  501    0  0.00000000000E+00 -0.00000000000E+00 -0.10297820722E+03  0.10297820722E+03  0.00000000000E+00 0. -1.
         25    2    1    2    0    0 -0.56752133150E+02  0.29429825824E+01  0.10258849315E+03  0.17147872598E+03  0.12510431157E+03 0.  0.
         23    2    1    2    0    0  0.56752133150E+02 -0.29429825824E+01 -0.25544720891E+02  0.11152146073E+03  0.92493446655E+02 0.  0.
          5    1    3    3  502    0  0.21624072026E+02  0.26742581318E+02  0.78803808770E+02  0.86082976384E+02  0.41800000000E+01 0. -1.
         -5    1    3    3    0  502 -0.78376205176E+02 -0.23799598736E+02  0.23784684383E+02  0.85395749596E+02  0.41800000000E+01 0. -1.
        -11    1    4    4    0    0 -0.32925781657E+01 -0.11757414662E+02 -0.45911167467E+02  0.47506980211E+02  0.00000000000E+00 0. -1.
         11    1    4    4    0    0  0.60044711316E+02  0.88144320798E+01  0.20366446577E+02  0.64014480518E+02  0.00000000000E+00 0.  1.
</event>
<event>
 8    1  0.7026811E-009  0.1740632E+03  0.7561462E-02  0.1173676E+00
         -1   -1    0    0    0  501 -0.00000000000E+00  0.00000000000E+00  0.31793023413E+02  0.31793023413E+02  0.00000000000E+00 0.  1.
          1   -1    0    0  501    0  0.00000000000E+00 -0.00000000000E+00 -0.99545928638E+03  0.99545928638E+03  0.00000000000E+00 0. -1.
         25    2    1    2    0    0  0.11203071219E+03 -0.78809115922E+02 -0.60134635385E+03  0.62930750932E+03  0.12509495104E+03 0.  0.
         23    2    1    2    0    0 -0.11203071219E+03  0.78809115922E+02 -0.36231990912E+03  0.39794480047E+03  0.91228232753E+02 0.  0.
          5    1    3    3  502    0  0.13111173510E+03 -0.93055244561E+02 -0.53707014569E+03  0.56063480039E+03  0.41800000000E+01 0.  1.
         -5    1    3    3    0  502 -0.19081022908E+02  0.14246128638E+02 -0.64276208161E+02  0.68672708931E+02  0.41800000000E+01 0.  1.
        -11    1    4    4    0    0 -0.11751132159E+03  0.40314118301E+02 -0.25170381587E+03  0.28069369384E+03  0.00000000000E+00 0.  1.
         11    1    4    4    0    0  0.54806093980E+01  0.38494997621E+02 -0.11061609325E+03  0.11725110664E+03  0.00000000000E+00 0. -1.
</event>
<event>
 8    1  0.7026811E-009  0.9905788E+02  0.7561462E-02  0.1282290E+00
          2   -1    0    0  501    0  0.00000000000E+00  0.00000000000E+00  0.25624825778E+03  0.25624825778E+03  0.00000000000E+00 0. -1.
         -2   -1    0    0    0  501 -0.00000000000E+00 -0.00000000000E+00 -0.66254841700E+02  0.66254841700E+02  0.00000000000E+00 0.  1.
         25    2    1    2    0    0  0.19255672550E+02 -0.16679150682E+02  0.18730319246E+03  0.22667242053E+03  0.12509566472E+03 0.  0.
         23    2    1    2    0    0 -0.19255672550E+02  0.16679150682E+02  0.26902236194E+01  0.95830678945E+02  0.92343417368E+02 0.  0.
          5    1    3    3  502    0  0.47959098171E+02 -0.58277624612E+02  0.95520602258E+02  0.12181138897E+03  0.41800000000E+01 0.  1.
         -5    1    3    3    0  502 -0.28703425621E+02  0.41598473930E+02  0.91782590203E+02  0.10486103156E+03  0.41800000000E+01 0.  1.
        -11    1    4    4    0    0 -0.37995785683E+02 -0.99254809855E+01 -0.30216689557E+02  0.49550410999E+02  0.00000000000E+00 0.  1.
         11    1    4    4    0    0  0.18740113132E+02  0.26604631668E+02  0.32906913176E+02  0.46280267946E+02  0.00000000000E+00 0. -1.
</event>
<event>
 8    1  0.7026811E-009  0.9054132E+02  0.7561462E-02  0.1301546E+00
         -4   -1    0    0    0  501 -0.00000000000E+00  0.00000000000E+00  0.56327177896E+03  0.56327177896E+03  0.00000000000E+00 0.  1.
          4   -1    0    0  501    0  0.00000000000E+00 -0.00000000000E+00 -0.26284571815E+02  0.26284571815E+02  0.00000000000E+00 0. -1.
         25    2    1    2    0    0 -0.41500063118E+02 -0.35421586464E+02  0.33803466575E+03  0.36454418524E+03  0.12509230080E+03 0.  0.
         23    2    1    2    0    0  0.41500063118E+02  0.35421586464E+02  0.19895254140E+03  0.22501216554E+03  0.89841064573E+02 0.  0.
          5    1    3    3  502    0 -0.53775565868E+02 -0.40671488658E+02  0.34308354824E+03  0.34967095240E+03  0.41800000000E+01 0.  1.
         -5    1    3    3    0  502  0.12275502750E+02  0.52499021937E+01 -0.50488824968E+01  0.14873232845E+02  0.41800000000E+01 0.  1.
        -11    1    4    4    0    0  0.67255274844E+02  0.24865957539E+02  0.17163939219E+03  0.18601523806E+03  0.00000000000E+00 0.  1.
         11    1    4    4    0    0 -0.25755211726E+02  0.10555628925E+02  0.27313149215E+02  0.38996927483E+02  0.00000000000E+00 0. -1.
</event>
<event>
 8    1  0.7026811E-009  0.1642625E+03  0.7561462E-02  0.1183967E+00
          1   -1    0    0  501    0  0.00000000000E+00  0.00000000000E+00  0.23877090020E+03  0.23877090020E+03  0.00000000000E+00 0. -1.
         -1   -1    0    0    0  501 -0.00000000000E+00 -0.00000000000E+00 -0.12738782164E+03  0.12738782164E+03  0.00000000000E+00 0.  1.
         25    2    1    2    0    0 -0.12186834069E+03 -0.58141635764E+02  0.82928250639E+02  0.20188284443E+03  0.12508895175E+03 0.  0.
         23    2    1    2    0    0  0.12186834069E+03  0.58141635764E+02  0.28454827919E+02  0.16427587741E+03  0.89132173735E+02 0.  0.
          5    1    3    3  502    0  0.14074192196E+02 -0.30963750396E+02 -0.90712433576E+01  0.35448506042E+02  0.41800000000E+01 0.  1.
         -5    1    3    3    0  502 -0.13594253288E+03 -0.27177885368E+02  0.91999493996E+02  0.16643433839E+03  0.41800000000E+01 0.  1.
        -11    1    4    4    0    0  0.10780664005E+03  0.76678250683E+02  0.67650463014E+01  0.13246732283E+03  0.00000000000E+00 0.  1.
         11    1    4    4    0    0  0.14061700634E+02 -0.18536614919E+02  0.21689781618E+02  0.31808554573E+02  0.00000000000E+00 0. -1.
</event>
<event>
 8    1  0.7026811E-009  0.1928336E+03  0.7561462E-02  0.1155930E+00
         -3   -1    0    0    0  501 -0.00000000000E+00  0.00000000000E+00  0.13045736525E+03  0.13045736525E+03  0.00000000000E+00 0.  1.
          3   -1    0    0  501    0  0.00000000000E+00 -0.00000000000E+00 -0.34697296060E+03  0.34697296060E+03  0.00000000000E+00 0. -1.
         25    2    1    2    0    0  0.16088044758E+03  0.80014263040E+02 -0.14796023293E+03  0.26424359873E+03  0.12509056015E+03 0.  0.
         23    2    1    2    0    0 -0.16088044758E+03 -0.80014263040E+02 -0.68555362420E+02  0.21318672712E+03  0.91999685873E+02 0.  0.
          5    1    3    3  502    0  0.64113492125E+02 -0.13890366837E+02 -0.23945435532E+01  0.65777567621E+02  0.41800000000E+01 0. -1.
         -5    1    3    3    0  502  0.96766955451E+02  0.93904629876E+02 -0.14556568938E+03  0.19846603111E+03  0.41800000000E+01 0. -1.
        -11    1    4    4    0    0 -0.12095740033E+02 -0.22439707070E+02 -0.45278782543E+02  0.51961673654E+02  0.00000000000E+00 0. -1.
         11    1    4    4    0    0 -0.14878470754E+03 -0.57574555969E+02 -0.23276579877E+02  0.16122505346E+03  0.00000000000E+00 0.  1.
</event>
<event>
 8    1  0.7026811E-009  0.1100600E+03  0.7561462E-02  0.1260459E+00
         -2   -1    0    0    0  501 -0.00000000000E+00  0.00000000000E+00  0.53494891724E+02  0.53494891724E+02  0.00000000000E+00 0.  1.
          2   -1    0    0  501    0  0.00000000000E+00 -0.00000000000E+00 -0.28572982088E+03  0.28572982088E+03  0.00000000000E+00 0. -1.
         25    2    1    2    0    0  0.54213334514E+02  0.22628801842E+02 -0.13243965594E+03  0.19141236587E+03  0.12508910037E+03 0.  0.
         23    2    1    2    0    0 -0.54213334514E+02 -0.22628801842E+02 -0.99795273220E+02  0.14781234673E+03  0.91859920411E+02 0.  0.
          5    1    3    3  502    0 -0.35457893238E+02  0.17194298819E+02 -0.12604117622E+02  0.41584159073E+02  0.41800000000E+01 0.  1.
         -5    1    3    3    0  502  0.89671227752E+02  0.54345030226E+01 -0.11983553831E+03  0.14982820680E+03  0.41800000000E+01 0.  1.
        -11    1    4    4    0    0 -0.12670513441E+02 -0.42614827714E+02 -0.81137395915E+01  0.45192900129E+02  0.00000000000E+00 0.  1.
         11    1    4    4    0    0 -0.41542821073E+02  0.19986025872E+02 -0.91681533629E+02  0.10261944660E+03  0.00000000000E+00 0. -1.
</event>
<event>
 8    1  0.7026811E-009  0.1054297E+03  0.7561462E-02  0.1269275E+00
         -1   -1    0    0    0  501 -0.00000000000E+00  0.00000000000E+00  0.82007115374E+03  0.82007115374E+03  0.00000000000E+00 0.  1.
          1   -1    0    0  501    0  0.00000000000E+00 -0.00000000000E+00 -0.27828016861E+02  0.27828016861E+02  0.00000000000E+00 0. -1.
         25    2    1    2    0    0 -0.91708122680E+02  0.39986576651E+02  0.52072447460E+03  0.54480325957E+03  0.12508919664E+03 0.  0.
         23    2    1    2    0    0  0.91708122680E+02 -0.39986576651E+02  0.27151866228E+03  0.30309591103E+03  0.90196680866E+02 0.  0.
          5    1    3    3  502    0 -0.96149026000E+02  0.37525354275E+02  0.52620153930E+03  0.53624464545E+03  0.41800000000E+01 0.  1.
         -5    1    3    3    0  502  0.44409033192E+01  0.24612223756E+01 -0.54770647025E+01  0.85586141184E+01  0.41800000000E+01 0.  1.
        -11    1    4    4    0    0  0.51727840305E+02 -0.15076261568E+02  0.24104288597E+03  0.24699136827E+03  0.00000000000E+00 0.  1.
         11    1    4    4    0    0  0.39980282375E+02 -0.24910315082E+02  0.30475776314E+02  0.56104542760E+02  0.00000000000E+00 0. -1.
</event>
<event>
 8    1  0.7026811E-009  0.1090095E+03  0.7561462E-02  0.1262415E+00
         -1   -1    0    0    0  501 -0.00000000000E+00  0.00000000000E+00  0.19800625570E+03  0.19800625570E+03  0.00000000000E+00 0.  1.
          1   -1    0    0  501    0  0.00000000000E+00 -0.00000000000E+00 -0.10188498600E+03  0.10188498600E+03  0.00000000000E+00 0. -1.
         25    2    1    2    0    0  0.20695169380E+02  0.88004959426E+02  0.67212744435E+02  0.16833818172E+03  0.12508807893E+03 0.  0.
         23    2    1    2    0    0 -0.20695169380E+02 -0.88004959426E+02  0.28908525263E+02  0.13155305998E+03  0.91089746057E+02 0.  0.
          5    1    3    3  502    0  0.30778327599E+02  0.10114046064E+03  0.73171476297E+01  0.10605522749E+03  0.41800000000E+01 0. -1.
         -5    1    3    3    0  502 -0.10083158218E+02 -0.13135501210E+02  0.59895596805E+02  0.62282954236E+02  0.41800000000E+01 0. -1.
        -11    1    4    4    0    0 -0.28299618019E+02 -0.64554915513E+02 -0.22954589636E+02  0.74129067728E+02  0.00000000000E+00 0. -1.
         11    1    4    4    0    0  0.76044486383E+01 -0.23450043914E+02  0.51863114899E+02  0.57423992248E+02  0.00000000000E+00 0.  1.
</event>
<event>
 8    1  0.7026811E-009  0.1373751E+03  0.7561462E-02  0.1216905E+00
          2   -1    0    0  501    0  0.00000000000E+00  0.00000000000E+00  0.57346297028E+03  0.57346297028E+03  0.00000000000E+00 0. -1.
         -2   -1    0    0    0  501 -0.00000000000E+00 -0.00000000000E+00 -0.36018011355E+02  0.36018011355E+02  0.00000000000E+00 0.  1.
         25    2    1    2    0    0 -0.74707314500E+02 -0.47345957315E+02  0.28211225418E+03  0.32102629074E+03  0.12509089846E+03 0.  0.
         23    2    1    2    0    0  0.74707314500E+02  0.47345957315E+02  0.25533270474E+03  0.28845469089E+03  0.10093808037E+03 0.  0.
          5    1    3    3  502    0 -0.94593704907E+02 -0.64156280683E+01  0.24300633556E+03  0.26088058727E+03  0.41800000000E+01 0.  1.
         -5    1    3    3    0  502  0.19886390407E+02 -0.40930329246E+02  0.39105918617E+02  0.60145703475E+02  0.41800000000E+01 0.  1.
        -11    1    4    4    0    0  0.25848148392E+02 -0.31896722909E+02  0.82036979240E+02  0.91736544901E+02  0.00000000000E+00 0.  1.
         11    1    4    4    0    0  0.48859166108E+02  0.79242680224E+02  0.17329572550E+03  0.19671814598E+03  0.00000000000E+00 0. -1.
</event>
<event>
 8    1  0.7026811E-009  0.1039941E+03  0.7561462E-02  0.1272114E+00
          2   -1    0    0  501    0  0.00000000000E+00  0.00000000000E+00  0.36041868811E+03  0.36041868811E+03  0.00000000000E+00 0. -1.
         -2   -1    0    0    0  501 -0.00000000000E+00 -0.00000000000E+00 -0.55474231495E+02  0.55474231495E+02  0.00000000000E+00 0.  1.
         25    2    1    2    0    0 -0.25901376446E+02  0.79760540943E+01  0.40125307375E+02  0.13413349716E+03  0.12508899243E+03 0.  0.
         23    2    1    2    0    0  0.25901376446E+02 -0.79760540943E+01  0.26481914924E+03  0.28175942244E+03  0.92329256422E+02 0.  0.
          5    1    3    3  502    0 -0.72182165301E+02 -0.90608880275E+01  0.42904966013E+02  0.84561653176E+02  0.41800000000E+01 0. -1.
         -5    1    3    3    0  502  0.46280788854E+02  0.17036942122E+02 -0.27796586379E+01  0.49571843984E+02  0.41800000000E+01 0. -1.
        -11    1    4    4    0    0  0.41455955288E+02  0.25529106084E+02  0.82997193446E+02  0.96222999362E+02  0.00000000000E+00 0.  1.
         11    1    4    4    0    0 -0.15554578842E+02 -0.33505160178E+02  0.18182195579E+03  0.18553642308E+03  0.00000000000E+00 0. -1.
</event>
<event>
 8    1  0.7026811E-009  0.4703107E+03  0.7561462E-02  0.1021833E+00
         -2   -1    0    0    0  501 -0.00000000000E+00  0.00000000000E+00  0.77567006885E+03  0.77567006885E+03  0.00000000000E+00 0.  1.
          2   -1    0    0  501    0  0.00000000000E+00 -0.00000000000E+00 -0.47022968133E+03  0.47022968133E+03  0.00000000000E+00 0. -1.
         25    2    1    2    0    0  0.48183216728E+02 -0.45750093015E+03  0.54088594374E+03  0.72099336679E+03  0.12508040353E+03 0.  0.
         23    2    1    2    0    0 -0.48183216728E+02  0.45750093015E+03 -0.23544555623E+03  0.52490638340E+03  0.91996619063E+02 0.  0.
          5    1    3    3  502    0  0.75706060229E+02 -0.22619864530E+03  0.22052308986E+03  0.32487711562E+03  0.41800000000E+01 0. -1.
         -5    1    3    3    0  502 -0.27522843501E+02 -0.23130228485E+03  0.32036285388E+03  0.39611625116E+03  0.41800000000E+01 0. -1.
        -11    1    4    4    0    0  0.16454251645E+02  0.27465210134E+03 -0.13403851833E+03  0.30605692863E+03  0.00000000000E+00 0.  1.
         11    1    4    4    0    0 -0.64637468373E+02  0.18284882881E+03 -0.10140703790E+03  0.21884945477E+03  0.00000000000E+00 0. -1.
</event>
<event>
 8    1  0.7026811E-009  0.9182859E+02  0.7561462E-02  0.1298483E+00
         -1   -1    0    0    0  501 -0.00000000000E+00  0.00000000000E+00  0.10017372576E+03  0.10017372576E+03  0.00000000000E+00 0.  1.
          1   -1    0    0  501    0  0.00000000000E+00 -0.00000000000E+00 -0.12995188492E+03  0.12995188492E+03  0.00000000000E+00 0. -1.
         25    2    1    2    0    0 -0.33221717281E+02  0.14918230108E+02 -0.39938120819E+02  0.13626551139E+03  0.12508796909E+03 0.  0.
         23    2    1    2    0    0  0.33221717281E+02 -0.14918230108E+02  0.10159961665E+02  0.93860099291E+02  0.85908424087E+02 0.  0.
          5    1    3    3  502    0  0.20185515276E+02  0.44106159551E+02  0.18216620549E+02  0.51981977660E+02  0.41800000000E+01 0. -1.
         -5    1    3    3    0  502 -0.53407232557E+02 -0.29187929443E+02 -0.58154741368E+02  0.84283533731E+02  0.41800000000E+01 0. -1.
        -11    1    4    4    0    0  0.52800236598E+02 -0.94658983050E+01  0.33241028584E+02  0.63106530541E+02  0.00000000000E+00 0.  1.
         11    1    4    4    0    0 -0.19578519317E+02 -0.54523318031E+01 -0.23081066919E+02  0.30753568750E+02  0.00000000000E+00 0. -1.
</event>
<event>
 8    1  0.7026811E-009  0.1993261E+03  0.7561462E-02  0.1150309E+00
          1   -1    0    0  501    0  0.00000000000E+00  0.00000000000E+00  0.16546042545E+04  0.16546042545E+04  0.00000000000E+00 0. -1.
         -1   -1    0    0    0  501 -0.00000000000E+00 -0.00000000000E+00 -0.28090115571E+02  0.28090115571E+02  0.00000000000E+00 0.  1.
         25    2    1    2    0    0  0.18258702000E+03  0.23579677858E+02  0.75196554653E+03  0.78421520710E+03  0.12508911544E+03 0.  0.
         23    2    1    2    0    0 -0.18258702000E+03 -0.23579677858E+02  0.87454859241E+03  0.89847916298E+03  0.92388011876E+02 0.  0.
          5    1    3    3  502    0  0.15588028144E+03  0.44877983277E+02  0.41655676606E+03  0.44704553154E+03  0.41800000000E+01 0. -1.
         -5    1    3    3    0  502  0.26706738560E+02 -0.21298305419E+02  0.33540878047E+03  0.33716967556E+03  0.41800000000E+01 0. -1.
        -11    1    4    4    0    0 -0.35765201591E+02  0.28973412349E+02  0.13386158021E+03  0.14155398590E+03  0.00000000000E+00 0.  1.
         11    1    4    4    0    0 -0.14682181841E+03 -0.52553090208E+02  0.74068701220E+03  0.75692517708E+03  0.00000000000E+00 0. -1.
</event>
<event>
 8    1  0.7026811E-009  0.2062360E+03  0.7561462E-02  0.1144582E+00
          2   -1    0    0  501    0  0.00000000000E+00  0.00000000000E+00  0.17103337341E+04  0.17103337341E+04  0.00000000000E+00 0. -1.
         -2   -1    0    0    0  501 -0.00000000000E+00 -0.00000000000E+00 -0.25731527162E+02  0.25731527162E+02  0.00000000000E+00 0.  1.
         25    2    1    2    0    0 -0.11081367112E+03  0.13592073066E+03  0.72763514843E+03  0.75885125924E+03  0.12509280429E+03 0.  0.
         23    2    1    2    0    0  0.11081367112E+03 -0.13592073066E+03  0.95696705850E+03  0.97721400201E+03  0.91690457279E+02 0.  0.
          5    1    3    3  502    0 -0.12271435444E+03  0.57086691818E+02  0.44313305926E+03  0.46335956209E+03  0.41800000000E+01 0.  1.
         -5    1    3    3    0  502  0.11900683316E+02  0.78834038838E+02  0.28450208917E+03  0.29549169715E+03  0.41800000000E+01 0.  1.
        -11    1    4    4    0    0  0.10668740762E+03 -0.62409310656E+02  0.63761207567E+03  0.64948155019E+03  0.00000000000E+00 0. -1.
         11    1    4    4    0    0  0.41262635043E+01 -0.73511420000E+02  0.31935498283E+03  0.32773245182E+03  0.00000000000E+00 0.  1.
</event>
<event>
 8    1  0.7026811E-009  0.1002043E+03  0.7561462E-02  0.1279867E+00
          1   -1    0    0  501    0  0.00000000000E+00  0.00000000000E+00  0.26860316560E+02  0.26860316560E+02  0.00000000000E+00 0. -1.
         -1   -1    0    0    0  501 -0.00000000000E+00 -0.00000000000E+00 -0.73913255018E+03  0.73913255018E+03  0.00000000000E+00 0.  1.
         25    2    1    2    0    0 -0.78087599317E+02  0.40546000620E+02 -0.33341101274E+03  0.36681364731E+03  0.12509075545E+03 0.  0.
         23    2    1    2    0    0  0.78087599317E+02 -0.40546000620E+02 -0.37886122087E+03  0.39917921943E+03  0.89814103619E+02 0.  0.
          5    1    3    3  502    0 -0.83792008708E+02  0.44204428455E+02 -0.11857868544E+03  0.15183382120E+03  0.41800000000E+01 0.  1.
         -5    1    3    3    0  502  0.57044093916E+01 -0.36584278349E+01 -0.21483232730E+03  0.21497982611E+03  0.41800000000E+01 0.  1.
        -11    1    4    4    0    0  0.62320457323E+02 -0.98305389589E+01 -0.34534528938E+03  0.35106103144E+03  0.00000000000E+00 0. -1.
         11    1    4    4    0    0  0.15767141994E+02 -0.30715461661E+02 -0.33515931494E+02  0.48118187992E+02  0.00000000000E+00 0.  1.
</event>
<event>
 8    1  0.7026811E-009  0.3155245E+03  0.7561462E-02  0.1077728E+00
         -1   -1    0    0    0  501 -0.00000000000E+00  0.00000000000E+00  0.57551907982E+02  0.57551907982E+02  0.00000000000E+00 0.  1.
          1   -1    0    0  501    0  0.00000000000E+00 -0.00000000000E+00 -0.17660952296E+04  0.17660952296E+04  0.00000000000E+00 0. -1.
         25    2    1    2    0    0  0.29692598084E+02  0.29821493991E+03 -0.83853926765E+03  0.89922660210E+03  0.12508628128E+03 0.  0.
         23    2    1    2    0    0 -0.29692598084E+02 -0.29821493991E+03 -0.87000405399E+03  0.92442053550E+03  0.88501252774E+02 0.  0.
          5    1    3    3  502    0 -0.45685231615E+02  0.13300925543E+03 -0.42105106792E+03  0.44393701875E+03  0.41800000000E+01 0. -1.
         -5    1    3    3    0  502  0.75377829699E+02  0.16520568448E+03 -0.41748819973E+03  0.45528958335E+03  0.41800000000E+01 0. -1.
        -11    1    4    4    0    0  0.18394892775E+02 -0.18220770735E+03 -0.58452295878E+03  0.61253988444E+03  0.00000000000E+00 0. -1.
         11    1    4    4    0    0 -0.48087490860E+02 -0.11600723256E+03 -0.28548109521E+03  0.31188065106E+03  0.00000000000E+00 0.  1.
</event>
<event>
 8    1  0.7026811E-009  0.1019608E+03  0.7561462E-02  0.1276226E+00
          2   -1    0    0  501    0  0.00000000000E+00  0.00000000000E+00  0.28392165046E+03  0.28392165046E+03  0.00000000000E+00 0. -1.
         -2   -1    0    0    0  501 -0.00000000000E+00 -0.00000000000E+00 -0.42817473785E+02  0.42817473785E+02  0.00000000000E+00 0.  1.
         25    2    1    2    0    0 -0.66628128485E+00  0.14841233303E+02  0.18118882926E+03  0.22067474814E+03  0.12508895427E+03 0.  0.
         23    2    1    2    0    0  0.66628128485E+00 -0.14841233303E+02  0.59915347410E+02  0.10606437610E+03  0.86250199337E+02 0.  0.
          5    1    3    3  502    0 -0.17321347865E+02  0.67796593329E+02  0.10711603973E+03  0.12801455201E+03  0.41800000000E+01 0.  1.
         -5    1    3    3    0  502  0.16655066580E+02 -0.52955360026E+02  0.74072789534E+02  0.92660196134E+02  0.41800000000E+01 0.  1.
        -11    1    4    4    0    0  0.36330409654E+02  0.60342898632E+01  0.52422836446E+02  0.64066099466E+02  0.00000000000E+00 0. -1.
         11    1    4    4    0    0 -0.35664128369E+02 -0.20875523166E+02  0.74925109641E+01  0.41998276635E+02  0.00000000000E+00 0.  1.
</event>
<event>
 8    1  0.7026811E-009  0.1006999E+03  0.7561462E-02  0.1278831E+00
          1   -1    0    0  501    0  0.00000000000E+00  0.00000000000E+00  0.79635012626E+03  0.79635012626E+03  0.00000000000E+00 0. -1.
         -1   -1    0    0    0  501 -0.00000000000E+00 -0.00000000000E+00 -0.18391163371E+02  0.18391163371E+02  0.00000000000E+00 0.  1.
         25    2    1    2    0    0  0.51435489289E+02 -0.36296915283E+01  0.39128713942E+03  0.41402159093E+03  0.12509783399E+03 0.  0.
         23    2    1    2    0    0 -0.51435489289E+02  0.36296915283E+01  0.38667182348E+03  0.40071969870E+03  0.91664571324E+02 0.  0.
          5    1    3    3  502    0  0.42325535892E+02 -0.40113517078E+02  0.36059198737E+03  0.36530069668E+03  0.41800000000E+01 0. -1.
         -5    1    3    3    0  502  0.91099533967E+01  0.36483825550E+02  0.30695152045E+02  0.48720894252E+02  0.41800000000E+01 0. -1.
        -11    1    4    4    0    0 -0.54937079663E+02  0.40381702469E+02  0.25783726163E+03  0.26669986520E+03  0.00000000000E+00 0.  1.
         11    1    4    4    0    0  0.35015903740E+01 -0.36752010941E+02  0.12883456185E+03  0.13401983350E+03  0.00000000000E+00 0. -1.
</event>
<event>
 8    1  0.7026811E-009  0.1342215E+03  0.7561462E-02  0.1221323E+00
          1   -1    0    0  501    0  0.00000000000E+00  0.00000000000E+00  0.95421985179E+02  0.95421985179E+02  0.00000000000E+00 0. -1.
         -1   -1    0    0    0  501 -0.00000000000E+00 -0.00000000000E+00 -0.19284396312E+03  0.19284396312E+03  0.00000000000E+00 0.  1.
         25    2    1    2    0    0  0.55970151982E+02  0.49819262200E+02 -0.70496099242E+02  0.16196219401E+03  0.12508970974E+03 0.  0.
         23    2    1    2    0    0 -0.55970151982E+02 -0.49819262200E+02 -0.26925878698E+02  0.12630375428E+03  0.98046002486E+02 0.  0.
          5    1    3    3  502    0 -0.11728709692E+02 -0.34827135315E+02 -0.13056389023E+02  0.39222871894E+02  0.41800000000E+01 0. -1.
         -5    1    3    3    0  502  0.67698861674E+02  0.84646397516E+02 -0.57439710219E+02  0.12273932212E+03  0.41800000000E+01 0. -1.
        -11    1    4    4    0    0  0.24092986873E+02  0.66735152518E+01 -0.13655663064E+01  0.25037423862E+02  0.00000000000E+00 0. -1.
         11    1    4    4    0    0 -0.80063138856E+02 -0.56492777452E+02 -0.25560312391E+02  0.10126633042E+03  0.00000000000E+00 0.  1.
</event>
<event>
 8    1  0.7026811E-009  0.8913837E+02  0.7561462E-02  0.1304952E+00
          3   -1    0    0  501    0  0.00000000000E+00  0.00000000000E+00  0.23494331348E+02  0.23494331348E+02  0.00000000000E+00 0. -1.
         -3   -1    0    0    0  501 -0.00000000000E+00 -0.00000000000E+00 -0.64832380402E+03  0.64832380402E+03  0.00000000000E+00 0.  1.
         25    2    1    2    0    0  0.24574245005E+02 -0.30411137476E+02 -0.46244751163E+03  0.48066046093E+03  0.12509215358E+03 0.  0.
         23    2    1    2    0    0 -0.24574245005E+02  0.30411137476E+02 -0.16238196104E+03  0.19115767444E+03  0.92976472423E+02 0.  0.
          5    1    3    3  502    0  0.53979392649E+02 -0.27275125143E+02 -0.43768696519E+03  0.44186543108E+03  0.41800000000E+01 0.  1.
         -5    1    3    3    0  502 -0.29405147644E+02 -0.31360123334E+01 -0.24760546437E+02  0.38795029852E+02  0.41800000000E+01 0.  1.
        -11    1    4    4    0    0 -0.16384861423E+02  0.57343126925E+02 -0.14796366686E+03  0.15953038770E+03  0.00000000000E+00 0.  1.
         11    1    4    4    0    0 -0.81893835821E+01 -0.26931989449E+02 -0.14418294181E+02  0.31627286735E+02  0.00000000000E+00 0. -1.
</event>
<event>
 8    1  0.7026811E-009  0.8439728E+02  0.7561462E-02  0.1317016E+00
          1   -1    0    0  501    0  0.00000000000E+00  0.00000000000E+00  0.19169606041E+03  0.19169606041E+03  0.00000000000E+00 0. -1.
         -1   -1    0    0    0  501 -0.00000000000E+00 -0.00000000000E+00 -0.97291297574E+02  0.97291297574E+02  0.00000000000E+00 0.  1.
         25    2    1    2    0    0 -0.44686659486E+02 -0.21263523337E+02  0.11849262634E+03  0.17926768772E+03  0.12508943362E+03 0.  0.
         23    2    1    2    0    0  0.44686659486E+02  0.21263523337E+02 -0.24087863501E+02  0.10971967027E+03  0.94916520767E+02 0.  0.
          5    1    3    3  502    0 -0.65663453054E+02 -0.45331641410E+02  0.30423230191E+02  0.85496737453E+02  0.41800000000E+01 0.  1.
         -5    1    3    3    0  502  0.20976793568E+02  0.24068118074E+02  0.88069396147E+02  0.93770950265E+02  0.41800000000E+01 0.  1.
        -11    1    4    4    0    0  0.26265839822E+02 -0.27727487699E+01  0.34689445220E+02  0.43599771639E+02  0.00000000000E+00 0. -1.
         11    1    4    4    0    0  0.18420819663E+02  0.24036272107E+02 -0.58777308721E+02  0.66119898626E+02  0.00000000000E+00 0.  1.
</event>
<event>
 8    1  0.7026811E-009  0.1826272E+03  0.7561462E-02  0.1165284E+00
         -2   -1    0    0    0  501 -0.00000000000E+00  0.00000000000E+00  0.47163265666E+03  0.47163265666E+03  0.00000000000E+00 0.  1.
          2   -1    0    0  501    0  0.00000000000E+00 -0.00000000000E+00 -0.95373841177E+02  0.95373841177E+02  0.00000000000E+00 0. -1.
         25    2    1    2    0    0  0.11272914261E+03  0.10337844879E+03  0.32768453371E+03  0.38264815243E+03  0.12508993426E+03 0.  0.
         23    2    1    2    0    0 -0.11272914261E+03 -0.10337844879E+03  0.48574281771E+02  0.18435834541E+03  0.90739051163E+02 0.  0.
          5    1    3    3  502    0  0.59744574670E+02  0.12403650438E+03  0.25926441515E+03  0.29358129706E+03  0.41800000000E+01 0. -1.
         -5    1    3    3    0  502  0.52984567939E+02 -0.20658055591E+02  0.68420118565E+02  0.89066855367E+02  0.41800000000E+01 0. -1.
        -11    1    4    4    0    0 -0.19679327448E+02 -0.68254289488E+02  0.46456966739E+02  0.84877404066E+02  0.00000000000E+00 0.  1.
         11    1    4    4    0    0 -0.93049815161E+02 -0.35124159299E+02  0.21173150320E+01  0.99480941345E+02  0.00000000000E+00 0. -1.
</event>
<event>
 8    1  0.7026811E-009  0.1318724E+03  0.7561462E-02  0.1224704E+00
          1   -1    0    0  501    0  0.00000000000E+00  0.00000000000E+00  0.27322421812E+02  0.27322421812E+02  0.00000000000E+00 0. -1.
         -1   -1    0    0    0  501 -0.00000000000E+00 -0.00000000000E+00 -0.69854060691E+03  0.69854060691E+03  0.00000000000E+00 0.  1.
         25    2    1    2    0    0 -0.37120548118E+02  0.70398771232E+02 -0.29195808527E+03  0.32744553597E+03  0.12508850222E+03 0.  0.
         23    2    1    2    0    0  0.37120548118E+02 -0.70398771232E+02 -0.37926009983E+03  0.39841749275E+03  0.92543790317E+02 0.  0.
          5    1    3    3  502    0 -0.75874239408E+02  0.18463180034E+02 -0.20108947325E+03  0.21575967620E+03  0.41800000000E+01 0. -1.
         -5    1    3    3    0  502  0.38753691289E+02  0.51935591198E+02 -0.90868612024E+02  0.11168585977E+03  0.41800000000E+01 0. -1.
        -11    1    4    4    0    0  0.17196749463E+02 -0.90610643347E+02 -0.26155733225E+03  0.27734140501E+03  0.00000000000E+00 0.  1.
         11    1    4    4    0    0  0.19923798655E+02  0.20211872115E+02 -0.11770276758E+03  0.12107608775E+03  0.00000000000E+00 0. -1.
</event>
<event>
 8    1  0.7026811E-009  0.1373421E+03  0.7561462E-02  0.1216951E+00
         -1   -1    0    0    0  501 -0.00000000000E+00  0.00000000000E+00  0.89528872025E+02  0.89528872025E+02  0.00000000000E+00 0.  1.
          1   -1    0    0  501    0  0.00000000000E+00 -0.00000000000E+00 -0.29127643476E+03  0.29127643476E+03  0.00000000000E+00 0. -1.
         25    2    1    2    0    0  0.64621841185E+02  0.96717107825E+02 -0.75115216020E+02  0.18659994749E+03  0.12508822255E+03 0.  0.
         23    2    1    2    0    0 -0.64621841185E+02 -0.96717107825E+02 -0.12663234672E+03  0.19420535930E+03  0.90276182021E+02 0.  0.
          5    1    3    3  502    0  0.58471235278E+01 -0.13690446441E+02  0.22904826806E+02  0.27635496527E+02  0.41800000000E+01 0.  1.
         -5    1    3    3    0  502  0.58774717657E+02  0.11040755427E+03 -0.98020042826E+02  0.15896445096E+03  0.41800000000E+01 0.  1.
        -11    1    4    4    0    0 -0.77047604203E+02 -0.67918034698E+02 -0.56141983195E+02  0.11705176217E+03  0.00000000000E+00 0.  1.
         11    1    4    4    0    0  0.12425763018E+02 -0.28799073127E+02 -0.70490363525E+02  0.77153597126E+02  0.00000000000E+00 0. -1.
</event>
<event>
 8    1  0.7026811E-009  0.7899869E+02  0.7561462E-02  0.1331917E+00
         -2   -1    0    0    0  501 -0.00000000000E+00  0.00000000000E+00  0.42411112741E+02  0.42411112741E+02  0.00000000000E+00 0.  1.
          2   -1    0    0  501    0  0.00000000000E+00 -0.00000000000E+00 -0.30982979396E+03  0.30982979396E+03  0.00000000000E+00 0. -1.
         25    2    1    2    0    0 -0.31192174978E+01  0.11344682101E+02 -0.20655724020E+03  0.24176763843E+03  0.12508903304E+03 0.  0.
         23    2    1    2    0    0  0.31192174978E+01 -0.11344682101E+02 -0.60861441020E+02  0.11047326826E+03  0.91442860127E+02 0.  0.
          5    1    3    3  502    0 -0.23974835328E+02  0.64170443658E+02 -0.10904697923E+03  0.12884624421E+03  0.41800000000E+01 0.  1.
         -5    1    3    3    0  502  0.20855617831E+02 -0.52825761557E+02 -0.97510260968E+02  0.11292139422E+03  0.41800000000E+01 0.  1.
        -11    1    4    4    0    0  0.14765780773E+02  0.17801362624E+01  0.21566927064E+02  0.26197891326E+02  0.00000000000E+00 0.  1.
         11    1    4    4    0    0 -0.11646563276E+02 -0.13124818363E+02 -0.82428368084E+02  0.84275376938E+02  0.00000000000E+00 0. -1.
</event>
<event>
 8    1  0.7026811E-009  0.1491730E+03  0.7561462E-02  0.1201493E+00
          2   -1    0    0  501    0  0.00000000000E+00  0.00000000000E+00  0.11551861041E+04  0.11551861041E+04  0.00000000000E+00 0. -1.
         -2   -1    0    0    0  501 -0.00000000000E+00 -0.00000000000E+00 -0.26846567347E+02  0.26846567347E+02  0.00000000000E+00 0.  1.
         25    2    1    2    0    0 -0.81657447248E+02  0.77560583585E+02  0.86695723443E+03  0.88314563640E+03  0.12509111058E+03 0.  0.
         23    2    1    2    0    0  0.81657447248E+02 -0.77560583585E+02  0.26138230232E+03  0.29888703505E+03  0.91264280712E+02 0.  0.
          5    1    3    3  502    0 -0.55694521818E+02 -0.20088733674E+02  0.45990831003E+03  0.46372250648E+03  0.41800000000E+01 0. -1.
         -5    1    3    3    0  502 -0.25962925430E+02  0.97649317259E+02  0.40704892440E+03  0.41942312992E+03  0.41800000000E+01 0. -1.
        -11    1    4    4    0    0  0.29215416799E+02  0.13962631723E+02  0.10788574872E+03  0.11264027007E+03  0.00000000000E+00 0. -1.
         11    1    4    4    0    0  0.52442030449E+02 -0.91523215308E+02  0.15349655360E+03  0.18624676498E+03  0.00000000000E+00 0.  1.
</event>
<event>
 8    1  0.7026811E-009  0.8726023E+02  0.7561462E-02  0.1309625E+00
         -2   -1    0    0    0  501 -0.00000000000E+00  0.00000000000E+00  0.38908443251E+02  0.38908443251E+02  0.00000000000E+00 0.  1.
          2   -1    0    0  501    0  0.00000000000E+00 -0.00000000000E+00 -0.44996122507E+03  0.44996122507E+03  0.00000000000E+00 0. -1.
         25    2    1    2    0    0  0.40221451263E+02 -0.35389506719E+02 -0.13050510700E+03  0.18854502188E+03  0.12508980772E+03 0.  0.
         23    2    1    2    0    0 -0.40221451263E+02  0.35389506719E+02 -0.28054767482E+03  0.30032464644E+03  0.92831638392E+02 0.  0.
          5    1    3    3  502    0  0.63244292076E+02 -0.27306376857E+02 -0.15273324182E+02  0.70683983538E+02  0.41800000000E+01 0.  1.
         -5    1    3    3    0  502 -0.23022840812E+02 -0.80831298612E+01 -0.11523178282E+03  0.11786103835E+03  0.41800000000E+01 0.  1.
        -11    1    4    4    0    0 -0.46223218958E-02  0.40241812099E+02 -0.23875219004E+03  0.24211982924E+03  0.00000000000E+00 0. -1.
         11    1    4    4    0    0 -0.40216828942E+02 -0.48523053806E+01 -0.41795484781E+02  0.58204817203E+02  0.00000000000E+00 0.  1.
</event>
<event>
 8    1  0.7026811E-009  0.1480129E+03  0.7561462E-02  0.1202936E+00
         -1   -1    0    0    0  501 -0.00000000000E+00  0.00000000000E+00  0.70753776236E+02  0.70753776236E+02  0.00000000000E+00 0.  1.
          1   -1    0    0  501    0  0.00000000000E+00 -0.00000000000E+00 -0.33917357468E+03  0.33917357468E+03  0.00000000000E+00 0. -1.
         25    2    1    2    0    0 -0.69536225924E+02  0.84177478333E+02 -0.16823159498E+03  0.23636756230E+03  0.12508645165E+03 0.  0.
         23    2    1    2    0    0  0.69536225924E+02 -0.84177478333E+02 -0.10018820347E+03  0.17355978861E+03  0.90355904814E+02 0.  0.
          5    1    3    3  502    0 -0.55371858595E+02  0.11113983865E+03 -0.16336835842E+03  0.20524326881E+03  0.41800000000E+01 0.  1.
         -5    1    3    3    0  502 -0.14164367329E+02 -0.26962360317E+02 -0.48632365560E+01  0.31124293494E+02  0.41800000000E+01 0.  1.
        -11    1    4    4    0    0 -0.20048873715E+02 -0.30835896551E+02 -0.18894950622E+02  0.41350078747E+02  0.00000000000E+00 0.  1.
         11    1    4    4    0    0  0.89585099640E+02 -0.53341581781E+02 -0.81293252847E+02  0.13220970987E+03  0.00000000000E+00 0. -1.
</event>
<event>
 8    1  0.7026811E-009  0.1096577E+03  0.7561462E-02  0.1261205E+00
          2   -1    0    0  501    0  0.00000000000E+00  0.00000000000E+00  0.30434036306E+04  0.30434036306E+04  0.00000000000E+00 0. -1.
         -2   -1    0    0    0  501 -0.00000000000E+00 -0.00000000000E+00 -0.10299057678E+02  0.10299057678E+02  0.00000000000E+00 0.  1.
         25    2    1    2    0    0 -0.62928597139E+02  0.16500742423E+02  0.26803547415E+04  0.26840596921E+04  0.12507041010E+03 0.  0.
         23    2    1    2    0    0  0.62928597139E+02 -0.16500742423E+02  0.35274983147E+03  0.36964299626E+03  0.89281679195E+02 0.  0.
          5    1    3    3  502    0  0.18057256798E+02  0.27219476150E+02  0.23057901274E+03  0.23291869380E+03  0.41800000000E+01 0.  1.
         -5    1    3    3    0  502 -0.80985853937E+02 -0.10718733727E+02  0.24497757288E+04  0.24511409983E+04  0.41800000000E+01 0.  1.
        -11    1    4    4    0    0  0.23852257948E+02  0.33501729508E+02  0.20089868929E+03  0.20506481767E+03  0.00000000000E+00 0.  1.
         11    1    4    4    0    0  0.39076339190E+02 -0.50002471931E+02  0.15185114219E+03  0.16457817859E+03  0.00000000000E+00 0. -1.
</event>
<event>
 8    1  0.7026811E-009  0.1133252E+03  0.7561462E-02  0.1254533E+00
          1   -1    0    0  501    0  0.00000000000E+00  0.00000000000E+00  0.34058499581E+04  0.34058499581E+04  0.00000000000E+00 0. -1.
         -1   -1    0    0    0  501 -0.00000000000E+00 -0.00000000000E+00 -0.80399680083E+01  0.80399680083E+01  0.00000000000E+00 0.  1.
         25    2    1    2    0    0  0.36900440111E+02 -0.18610039179E+02  0.30529076007E+04  0.30557486884E+04  0.12508897598E+03 0.  0.
         23    2    1    2    0    0 -0.36900440111E+02  0.18610039179E+02  0.34490238940E+03  0.35814123776E+03  0.87175179583E+02 0.  0.
          5    1    3    3  502    0  0.53632527247E+02 -0.62890115509E+02  0.17116758907E+04  0.17136754190E+04  0.41800000000E+01 0. -1.
         -5    1    3    3    0  502 -0.16732087136E+02  0.44280076330E+02  0.13412317100E+04  0.13420732693E+04  0.41800000000E+01 0. -1.
        -11    1    4    4    0    0 -0.53192746472E+02 -0.18116381587E+02  0.19284303373E+03  0.20086340437E+03  0.00000000000E+00 0.  1.
         11    1    4    4    0    0  0.16292306362E+02  0.36726420767E+02  0.15205935567E+03  0.15727783339E+03  0.00000000000E+00 0. -1.
</event>
<event>
 8    1  0.7026811E-009  0.1374239E+03  0.7561462E-02  0.1216838E+00
         -2   -1    0    0    0  501 -0.00000000000E+00  0.00000000000E+00  0.67891508626E+02  0.67891508626E+02  0.00000000000E+00 0.  1.
          2   -1    0    0  501    0  0.00000000000E+00 -0.00000000000E+00 -0.37585845583E+03  0.37585845583E+03  0.00000000000E+00 0. -1.
         25    2    1    2    0    0 -0.84974267287E+02  0.65401355333E+02 -0.98130214239E+02  0.19177344163E+03  0.12509816381E+03 0.  0.
         23    2    1    2    0    0  0.84974267287E+02 -0.65401355333E+02 -0.20983673296E+03  0.25197652282E+03  0.89234243270E+02 0.  0.
          5    1    3    3  502    0  0.31097988761E+02  0.10301569613E+01 -0.25299766991E+02  0.40319929788E+02  0.41800000000E+01 0.  1.
         -5    1    3    3    0  502 -0.11607225605E+03  0.64371198371E+02 -0.72830447248E+02  0.15145351184E+03  0.41800000000E+01 0.  1.
        -11    1    4    4    0    0  0.82723810867E+02 -0.53427336021E+02 -0.21667591983E+03  0.23800454481E+03  0.00000000000E+00 0. -1.
         11    1    4    4    0    0  0.22504564201E+01 -0.11974019311E+02  0.68391868621E+01  0.13971978010E+02  0.00000000000E+00 0.  1.
</event>
<event>
 8    1  0.7026811E-009  0.2099835E+03  0.7561462E-02  0.1141579E+00
         -2   -1    0    0    0  501 -0.00000000000E+00  0.00000000000E+00  0.63558067931E+03  0.63558067931E+03  0.00000000000E+00 0.  1.
          2   -1    0    0  501    0  0.00000000000E+00 -0.00000000000E+00 -0.16410831838E+03  0.16410831838E+03  0.00000000000E+00 0. -1.
         25    2    1    2    0    0  0.12554868405E+03 -0.13677571285E+03  0.53814309314E+03  0.58285091007E+03  0.12508847663E+03 0.  0.
         23    2    1    2    0    0 -0.12554868405E+03  0.13677571285E+03 -0.66670732213E+02  0.21683808763E+03  0.90020564430E+02 0.  0.
          5    1    3    3  502    0 -0.21857361532E+02 -0.36431616732E+02  0.71429327106E+02  0.83214350456E+02  0.41800000000E+01 0.  1.
         -5    1    3    3    0  502  0.14740604558E+03 -0.10034409612E+03  0.46671376604E+03  0.49963655962E+03  0.41800000000E+01 0.  1.
        -11    1    4    4    0    0 -0.36089015880E+02  0.92091733258E+02 -0.61988788467E+02  0.11673009165E+03  0.00000000000E+00 0. -1.
         11    1    4    4    0    0 -0.89459668166E+02  0.44683979590E+02 -0.46819437462E+01  0.10010799597E+03  0.00000000000E+00 0.  1.
</event>
<event>
 8    1  0.7026811E-009  0.1536167E+03  0.7561462E-02  0.1196098E+00
         -1   -1    0    0    0  501 -0.00000000000E+00  0.00000000000E+00  0.93558004114E+02  0.93558004114E+02  0.00000000000E+00 0.  1.
          1   -1    0    0  501    0  0.00000000000E+00 -0.00000000000E+00 -0.27400347770E+03  0.27400347770E+03  0.00000000000E+00 0. -1.
         25    2    1    2    0    0  0.92497102868E+02  0.68394343053E+02 -0.70916879888E+02  0.18413742129E+03  0.12507552065E+03 0.  0.
         23    2    1    2    0    0 -0.92497102868E+02 -0.68394343053E+02 -0.10952859370E+03  0.18342406052E+03  0.91729891210E+02 0.  0.
          5    1    3    3  502    0  0.93813834197E+02 -0.54407330139E+01 -0.53252765435E+02  0.10809239792E+03  0.41800000000E+01 0.  1.
         -5    1    3    3    0  502 -0.13167313286E+01  0.73835076066E+02 -0.17664114453E+02  0.76045023365E+02  0.41800000000E+01 0.  1.
        -11    1    4    4    0    0 -0.10686904723E+03 -0.59998195487E+02 -0.11267731132E+03  0.16648409295E+03  0.00000000000E+00 0. -1.
         11    1    4    4    0    0  0.14371944364E+02 -0.83961475657E+01  0.31487176264E+01  0.16939967575E+02  0.00000000000E+00 0.  1.
</event>
<event>
 8    1  0.7026811E-009  0.8974173E+02  0.7561462E-02  0.1303478E+00
          1   -1    0    0  501    0  0.00000000000E+00  0.00000000000E+00  0.30116591897E+02  0.30116591897E+02  0.00000000000E+00 0. -1.
         -1   -1    0    0    0  501 -0.00000000000E+00 -0.00000000000E+00 -0.47521582493E+03  0.47521582493E+03  0.00000000000E+00 0.  1.
         25    2    1    2    0    0 -0.10450815494E+02  0.36840398270E+02 -0.33087232420E+03  0.35579525830E+03  0.12508931377E+03 0.  0.
         23    2    1    2    0    0  0.10450815494E+02 -0.36840398270E+02 -0.11422690884E+03  0.14953715853E+03  0.88584087673E+02 0.  0.
          5    1    3    3  502    0  0.11641630924E+02 -0.44515498103E+02 -0.10752337427E+03  0.11702950721E+03  0.41800000000E+01 0. -1.
         -5    1    3    3    0  502 -0.22092446417E+02  0.81355896373E+02 -0.22334894992E+03  0.23876575109E+03  0.41800000000E+01 0. -1.
        -11    1    4    4    0    0  0.13767733506E+02 -0.20405895432E+01  0.12112483884E+02  0.18450657371E+02  0.00000000000E+00 0. -1.
         11    1    4    4    0    0 -0.33169180124E+01 -0.34799808727E+02 -0.12633939272E+03  0.13108650116E+03  0.00000000000E+00 0.  1.
</event>
<event>
 8    1  0.7026811E-009  0.1149611E+03  0.7561462E-02  0.1251649E+00
          1   -1    0    0  501    0  0.00000000000E+00  0.00000000000E+00  0.28159006001E+03  0.28159006001E+03  0.00000000000E+00 0. -1.
         -1   -1    0    0    0  501 -0.00000000000E+00 -0.00000000000E+00 -0.52868403249E+02  0.52868403249E+02  0.00000000000E+00 0.  1.
         25    2    1    2    0    0  0.44026945810E+02  0.35793374602E+02  0.14183340902E+03  0.19744378097E+03  0.12509113921E+03 0.  0.
         23    2    1    2    0    0 -0.44026945810E+02 -0.35793374602E+02  0.86888247744E+02  0.13701468228E+03  0.89464618383E+02 0.  0.
          5    1    3    3  502    0  0.51178885095E+02  0.75726225666E+02  0.71406715049E+02  0.11606089301E+03  0.41800000000E+01 0.  1.
         -5    1    3    3    0  502 -0.71519392854E+01 -0.39932851064E+02  0.70426693966E+02  0.81382887960E+02  0.41800000000E+01 0.  1.
        -11    1    4    4    0    0 -0.41426167910E+02 -0.60212938864E+02  0.38163327025E+02  0.82450984979E+02  0.00000000000E+00 0.  1.
         11    1    4    4    0    0 -0.26007778995E+01  0.24419564262E+02  0.48724920719E+02  0.54563697304E+02  0.00000000000E+00 0. -1.
</event>
<event>
 8    1  0.7026811E-009  0.1248522E+03  0.7561462E-02  0.1235300E+00
         -4   -1    0    0    0  501 -0.00000000000E+00  0.00000000000E+00  0.14471649212E+02  0.14471649212E+02  0.00000000000E+00 0.  1.
          4   -1    0    0  501    0  0.00000000000E+00 -0.00000000000E+00 -0.18435379459E+04  0.18435379459E+04  0.00000000000E+00 0. -1.
         25    2    1    2    0    0 -0.10585312691E+03  0.25633072268E+02 -0.12920471805E+04  0.13026482647E+04  0.12507855975E+03 0.  0.
         23    2    1    2    0    0  0.10585312691E+03 -0.25633072268E+02 -0.53701911621E+03  0.55536133040E+03  0.90414253609E+02 0.  0.
          5    1    3    3  502    0 -0.96087309752E+02  0.17850145408E+02 -0.12828772397E+04  0.12866012915E+04  0.41800000000E+01 0.  1.
         -5    1    3    3    0  502 -0.97658171566E+01  0.77829268595E+01 -0.91699407963E+01  0.16046973218E+02  0.41800000000E+01 0.  1.
        -11    1    4    4    0    0  0.86625004143E+02  0.20254701335E+02 -0.39453556284E+03  0.40444091610E+03  0.00000000000E+00 0. -1.
         11    1    4    4    0    0  0.19228122765E+02 -0.45887773603E+02 -0.14248355337E+03  0.15092041430E+03  0.00000000000E+00 0.  1.
</event>
<event>
 8    1  0.7026811E-009  0.1137115E+03  0.7561462E-02  0.1253847E+00
         -3   -1    0    0    0  501 -0.00000000000E+00  0.00000000000E+00  0.42684044475E+02  0.42684044475E+02  0.00000000000E+00 0.  1.
          3   -1    0    0  501    0  0.00000000000E+00 -0.00000000000E+00 -0.48948965648E+03  0.48948965648E+03  0.00000000000E+00 0. -1.
         25    2    1    2    0    0 -0.62099700432E+02 -0.26799480913E+02 -0.35961246279E+03  0.38670825778E+03  0.12509024049E+03 0.  0.
         23    2    1    2    0    0  0.62099700432E+02  0.26799480913E+02 -0.87193149207E+02  0.14546544317E+03  0.94778504514E+02 0.  0.
          5    1    3    3  502    0 -0.18487833452E+02 -0.74829769718E+02 -0.19449291726E+03  0.20925167069E+03  0.41800000000E+01 0.  1.
         -5    1    3    3    0  502 -0.43611866980E+02  0.48030288805E+02 -0.16511954553E+03  0.17745658709E+03  0.41800000000E+01 0.  1.
        -11    1    4    4    0    0  0.49093894050E+00 -0.12261580394E+02  0.15331231008E+02  0.19637566526E+02  0.00000000000E+00 0.  1.
         11    1    4    4    0    0  0.61608761492E+02  0.39061061308E+02 -0.10252438021E+03  0.12582787665E+03  0.00000000000E+00 0. -1.
</event>
<event>
 8    1  0.7026811E-009  0.1165308E+03  0.7561462E-02  0.1248932E+00
          1   -1    0    0  501    0  0.00000000000E+00  0.00000000000E+00  0.39207773860E+03  0.39207773860E+03  0.00000000000E+00 0. -1.
         -1   -1    0    0    0  501 -0.00000000000E+00 -0.00000000000E+00 -0.45431121027E+02  0.45431121027E+02  0.00000000000E+00 0.  1.
         25    2    1    2    0    0 -0.58236655831E+02 -0.43236956117E+02  0.23277340187E+03  0.27402924171E+03  0.12509047221E+03 0.  0.
         23    2    1    2    0    0  0.58236655831E+02  0.43236956117E+02  0.11387321570E+03  0.16347961792E+03  0.92182068552E+02 0.  0.
          5    1    3    3  502    0 -0.11504300810E+02  0.36932207584E+02  0.24496150655E+02  0.45976849512E+02  0.41800000000E+01 0. -1.
         -5    1    3    3    0  502 -0.46732355021E+02 -0.80169163701E+02  0.20827725122E+03  0.22805239220E+03  0.41800000000E+01 0. -1.
        -11    1    4    4    0    0  0.60718566462E+01 -0.19064324604E+02  0.66449952041E+02  0.69396772562E+02  0.00000000000E+00 0. -1.
         11    1    4    4    0    0  0.52164799185E+02  0.62301280721E+02  0.47423263662E+02  0.94082845353E+02  0.00000000000E+00 0.  1.
</event>
<event>
 8    1  0.7026811E-009  0.9727639E+02  0.7561462E-02  0.1286130E+00
         -2   -1    0    0    0  501 -0.00000000000E+00  0.00000000000E+00  0.58386553306E+02  0.58386553306E+02  0.00000000000E+00 0. -1.
          2   -1    0    0  501    0  0.00000000000E+00 -0.00000000000E+00 -0.23878074812E+03  0.23878074812E+03  0.00000000000E+00 0.  1.
         25    2    1    2    0    0  0.29407601783E+01 -0.42536236953E+02 -0.12373196069E+03  0.18104075994E+03  0.12509268219E+03 0.  0.
         23    2    1    2    0    0 -0.29407601783E+01  0.42536236953E+02 -0.56662234125E+02  0.11612654149E+03  0.91960781517E+02 0.  0.
          5    1    3    3  502    0  0.18300570291E+01  0.25071671212E+02 -0.10869970668E+03  0.11164692759E+03  0.41800000000E+01 0. -1.
         -5    1    3    3    0  502  0.11107031492E+01 -0.67607908165E+02 -0.15032254002E+02  0.69393832351E+02  0.41800000000E+01 0. -1.
        -11    1    4    4    0    0 -0.24448614193E+02  0.65467589453E+02 -0.40606670549E+02  0.80824759188E+02  0.00000000000E+00 0.  1.
         11    1    4    4    0    0  0.21507854014E+02 -0.22931352500E+02 -0.16055563576E+02  0.35301782299E+02  0.00000000000E+00 0. -1.
</event>
<event>
 8    1  0.7026811E-009  0.1353829E+03  0.7561462E-02  0.1219680E+00
         -1   -1    0    0    0  501 -0.00000000000E+00  0.00000000000E+00  0.26548508489E+02  0.26548508489E+02  0.00000000000E+00 0.  1.
          1   -1    0    0  501    0  0.00000000000E+00 -0.00000000000E+00 -0.70202090965E+03  0.70202090965E+03  0.00000000000E+00 0. -1.
         25    2    1    2    0    0 -0.76308773241E+02  0.33658956016E+02 -0.36843813901E+03  0.39793304585E+03  0.12509233593E+03 0.  0.
         23    2    1    2    0    0  0.76308773241E+02 -0.33658956016E+02 -0.30703426215E+03  0.33063637229E+03  0.89968985499E+02 0.  0.
          5    1    3    3  502    0 -0.69051733419E+02 -0.36136802785E+02 -0.22590959135E+03  0.23901177015E+03  0.41800000000E+01 0.  1.
         -5    1    3    3    0  502 -0.72570398222E+01  0.69795758802E+02 -0.14252854765E+03  0.15892127570E+03  0.41800000000E+01 0.  1.
        -11    1    4    4    0    0  0.90307387187E+02 -0.49043436528E+01 -0.21708804889E+03  0.23517376073E+03  0.00000000000E+00 0. -1.
         11    1    4    4    0    0 -0.13998613946E+02 -0.28754612364E+02 -0.89946213267E+02  0.95462611559E+02  0.00000000000E+00 0.  1.
</event>
<event>
 8    1  0.7026811E-009  0.1396745E+03  0.7561462E-02  0.1213768E+00
         -1   -1    0    0    0  501 -0.00000000000E+00  0.00000000000E+00  0.20379856034E+02  0.20379856034E+02  0.00000000000E+00 0.  1.
          1   -1    0    0  501    0  0.00000000000E+00 -0.00000000000E+00 -0.10370822899E+04  0.10370822899E+04  0.00000000000E+00 0. -1.
         25    2    1    2    0    0 -0.25355002497E+02 -0.89152000123E+02 -0.45411567320E+03  0.48006065716E+03  0.12508490966E+03 0.  0.
         23    2    1    2    0    0  0.25355002497E+02  0.89152000123E+02 -0.56258676062E+03  0.57740148873E+03  0.91091496250E+02 0.  0.
          5    1    3    3  502    0 -0.55775118053E+02 -0.10182665940E+03 -0.40030195046E+03  0.41681969280E+03  0.41800000000E+01 0. -1.
         -5    1    3    3    0  502  0.30420115556E+02  0.12674659276E+02 -0.53813722736E+02  0.63240964358E+02  0.41800000000E+01 0. -1.
        -11    1    4    4    0    0 -0.34063723208E+02  0.42140177669E+02 -0.23273267801E+03  0.23895738370E+03  0.00000000000E+00 0. -1.
         11    1    4    4    0    0  0.59418725705E+02  0.47011822455E+02 -0.32985408261E+03  0.33844410503E+03  0.00000000000E+00 0.  1.
</event>
<event>
 8    1  0.7026811E-009  0.1557550E+03  0.7561462E-02  0.1193574E+00
          3   -1    0    0  501    0  0.00000000000E+00  0.00000000000E+00  0.60715529716E+02  0.60715529716E+02  0.00000000000E+00 0.  1.
         -3   -1    0    0    0  501 -0.00000000000E+00 -0.00000000000E+00 -0.44388495743E+03  0.44388495743E+03  0.00000000000E+00 0. -1.
         25    2    1    2    0    0  0.39322605960E+02  0.11609695194E+03 -0.18944448892E+03  0.25800038527E+03  0.12510081865E+03 0.  0.
         23    2    1    2    0    0 -0.39322605960E+02 -0.11609695194E+03 -0.19372493879E+03  0.24660010187E+03  0.90870725453E+02 0.  0.
          5    1    3    3  502    0 -0.10657889866E+02 -0.23847241195E+02 -0.30337245570E+02  0.40250495622E+02  0.41800000000E+01 0. -1.
         -5    1    3    3    0  502  0.49980495827E+02  0.13994419314E+03 -0.15910724335E+03  0.21774988965E+03  0.41800000000E+01 0. -1.
        -11    1    4    4    0    0  0.13103974975E+02 -0.59134137028E+01  0.33931876717E+01  0.14771470622E+02  0.00000000000E+00 0.  1.
         11    1    4    4    0    0 -0.52426580935E+02 -0.11018353824E+03 -0.19711812646E+03  0.23182863125E+03  0.00000000000E+00 0. -1.
</event>
<event>
 8    1  0.7026811E-009  0.7910195E+02  0.7561462E-02  0.1331619E+00
         -2   -1    0    0    0  501 -0.00000000000E+00  0.00000000000E+00  0.10766478969E+03  0.10766478969E+03  0.00000000000E+00 0.  1.
          2   -1    0    0  501    0  0.00000000000E+00 -0.00000000000E+00 -0.15139237863E+03  0.15139237863E+03  0.00000000000E+00 0. -1.
         25    2    1    2    0    0  0.19472782128E+02 -0.20574037219E+02  0.41474883824E+02  0.13479890517E+03  0.12509236026E+03 0.  0.
         23    2    1    2    0    0 -0.19472782128E+02  0.20574037219E+02 -0.85202472761E+02  0.12425826316E+03  0.85896299960E+02 0.  0.
          5    1    3    3  502    0  0.50549547193E+02  0.83910186322E+01 -0.23920837766E+02  0.56704010392E+02  0.41800000000E+01 0. -1.
         -5    1    3    3    0  502 -0.31076765065E+02 -0.28965055851E+02  0.65395721590E+02  0.78094894773E+02  0.41800000000E+01 0. -1.
        -11    1    4    4    0    0 -0.43927895583E+01  0.39591409706E+02 -0.46215564724E+01  0.40101559905E+02  0.00000000000E+00 0.  1.
         11    1    4    4    0    0 -0.15079992570E+02 -0.19017372487E+02 -0.80580916289E+02  0.84156703251E+02  0.00000000000E+00 0. -1.
</event>
<event>
 8    1  0.7026811E-009  0.9895415E+02  0.7561462E-02  0.1282511E+00
         -1   -1    0    0    0  501 -0.00000000000E+00  0.00000000000E+00  0.71700937152E+03  0.71700937152E+03  0.00000000000E+00 0.  1.
          1   -1    0    0  501    0  0.00000000000E+00 -0.00000000000E+00 -0.23311814169E+02  0.23311814169E+02  0.00000000000E+00 0. -1.
         25    2    1    2    0    0  0.35293350030E+01 -0.66250690521E+02  0.32492840435E+03  0.35443982081E+03  0.12509000128E+03 0.  0.
         23    2    1    2    0    0 -0.35293350030E+01  0.66250690521E+02  0.36876915300E+03  0.38588136488E+03  0.92261201797E+02 0.  0.
          5    1    3    3  502    0 -0.29832382631E+02  0.17442881882E+02  0.29754816823E+02  0.45793522533E+02  0.41800000000E+01 0. -1.
         -5    1    3    3    0  502  0.33361717634E+02 -0.83693572403E+02  0.29517358753E+03  0.30864629828E+03  0.41800000000E+01 0. -1.
        -11    1    4    4    0    0 -0.12708732238E+02  0.61039869489E+02  0.37003454331E+03  0.37525050405E+03  0.00000000000E+00 0.  1.
         11    1    4    4    0    0  0.91793972351E+01  0.52108210321E+01 -0.12653903123E+01  0.10630860834E+02  0.00000000000E+00 0. -1.
</event>
<event>
 8    1  0.7026811E-009  0.2448650E+03  0.7561462E-02  0.1116594E+00
         -1   -1    0    0    0  501 -0.00000000000E+00  0.00000000000E+00  0.71021055325E+03  0.71021055325E+03  0.00000000000E+00 0.  1.
          1   -1    0    0  501    0  0.00000000000E+00 -0.00000000000E+00 -0.95045086635E+02  0.95045086635E+02  0.00000000000E+00 0. -1.
         25    2    1    2    0    0  0.10286929057E+03 -0.21336432355E+03  0.30497465813E+03  0.40591168493E+03  0.12509327861E+03 0.  0.
         23    2    1    2    0    0 -0.10286929057E+03  0.21336432355E+03  0.31019080848E+03  0.39934395495E+03  0.84562587380E+02 0.  0.
          5    1    3    3  502    0  0.33880730246E+02 -0.97751404357E+02  0.22887064351E+03  0.25120207960E+03  0.41800000000E+01 0.  1.
         -5    1    3    3    0  502  0.68988560328E+02 -0.11561291919E+03  0.76104014627E+02  0.15470960533E+03  0.41800000000E+01 0.  1.
        -11    1    4    4    0    0  0.85865973713E+01  0.66869438199E+02  0.81067476699E+02  0.10543807281E+03  0.00000000000E+00 0.  1.
         11    1    4    4    0    0 -0.11145588795E+03  0.14649488535E+03  0.22912333178E+03  0.29390588214E+03  0.00000000000E+00 0. -1.
</event>
<event>
 8    1  0.7026811E-009  0.8050168E+02  0.7561462E-02  0.1327634E+00
         -4   -1    0    0    0  501 -0.00000000000E+00  0.00000000000E+00  0.20226269309E+03  0.20226269309E+03  0.00000000000E+00 0.  1.
          4   -1    0    0  501    0  0.00000000000E+00 -0.00000000000E+00 -0.73867364105E+02  0.73867364105E+02  0.00000000000E+00 0. -1.
         25    2    1    2    0    0  0.11915222899E+02  0.86046941555E+01  0.11726549222E+02  0.12649544952E+03  0.12509026138E+03 0.  0.
         23    2    1    2    0    0 -0.11915222899E+02 -0.86046941555E+01  0.11666877976E+03  0.14963460768E+03  0.92535930026E+02 0.  0.
          5    1    3    3  502    0 -0.39971220885E+02  0.47731980547E+01  0.48111165670E+02  0.62870013368E+02  0.41800000000E+01 0.  1.
         -5    1    3    3    0  502  0.51886443784E+02  0.38314961008E+01 -0.36384616448E+02  0.63625436148E+02  0.41800000000E+01 0.  1.
        -11    1    4    4    0    0  0.27281778185E+02 -0.10150457941E+02  0.28528944743E+01  0.29248354214E+02  0.00000000000E+00 0. -1.
         11    1    4    4    0    0 -0.39197001083E+02  0.15457637853E+01  0.11381588529E+03  0.12038625346E+03  0.00000000000E+00 0.  1.
</event>
<event>
 8    1  0.7026811E-009  0.1083736E+03  0.7561462E-02  0.1263612E+00
         -2   -1    0    0    0  501 -0.00000000000E+00  0.00000000000E+00  0.28454303559E+02  0.28454303559E+02  0.00000000000E+00 0.  1.
          2   -1    0    0  501    0  0.00000000000E+00 -0.00000000000E+00 -0.94430296213E+03  0.94430296213E+03  0.00000000000E+00 0. -1.
         25    2    1    2    0    0 -0.20508277867E+01 -0.28155056670E+02 -0.84208319720E+03  0.85179214868E+03  0.12509532538E+03 0.  0.
         23    2    1    2    0    0  0.20508277867E+01  0.28155056670E+02 -0.73765461362E+02  0.12096511700E+03  0.91620429658E+02 0.  0.
          5    1    3    3  502    0 -0.21441298054E+02 -0.70774114081E+02 -0.36773263029E+03  0.37511793381E+03  0.41800000000E+01 0. -1.
         -5    1    3    3    0  502  0.19390470267E+02  0.42619057412E+02 -0.47435056691E+03  0.47667421487E+03  0.41800000000E+01 0. -1.
        -11    1    4    4    0    0 -0.29216702664E+02 -0.21995073668E+02 -0.32042033860E+02  0.48621918042E+02  0.00000000000E+00 0. -1.
         11    1    4    4    0    0  0.31267530450E+02  0.50150130337E+02 -0.41723427502E+02  0.72343198961E+02  0.00000000000E+00 0.  1.
</event>
<event>
 8    1  0.7026811E-009  0.8902888E+02  0.7561462E-02  0.1305221E+00
         -2   -1    0    0    0  501 -0.00000000000E+00  0.00000000000E+00  0.11476028195E+02  0.11476028195E+02  0.00000000000E+00 0. -1.
          2   -1    0    0  501    0  0.00000000000E+00 -0.00000000000E+00 -0.12322978963E+04  0.12322978963E+04  0.00000000000E+00 0.  1.
         25    2    1    2    0    0  0.42559705941E+02 -0.34630601143E+02 -0.65384677451E+03  0.66796281455E+03  0.12509240576E+03 0.  0.
         23    2    1    2    0    0 -0.42559705941E+02  0.34630601143E+02 -0.56697509362E+03  0.57581110998E+03  0.84184740156E+02 0.  0.
          5    1    3    3  502    0 -0.96890782368E+01  0.51943194192E+01 -0.50584210463E+03  0.50597882011E+03  0.41800000000E+01 0. -1.
         -5    1    3    3    0  502  0.52248784178E+02 -0.39824920562E+02 -0.14800466989E+03  0.16198399444E+03  0.41800000000E+01 0. -1.
        -11    1    4    4    0    0 -0.40387451863E+02 -0.20501223481E+02 -0.26128875424E+03  0.26518533052E+03  0.00000000000E+00 0.  1.
         11    1    4    4    0    0 -0.21722540780E+01  0.55131824624E+02 -0.30568633938E+03  0.31062577945E+03  0.00000000000E+00 0. -1.
</event>
<event>
 8    1  0.7026811E-009  0.1566883E+03  0.7561462E-02  0.1192487E+00
          1   -1    0    0  501    0  0.00000000000E+00  0.00000000000E+00  0.30947041579E+03  0.30947041579E+03  0.00000000000E+00 0. -1.
         -1   -1    0    0    0  501 -0.00000000000E+00 -0.00000000000E+00 -0.99154028058E+02  0.99154028058E+02  0.00000000000E+00 0.  1.
         25    2    1    2    0    0 -0.13672279962E+03  0.37666333503E+01  0.12605151791E+03  0.22415160254E+03  0.12509054437E+03 0.  0.
         23    2    1    2    0    0  0.13672279962E+03 -0.37666333503E+01  0.84264869821E+02  0.18447284131E+03  0.90677171513E+02 0.  0.
          5    1    3    3  502    0 -0.12689686157E+03  0.37121360805E+02  0.51812322681E+02  0.14206617502E+03  0.41800000000E+01 0.  1.
         -5    1    3    3    0  502 -0.98259380486E+01 -0.33354727454E+02  0.74239195229E+02  0.82085427515E+02  0.41800000000E+01 0.  1.
        -11    1    4    4    0    0  0.66899974720E+02  0.23797485268E+02 -0.81471807912E+00  0.71011201146E+02  0.00000000000E+00 0.  1.
         11    1    4    4    0    0  0.69822824895E+02 -0.27564118618E+02  0.85079587900E+02  0.11346164016E+03  0.00000000000E+00 0. -1.
</event>
<event>
 8    1  0.7026811E-009  0.1317895E+03  0.7561462E-02  0.1224824E+00
         -2   -1    0    0    0  501 -0.00000000000E+00  0.00000000000E+00  0.48622929589E+02  0.48622929589E+02  0.00000000000E+00 0.  1.
          2   -1    0    0  501    0  0.00000000000E+00 -0.00000000000E+00 -0.63103009419E+03  0.63103009419E+03  0.00000000000E+00 0. -1.
         25    2    1    2    0    0 -0.64077426076E+02  0.60911387609E+02 -0.51242036861E+03  0.53482943026E+03  0.12510704069E+03 0.  0.
         23    2    1    2    0    0  0.64077426076E+02 -0.60911387609E+02 -0.69986795990E+02  0.14482359352E+03  0.90882385282E+02 0.  0.
          5    1    3    3  502    0 -0.23334306365E+02 -0.37815723088E+02 -0.18926475954E+03  0.19445601140E+03  0.41800000000E+01 0. -1.
         -5    1    3    3    0  502 -0.40743119711E+02  0.98727110697E+02 -0.32315560907E+03  0.34037341886E+03  0.41800000000E+01 0. -1.
        -11    1    4    4    0    0  0.59398703065E+02 -0.91618854274E+01 -0.31751235527E+01  0.60184943964E+02  0.00000000000E+00 0.  1.
         11    1    4    4    0    0  0.46787230109E+01 -0.51749502181E+02 -0.66811672438E+02  0.84638649558E+02  0.00000000000E+00 0. -1.
</event>
<event>
 8    1  0.7026811E-009  0.9908730E+02  0.7561462E-02  0.1282227E+00
         -2   -1    0    0    0  501 -0.00000000000E+00  0.00000000000E+00  0.13763635223E+03  0.13763635223E+03  0.00000000000E+00 0.  1.
          2   -1    0    0  501    0  0.00000000000E+00 -0.00000000000E+00 -0.15743049520E+03  0.15743049520E+03  0.00000000000E+00 0. -1.
         25    2    1    2    0    0  0.14319204163E+02  0.15193351680E+02  0.86374100748E+02  0.15344523720E+03  0.12509627491E+03 0.  0.
         23    2    1    2    0    0 -0.14319204163E+02 -0.15193351680E+02 -0.10616824372E+03  0.14162161023E+03  0.91373447813E+02 0.  0.
          5    1    3    3  502    0 -0.26774210548E+02 -0.32132010340E+02 -0.52459670202E+01  0.42359379232E+02  0.41800000000E+01 0. -1.
         -5    1    3    3    0  502  0.41093414711E+02  0.47325362020E+02  0.91620067768E+02  0.11108585797E+03  0.41800000000E+01 0. -1.
        -11    1    4    4    0    0  0.20027371977E+02 -0.44099375760E+02 -0.61634772651E+02  0.78388109880E+02  0.00000000000E+00 0.  1.
         11    1    4    4    0    0 -0.34346576140E+02  0.28906024080E+02 -0.44533471068E+02  0.63233500346E+02  0.00000000000E+00 0. -1.
</event>
<event>
 8    1  0.7026811E-009  0.1065959E+03  0.7561462E-02  0.1267007E+00
         -3   -1    0    0    0  501 -0.00000000000E+00  0.00000000000E+00  0.31403289939E+03  0.31403289939E+03  0.00000000000E+00 0.  1.
          3   -1    0    0  501    0  0.00000000000E+00 -0.00000000000E+00 -0.54768700896E+02  0.54768700896E+02  0.00000000000E+00 0. -1.
         25    2    1    2    0    0  0.47348635677E+02 -0.54275161267E+02  0.16282331766E+03  0.21759325946E+03  0.12509079647E+03 0.  0.
         23    2    1    2    0    0 -0.47348635677E+02  0.54275161267E+02  0.96440880836E+02  0.15120834082E+03  0.91517388545E+02 0.  0.
          5    1    3    3  502    0  0.26040790731E+02 -0.67896233092E+02  0.17474937923E+03  0.18932205152E+03  0.41800000000E+01 0.  1.
         -5    1    3    3    0  502  0.21307844946E+02  0.13621071825E+02 -0.11926061575E+02  0.28271207944E+02  0.41800000000E+01 0.  1.
        -11    1    4    4    0    0 -0.68057446597E+01 -0.24875813762E+02  0.33410003832E+02  0.42206073339E+02  0.00000000000E+00 0.  1.
         11    1    4    4    0    0 -0.40542891017E+02  0.79150975029E+02  0.63030877004E+02  0.10900226748E+03  0.00000000000E+00 0. -1.
</event>
<event>
 8    1  0.7026811E-009  0.1165496E+03  0.7561462E-02  0.1248900E+00
         -1   -1    0    0    0  501 -0.00000000000E+00  0.00000000000E+00  0.11573645789E+03  0.11573645789E+03  0.00000000000E+00 0.  1.
          1   -1    0    0  501    0  0.00000000000E+00 -0.00000000000E+00 -0.13121951689E+03  0.13121951689E+03  0.00000000000E+00 0. -1.
         25    2    1    2    0    0 -0.51693877103E+02  0.18510577034E+02  0.99799237860E+01  0.13697043908E+03  0.12508558634E+03 0.  0.
         23    2    1    2    0    0  0.51693877103E+02 -0.18510577034E+02 -0.25462982794E+02  0.10998553570E+03  0.91834395402E+02 0.  0.
          5    1    3    3  502    0 -0.14586888305E+02 -0.53095061794E+02 -0.23828416008E+01  0.55272174116E+02  0.41800000000E+01 0. -1.
         -5    1    3    3    0  502 -0.37106988798E+02  0.71605638828E+02  0.12362765387E+02  0.81698264961E+02  0.41800000000E+01 0. -1.
        -11    1    4    4    0    0 -0.12797236203E+02 -0.29078200981E+02 -0.31015337179E+02  0.44398898263E+02  0.00000000000E+00 0. -1.
         11    1    4    4    0    0  0.64491113306E+02  0.10567623947E+02  0.55523543850E+01  0.65586637439E+02  0.00000000000E+00 0.  1.
</event>
<event>
 8    1  0.7026811E-009  0.1327433E+03  0.7561462E-02  0.1223441E+00
         -1   -1    0    0    0  501 -0.00000000000E+00  0.00000000000E+00  0.78662079788E+02  0.78662079788E+02  0.00000000000E+00 0.  1.
          1   -1    0    0  501    0  0.00000000000E+00 -0.00000000000E+00 -0.32863173396E+03  0.32863173396E+03  0.00000000000E+00 0. -1.
         25    2    1    2    0    0 -0.80683692668E+02 -0.22354951605E+02 -0.23965265351E+03  0.28300240934E+03  0.12508943693E+03 0.  0.
         23    2    1    2    0    0  0.80683692668E+02  0.22354951605E+02 -0.10317000654E+02  0.12429140440E+03  0.91281490909E+02 0.  0.
          5    1    3    3  502    0 -0.10979597229E+03 -0.89296806559E+01 -0.13973118840E+03  0.17798081958E+03  0.41800000000E+01 0. -1.
         -5    1    3    3    0  502  0.29112279620E+02 -0.13425270949E+02 -0.99921465118E+02  0.10502158976E+03  0.41800000000E+01 0. -1.
        -11    1    4    4    0    0  0.76729468470E+02 -0.20867018163E+02  0.67296705662E+00  0.79519159097E+02  0.00000000000E+00 0.  1.
         11    1    4    4    0    0  0.39542241974E+01  0.43221969768E+02 -0.10989967711E+02  0.44772245308E+02  0.00000000000E+00 0. -1.
</event>
<event>
 8    1  0.7026811E-009  0.1018540E+03  0.7561462E-02  0.1276445E+00
         -1   -1    0    0    0  501 -0.00000000000E+00  0.00000000000E+00  0.24416082330E+03  0.24416082330E+03  0.00000000000E+00 0.  1.
          1   -1    0    0  501    0  0.00000000000E+00 -0.00000000000E+00 -0.11702227117E+03  0.11702227117E+03  0.00000000000E+00 0. -1.
         25    2    1    2    0    0 -0.54770600187E+02  0.42222250869E+02 -0.49568982623E+02  0.15128472505E+03  0.12508975531E+03 0.  0.
         23    2    1    2    0    0  0.54770600187E+02 -0.42222250869E+02  0.17670753476E+03  0.20989836942E+03  0.89717531914E+02 0.  0.
          5    1    3    3  502    0 -0.62032210565E+02  0.17889097044E+02 -0.85419191059E+02  0.10715374721E+03  0.41800000000E+01 0. -1.
         -5    1    3    3    0  502  0.72616103781E+01  0.24333153825E+02  0.35850208436E+02  0.44130977841E+02  0.41800000000E+01 0. -1.
        -11    1    4    4    0    0  0.65806035122E+02 -0.62138867164E+02  0.14120443642E+03  0.16772109568E+03  0.00000000000E+00 0. -1.
         11    1    4    4    0    0 -0.11035434935E+02  0.19916616296E+02  0.35503098338E+02  0.42177273744E+02  0.00000000000E+00 0.  1.
</event>
<event>
 8    1  0.7026811E-009  0.1306115E+03  0.7561462E-02  0.1226551E+00
         -2   -1    0    0    0  501 -0.00000000000E+00  0.00000000000E+00  0.32310532609E+03  0.32310532609E+03  0.00000000000E+00 0. -1.
          2   -1    0    0  501    0  0.00000000000E+00 -0.00000000000E+00 -0.78663257587E+02  0.78663257587E+02  0.00000000000E+00 0.  1.
         25    2    1    2    0    0 -0.11272307825E+02 -0.11012250665E+03  0.85313569987E+02  0.18756237672E+03  0.12508880262E+03 0.  0.
         23    2    1    2    0    0  0.11272307825E+02  0.11012250665E+03  0.15912849851E+03  0.21420620696E+03  0.91150362948E+02 0.  0.
          5    1    3    3  502    0  0.21899662774E+02 -0.11146404496E+03  0.99642794935E+02  0.15116212334E+03  0.41800000000E+01 0.  1.
         -5    1    3    3    0  502 -0.33171970599E+02  0.13415383102E+01 -0.14329224948E+02  0.36400253379E+02  0.41800000000E+01 0.  1.
        -11    1    4    4    0    0 -0.89489082052E+01  0.45719263387E+02  0.13451801807E+03  0.14235670405E+03  0.00000000000E+00 0. -1.
         11    1    4    4    0    0  0.20221216030E+02  0.64403243267E+02  0.24610480448E+02  0.71849502913E+02  0.00000000000E+00 0.  1.
</event>
<event>
 8    1  0.7026811E-009  0.8932450E+02  0.7561462E-02  0.1304496E+00
         -2   -1    0    0    0  501 -0.00000000000E+00  0.00000000000E+00  0.71706487091E+02  0.71706487091E+02  0.00000000000E+00 0.  1.
          2   -1    0    0  501    0  0.00000000000E+00 -0.00000000000E+00 -0.19729348748E+03  0.19729348748E+03  0.00000000000E+00 0. -1.
         25    2    1    2    0    0 -0.28555299376E+02 -0.15209310784E+02 -0.39601372362E+02  0.13513857283E+03  0.12508971547E+03 0.  0.
         23    2    1    2    0    0  0.28555299376E+02  0.15209310784E+02 -0.85985628028E+02  0.13386140174E+03  0.97358196327E+02 0.  0.
          5    1    3    3  502    0 -0.63261263216E+02  0.96944006216E+01 -0.59811805546E+02  0.87697738339E+02  0.41800000000E+01 0.  1.
         -5    1    3    3    0  502  0.34705963840E+02 -0.24903711405E+02  0.20210433183E+02  0.47440834492E+02  0.41800000000E+01 0.  1.
        -11    1    4    4    0    0 -0.20293703413E+02  0.95117335368E+01  0.11114596407E+02  0.25016828863E+02  0.00000000000E+00 0.  1.
         11    1    4    4    0    0  0.48849002789E+02  0.56975772467E+01 -0.97100224434E+02  0.10884457288E+03  0.00000000000E+00 0. -1.
</event>
<event>
 8    1  0.7026811E-009  0.1035720E+03  0.7561462E-02  0.1272959E+00
          2   -1    0    0  501    0  0.00000000000E+00  0.00000000000E+00  0.32602085867E+03  0.32602085867E+03  0.00000000000E+00 0. -1.
         -2   -1    0    0    0  501 -0.00000000000E+00 -0.00000000000E+00 -0.41262287107E+02  0.41262287107E+02  0.00000000000E+00 0.  1.
         25    2    1    2    0    0  0.40403386902E+02 -0.61838668318E+01  0.13746574159E+03  0.19030357911E+03  0.12509175924E+03 0.  0.
         23    2    1    2    0    0 -0.40403386902E+02  0.61838668318E+01  0.14729282997E+03  0.17697956666E+03  0.89195938105E+02 0.  0.
          5    1    3    3  502    0  0.84727555127E+02 -0.12705273061E+02  0.10002775936E+03  0.13176952456E+03  0.41800000000E+01 0.  1.
         -5    1    3    3    0  502 -0.44324168225E+02  0.65214062295E+01  0.37437982232E+02  0.58534054546E+02  0.41800000000E+01 0.  1.
        -11    1    4    4    0    0 -0.58244097663E+02  0.37401596724E+01  0.46589590483E+02  0.74679004066E+02  0.00000000000E+00 0.  1.
         11    1    4    4    0    0  0.17840710761E+02  0.24437071594E+01  0.10070323948E+03  0.10230056260E+03  0.00000000000E+00 0. -1.
</event>
<event>
 8    1  0.7026811E-009  0.9675061E+02  0.7561462E-02  0.1287281E+00
          2   -1    0    0  501    0  0.00000000000E+00  0.00000000000E+00  0.16478179798E+03  0.16478179798E+03  0.00000000000E+00 0. -1.
         -2   -1    0    0    0  501 -0.00000000000E+00 -0.00000000000E+00 -0.25203500455E+03  0.25203500455E+03  0.00000000000E+00 0.  1.
         25    2    1    2    0    0 -0.25975499318E+02 -0.35070377381E+01  0.12816833349E+03  0.18101160308E+03  0.12510416803E+03 0.  0.
         23    2    1    2    0    0  0.25975499318E+02  0.35070377381E+01 -0.21542154007E+03  0.23580519946E+03  0.92253055704E+02 0.  0.
          5    1    3    3  502    0 -0.54633911123E+02  0.25163651854E+02  0.12660405326E+03  0.14022885695E+03  0.41800000000E+01 0. -1.
         -5    1    3    3    0  502  0.28658411804E+02 -0.28670689592E+02  0.15642802292E+01  0.40782746125E+02  0.41800000000E+01 0. -1.
        -11    1    4    4    0    0 -0.13524632165E+02 -0.34857004784E+02 -0.57765543614E+02  0.68809770286E+02  0.00000000000E+00 0. -1.
         11    1    4    4    0    0  0.39500131484E+02  0.38364042523E+02 -0.15765599645E+03  0.16699542917E+03  0.00000000000E+00 0.  1.
</event>
<event>
 8    1  0.7026811E-009  0.1124698E+03  0.7561462E-02  0.1256063E+00
         -2   -1    0    0    0  501 -0.00000000000E+00  0.00000000000E+00  0.36499320833E+02  0.36499320833E+02  0.00000000000E+00 0.  1.
          2   -1    0    0  501    0  0.00000000000E+00 -0.00000000000E+00 -0.52138996504E+03  0.52138996504E+03  0.00000000000E+00 0. -1.
         25    2    1    2    0    0  0.18127386423E+02  0.77907607343E+02 -0.20577142808E+03  0.25374924002E+03  0.12509435949E+03 0.  0.
         23    2    1    2    0    0 -0.18127386423E+02 -0.77907607343E+02 -0.27911921613E+03  0.30414004586E+03  0.90528632271E+02 0.  0.
          5    1    3    3  502    0  0.19058246348E+02 -0.12667635747E+02 -0.13952604675E+03  0.14145202675E+03  0.41800000000E+01 0. -1.
         -5    1    3    3    0  502 -0.93085992444E+00  0.90575243090E+02 -0.66245381331E+02  0.11229721327E+03  0.41800000000E+01 0. -1.
        -11    1    4    4    0    0 -0.48476404126E+02 -0.52070890317E+02 -0.11480752265E+03  0.13506334303E+03  0.00000000000E+00 0.  1.
         11    1    4    4    0    0  0.30349017703E+02 -0.25836717026E+02 -0.16431169348E+03  0.16907670282E+03  0.00000000000E+00 0. -1.
</event>
<event>
 8    1  0.7026811E-009  0.6784736E+02  0.7561462E-02  0.1367570E+00
          2   -1    0    0  501    0  0.00000000000E+00  0.00000000000E+00  0.14904449615E+02  0.14904449615E+02  0.00000000000E+00 0. -1.
         -2   -1    0    0    0  501 -0.00000000000E+00 -0.00000000000E+00 -0.10410722284E+04  0.10410722284E+04  0.00000000000E+00 0.  1.
         25    2    1    2    0    0 -0.12268812024E+02 -0.53002822958E+02 -0.68300766420E+03  0.69649637885E+03  0.12509162007E+03 0.  0.
         23    2    1    2    0    0  0.12268812024E+02  0.53002822958E+02 -0.34316011463E+03  0.35948029921E+03  0.92235558512E+02 0.  0.
          5    1    3    3  502    0 -0.18134271340E+01 -0.28259529381E+02 -0.66072894782E+03  0.66134870107E+03  0.41800000000E+01 0.  1.
         -5    1    3    3    0  502 -0.10455384890E+02 -0.24743293577E+02 -0.22278716385E+02  0.35147677790E+02  0.41800000000E+01 0.  1.
        -11    1    4    4    0    0 -0.33518268614E+01  0.61844976524E+02 -0.33329004905E+03  0.33899600685E+03  0.00000000000E+00 0.  1.
         11    1    4    4    0    0  0.15620638886E+02 -0.88421535654E+01 -0.98700655860E+01  0.20484292361E+02  0.00000000000E+00 0. -1.
</event>
<event>
 8    1  0.7026811E-009  0.1023923E+03  0.7561462E-02  0.1275344E+00
          4   -1    0    0  501    0  0.00000000000E+00  0.00000000000E+00  0.33879499006E+03  0.33879499006E+03  0.00000000000E+00 0. -1.
         -4   -1    0    0    0  501 -0.00000000000E+00 -0.00000000000E+00 -0.38461335123E+02  0.38461335123E+02  0.00000000000E+00 0.  1.
         25    2    1    2    0    0  0.46861575361E+01  0.82514216430E+01  0.11327424079E+03  0.16902095353E+03  0.12508790139E+03 0.  0.
         23    2    1    2    0    0 -0.46861575361E+01 -0.82514216430E+01  0.18705941415E+03  0.20823537165E+03  0.90998349181E+02 0.  0.
          5    1    3    3  502    0  0.13917537923E+01 -0.55490005554E+02  0.27678630596E+02  0.62166362984E+02  0.41800000000E+01 0. -1.
         -5    1    3    3    0  502  0.32944037437E+01  0.63741427197E+02  0.85595610195E+02  0.10685459055E+03  0.41800000000E+01 0. -1.
        -11    1    4    4    0    0  0.33591052069E+02  0.18603450029E+02  0.12348541301E+03  0.12931780372E+03  0.00000000000E+00 0. -1.
         11    1    4    4    0    0 -0.38277209605E+02 -0.26854871672E+02  0.63574001132E+02  0.78917567928E+02  0.00000000000E+00 0.  1.
</event>
<event>
 8    1  0.7026811E-009  0.1246189E+03  0.7561462E-02  0.1235666E+00
         -2   -1    0    0    0  501 -0.00000000000E+00  0.00000000000E+00  0.34013536437E+02  0.34013536437E+02  0.00000000000E+00 0.  1.
          2   -1    0    0  501    0  0.00000000000E+00 -0.00000000000E+00 -0.53334823205E+03  0.53334823205E+03  0.00000000000E+00 0. -1.
         25    2    1    2    0    0  0.77107276595E+02 -0.17330356816E+02 -0.25477581702E+03  0.29462501152E+03  0.12508919659E+03 0.  0.
         23    2    1    2    0    0 -0.77107276595E+02  0.17330356816E+02 -0.24455887859E+03  0.27273675697E+03  0.91271135252E+02 0.  0.
          5    1    3    3  502    0 -0.15947551201E+02  0.27903229201E+02 -0.12207026080E+03  0.12629938860E+03  0.41800000000E+01 0.  1.
         -5    1    3    3    0  502  0.93054827796E+02 -0.45233586017E+02 -0.13270555622E+03  0.16832562292E+03  0.41800000000E+01 0.  1.
        -11    1    4    4    0    0 -0.84340493219E+02  0.37164308264E+02 -0.22794179420E+03  0.24586981545E+03  0.00000000000E+00 0. -1.
         11    1    4    4    0    0  0.72332166236E+01 -0.19833951448E+02 -0.16617084392E+02  0.26866941517E+02  0.00000000000E+00 0.  1.
</event>
<event>
 8    1  0.7026811E-009  0.9366882E+02  0.7561462E-02  0.1294203E+00
         -2   -1    0    0    0  501 -0.00000000000E+00  0.00000000000E+00  0.66064270730E+02  0.66064270730E+02  0.00000000000E+00 0. -1.
          2   -1    0    0  501    0  0.00000000000E+00 -0.00000000000E+00 -0.19780426333E+03  0.19780426333E+03  0.00000000000E+00 0.  1.
         25    2    1    2    0    0  0.27199714450E+02  0.22452356400E+02 -0.84655333324E+02  0.15510955868E+03  0.12509403247E+03 0.  0.
         23    2    1    2    0    0 -0.27199714450E+02 -0.22452356400E+02 -0.47084659271E+02  0.10875897538E+03  0.91474678530E+02 0.  0.
          5    1    3    3  502    0  0.76946476724E+02  0.19857166998E+02 -0.57884941153E+02  0.98403283349E+02  0.41800000000E+01 0. -1.
         -5    1    3    3    0  502 -0.49746762275E+02  0.25951894015E+01 -0.26770392171E+02  0.56706275330E+02  0.41800000000E+01 0. -1.
        -11    1    4    4    0    0 -0.29617615069E+02  0.51507091844E+01 -0.67797933524E+02  0.74163958346E+02  0.00000000000E+00 0.  1.
         11    1    4    4    0    0  0.24179006190E+01 -0.27603065584E+02  0.20713274253E+02  0.34595017030E+02  0.00000000000E+00 0. -1.
</event>
<event>
 8    1  0.7026811E-009  0.1202910E+03  0.7561462E-02  0.1242618E+00
          1   -1    0    0  501    0  0.00000000000E+00  0.00000000000E+00  0.95751149135E+03  0.95751149135E+03  0.00000000000E+00 0. -1.
         -1   -1    0    0    0  501 -0.00000000000E+00 -0.00000000000E+00 -0.17287355734E+02  0.17287355734E+02  0.00000000000E+00 0.  1.
         25    2    1    2    0    0 -0.64175050125E+02  0.17141750422E+02  0.62121605591E+03  0.63715742172E+03  0.12509162752E+03 0.  0.
         23    2    1    2    0    0  0.64175050125E+02 -0.17141750422E+02  0.31900807970E+03  0.33764142536E+03  0.88449423589E+02 0.  0.
          5    1    3    3  502    0 -0.22298569116E+02 -0.53994318956E+02  0.23394208069E+03  0.24116173449E+03  0.41800000000E+01 0. -1.
         -5    1    3    3    0  502 -0.41876481009E+02  0.71136069378E+02  0.38727397522E+03  0.39599568723E+03  0.41800000000E+01 0. -1.
        -11    1    4    4    0    0  0.52835392227E+01 -0.36875953516E+02  0.55018877803E+02  0.66444176939E+02  0.00000000000E+00 0.  1.
         11    1    4    4    0    0  0.58891510902E+02  0.19734203094E+02  0.26398920190E+03  0.27119724842E+03  0.00000000000E+00 0. -1.
</event>
<event>
 8    1  0.7026811E-009  0.1183585E+03  0.7561462E-02  0.1245830E+00
         -2   -1    0    0    0  501 -0.00000000000E+00  0.00000000000E+00  0.11248111243E+03  0.11248111243E+03  0.00000000000E+00 0.  1.
          2   -1    0    0  501    0  0.00000000000E+00 -0.00000000000E+00 -0.22462794127E+03  0.22462794127E+03  0.00000000000E+00 0. -1.
         25    2    1    2    0    0  0.67385232489E+02 -0.38939340958E+02 -0.15029730264E+03  0.21045795183E+03  0.12508488509E+03 0.  0.
         23    2    1    2    0    0 -0.67385232489E+02  0.38939340958E+02  0.38150473792E+02  0.12665110186E+03  0.92347177111E+02 0.  0.
          5    1    3    3  502    0  0.30950085073E+02 -0.72838348195E+02 -0.13781990574E+03  0.15898154469E+03  0.41800000000E+01 0. -1.
         -5    1    3    3    0  502  0.36435147416E+02  0.33899007236E+02 -0.12477396893E+02  0.51476407140E+02  0.41800000000E+01 0. -1.
        -11    1    4    4    0    0 -0.83305441313E+02  0.26821768710E+02  0.46616085389E+01  0.87640940338E+02  0.00000000000E+00 0. -1.
         11    1    4    4    0    0  0.15920208824E+02  0.12117572248E+02  0.33488865253E+02  0.39010161524E+02  0.00000000000E+00 0.  1.
</event>
<event>
 8    1  0.7026811E-009  0.1601213E+03  0.7561462E-02  0.1188560E+00
         -2   -1    0    0    0  501 -0.00000000000E+00  0.00000000000E+00  0.30178833754E+02  0.30178833754E+02  0.00000000000E+00 0.  1.
          2   -1    0    0  501    0  0.00000000000E+00 -0.00000000000E+00 -0.92663617400E+03  0.92663617400E+03  0.00000000000E+00 0. -1.
         25    2    1    2    0    0  0.51745975156E+01  0.12674887101E+03 -0.46258176456E+03  0.49570312488E+03  0.12509055261E+03 0.  0.
         23    2    1    2    0    0 -0.51745975156E+01 -0.12674887101E+03 -0.43387557569E+03  0.46111188288E+03  0.91017034599E+02 0.  0.
          5    1    3    3  502    0  0.29530235306E+01  0.14796998888E+03 -0.33469093081E+03  0.36597722542E+03  0.41800000000E+01 0.  1.
         -5    1    3    3    0  502  0.22215739850E+01 -0.21221117870E+02 -0.12789083375E+03  0.12972589947E+03  0.41800000000E+01 0.  1.
        -11    1    4    4    0    0 -0.28638754384E+02 -0.84805524140E+01 -0.14568230907E+03  0.14871258587E+03  0.00000000000E+00 0. -1.
         11    1    4    4    0    0  0.23464156868E+02 -0.11826831860E+03 -0.28819326662E+03  0.31239929700E+03  0.00000000000E+00 0.  1.
</event>
<event>
 8    1  0.7026811E-009  0.1115785E+03  0.7561462E-02  0.1257674E+00
          1   -1    0    0  501    0  0.00000000000E+00  0.00000000000E+00  0.11269280020E+04  0.11269280020E+04  0.00000000000E+00 0. -1.
         -1   -1    0    0    0  501 -0.00000000000E+00 -0.00000000000E+00 -0.33764893804E+02  0.33764893804E+02  0.00000000000E+00 0.  1.
         25    2    1    2    0    0  0.63119810996E+02 -0.23598099694E+02  0.10031243821E+04  0.10131368792E+04  0.12508728640E+03 0.  0.
         23    2    1    2    0    0 -0.63119810996E+02  0.23598099694E+02  0.90038726118E+02  0.14755601661E+03  0.95523949807E+02 0.  0.
          5    1    3    3  502    0 -0.14939891438E+02  0.15420704343E+02  0.61124693990E+03  0.61163820385E+03  0.41800000000E+01 0. -1.
         -5    1    3    3    0  502  0.78059702433E+02 -0.39018804037E+02  0.39187744217E+03  0.40149867533E+03  0.41800000000E+01 0. -1.
        -11    1    4    4    0    0 -0.30546542694E+02 -0.35255602286E+02  0.20972379813E+02  0.51145766962E+02  0.00000000000E+00 0.  1.
         11    1    4    4    0    0 -0.32573268301E+02  0.58853701980E+02  0.69066346306E+02  0.96410249645E+02  0.00000000000E+00 0. -1.
</event>
<event>
 8    1  0.7026811E-009  0.1062619E+03  0.7561462E-02  0.1267653E+00
         -2   -1    0    0    0  501 -0.00000000000E+00  0.00000000000E+00  0.58074502903E+02  0.58074502903E+02  0.00000000000E+00 0.  1.
          2   -1    0    0  501    0  0.00000000000E+00 -0.00000000000E+00 -0.49089382792E+03  0.49089382792E+03  0.00000000000E+00 0. -1.
         25    2    1    2    0    0 -0.75092128518E+01 -0.80740649871E+02 -0.67050915959E+02  0.16345811495E+03  0.12508912500E+03 0.  0.
         23    2    1    2    0    0  0.75092128518E+01  0.80740649871E+02 -0.36576840906E+03  0.38551021587E+03  0.90863395598E+02 0.  0.
          5    1    3    3  502    0  0.12984318703E+01 -0.80881294629E+02  0.13674666409E+02  0.82145837677E+02  0.41800000000E+01 0.  1.
         -5    1    3    3    0  502 -0.88076447221E+01  0.14064475818E+00 -0.80725582368E+02  0.81312277272E+02  0.41800000000E+01 0.  1.
        -11    1    4    4    0    0 -0.38210599493E+02  0.60988674536E+02 -0.21872651827E+03  0.23026280231E+03  0.00000000000E+00 0.  1.
         11    1    4    4    0    0  0.45719812345E+02  0.19751975335E+02 -0.14704189079E+03  0.15524741356E+03  0.00000000000E+00 0. -1.
</event>
<event>
 8    1  0.7026811E-009  0.1140474E+03  0.7561462E-02  0.1253253E+00
         -2   -1    0    0    0  501 -0.00000000000E+00  0.00000000000E+00  0.40116212175E+02  0.40116212175E+02  0.00000000000E+00 0.  1.
          2   -1    0    0  501    0  0.00000000000E+00 -0.00000000000E+00 -0.51033210239E+03  0.51033210239E+03  0.00000000000E+00 0. -1.
         25    2    1    2    0    0 -0.79589256057E+02 -0.36001864585E+02 -0.19434703443E+03  0.24708027569E+03  0.12508920382E+03 0.  0.
         23    2    1    2    0    0  0.79589256057E+02  0.36001864585E+02 -0.27586885579E+03  0.30336803888E+03  0.91093125333E+02 0.  0.
          5    1    3    3  502    0  0.21988219007E+02  0.15465658951E+01  0.22934365145E+01  0.22552292394E+02  0.41800000000E+01 0.  1.
         -5    1    3    3    0  502 -0.10157747506E+03 -0.37548430480E+02 -0.19664047094E+03  0.22452798330E+03  0.41800000000E+01 0.  1.
        -11    1    4    4    0    0  0.78044093404E+02  0.19147837884E+02 -0.27491233086E+03  0.28641632263E+03  0.00000000000E+00 0. -1.
         11    1    4    4    0    0  0.15451626533E+01  0.16854026701E+02 -0.95652492950E+00  0.16951716243E+02  0.00000000000E+00 0.  1.
</event>
<event>
 8    1  0.7026811E-009  0.1216283E+03  0.7561462E-02  0.1240435E+00
          2   -1    0    0  501    0  0.00000000000E+00  0.00000000000E+00  0.10281754068E+04  0.10281754068E+04  0.00000000000E+00 0. -1.
         -2   -1    0    0    0  501 -0.00000000000E+00 -0.00000000000E+00 -0.21043911140E+02  0.21043911140E+02  0.00000000000E+00 0.  1.
         25    2    1    2    0    0  0.33256657861E+01  0.94521541858E+02  0.64393111090E+03  0.66275151053E+03  0.12508759813E+03 0.  0.
         23    2    1    2    0    0 -0.33256657861E+01 -0.94521541858E+02  0.36320038472E+03  0.38646780736E+03  0.92181694162E+02 0.  0.
          5    1    3    3  502    0  0.33596720605E+02  0.41526547933E+02  0.53614545371E+03  0.53881593680E+03  0.41800000000E+01 0. -1.
         -5    1    3    3    0  502 -0.30271054819E+02  0.52994993925E+02  0.10778565719E+03  0.12393557374E+03  0.41800000000E+01 0. -1.
        -11    1    4    4    0    0 -0.44608156618E+02 -0.59516029826E+02  0.25277642085E+03  0.26349186777E+03  0.00000000000E+00 0. -1.
         11    1    4    4    0    0  0.41282490832E+02 -0.35005512031E+02  0.11042396387E+03  0.12297593959E+03  0.00000000000E+00 0.  1.
</event>
<event>
 8    1  0.7026811E-009  0.1065100E+03  0.7561462E-02  0.1267173E+00
         -2   -1    0    0    0  501 -0.00000000000E+00  0.00000000000E+00  0.29693582447E+02  0.29693582447E+02  0.00000000000E+00 0. -1.
          2   -1    0    0  501    0  0.00000000000E+00 -0.00000000000E+00 -0.57173420601E+03  0.57173420601E+03  0.00000000000E+00 0.  1.
         25    2    1    2    0    0  0.44222413266E+02 -0.52842245926E+02 -0.25253756392E+03  0.29012056581E+03  0.12508715652E+03 0.  0.
         23    2    1    2    0    0 -0.44222413266E+02  0.52842245926E+02 -0.28950305964E+03  0.31130722265E+03  0.91390593268E+02 0.  0.
          5    1    3    3  502    0 -0.11934106327E+02  0.85702022224E+01  0.75305567683E+01  0.17030940820E+02  0.41800000000E+01 0. -1.
         -5    1    3    3    0  502  0.56156519593E+02 -0.61412448149E+02 -0.26006812069E+03  0.27308962499E+03  0.41800000000E+01 0. -1.
        -11    1    4    4    0    0 -0.39620325966E+02 -0.17938827041E+02 -0.10641974388E+03  0.11496405366E+03  0.00000000000E+00 0.  1.
         11    1    4    4    0    0 -0.46020873004E+01  0.70781072967E+02 -0.18308331576E+03  0.19634316899E+03  0.00000000000E+00 0. -1.
</event>
<event>
 8    1  0.7026811E-009  0.9594567E+02  0.7561462E-02  0.1289060E+00
         -1   -1    0    0    0  501 -0.00000000000E+00  0.00000000000E+00  0.16389246568E+02  0.16389246568E+02  0.00000000000E+00 0.  1.
          1   -1    0    0  501    0  0.00000000000E+00 -0.00000000000E+00 -0.89663204889E+03  0.89663204889E+03  0.00000000000E+00 0. -1.
         25    2    1    2    0    0  0.37122269541E+02  0.60783636705E+01 -0.35417533059E+03  0.37749624473E+03  0.12509292783E+03 0.  0.
         23    2    1    2    0    0 -0.37122269541E+02 -0.60783636705E+01 -0.52606747173E+03  0.53552505072E+03  0.92871339673E+02 0.  0.
          5    1    3    3  502    0  0.65089681774E+02  0.31250807055E+01 -0.86829612258E+02  0.10864293243E+03  0.41800000000E+01 0. -1.
         -5    1    3    3    0  502 -0.27967412233E+02  0.29532829650E+01 -0.26734571833E+03  0.26885331230E+03  0.41800000000E+01 0. -1.
        -11    1    4    4    0    0 -0.66190593607E+02 -0.14774879664E+02 -0.40926094157E+03  0.41484215076E+03  0.00000000000E+00 0. -1.
         11    1    4    4    0    0  0.29068324066E+02  0.86965159938E+01 -0.11680653016E+03  0.12068289996E+03  0.00000000000E+00 0.  1.
</event>
<event>
 8    1  0.7026811E-009  0.9248902E+02  0.7561462E-02  0.1296934E+00
         -2   -1    0    0    0  501 -0.00000000000E+00  0.00000000000E+00  0.33923974047E+02  0.33923974047E+02  0.00000000000E+00 0.  1.
          2   -1    0    0  501    0  0.00000000000E+00 -0.00000000000E+00 -0.62534403751E+03  0.62534403751E+03  0.00000000000E+00 0. -1.
         25    2    1    2    0    0 -0.22833586783E+02 -0.26060649667E+02 -0.52292953749E+03  0.53879773054E+03  0.12508862100E+03 0.  0.
         23    2    1    2    0    0  0.22833586783E+02  0.26060649667E+02 -0.68490525969E+02  0.12047028102E+03  0.92852605320E+02 0.  0.
          5    1    3    3  502    0 -0.25138382581E+02 -0.61399485341E+02 -0.47180428580E+03  0.47646468031E+03  0.41800000000E+01 0.  1.
         -5    1    3    3    0  502  0.23047957985E+01  0.35338835674E+02 -0.51125251690E+02  0.62333050229E+02  0.41800000000E+01 0.  1.
        -11    1    4    4    0    0  0.49191554572E+02  0.56726417071E+01 -0.63025188736E+01  0.49917027649E+02  0.00000000000E+00 0.  1.
         11    1    4    4    0    0 -0.26357967789E+02  0.20388007960E+02 -0.62188007095E+02  0.70553253369E+02  0.00000000000E+00 0. -1.
</event>
<event>
 8    1  0.7026811E-009  0.1261757E+03  0.7561462E-02  0.1233243E+00
          1   -1    0    0  501    0  0.00000000000E+00  0.00000000000E+00  0.17719494322E+03  0.17719494322E+03  0.00000000000E+00 0. -1.
         -1   -1    0    0    0  501 -0.00000000000E+00 -0.00000000000E+00 -0.11659896315E+03  0.11659896315E+03  0.00000000000E+00 0.  1.
         25    2    1    2    0    0  0.82622913416E+02  0.26864004587E+02  0.72645870625E+02  0.16873977077E+03  0.12508983634E+03 0.  0.
         23    2    1    2    0    0 -0.82622913416E+02 -0.26864004587E+02 -0.12049890557E+02  0.12505413560E+03  0.89135382446E+02 0.  0.
          5    1    3    3  502    0  0.93336663253E+02  0.55338974207E+02  0.23997205349E+02  0.11120914098E+03  0.41800000000E+01 0. -1.
         -5    1    3    3    0  502 -0.10713749837E+02 -0.28474969620E+02  0.48648665276E+02  0.57530629786E+02  0.41800000000E+01 0. -1.
        -11    1    4    4    0    0  0.13453864053E+02 -0.67710896628E+00  0.16652167459E+02  0.21418674459E+02  0.00000000000E+00 0. -1.
         11    1    4    4    0    0 -0.96076777468E+02 -0.26186895621E+02 -0.28702058016E+02  0.10363546114E+03  0.00000000000E+00 0.  1.
</event>
<event>
 8    1  0.7026811E-009  0.9680359E+02  0.7561462E-02  0.1287165E+00
         -2   -1    0    0    0  501 -0.00000000000E+00  0.00000000000E+00  0.26067356215E+02  0.26067356215E+02  0.00000000000E+00 0.  1.
          2   -1    0    0  501    0  0.00000000000E+00 -0.00000000000E+00 -0.92148993604E+03  0.92148993604E+03  0.00000000000E+00 0. -1.
         25    2    1    2    0    0  0.12882660995E+02  0.16243690484E+02 -0.81258274350E+03  0.82241727956E+03  0.12509854615E+03 0.  0.
         23    2    1    2    0    0 -0.12882660995E+02 -0.16243690484E+02 -0.82839836327E+02  0.12514001270E+03  0.91475482291E+02 0.  0.
          5    1    3    3  502    0 -0.42982593630E+02 -0.15511243204E+02 -0.15392305052E+03  0.16061718433E+03  0.41800000000E+01 0. -1.
         -5    1    3    3    0  502  0.55865254625E+02  0.31754933688E+02 -0.65865969298E+03  0.66180009523E+03  0.41800000000E+01 0. -1.
        -11    1    4    4    0    0  0.71447367509E+01 -0.46497431809E+02 -0.17103749272E+02  0.50055935384E+02  0.00000000000E+00 0.  1.
         11    1    4    4    0    0 -0.20027397746E+02  0.30253741325E+02 -0.65736087055E+02  0.75084077313E+02  0.00000000000E+00 0. -1.
</event>
<event>
 8    1  0.7026811E-009  0.1014185E+03  0.7561462E-02  0.1277341E+00
         -2   -1    0    0    0  501 -0.00000000000E+00  0.00000000000E+00  0.10526599299E+03  0.10526599299E+03  0.00000000000E+00 0.  1.
          2   -1    0    0  501    0  0.00000000000E+00 -0.00000000000E+00 -0.17633696572E+03  0.17633696572E+03  0.00000000000E+00 0. -1.
         25    2    1    2    0    0 -0.43159292933E+02 -0.69341906484E+02 -0.23116548945E+02  0.15117423281E+03  0.12509296251E+03 0.  0.
         23    2    1    2    0    0  0.43159292933E+02  0.69341906484E+02 -0.47954423785E+02  0.13042872590E+03  0.89671629952E+02 0.  0.
          5    1    3    3  502    0  0.14839969722E+02 -0.59897248091E+02 -0.56233935469E+02  0.83592062594E+02  0.41800000000E+01 0.  1.
         -5    1    3    3    0  502 -0.57999262655E+02 -0.94446583924E+01  0.33117386524E+02  0.67582170214E+02  0.41800000000E+01 0.  1.
        -11    1    4    4    0    0  0.33570898370E+02  0.59614180592E+02  0.11542905764E+02  0.69383675447E+02  0.00000000000E+00 0.  1.
         11    1    4    4    0    0  0.95883945631E+01  0.97277258913E+01 -0.59497329550E+02  0.61045050453E+02  0.00000000000E+00 0. -1.
</event>
<event>
 8    1  0.7026811E-009  0.9702435E+02  0.7561462E-02  0.1286681E+00
          2   -1    0    0  501    0  0.00000000000E+00  0.00000000000E+00  0.48663320641E+03  0.48663320641E+03  0.00000000000E+00 0. -1.
         -2   -1    0    0    0  501 -0.00000000000E+00 -0.00000000000E+00 -0.40368638558E+02  0.40368638558E+02  0.00000000000E+00 0.  1.
         25    2    1    2    0    0  0.46373056512E+02 -0.58843668157E+02  0.33585266166E+03  0.36613839426E+03  0.12508907129E+03 0.  0.
         23    2    1    2    0    0 -0.46373056512E+02  0.58843668157E+02  0.11041190619E+03  0.16086345070E+03  0.89851116251E+02 0.  0.
          5    1    3    3  502    0  0.34681252944E+02 -0.27990076239E+02  0.20842262513E+02  0.49377180765E+02  0.41800000000E+01 0. -1.
         -5    1    3    3    0  502  0.11691803568E+02 -0.30853591919E+02  0.31501039915E+03  0.31676121350E+03  0.41800000000E+01 0. -1.
        -11    1    4    4    0    0  0.88242939186E+00  0.67905406440E+02  0.54332092032E+02  0.86970679714E+02  0.00000000000E+00 0.  1.
         11    1    4    4    0    0 -0.47255485904E+02 -0.90617382824E+01  0.56079814154E+02  0.73892770988E+02  0.00000000000E+00 0. -1.
</event>
<event>
 8    1  0.7026811E-009  0.4104063E+03  0.7561462E-02  0.1040235E+00
          1   -1    0    0  501    0  0.00000000000E+00  0.00000000000E+00  0.16110351233E+04  0.16110351233E+04  0.00000000000E+00 0. -1.
         -1   -1    0    0    0  501 -0.00000000000E+00 -0.00000000000E+00 -0.12456544175E+03  0.12456544175E+03  0.00000000000E+00 0.  1.
         25    2    1    2    0    0 -0.39520793751E+03 -0.10353808259E+03  0.10375193006E+04  0.11220537667E+04  0.12509559469E+03 0.  0.
         23    2    1    2    0    0  0.39520793751E+03  0.10353808259E+03  0.44895038092E+03  0.61354679834E+03  0.89296029033E+02 0.  0.
          5    1    3    3  502    0 -0.29013185736E+03 -0.93738699109E+02  0.61379049208E+03  0.68536098440E+03  0.41800000000E+01 0. -1.
         -5    1    3    3    0  502 -0.10507608015E+03 -0.97993834836E+01  0.42372880857E+03  0.43669278234E+03  0.41800000000E+01 0. -1.
        -11    1    4    4    0    0  0.31758298954E+03  0.98389192436E+02  0.40572391250E+03  0.52454864560E+03  0.00000000000E+00 0.  1.
         11    1    4    4    0    0  0.77624947971E+02  0.51488901567E+01  0.43226468425E+02  0.88998152733E+02  0.00000000000E+00 0. -1.
</event>
<event>
 8    1  0.7026811E-009  0.2854206E+03  0.7561462E-02  0.1092765E+00
         -2   -1    0    0    0  501 -0.00000000000E+00  0.00000000000E+00  0.17322067011E+03  0.17322067011E+03  0.00000000000E+00 0. -1.
          2   -1    0    0  501    0  0.00000000000E+00 -0.00000000000E+00 -0.63174635991E+03  0.63174635991E+03  0.00000000000E+00 0.  1.
         25    2    1    2    0    0  0.28574249876E+02  0.27505038028E+03 -0.40937295684E+03  0.50961161245E+03  0.12509427769E+03 0.  0.
         23    2    1    2    0    0 -0.28574249876E+02 -0.27505038028E+03 -0.49152732966E+02  0.29535541756E+03  0.91376321218E+02 0.  0.
          5    1    3    3  502    0  0.39268899540E+02  0.16019882433E+03 -0.13939828524E+03  0.21599783359E+03  0.41800000000E+01 0. -1.
         -5    1    3    3    0  502 -0.10694649664E+02  0.11485155595E+03 -0.26997467160E+03  0.29361377887E+03  0.41800000000E+01 0. -1.
        -11    1    4    4    0    0 -0.55179704949E+02 -0.10813443600E+03 -0.96829204925E+01  0.12178511829E+03  0.00000000000E+00 0. -1.
         11    1    4    4    0    0  0.26605455073E+02 -0.16691594428E+03 -0.39469812473E+02  0.17357029927E+03  0.00000000000E+00 0.  1.
</event>
<event>
 8    1  0.7026811E-009  0.1804642E+03  0.7561462E-02  0.1167355E+00
          2   -1    0    0  501    0  0.00000000000E+00  0.00000000000E+00  0.74908021669E+03  0.74908021669E+03  0.00000000000E+00 0. -1.
         -2   -1    0    0    0  501 -0.00000000000E+00 -0.00000000000E+00 -0.67170318926E+02  0.67170318926E+02  0.00000000000E+00 0.  1.
         25    2    1    2    0    0 -0.14825492701E+03 -0.51882710909E+02  0.13999627197E+03  0.24478281617E+03  0.12509329260E+03 0.  0.
         23    2    1    2    0    0  0.14825492701E+03  0.51882710909E+02  0.54191362579E+03  0.57146771944E+03  0.90739393144E+02 0.  0.
          5    1    3    3  502    0  0.18680246510E+02 -0.11366356350E+02  0.40520731820E+02  0.46233621680E+02  0.41800000000E+01 0.  1.
         -5    1    3    3    0  502 -0.16693517352E+03 -0.40516354559E+02  0.99475540148E+02  0.19854919449E+03  0.41800000000E+01 0.  1.
        -11    1    4    4    0    0  0.48267931183E+02  0.45994792377E+02  0.33520137487E+03  0.34176786833E+03  0.00000000000E+00 0. -1.
         11    1    4    4    0    0  0.99986995831E+02  0.58879185321E+01  0.20671225092E+03  0.22969985111E+03  0.00000000000E+00 0.  1.
</event>
<event>
 8    1  0.7026811E-009  0.6711762E+02  0.7561462E-02  0.1370178E+00
         -1   -1    0    0    0  501 -0.00000000000E+00  0.00000000000E+00  0.65891162642E+02  0.65891162642E+02  0.00000000000E+00 0.  1.
          1   -1    0    0  501    0  0.00000000000E+00 -0.00000000000E+00 -0.19401548034E+03  0.19401548034E+03  0.00000000000E+00 0. -1.
         25    2    1    2    0    0  0.63667732749E+01  0.27704130903E+02 -0.69307475215E+02  0.14580284280E+03  0.12508752207E+03 0.  0.
         23    2    1    2    0    0 -0.63667732749E+01 -0.27704130903E+02 -0.58816842485E+02  0.11410380018E+03  0.93553201894E+02 0.  0.
          5    1    3    3  502    0 -0.25776200899E+02  0.16869362735E+02  0.28513232448E+02  0.42183702499E+02  0.41800000000E+01 0.  1.
         -5    1    3    3    0  502  0.32142974174E+02  0.10834768168E+02 -0.97820707663E+02  0.10361914031E+03  0.41800000000E+01 0.  1.
        -11    1    4    4    0    0 -0.19114362487E+02 -0.44180901470E+02  0.36286733826E+01  0.48275026448E+02  0.00000000000E+00 0.  1.
         11    1    4    4    0    0  0.12747589212E+02  0.16476770567E+02 -0.62445515868E+02  0.65828773732E+02  0.00000000000E+00 0. -1.
</event>
<event>
 8    1  0.7026811E-009  0.1014291E+03  0.7561462E-02  0.1277319E+00
         -1   -1    0    0    0  501 -0.00000000000E+00  0.00000000000E+00  0.14635677958E+03  0.14635677958E+03  0.00000000000E+00 0.  1.
          1   -1    0    0  501    0  0.00000000000E+00 -0.00000000000E+00 -0.12514145057E+03  0.12514145057E+03  0.00000000000E+00 0. -1.
         25    2    1    2    0    0  0.66103199038E+02  0.46152724918E+02  0.24117269526E+01  0.14884422703E+03  0.12509628513E+03 0.  0.
         23    2    1    2    0    0 -0.66103199038E+02 -0.46152724918E+02  0.18803602057E+02  0.12265400311E+03  0.90502608187E+02 0.  0.
          5    1    3    3  502    0  0.68564944748E+02  0.20244498129E+02 -0.51921374620E+02  0.88455033182E+02  0.41800000000E+01 0. -1.
         -5    1    3    3    0  502 -0.24617457102E+01  0.25908226788E+02  0.54333101573E+02  0.60389193850E+02  0.41800000000E+01 0. -1.
        -11    1    4    4    0    0 -0.73662489438E+01 -0.45554686064E+02 -0.22010206982E+02  0.51126707866E+02  0.00000000000E+00 0. -1.
         11    1    4    4    0    0 -0.58736950094E+02 -0.59803885373E+00  0.40813809039E+02  0.71527295245E+02  0.00000000000E+00 0.  1.
</event>
<event>
 8    1  0.7026811E-009  0.1044351E+03  0.7561462E-02  0.1271237E+00
         -2   -1    0    0    0  501 -0.00000000000E+00  0.00000000000E+00  0.12898286495E+03  0.12898286495E+03  0.00000000000E+00 0. -1.
          2   -1    0    0  501    0  0.00000000000E+00 -0.00000000000E+00 -0.11555248519E+03  0.11555248519E+03  0.00000000000E+00 0.  1.
         25    2    1    2    0    0  0.33522263647E+02  0.34943522626E+02 -0.35740681712E+01  0.13418136750E+03  0.12508826279E+03 0.  0.
         23    2    1    2    0    0 -0.33522263647E+02 -0.34943522626E+02  0.17004447936E+02  0.11035398265E+03  0.97693696331E+02 0.  0.
          5    1    3    3  502    0 -0.40244730806E+02  0.33290486934E+02  0.20782523779E+02  0.56367371525E+02  0.41800000000E+01 0.  1.
         -5    1    3    3    0  502  0.73766994453E+02  0.16530356918E+01 -0.24356591951E+02  0.77813995972E+02  0.41800000000E+01 0.  1.
        -11    1    4    4    0    0  0.14907707046E+02 -0.30485676668E+02 -0.28072716912E+02  0.44041953251E+02  0.00000000000E+00 0.  1.
         11    1    4    4    0    0 -0.48429970693E+02 -0.44578459580E+01  0.45077164848E+02  0.66312029396E+02  0.00000000000E+00 0. -1.
</event>
<event>
 8    1  0.7026811E-009  0.1240744E+03  0.7561462E-02  0.1236523E+00
         -4   -1    0    0    0  501 -0.00000000000E+00  0.00000000000E+00  0.68099240970E+03  0.68099240970E+03  0.00000000000E+00 0.  1.
          4   -1    0    0  501    0  0.00000000000E+00 -0.00000000000E+00 -0.34364109197E+02  0.34364109197E+02  0.00000000000E+00 0. -1.
         25    2    1    2    0    0  0.10130275753E+02 -0.10676320079E+03  0.31126384193E+03  0.35218521184E+03  0.12509292792E+03 0.  0.
         23    2    1    2    0    0 -0.10130275753E+02  0.10676320079E+03  0.33536445857E+03  0.36317130706E+03  0.89011654668E+02 0.  0.
          5    1    3    3  502    0  0.70905169752E+01 -0.10477193960E+02  0.21676828750E+03  0.21717736965E+03  0.41800000000E+01 0.  1.
         -5    1    3    3    0  502  0.30397587780E+01 -0.96286006829E+02  0.94495554432E+02  0.13500784219E+03  0.41800000000E+01 0.  1.
        -11    1    4    4    0    0 -0.48928045145E+02  0.53425531040E+02  0.15407493706E+03  0.17025665096E+03  0.00000000000E+00 0. -1.
         11    1    4    4    0    0  0.38797769392E+02  0.53337669749E+02  0.18128952151E+03  0.19291465609E+03  0.00000000000E+00 0.  1.
</event>
<event>
 8    1  0.7026811E-009  0.8897969E+02  0.7561462E-02  0.1305341E+00
          1   -1    0    0  501    0  0.00000000000E+00  0.00000000000E+00  0.27829648998E+03  0.27829648998E+03  0.00000000000E+00 0. -1.
         -1   -1    0    0    0  501 -0.00000000000E+00 -0.00000000000E+00 -0.56520021053E+02  0.56520021053E+02  0.00000000000E+00 0.  1.
         25    2    1    2    0    0 -0.55542741154E+02 -0.23738911631E+02  0.14525795484E+03  0.20098448051E+03  0.12508539460E+03 0.  0.
         23    2    1    2    0    0  0.55542741154E+02  0.23738911631E+02  0.76518514092E+02  0.13383203052E+03  0.91691861004E+02 0.  0.
          5    1    3    3  502    0  0.12936344045E+02 -0.47974767235E+01  0.12658386336E+03  0.12740216498E+03  0.41800000000E+01 0.  1.
         -5    1    3    3    0  502 -0.68479085199E+02 -0.18941434907E+02  0.18674091479E+02  0.73582315529E+02  0.41800000000E+01 0.  1.
        -11    1    4    4    0    0  0.47018479878E+01 -0.22899513007E+02  0.57795517643E+02  0.62344341605E+02  0.00000000000E+00 0.  1.
         11    1    4    4    0    0  0.50840893166E+02  0.46638424638E+02  0.18722996448E+02  0.71487688917E+02  0.00000000000E+00 0. -1.
</event>
<event>
 8    1  0.7026811E-009  0.6941444E+02  0.7561462E-02  0.1362096E+00
         -2   -1    0    0    0  501 -0.00000000000E+00  0.00000000000E+00  0.18421413959E+03  0.18421413959E+03  0.00000000000E+00 0.  1.
          2   -1    0    0  501    0  0.00000000000E+00 -0.00000000000E+00 -0.69983283605E+02  0.69983283605E+02  0.00000000000E+00 0. -1.
         25    2    1    2    0    0  0.32205806898E+02 -0.16211054576E+02  0.84336044563E+02  0.15511264674E+03  0.12508937795E+03 0.  0.
         23    2    1    2    0    0 -0.32205806898E+02  0.16211054576E+02  0.29894811426E+02  0.99084776462E+02  0.87315983004E+02 0.  0.
          5    1    3    3  502    0  0.25292789264E+02  0.12030115294E+01  0.11560599001E+03  0.11842039416E+03  0.41800000000E+01 0. -1.
         -5    1    3    3    0  502  0.69130176345E+01 -0.17414066105E+02 -0.31269945448E+02  0.36692252581E+02  0.41800000000E+01 0. -1.
        -11    1    4    4    0    0  0.19305950171E+01 -0.33559958311E+02  0.15618034271E+02  0.37066440259E+02  0.00000000000E+00 0. -1.
         11    1    4    4    0    0 -0.34136401915E+02  0.49771012887E+02  0.14276777155E+02  0.62018336203E+02  0.00000000000E+00 0.  1.
</event>
<event>
 8    1  0.7026811E-009  0.2034951E+03  0.7561462E-02  0.1146823E+00
          2   -1    0    0  501    0  0.00000000000E+00  0.00000000000E+00  0.86435416571E+03  0.86435416571E+03  0.00000000000E+00 0. -1.
         -2   -1    0    0    0  501 -0.00000000000E+00 -0.00000000000E+00 -0.62854038153E+02  0.62854038153E+02  0.00000000000E+00 0.  1.
         25    2    1    2    0    0 -0.11337230476E+03  0.14494169322E+03  0.59969980034E+03  0.63964649976E+03  0.12508565150E+03 0.  0.
         23    2    1    2    0    0  0.11337230476E+03 -0.14494169322E+03  0.20180032721E+03  0.28756170410E+03  0.90038812081E+02 0.  0.
          5    1    3    3  502    0 -0.11464076946E+03  0.84878502532E+02  0.52305826468E+03  0.54217551297E+03  0.41800000000E+01 0. -1.
         -5    1    3    3    0  502  0.12684647040E+01  0.60063190684E+02  0.76641535666E+02  0.97470986797E+02  0.41800000000E+01 0. -1.
        -11    1    4    4    0    0  0.62805791961E+02 -0.14916205617E+02  0.75916313137E+02  0.99651127912E+02  0.00000000000E+00 0.  1.
         11    1    4    4    0    0  0.50566512798E+02 -0.13002548760E+03  0.12588401407E+03  0.18791057618E+03  0.00000000000E+00 0. -1.
</event>
<event>
 8    1  0.7026811E-009  0.1026606E+03  0.7561462E-02  0.1274799E+00
         -1   -1    0    0    0  501 -0.00000000000E+00  0.00000000000E+00  0.25007618728E+02  0.25007618728E+02  0.00000000000E+00 0.  1.
          1   -1    0    0  501    0  0.00000000000E+00 -0.00000000000E+00 -0.55575055461E+03  0.55575055461E+03  0.00000000000E+00 0. -1.
         25    2    1    2    0    0 -0.33219952459E+02 -0.36264782323E+01 -0.22798705718E+03  0.26218783667E+03  0.12509055468E+03 0.  0.
         23    2    1    2    0    0  0.33219952459E+02  0.36264782323E+01 -0.30275587870E+03  0.31857033666E+03  0.93323205736E+02 0.  0.
          5    1    3    3  502    0  0.28885661776E+02 -0.37149675777E+02 -0.41988858157E+02  0.63206142707E+02  0.41800000000E+01 0. -1.
         -5    1    3    3    0  502 -0.62105614235E+02  0.33523197545E+02 -0.18599819902E+03  0.19898169397E+03  0.41800000000E+01 0. -1.
        -11    1    4    4    0    0  0.58127742934E+02  0.14946880160E+02 -0.26635751795E+03  0.27303584214E+03  0.00000000000E+00 0. -1.
         11    1    4    4    0    0 -0.24907790474E+02 -0.11320401928E+02 -0.36398360747E+02  0.45534494520E+02  0.00000000000E+00 0.  1.
</event>
<event>
 8    1  0.7026811E-009  0.1072511E+03  0.7561462E-02  0.1265747E+00
         -2   -1    0    0    0  501 -0.00000000000E+00  0.00000000000E+00  0.12335898919E+02  0.12335898919E+02  0.00000000000E+00 0. -1.
          2   -1    0    0  501    0  0.00000000000E+00 -0.00000000000E+00 -0.17568502918E+04  0.17568502918E+04  0.00000000000E+00 0.  1.
         25    2    1    2    0    0 -0.49526053242E+00 -0.44981924718E+02 -0.14829854343E+04  0.14889313902E+04  0.12508903834E+03 0.  0.
         23    2    1    2    0    0  0.49526053242E+00  0.44981924718E+02 -0.26152895861E+03  0.28025480055E+03  0.90120686915E+02 0.  0.
          5    1    3    3  502    0 -0.47685002721E+02 -0.47234610852E+02 -0.46456175185E+03  0.46940394292E+03  0.41800000000E+01 0.  1.
         -5    1    3    3    0  502  0.47189742189E+02  0.22526861340E+01 -0.10184236824E+04  0.10195274472E+04  0.41800000000E+01 0.  1.
        -11    1    4    4    0    0 -0.36228313705E+02  0.51055047064E+02 -0.18149796510E+03  0.19199119740E+03  0.00000000000E+00 0.  1.
         11    1    4    4    0    0  0.36723574237E+02 -0.60731223462E+01 -0.80030993503E+02  0.88263603149E+02  0.00000000000E+00 0. -1.
</event>
<event>
 8    1  0.7026811E-009  0.1141905E+03  0.7561462E-02  0.1253001E+00
         -1   -1    0    0    0  501 -0.00000000000E+00  0.00000000000E+00  0.53774617959E+02  0.53774617959E+02  0.00000000000E+00 0.  1.
          1   -1    0    0  501    0  0.00000000000E+00 -0.00000000000E+00 -0.28295042122E+03  0.28295042122E+03  0.00000000000E+00 0. -1.
         25    2    1    2    0    0  0.40537464626E+02 -0.32112231720E+02 -0.17352361558E+03  0.22007391397E+03  0.12509037125E+03 0.  0.
         23    2    1    2    0    0 -0.40537464626E+02  0.32112231720E+02 -0.55652187679E+02  0.11665112522E+03  0.88520266358E+02 0.  0.
          5    1    3    3  502    0  0.81012307077E+02 -0.30000115263E+02 -0.14966232103E+03  0.17285625111E+03  0.41800000000E+01 0.  1.
         -5    1    3    3    0  502 -0.40474842451E+02 -0.21121164565E+01 -0.23861294557E+02  0.47217662853E+02  0.41800000000E+01 0.  1.
        -11    1    4    4    0    0  0.19194795141E+02 -0.15570533696E+02 -0.22193941097E+02  0.33218258556E+02  0.00000000000E+00 0. -1.
         11    1    4    4    0    0 -0.59732259767E+02  0.47682765416E+02 -0.33458246583E+02  0.83432866659E+02  0.00000000000E+00 0.  1.
</event>
<event>
 8    1  0.7026811E-009  0.1948569E+03  0.7561462E-02  0.1154152E+00
          1   -1    0    0  501    0  0.00000000000E+00  0.00000000000E+00  0.12607979793E+03  0.12607979793E+03  0.00000000000E+00 0. -1.
         -1   -1    0    0    0  501 -0.00000000000E+00 -0.00000000000E+00 -0.33945464830E+03  0.33945464830E+03  0.00000000000E+00 0.  1.
         25    2    1    2    0    0 -0.14133975955E+02  0.17172849131E+03 -0.14759014383E+03  0.25907762655E+03  0.12509165446E+03 0.  0.
         23    2    1    2    0    0  0.14133975955E+02 -0.17172849131E+03 -0.65784706539E+02  0.20645681968E+03  0.92770398145E+02 0.  0.
          5    1    3    3  502    0 -0.68012521747E+02  0.78627495162E+02 -0.58628134580E+02  0.11942661627E+03  0.41800000000E+01 0.  1.
         -5    1    3    3    0  502  0.53878545792E+02  0.93100996150E+02 -0.88962009249E+02  0.13965101027E+03  0.41800000000E+01 0.  1.
        -11    1    4    4    0    0 -0.70202223257E+01 -0.13818393241E+03 -0.85003635612E+02  0.16238750187E+03  0.00000000000E+00 0.  1.
         11    1    4    4    0    0  0.21154198280E+02 -0.33544558902E+02  0.19218929073E+02  0.44069317802E+02  0.00000000000E+00 0. -1.
</event>
<event>
 8    1  0.7026811E-009  0.1017530E+03  0.7561462E-02  0.1276652E+00
         -2   -1    0    0    0  501 -0.00000000000E+00  0.00000000000E+00  0.19613705136E+02  0.19613705136E+02  0.00000000000E+00 0.  1.
          2   -1    0    0  501    0  0.00000000000E+00 -0.00000000000E+00 -0.61380707705E+03  0.61380707705E+03  0.00000000000E+00 0. -1.
         25    2    1    2    0    0 -0.81599337945E+01 -0.44139212600E+01 -0.28981271323E+03  0.31579196050E+03  0.12508831419E+03 0.  0.
         23    2    1    2    0    0  0.81599337945E+01  0.44139212600E+01 -0.30438065869E+03  0.31762882169E+03  0.90301803767E+02 0.  0.
          5    1    3    3  502    0 -0.46461914801E+02  0.35194721706E+02 -0.81565426615E+02  0.10033827376E+03  0.41800000000E+01 0.  1.
         -5    1    3    3    0  502  0.38301981006E+02 -0.39608642966E+02 -0.20824728661E+03  0.21545368673E+03  0.41800000000E+01 0.  1.
        -11    1    4    4    0    0  0.70168392669E+01  0.46843988714E+02 -0.13729128706E+03  0.14523254737E+03  0.00000000000E+00 0.  1.
         11    1    4    4    0    0  0.11430945277E+01 -0.42430067454E+02 -0.16708937163E+03  0.17239627432E+03  0.00000000000E+00 0. -1.
</event>
<event>
 8    1  0.7026811E-009  0.9187165E+02  0.7561462E-02  0.1298381E+00
         -1   -1    0    0    0  501 -0.00000000000E+00  0.00000000000E+00  0.19377741238E+03  0.19377741238E+03  0.00000000000E+00 0.  1.
          1   -1    0    0  501    0  0.00000000000E+00 -0.00000000000E+00 -0.74588756146E+02  0.74588756146E+02  0.00000000000E+00 0. -1.
         25    2    1    2    0    0 -0.46296802164E+02 -0.20418594696E+02  0.76759847706E+02  0.15524290959E+03  0.12509186168E+03 0.  0.
         23    2    1    2    0    0  0.46296802164E+02  0.20418594696E+02  0.42428808528E+02  0.11312325893E+03  0.91849632652E+02 0.  0.
          5    1    3    3  502    0 -0.75394369622E+02 -0.42655116580E+02  0.80328525522E+02  0.11821131229E+03  0.41800000000E+01 0. -1.
         -5    1    3    3    0  502  0.29097567457E+02  0.22236521884E+02 -0.35686778167E+01  0.37031597303E+02  0.41800000000E+01 0. -1.
        -11    1    4    4    0    0  0.40910957798E+02  0.19898337776E+01  0.69059869470E+02  0.80292785963E+02  0.00000000000E+00 0.  1.
         11    1    4    4    0    0  0.53858443663E+01  0.18428760918E+02 -0.26631060942E+02  0.32830472970E+02  0.00000000000E+00 0. -1.
</event>
<event>
 8    1  0.7026811E-009  0.9875364E+02  0.7561462E-02  0.1282939E+00
          2   -1    0    0  501    0  0.00000000000E+00  0.00000000000E+00  0.21847181725E+03  0.21847181725E+03  0.00000000000E+00 0. -1.
         -2   -1    0    0    0  501 -0.00000000000E+00 -0.00000000000E+00 -0.63796997807E+02  0.63796997807E+02  0.00000000000E+00 0.  1.
         25    2    1    2    0    0  0.26200295248E+02 -0.10350233545E+02  0.43722772868E+02  0.13547634421E+03  0.12509426912E+03 0.  0.
         23    2    1    2    0    0 -0.26200295248E+02  0.10350233545E+02  0.11095204657E+03  0.14679247085E+03  0.91891730060E+02 0.  0.
          5    1    3    3  502    0 -0.17718632772E+02  0.38950418454E+02  0.53461440488E+02  0.68605269944E+02  0.41800000000E+01 0.  1.
         -5    1    3    3    0  502  0.43918928020E+02 -0.49300651999E+02 -0.97386676201E+01  0.66871074262E+02  0.41800000000E+01 0.  1.
        -11    1    4    4    0    0 -0.11185677579E+02 -0.37013969786E+02  0.20929771752E+02  0.43968269102E+02  0.00000000000E+00 0.  1.
         11    1    4    4    0    0 -0.15014617669E+02  0.47364203331E+02  0.90022274819E+02  0.10282420174E+03  0.00000000000E+00 0. -1.
</event>
<event>
 8    1  0.7026811E-009  0.8937709E+02  0.7561462E-02  0.1304367E+00
          4   -1    0    0  501    0  0.00000000000E+00  0.00000000000E+00  0.67112044741E+02  0.67112044741E+02  0.00000000000E+00 0. -1.
         -4   -1    0    0    0  501 -0.00000000000E+00 -0.00000000000E+00 -0.20901378266E+03  0.20901378266E+03  0.00000000000E+00 0.  1.
         25    2    1    2    0    0  0.33596823337E+02 -0.84139304588E+01 -0.42130001760E+02  0.13646119374E+03  0.12508868688E+03 0.  0.
         23    2    1    2    0    0 -0.33596823337E+02  0.84139304588E+01 -0.99771736159E+02  0.13966463366E+03  0.91390753333E+02 0.  0.
          5    1    3    3  502    0  0.15135930817E+02 -0.46591814523E+02  0.26367407425E+02  0.55790735400E+02  0.41800000000E+01 0. -1.
         -5    1    3    3    0  502  0.18460892520E+02  0.38177884064E+02 -0.68497409185E+02  0.80670458343E+02  0.41800000000E+01 0. -1.
        -11    1    4    4    0    0 -0.17140110603E+02  0.44297372486E+02 -0.21785020311E+02  0.52255408434E+02  0.00000000000E+00 0.  1.
         11    1    4    4    0    0 -0.16456712734E+02 -0.35883442027E+02 -0.77986715848E+02  0.87409225225E+02  0.00000000000E+00 0. -1.
</event>
<event>
 8    1  0.7026811E-009  0.1387907E+03  0.7561462E-02  0.1214965E+00
         -3   -1    0    0    0  501 -0.00000000000E+00  0.00000000000E+00  0.16287543605E+03  0.16287543605E+03  0.00000000000E+00 0.  1.
          3   -1    0    0  501    0  0.00000000000E+00 -0.00000000000E+00 -0.13083137297E+03  0.13083137297E+03  0.00000000000E+00 0. -1.
         25    2    1    2    0    0 -0.94524291726E+02 -0.73808265996E+00  0.46461113442E+02  0.16352779442E+03  0.12508924011E+03 0.  0.
         23    2    1    2    0    0  0.94524291726E+02  0.73808265996E+00 -0.14417050364E+02  0.13017901460E+03  0.88336504391E+02 0.  0.
          5    1    3    3  502    0 -0.20737347479E+02 -0.53452617540E+02  0.44550945923E+02  0.72728805057E+02  0.41800000000E+01 0.  1.
         -5    1    3    3    0  502 -0.73786944247E+02  0.52714534880E+02  0.19101675192E+01  0.90798989361E+02  0.41800000000E+01 0.  1.
        -11    1    4    4    0    0  0.91846354815E+02  0.32510928606E+02 -0.12598185299E+02  0.98241679772E+02  0.00000000000E+00 0.  1.
         11    1    4    4    0    0  0.26779369104E+01 -0.31772845946E+02 -0.18188650649E+01  0.31937334825E+02  0.00000000000E+00 0. -1.
</event>
<event>
 8    1  0.7026811E-009  0.1627666E+03  0.7561462E-02  0.1185608E+00
          2   -1    0    0  501    0  0.00000000000E+00  0.00000000000E+00  0.25712108534E+03  0.25712108534E+03  0.00000000000E+00 0. -1.
         -2   -1    0    0    0  501 -0.00000000000E+00 -0.00000000000E+00 -0.11779413649E+03  0.11779413649E+03  0.00000000000E+00 0.  1.
         25    2    1    2    0    0  0.11332209574E+03 -0.73886631161E+02  0.62968329335E+02  0.19471479468E+03  0.12509080351E+03 0.  0.
         23    2    1    2    0    0 -0.11332209574E+03  0.73886631161E+02  0.76358619516E+02  0.18020042715E+03  0.91325919227E+02 0.  0.
          5    1    3    3  502    0 -0.15773478331E+02  0.18969429494E+01 -0.18085416906E+02  0.24432677215E+02  0.41800000000E+01 0. -1.
         -5    1    3    3    0  502  0.12909557407E+03 -0.75783574110E+02  0.81053746242E+02  0.17028211747E+03  0.41800000000E+01 0. -1.
        -11    1    4    4    0    0 -0.67197290834E+02 -0.56222119097E+01  0.13301811250E+02  0.68731530936E+02  0.00000000000E+00 0.  1.
         11    1    4    4    0    0 -0.46124804904E+02  0.79508843070E+02  0.63056808266E+02  0.11146889621E+03  0.00000000000E+00 0. -1.
</event>
<event>
 8    1  0.7026811E-009  0.1140092E+03  0.7561462E-02  0.1253321E+00
         -2   -1    0    0    0  501 -0.00000000000E+00  0.00000000000E+00  0.66730182475E+02  0.66730182475E+02  0.00000000000E+00 0.  1.
          2   -1    0    0  501    0  0.00000000000E+00 -0.00000000000E+00 -0.26707157317E+03  0.26707157317E+03  0.00000000000E+00 0. -1.
         25    2    1    2    0    0 -0.45413058907E+02 -0.57732777507E+02 -0.14263570000E+03  0.20343448976E+03  0.12508089059E+03 0.  0.
         23    2    1    2    0    0  0.45413058907E+02  0.57732777507E+02 -0.57705690692E+02  0.13036726588E+03  0.90940957536E+02 0.  0.
          5    1    3    3  502    0  0.39606485124E+01 -0.82297739562E+02 -0.11521162630E+03  0.14170319654E+03  0.41800000000E+01 0. -1.
         -5    1    3    3    0  502 -0.49373707420E+02  0.24564962055E+02 -0.27424073704E+02  0.61731293229E+02  0.41800000000E+01 0. -1.
        -11    1    4    4    0    0 -0.59902799865E+01  0.32323172324E+02 -0.64728780494E+02  0.72598112563E+02  0.00000000000E+00 0. -1.
         11    1    4    4    0    0  0.51403338894E+02  0.25409605183E+02  0.70230898019E+01  0.57769153320E+02  0.00000000000E+00 0.  1.
</event>
<event>
 8    1  0.7026811E-009  0.1189487E+03  0.7561462E-02  0.1244842E+00
          1   -1    0    0  501    0  0.00000000000E+00  0.00000000000E+00  0.64546241857E+03  0.64546241857E+03  0.00000000000E+00 0. -1.
         -1   -1    0    0    0  501 -0.00000000000E+00 -0.00000000000E+00 -0.23499336504E+02  0.23499336504E+02  0.00000000000E+00 0.  1.
         25    2    1    2    0    0 -0.10595602328E+02  0.47677596358E+02  0.41297504780E+03  0.43426097740E+03  0.12509510943E+03 0.  0.
         23    2    1    2    0    0  0.10595602328E+02 -0.47677596358E+02  0.20898803427E+03  0.23470077768E+03  0.94989665710E+02 0.  0.
          5    1    3    3  502    0  0.52700820854E+02 -0.30479038201E+01  0.15425674074E+03  0.16309285913E+03  0.41800000000E+01 0.  1.
         -5    1    3    3    0  502 -0.63296423182E+02  0.50725500178E+02  0.25871830706E+03  0.27116811826E+03  0.41800000000E+01 0.  1.
        -11    1    4    4    0    0 -0.40293371456E+02 -0.13816282850E+02  0.11448453777E+03  0.12215217904E+03  0.00000000000E+00 0. -1.
         11    1    4    4    0    0  0.50888973785E+02 -0.33861313508E+02  0.94503496494E+02  0.11254859864E+03  0.00000000000E+00 0.  1.
</event>
<event>
 8    1  0.7026811E-009  0.1324378E+03  0.7561462E-02  0.1223883E+00
         -1   -1    0    0    0  501 -0.00000000000E+00  0.00000000000E+00  0.15529885764E+03  0.15529885764E+03  0.00000000000E+00 0.  1.
          1   -1    0    0  501    0  0.00000000000E+00 -0.00000000000E+00 -0.14556272316E+03  0.14556272316E+03  0.00000000000E+00 0. -1.
         25    2    1    2    0    0 -0.76390610725E+02 -0.68811941255E+02  0.75929765370E+01  0.16209872619E+03  0.12509090724E+03 0.  0.
         23    2    1    2    0    0  0.76390610725E+02  0.68811941255E+02  0.21431579489E+01  0.13876285461E+03  0.93166131326E+02 0.  0.
          5    1    3    3  502    0 -0.77806369932E+02 -0.85051729513E+02  0.42835291848E+02  0.12304455503E+03  0.41800000000E+01 0. -1.
         -5    1    3    3    0  502  0.14157592064E+01  0.16239788258E+02 -0.35242315311E+02  0.39054171164E+02  0.41800000000E+01 0. -1.
        -11    1    4    4    0    0  0.82473537912E+02  0.21814570537E+02  0.20840228669E+02  0.87818421043E+02  0.00000000000E+00 0.  1.
         11    1    4    4    0    0 -0.60829271871E+01  0.46997370718E+02 -0.18697070720E+02  0.50944433564E+02  0.00000000000E+00 0. -1.
</event>
<event>
 8    1  0.7026811E-009  0.8222417E+02  0.7561462E-02  0.1322855E+00
         -2   -1    0    0    0  501 -0.00000000000E+00  0.00000000000E+00  0.19686718214E+02  0.19686718214E+02  0.00000000000E+00 0. -1.
          2   -1    0    0  501    0  0.00000000000E+00 -0.00000000000E+00 -0.88094246526E+03  0.88094246526E+03  0.00000000000E+00 0.  1.
         25    2    1    2    0    0  0.60358157475E+02 -0.32146117371E+02 -0.56995838053E+03  0.58751727727E+03  0.12509002966E+03 0.  0.
         23    2    1    2    0    0 -0.60358157475E+02  0.32146117371E+02 -0.29129736652E+03  0.31311190620E+03  0.92241151505E+02 0.  0.
          5    1    3    3  502    0  0.34683066780E+02  0.10423261711E+02 -0.50142766171E+03  0.50275116294E+03  0.41800000000E+01 0. -1.
         -5    1    3    3    0  502  0.25675090695E+02 -0.42569379082E+02 -0.68530718824E+02  0.84766114339E+02  0.41800000000E+01 0. -1.
        -11    1    4    4    0    0 -0.11863922475E+02  0.26809478075E+02 -0.15752330325E+02  0.33281176088E+02  0.00000000000E+00 0. -1.
         11    1    4    4    0    0 -0.48494235001E+02  0.53366392963E+01 -0.27554503619E+03  0.27983073012E+03  0.00000000000E+00 0.  1.
</event>
<event>
 8    1  0.7026811E-009  0.8101180E+02  0.7561462E-02  0.1326204E+00
          1   -1    0    0  501    0  0.00000000000E+00  0.00000000000E+00  0.33388951083E+03  0.33388951083E+03  0.00000000000E+00 0. -1.
         -1   -1    0    0    0  501 -0.00000000000E+00 -0.00000000000E+00 -0.45984228043E+02  0.45984228043E+02  0.00000000000E+00 0.  1.
         25    2    1    2    0    0  0.10753287375E+02 -0.15420411833E+02  0.24870992262E+03  0.27902742221E+03  0.12508498889E+03 0.  0.
         23    2    1    2    0    0 -0.10753287375E+02  0.15420411833E+02  0.39195360161E+02  0.10084631666E+03  0.90996049554E+02 0.  0.
          5    1    3    3  502    0  0.41784594419E+02  0.94800748738E+01  0.23151415554E+03  0.23548269738E+03  0.41800000000E+01 0. -1.
         -5    1    3    3    0  502 -0.31031307044E+02 -0.24900486706E+02  0.17195767080E+02  0.43544724830E+02  0.41800000000E+01 0. -1.
        -11    1    4    4    0    0  0.14902964562E+02  0.40460388881E+02  0.47391527833E+02  0.64071041286E+02  0.00000000000E+00 0. -1.
         11    1    4    4    0    0 -0.25656251937E+02 -0.25039977049E+02 -0.81961676715E+01  0.36775275370E+02  0.00000000000E+00 0.  1.
</event>
<event>
 8    1  0.7026811E-009  0.1260780E+03  0.7561462E-02  0.1233394E+00
         -2   -1    0    0    0  501 -0.00000000000E+00  0.00000000000E+00  0.20919145057E+02  0.20919145057E+02  0.00000000000E+00 0.  1.
          2   -1    0    0  501    0  0.00000000000E+00 -0.00000000000E+00 -0.84814714952E+03  0.84814714952E+03  0.00000000000E+00 0. -1.
         25    2    1    2    0    0 -0.56367196162E+02  0.39254648310E+02 -0.54763467009E+03  0.56592032762E+03  0.12507556561E+03 0.  0.
         23    2    1    2    0    0  0.56367196162E+02 -0.39254648310E+02 -0.27959333437E+03  0.30314596696E+03  0.94904459535E+02 0.  0.
          5    1    3    3  502    0 -0.27546585884E+02 -0.41211285362E+02 -0.12170086975E+03  0.13147531530E+03  0.41800000000E+01 0.  1.
         -5    1    3    3    0  502 -0.28820610278E+02  0.80465933672E+02 -0.42593380034E+03  0.43444501232E+03  0.41800000000E+01 0.  1.
        -11    1    4    4    0    0  0.24983456611E+02  0.31045146242E+02 -0.85024542328E+02  0.93899664576E+02  0.00000000000E+00 0. -1.
         11    1    4    4    0    0  0.31383739551E+02 -0.70299794552E+02 -0.19456879204E+03  0.20924630238E+03  0.00000000000E+00 0.  1.
</event>
<event>
 8    1  0.7026811E-009  0.1063097E+03  0.7561462E-02  0.1267560E+00
          1   -1    0    0  501    0  0.00000000000E+00  0.00000000000E+00  0.13719993378E+04  0.13719993378E+04  0.00000000000E+00 0. -1.
         -1   -1    0    0    0  501 -0.00000000000E+00 -0.00000000000E+00 -0.11479061870E+02  0.11479061870E+02  0.00000000000E+00 0.  1.
         25    2    1    2    0    0  0.23359086168E+02  0.72259167433E+01  0.10610981375E+04  0.10687261837E+04  0.12509411453E+03 0.  0.
         23    2    1    2    0    0 -0.23359086168E+02 -0.72259167433E+01  0.29942213839E+03  0.31475221595E+03  0.93901436146E+02 0.  0.
          5    1    3    3  502    0  0.73574900494E+02  0.17729011333E+02  0.66047704068E+03  0.66481198657E+03  0.41800000000E+01 0.  1.
         -5    1    3    3    0  502 -0.50215814326E+02 -0.10503094590E+02  0.40062109682E+03  0.40391419710E+03  0.41800000000E+01 0.  1.
        -11    1    4    4    0    0  0.22124265670E+01  0.35493724757E+02  0.56350477156E+02  0.66633892308E+02  0.00000000000E+00 0.  1.
         11    1    4    4    0    0 -0.25571512735E+02 -0.42719641501E+02  0.24307166124E+03  0.24811832365E+03  0.00000000000E+00 0. -1.
</event>
<event>
 8    1  0.7026811E-009  0.1672485E+03  0.7561462E-02  0.1180748E+00
          2   -1    0    0  501    0  0.00000000000E+00  0.00000000000E+00  0.10268163522E+04  0.10268163522E+04  0.00000000000E+00 0.  1.
         -2   -1    0    0    0  501 -0.00000000000E+00 -0.00000000000E+00 -0.37237677514E+02  0.37237677514E+02  0.00000000000E+00 0. -1.
         25    2    1    2    0    0  0.12843440404E+03  0.99934409416E+02  0.51582101876E+03  0.55515806581E+03  0.12508745865E+03 0.  0.
         23    2    1    2    0    0 -0.12843440404E+03 -0.99934409416E+02  0.47375765592E+03  0.50889596390E+03  0.89702303219E+02 0.  0.
          5    1    3    3  502    0  0.21578836062E+02  0.38819109329E+02  0.32494099572E+03  0.32798886035E+03  0.41800000000E+01 0. -1.
         -5    1    3    3    0  502  0.10685556798E+03  0.61115300087E+02  0.19088002305E+03  0.22716920546E+03  0.41800000000E+01 0. -1.
        -11    1    4    4    0    0 -0.68730320956E+02 -0.30640934075E+02  0.10639277862E+03  0.13031556776E+03  0.00000000000E+00 0. -1.
         11    1    4    4    0    0 -0.59704083085E+02 -0.69293475341E+02  0.36736487731E+03  0.37858039614E+03  0.00000000000E+00 0.  1.
</event>
<event>
 8    1  0.7026811E-009  0.8532905E+02  0.7561462E-02  0.1314574E+00
         -1   -1    0    0    0  501 -0.00000000000E+00  0.00000000000E+00  0.69730826688E+02  0.69730826688E+02  0.00000000000E+00 0.  1.
          1   -1    0    0  501    0  0.00000000000E+00 -0.00000000000E+00 -0.26399765916E+03  0.26399765916E+03  0.00000000000E+00 0. -1.
         25    2    1    2    0    0 -0.45108352648E+02  0.33897124286E+02 -0.35011256454E+02  0.14162160316E+03  0.12508841629E+03 0.  0.
         23    2    1    2    0    0  0.45108352648E+02 -0.33897124286E+02 -0.15925557602E+03  0.19210688269E+03  0.91427224442E+02 0.  0.
          5    1    3    3  502    0  0.31975014710E+01  0.10974786867E+02 -0.74203920135E+02  0.75195506022E+02  0.41800000000E+01 0. -1.
         -5    1    3    3    0  502 -0.48305854119E+02  0.22922337419E+02  0.39192663681E+02  0.66426097141E+02  0.41800000000E+01 0. -1.
        -11    1    4    4    0    0  0.11696675965E+02 -0.60827140711E+02 -0.72790760266E+02  0.95578491596E+02  0.00000000000E+00 0.  1.
         11    1    4    4    0    0  0.33411676684E+02  0.26930016425E+02 -0.86464815754E+02  0.96528391092E+02  0.00000000000E+00 0. -1.
</event>
<event>
 8    1  0.7026811E-009  0.1004478E+03  0.7561462E-02  0.1279357E+00
          1   -1    0    0  501    0  0.00000000000E+00  0.00000000000E+00  0.33434751560E+03  0.33434751560E+03  0.00000000000E+00 0. -1.
         -1   -1    0    0    0  501 -0.00000000000E+00 -0.00000000000E+00 -0.41127822838E+02  0.41127822838E+02  0.00000000000E+00 0.  1.
         25    2    1    2    0    0 -0.12475453663E+01 -0.25714735156E+02  0.10636241577E+03  0.16620282173E+03  0.12509040926E+03 0.  0.
         23    2    1    2    0    0  0.12475453663E+01  0.25714735156E+02  0.18685727699E+03  0.20927251671E+03  0.90645133963E+02 0.  0.
          5    1    3    3  502    0  0.42646294552E+01  0.43902352476E+02  0.72643910189E+01  0.44898189208E+02  0.41800000000E+01 0.  1.
         -5    1    3    3    0  502 -0.55121748215E+01 -0.69617087631E+02  0.99098024752E+02  0.12130463252E+03  0.41800000000E+01 0.  1.
        -11    1    4    4    0    0  0.31552066108E+02 -0.15754675422E+02  0.11932483638E+03  0.12442732518E+03  0.00000000000E+00 0.  1.
         11    1    4    4    0    0 -0.30304520742E+02  0.41469410578E+02  0.67532440607E+02  0.84845191528E+02  0.00000000000E+00 0. -1.
</event>
<event>
 8    1  0.7026811E-009  0.8443915E+02  0.7561462E-02  0.1316906E+00
          1   -1    0    0  501    0  0.00000000000E+00  0.00000000000E+00  0.12189555380E+03  0.12189555380E+03  0.00000000000E+00 0. -1.
         -1   -1    0    0    0  501 -0.00000000000E+00 -0.00000000000E+00 -0.10695889671E+03  0.10695889671E+03  0.00000000000E+00 0.  1.
         25    2    1    2    0    0  0.29136488057E+02 -0.71236599598E+00  0.25466901963E+02  0.13094225443E+03  0.12509144055E+03 0.  0.
         23    2    1    2    0    0 -0.29136488057E+02  0.71236599598E+00 -0.10530244867E+02  0.97912196080E+02  0.92878790273E+02 0.  0.
          5    1    3    3  502    0  0.24560453518E+02 -0.53071649578E+02  0.45836371397E+02  0.74419494817E+02  0.41800000000E+01 0.  1.
         -5    1    3    3    0  502  0.45760345386E+01  0.52359283582E+02 -0.20369469433E+02  0.56522759613E+02  0.41800000000E+01 0.  1.
        -11    1    4    4    0    0  0.13730135086E+02 -0.42483554800E+01 -0.42073138005E+02  0.44460252759E+02  0.00000000000E+00 0.  1.
         11    1    4    4    0    0 -0.42866623143E+02  0.49607214760E+01  0.31542893138E+02  0.53451943321E+02  0.00000000000E+00 0. -1.
</event>
<event>
 8    1  0.7026811E-009  0.9661380E+02  0.7561462E-02  0.1287582E+00
          1   -1    0    0  501    0  0.00000000000E+00  0.00000000000E+00  0.29987843247E+02  0.29987843247E+02  0.00000000000E+00 0. -1.
         -1   -1    0    0    0  501 -0.00000000000E+00 -0.00000000000E+00 -0.53781908806E+03  0.53781908806E+03  0.00000000000E+00 0.  1.
         25    2    1    2    0    0  0.43679621449E+02  0.47150372601E+02 -0.24706858242E+03  0.28428843739E+03  0.12508382889E+03 0.  0.
         23    2    1    2    0    0 -0.43679621449E+02 -0.47150372601E+02 -0.26076266239E+03  0.28351849391E+03  0.90854297246E+02 0.  0.
          5    1    3    3  502    0 -0.16835086611E+02  0.36357858028E+02 -0.13125341377E+02  0.42368159836E+02  0.41800000000E+01 0.  1.
         -5    1    3    3    0  502  0.60514708060E+02  0.10792514573E+02 -0.23394324104E+03  0.24192027756E+03  0.41800000000E+01 0.  1.
        -11    1    4    4    0    0 -0.90073009885E+00 -0.48522976053E+02 -0.21678588007E+03  0.22215176866E+03  0.00000000000E+00 0.  1.
         11    1    4    4    0    0 -0.42778891350E+02  0.13726034523E+01 -0.43976782316E+02  0.61366725253E+02  0.00000000000E+00 0. -1.
</event>
<event>
 8    1  0.7026811E-009  0.1075202E+03  0.7561462E-02  0.1265232E+00
         -1   -1    0    0    0  501 -0.00000000000E+00  0.00000000000E+00  0.35695626437E+03  0.35695626437E+03  0.00000000000E+00 0.  1.
          1   -1    0    0  501    0  0.00000000000E+00 -0.00000000000E+00 -0.35800954463E+02  0.35800954463E+02  0.00000000000E+00 0. -1.
         25    2    1    2    0    0  0.21410268210E+02  0.24152687194E+02  0.18835327899E+03  0.22839815804E+03  0.12508800504E+03 0.  0.
         23    2    1    2    0    0 -0.21410268210E+02 -0.24152687194E+02  0.13280203092E+03  0.16435906080E+03  0.91300435741E+02 0.  0.
          5    1    3    3  502    0  0.57253843619E+02  0.48143090104E+02  0.15983336488E+03  0.17652177391E+03  0.41800000000E+01 0. -1.
         -5    1    3    3    0  502 -0.35843575409E+02 -0.23990402910E+02  0.28519914110E+02  0.51876384133E+02  0.41800000000E+01 0. -1.
        -11    1    4    4    0    0  0.35329303754E+02 -0.18179863204E+02  0.57182170056E+02  0.69630939260E+02  0.00000000000E+00 0. -1.
         11    1    4    4    0    0 -0.56739571964E+02 -0.59728239901E+01  0.75619860861E+02  0.94728121536E+02  0.00000000000E+00 0.  1.
</event>
<event>
 8    1  0.7026811E-009  0.1172834E+03  0.7561462E-02  0.1247647E+00
          1   -1    0    0  501    0  0.00000000000E+00  0.00000000000E+00  0.86277685071E+03  0.86277685071E+03  0.00000000000E+00 0. -1.
         -1   -1    0    0    0  501 -0.00000000000E+00 -0.00000000000E+00 -0.17124056935E+02  0.17124056935E+02  0.00000000000E+00 0.  1.
         25    2    1    2    0    0 -0.27874482823E+02 -0.41412277424E+02  0.38614398112E+03  0.40895773829E+03  0.12508914436E+03 0.  0.
         23    2    1    2    0    0  0.27874482823E+02  0.41412277424E+02  0.45950881266E+03  0.47094316936E+03  0.90261599487E+02 0.  0.
          5    1    3    3  502    0 -0.62032275981E+02 -0.64910531898E+02  0.30150017015E+03  0.31461278647E+03  0.41800000000E+01 0. -1.
         -5    1    3    3    0  502  0.34157793158E+02  0.23498254474E+02  0.84643810975E+02  0.94344951816E+02  0.41800000000E+01 0. -1.
        -11    1    4    4    0    0 -0.25799282691E+02 -0.10952646741E+02  0.11469378916E+03  0.11806874578E+03  0.00000000000E+00 0.  1.
         11    1    4    4    0    0  0.53673765513E+02  0.52364924165E+02  0.34481502349E+03  0.35287442358E+03  0.00000000000E+00 0. -1.
</event>
<event>
 8    1  0.7026811E-009  0.1063993E+03  0.7561462E-02  0.1267387E+00
         -2   -1    0    0    0  501 -0.00000000000E+00  0.00000000000E+00  0.20189446210E+02  0.20189446210E+02  0.00000000000E+00 0.  1.
          2   -1    0    0  501    0  0.00000000000E+00 -0.00000000000E+00 -0.70348241855E+03  0.70348241855E+03  0.00000000000E+00 0. -1.
         25    2    1    2    0    0 -0.32974410169E+02 -0.36914032283E+02 -0.39112400195E+03  0.41361312534E+03  0.12509146673E+03 0.  0.
         23    2    1    2    0    0  0.32974410169E+02  0.36914032283E+02 -0.29216897039E+03  0.31005873942E+03  0.91234626790E+02 0.  0.
          5    1    3    3  502    0 -0.23500003675E+02  0.43000874450E+02 -0.20457048015E+03  0.21039933252E+03  0.41800000000E+01 0. -1.
         -5    1    3    3    0  502 -0.94744064936E+01 -0.79914906733E+02 -0.18655352179E+03  0.20321379281E+03  0.41800000000E+01 0. -1.
        -11    1    4    4    0    0  0.42090676700E+02  0.51080586419E+02 -0.28347855926E+03  0.29110297995E+03  0.00000000000E+00 0.  1.
         11    1    4    4    0    0 -0.91162665316E+01 -0.14166554136E+02 -0.86904111330E+01  0.18955759474E+02  0.00000000000E+00 0. -1.
</event>
<event>
 8    1  0.7026811E-009  0.1080968E+03  0.7561462E-02  0.1264135E+00
          2   -1    0    0  501    0  0.00000000000E+00  0.00000000000E+00  0.63782401518E+03  0.63782401518E+03  0.00000000000E+00 0. -1.
         -2   -1    0    0    0  501 -0.00000000000E+00 -0.00000000000E+00 -0.20714784496E+02  0.20714784496E+02  0.00000000000E+00 0.  1.
         25    2    1    2    0    0  0.37427682041E+02 -0.85821189327E+01  0.33394082577E+03  0.35866514981E+03  0.12509888259E+03 0.  0.
         23    2    1    2    0    0 -0.37427682041E+02  0.85821189327E+01  0.28316840491E+03  0.29987364986E+03  0.90914114377E+02 0.  0.
          5    1    3    3  502    0  0.61700406743E+02  0.41216906603E+02  0.16900542968E+03  0.18462416214E+03  0.41800000000E+01 0.  1.
         -5    1    3    3    0  502 -0.24272724702E+02 -0.49799025536E+02  0.16493539609E+03  0.17404098767E+03  0.41800000000E+01 0.  1.
        -11    1    4    4    0    0 -0.12892317085E+02 -0.34449712128E+02  0.19766135826E+03  0.20105473647E+03  0.00000000000E+00 0. -1.
         11    1    4    4    0    0 -0.24535364956E+02  0.43031831061E+02  0.85507046649E+02  0.98818913395E+02  0.00000000000E+00 0.  1.
</event>
<event>
 8    1  0.7026811E-009  0.1249967E+03  0.7561462E-02  0.1235075E+00
         -2   -1    0    0    0  501 -0.00000000000E+00  0.00000000000E+00  0.16527904699E+02  0.16527904699E+02  0.00000000000E+00 0.  1.
          2   -1    0    0  501    0  0.00000000000E+00 -0.00000000000E+00 -0.96001142827E+03  0.96001142827E+03  0.00000000000E+00 0. -1.
         25    2    1    2    0    0  0.62546043619E+02 -0.53574822059E+01 -0.48518861708E+03  0.50497177954E+03  0.12509114195E+03 0.  0.
         23    2    1    2    0    0 -0.62546043619E+02  0.53574822059E+01 -0.45829490650E+03  0.47156755344E+03  0.91657110739E+02 0.  0.
          5    1    3    3  502    0  0.33450316615E+02  0.59110620159E+02 -0.20678354368E+03  0.21769220343E+03  0.41800000000E+01 0. -1.
         -5    1    3    3    0  502  0.29095727004E+02 -0.64468102365E+02 -0.27840507340E+03  0.28727957611E+03  0.41800000000E+01 0. -1.
        -11    1    4    4    0    0 -0.47887703781E+02  0.46906826784E+02 -0.27571499555E+03  0.28374679089E+03  0.00000000000E+00 0.  1.
         11    1    4    4    0    0 -0.14658339838E+02 -0.41549344578E+02 -0.18257991095E+03  0.18782076254E+03  0.00000000000E+00 0. -1.
</event>
<event>
 8    1  0.7026811E-009  0.1085102E+03  0.7561462E-02  0.1263354E+00
          2   -1    0    0  501    0  0.00000000000E+00  0.00000000000E+00  0.63935812322E+03  0.63935812322E+03  0.00000000000E+00 0.  1.
         -2   -1    0    0    0  501 -0.00000000000E+00 -0.00000000000E+00 -0.24101172257E+02  0.24101172257E+02  0.00000000000E+00 0. -1.
         25    2    1    2    0    0 -0.38314586455E+02 -0.44732843175E+02  0.37710024851E+03  0.40164776325E+03  0.12508914224E+03 0.  0.
         23    2    1    2    0    0  0.38314586455E+02  0.44732843175E+02  0.23815670246E+03  0.26181153223E+03  0.91420067207E+02 0.  0.
          5    1    3    3  502    0  0.27913037592E+02 -0.28215870564E+02  0.28031286652E+03  0.28313962732E+03  0.41800000000E+01 0. -1.
         -5    1    3    3    0  502 -0.66227624048E+02 -0.16516972611E+02  0.96787381984E+02  0.11850813593E+03  0.41800000000E+01 0. -1.
        -11    1    4    4    0    0  0.20554805073E+02  0.72726317075E+02  0.16302122522E+03  0.17968733144E+03  0.00000000000E+00 0.  1.
         11    1    4    4    0    0  0.17759781383E+02 -0.27993473900E+02  0.75135477241E+02  0.82124200794E+02  0.00000000000E+00 0. -1.
</event>
<event>
 8    1  0.7026811E-009  0.5856848E+03  0.7561462E-02  0.9935559E-01
          1   -1    0    0  501    0  0.00000000000E+00  0.00000000000E+00  0.69192254108E+03  0.69192254108E+03  0.00000000000E+00 0. -1.
         -1   -1    0    0    0  501 -0.00000000000E+00 -0.00000000000E+00 -0.52085493144E+03  0.52085493144E+03  0.00000000000E+00 0.  1.
         25    2    1    2    0    0 -0.56348970813E+03  0.15362879057E+03 -0.49441953382E+00  0.59730230753E+03  0.12508935077E+03 0.  0.
         23    2    1    2    0    0  0.56348970813E+03 -0.15362879057E+03  0.17156202917E+03  0.61547516499E+03  0.90849834388E+02 0.  0.
          5    1    3    3  502    0 -0.18710635800E+03  0.76525110561E+02 -0.54231109033E+02  0.20934031465E+03  0.41800000000E+01 0. -1.
         -5    1    3    3    0  502 -0.37638335013E+03  0.77103680005E+02  0.53736689499E+02  0.38796199288E+03  0.41800000000E+01 0. -1.
        -11    1    4    4    0    0  0.48851205821E+03 -0.14441783949E+03  0.11808034967E+03  0.52291826547E+03  0.00000000000E+00 0.  1.
         11    1    4    4    0    0  0.74977649918E+02 -0.92109510793E+01  0.53481679506E+02  0.92556899525E+02  0.00000000000E+00 0. -1.
</event>
<event>
 8    1  0.7026811E-009  0.1816539E+03  0.7561462E-02  0.1166212E+00
          3   -1    0    0  501    0  0.00000000000E+00  0.00000000000E+00  0.13522830487E+04  0.13522830487E+04  0.00000000000E+00 0. -1.
         -3   -1    0    0    0  501 -0.00000000000E+00 -0.00000000000E+00 -0.29180687673E+02  0.29180687673E+02  0.00000000000E+00 0.  1.
         25    2    1    2    0    0 -0.12865321607E+03  0.92057032109E+02  0.86961815364E+03  0.89269792596E+03  0.12509079387E+03 0.  0.
         23    2    1    2    0    0  0.12865321607E+03 -0.92057032109E+02  0.45348420740E+03  0.48876581043E+03  0.90652875914E+02 0.  0.
          5    1    3    3  502    0 -0.39547693064E+02 -0.30030862064E+02  0.18622986010E+03  0.19278201653E+03  0.41800000000E+01 0.  1.
         -5    1    3    3    0  502 -0.89105523008E+02  0.12208789417E+03  0.68338829353E+03  0.69991590943E+03  0.41800000000E+01 0.  1.
        -11    1    4    4    0    0  0.82004875181E+02 -0.36597136003E+02  0.13499113993E+03  0.16213191474E+03  0.00000000000E+00 0.  1.
         11    1    4    4    0    0  0.46648340891E+02 -0.55459896106E+02  0.31849306748E+03  0.32663389569E+03  0.00000000000E+00 0. -1.
</event>
<event>
 8    1  0.7026811E-009  0.1225108E+03  0.7561462E-02  0.1239012E+00
         -1   -1    0    0    0  501 -0.00000000000E+00  0.00000000000E+00  0.33404694770E+03  0.33404694770E+03  0.00000000000E+00 0.  1.
          1   -1    0    0  501    0  0.00000000000E+00 -0.00000000000E+00 -0.62123422398E+02  0.62123422398E+02  0.00000000000E+00 0. -1.
         25    2    1    2    0    0 -0.85966725487E+02  0.34174898240E+02  0.17380891596E+03  0.23327342256E+03  0.12509495931E+03 0.  0.
         23    2    1    2    0    0  0.85966725487E+02 -0.34174898240E+02  0.98114609342E+02  0.16289694754E+03  0.91382369143E+02 0.  0.
          5    1    3    3  502    0  0.37675127572E+00 -0.37281810490E+02  0.18852366702E+02  0.41987610854E+02  0.41800000000E+01 0.  1.
         -5    1    3    3    0  502 -0.86343476763E+02  0.71456708730E+02  0.15495654926E+03  0.19128581171E+03  0.41800000000E+01 0.  1.
        -11    1    4    4    0    0  0.13865528904E+02  0.30630361404E+01 -0.16939482083E+02  0.22103871503E+02  0.00000000000E+00 0. -1.
         11    1    4    4    0    0  0.72101196583E+02 -0.37237934381E+02  0.11505409143E+03  0.14079307603E+03  0.00000000000E+00 0.  1.
</event>
<event>
 8    1  0.7026811E-009  0.1076892E+03  0.7561462E-02  0.1264910E+00
          2   -1    0    0  501    0  0.00000000000E+00  0.00000000000E+00  0.37527155240E+03  0.37527155240E+03  0.00000000000E+00 0.  1.
         -2   -1    0    0    0  501 -0.00000000000E+00 -0.00000000000E+00 -0.32823523253E+02  0.32823523253E+02  0.00000000000E+00 0. -1.
         25    2    1    2    0    0  0.18872300403E+02 -0.14024519761E+02  0.21993760664E+03  0.25411158862E+03  0.12508915932E+03 0.  0.
         23    2    1    2    0    0 -0.18872300403E+02  0.14024519761E+02  0.12251042251E+03  0.15398348704E+03  0.90273250629E+02 0.  0.
          5    1    3    3  502    0  0.60593126420E+02  0.27983374575E+02  0.13269709592E+03  0.14859538313E+03  0.41800000000E+01 0.  1.
         -5    1    3    3    0  502 -0.41720826018E+02 -0.42007894335E+02  0.87240510714E+02  0.10551620548E+03  0.41800000000E+01 0.  1.
        -11    1    4    4    0    0  0.30912504760E+02 -0.11775261134E+02  0.24861543167E+02  0.41380382478E+02  0.00000000000E+00 0. -1.
         11    1    4    4    0    0 -0.49784805163E+02  0.25799780895E+02  0.97648879342E+02  0.11260310456E+03  0.00000000000E+00 0.  1.
</event>
<event>
 8    1  0.7026811E-009  0.1120493E+03  0.7561462E-02  0.1256821E+00
         -1   -1    0    0    0  501 -0.00000000000E+00  0.00000000000E+00  0.55758176649E+02  0.55758176649E+02  0.00000000000E+00 0.  1.
          1   -1    0    0  501    0  0.00000000000E+00 -0.00000000000E+00 -0.28074720849E+03  0.28074720849E+03  0.00000000000E+00 0. -1.
         25    2    1    2    0    0  0.55469525374E+02 -0.25976060037E+02 -0.10066687336E+03  0.17185268455E+03  0.12509157388E+03 0.  0.
         23    2    1    2    0    0 -0.55469525374E+02  0.25976060037E+02 -0.12432215848E+03  0.16465270058E+03  0.88898193348E+02 0.  0.
          5    1    3    3  502    0  0.84581317184E+02  0.17769885536E+02 -0.60547963198E+02  0.10560916767E+03  0.41800000000E+01 0.  1.
         -5    1    3    3    0  502 -0.29111791810E+02 -0.43745945573E+02 -0.40118910163E+02  0.66243516884E+02  0.41800000000E+01 0.  1.
        -11    1    4    4    0    0 -0.15429314188E+02 -0.19107546341E+02 -0.94010132523E+02  0.97165153633E+02  0.00000000000E+00 0. -1.
         11    1    4    4    0    0 -0.40040211186E+02  0.45083606378E+02 -0.30312025954E+02  0.67487546950E+02  0.00000000000E+00 0.  1.
</event>
<event>
 8    1  0.7026811E-009  0.9739742E+02  0.7561462E-02  0.1285866E+00
          1   -1    0    0  501    0  0.00000000000E+00  0.00000000000E+00  0.50301052946E+03  0.50301052946E+03  0.00000000000E+00 0. -1.
         -1   -1    0    0    0  501 -0.00000000000E+00 -0.00000000000E+00 -0.37843238171E+02  0.37843238171E+02  0.00000000000E+00 0.  1.
         25    2    1    2    0    0 -0.65038712865E+02  0.32916423951E+02  0.17046394093E+03  0.22365005427E+03  0.12509143248E+03 0.  0.
         23    2    1    2    0    0  0.65038712865E+02 -0.32916423951E+02  0.29470335036E+03  0.31720371336E+03  0.91948931057E+02 0.  0.
          5    1    3    3  502    0 -0.17763481047E+02  0.40073813500E+02 -0.25451999395E+01  0.44106714115E+02  0.41800000000E+01 0. -1.
         -5    1    3    3    0  502 -0.47275231818E+02 -0.71573895489E+01  0.17300914087E+03  0.17954334015E+03  0.41800000000E+01 0. -1.
        -11    1    4    4    0    0  0.35040828691E+02 -0.55209520852E+02  0.25250147852E+03  0.26083126254E+03  0.00000000000E+00 0. -1.
         11    1    4    4    0    0  0.29997884173E+02  0.22293096901E+02  0.42201871842E+02  0.56372450818E+02  0.00000000000E+00 0.  1.
</event>
<event>
 8    1  0.7026811E-009  0.7659173E+02  0.7561462E-02  0.1339012E+00
         -1   -1    0    0    0  501 -0.00000000000E+00  0.00000000000E+00  0.19086775554E+02  0.19086775554E+02  0.00000000000E+00 0.  1.
          1   -1    0    0  501    0  0.00000000000E+00 -0.00000000000E+00 -0.78938056400E+03  0.78938056400E+03  0.00000000000E+00 0. -1.
         25    2    1    2    0    0 -0.39693243561E+02  0.13674046958E+02 -0.56275853555E+03  0.57802020845E+03  0.12509060279E+03 0.  0.
         23    2    1    2    0    0  0.39693243561E+02 -0.13674046958E+02 -0.20753525290E+03  0.23044713110E+03  0.90953097206E+02 0.  0.
          5    1    3    3  502    0  0.84929526025E+01 -0.41926468107E+01 -0.48259496145E+03  0.48270599515E+03  0.41800000000E+01 0.  1.
         -5    1    3    3    0  502 -0.48186196164E+02  0.17866693768E+02 -0.80163574096E+02  0.95314213309E+02  0.41800000000E+01 0.  1.
        -11    1    4    4    0    0  0.64958969958E+02 -0.10570502878E+02 -0.18532554737E+03  0.19666459218E+03  0.00000000000E+00 0.  1.
         11    1    4    4    0    0 -0.25265726397E+02 -0.31035440796E+01 -0.22209705532E+02  0.33782538922E+02  0.00000000000E+00 0. -1.
</event>
<event>
 8    1  0.7026811E-009  0.1614051E+03  0.7561462E-02  0.1187119E+00
          2   -1    0    0  501    0  0.00000000000E+00  0.00000000000E+00  0.23370314334E+04  0.23370314334E+04  0.00000000000E+00 0.  1.
         -2   -1    0    0    0  501 -0.00000000000E+00 -0.00000000000E+00 -0.12971010400E+02  0.12971010400E+02  0.00000000000E+00 0. -1.
         25    2    1    2    0    0 -0.78987196456E+02  0.97522568261E+02  0.15894861129E+04  0.15993324091E+04  0.12509365713E+03 0.  0.
         23    2    1    2    0    0  0.78987196456E+02 -0.97522568261E+02  0.73457431007E+03  0.75067003471E+03  0.90313096881E+02 0.  0.
          5    1    3    3  502    0 -0.10903865482E+03  0.76142909413E+02  0.13953634531E+04  0.14016931938E+04  0.41800000000E+01 0. -1.
         -5    1    3    3    0  502  0.30051458363E+02  0.21379658848E+02  0.19412265982E+03  0.19763921528E+03  0.41800000000E+01 0. -1.
        -11    1    4    4    0    0 -0.13363190699E+02  0.53468991059E+01  0.41002412440E+02  0.43455287614E+02  0.00000000000E+00 0.  1.
         11    1    4    4    0    0  0.92350387155E+02 -0.10286946737E+03  0.69357189763E+03  0.70721474709E+03  0.00000000000E+00 0. -1.
</event>
<event>
 8    1  0.7026811E-009  0.2777485E+03  0.7561462E-02  0.1096925E+00
         -1   -1    0    0    0  501 -0.00000000000E+00  0.00000000000E+00  0.10343864703E+03  0.10343864703E+03  0.00000000000E+00 0.  1.
          1   -1    0    0  501    0  0.00000000000E+00 -0.00000000000E+00 -0.94492899525E+03  0.94492899525E+03  0.00000000000E+00 0. -1.
         25    2    1    2    0    0 -0.23525297740E+03 -0.11904824788E+03 -0.21430697040E+03  0.36206576534E+03  0.12509073573E+03 0.  0.
         23    2    1    2    0    0  0.23525297740E+03  0.11904824788E+03 -0.62718337782E+03  0.68630187695E+03  0.90193282391E+02 0.  0.
          5    1    3    3  502    0 -0.15913394543E+03 -0.16148406115E+02 -0.14752714354E+03  0.21763757509E+03  0.41800000000E+01 0.  1.
         -5    1    3    3    0  502 -0.76119031974E+02 -0.10289984176E+03 -0.66779826861E+02  0.14442819025E+03  0.41800000000E+01 0.  1.
        -11    1    4    4    0    0  0.10359480730E+03  0.77481714425E+02 -0.20780562479E+03  0.24478251135E+03  0.00000000000E+00 0.  1.
         11    1    4    4    0    0  0.13165817010E+03  0.41566533454E+02 -0.41937775303E+03  0.44151936560E+03  0.00000000000E+00 0. -1.
</event>
<event>
 8    1  0.7026811E-009  0.1315420E+03  0.7561462E-02  0.1225186E+00
         -2   -1    0    0    0  501 -0.00000000000E+00  0.00000000000E+00  0.23102647596E+02  0.23102647596E+02  0.00000000000E+00 0.  1.
          2   -1    0    0  501    0  0.00000000000E+00 -0.00000000000E+00 -0.94202521529E+03  0.94202521529E+03  0.00000000000E+00 0. -1.
         25    2    1    2    0    0 -0.19357342111E+02  0.91646052704E+02 -0.37861062623E+03  0.40959319841E+03  0.12508747428E+03 0.  0.
         23    2    1    2    0    0  0.19357342111E+02 -0.91646052704E+02 -0.54031194147E+03  0.55553466448E+03  0.88927294306E+02 0.  0.
          5    1    3    3  502    0  0.13325753564E+02 -0.18040971988E+02 -0.17076009244E+03  0.17227749113E+03  0.41800000000E+01 0.  1.
         -5    1    3    3    0  502 -0.32683095676E+02  0.10968702469E+03 -0.20785053378E+03  0.23731570728E+03  0.41800000000E+01 0.  1.
        -11    1    4    4    0    0  0.52676868446E+02 -0.58973616318E+02 -0.39759872316E+03  0.40538559983E+03  0.00000000000E+00 0. -1.
         11    1    4    4    0    0 -0.33319526335E+02 -0.32672436386E+02 -0.14271321831E+03  0.15014906465E+03  0.00000000000E+00 0.  1.
</event>
<event>
 8    1  0.7026811E-009  0.9793004E+02  0.7561462E-02  0.1284710E+00
         -1   -1    0    0    0  501 -0.00000000000E+00  0.00000000000E+00  0.10848629152E+04  0.10848629152E+04  0.00000000000E+00 0.  1.
          1   -1    0    0  501    0  0.00000000000E+00 -0.00000000000E+00 -0.13267850696E+02  0.13267850696E+02  0.00000000000E+00 0. -1.
         25    2    1    2    0    0 -0.17117212799E+02 -0.19242962094E+02  0.72446737291E+03  0.73563837616E+03  0.12509018943E+03 0.  0.
         23    2    1    2    0    0  0.17117212799E+02  0.19242962094E+02  0.34712769163E+03  0.36249238978E+03  0.10119193539E+03 0.  0.
          5    1    3    3  502    0 -0.15882097664E+02 -0.55669428207E+02  0.65038648007E+03  0.65297118782E+03  0.41800000000E+01 0. -1.
         -5    1    3    3    0  502 -0.12351151358E+01  0.36426466113E+02  0.74080892844E+02  0.82667188336E+02  0.41800000000E+01 0. -1.
        -11    1    4    4    0    0  0.52313727223E+02 -0.12444203726E+02  0.22891330690E+03  0.23514439466E+03  0.00000000000E+00 0.  1.
         11    1    4    4    0    0 -0.35196514423E+02  0.31687165820E+02  0.11821438472E+03  0.12734799512E+03  0.00000000000E+00 0. -1.
</event>
<event>
 8    1  0.7026811E-009  0.1670373E+03  0.7561462E-02  0.1180973E+00
         -3   -1    0    0    0  501 -0.00000000000E+00  0.00000000000E+00  0.29254185272E+03  0.29254185272E+03  0.00000000000E+00 0.  1.
          3   -1    0    0  501    0  0.00000000000E+00 -0.00000000000E+00 -0.11323033761E+03  0.11323033761E+03  0.00000000000E+00 0. -1.
         25    2    1    2    0    0 -0.34574176043E+02 -0.13628581426E+03  0.13692575742E+03  0.23272459294E+03  0.12507148475E+03 0.  0.
         23    2    1    2    0    0  0.34574176043E+02  0.13628581426E+03  0.42385757681E+02  0.17304759739E+03  0.91540819806E+02 0.  0.
          5    1    3    3  502    0 -0.69181959460E+02 -0.87743191096E+02  0.39802718720E+02  0.11868757271E+03  0.41800000000E+01 0.  1.
         -5    1    3    3    0  502  0.34607783417E+02 -0.48542623164E+02  0.97123038704E+02  0.11403702023E+03  0.41800000000E+01 0.  1.
        -11    1    4    4    0    0 -0.25998293018E+02  0.57617244643E+02  0.37809134494E+02  0.73655880765E+02  0.00000000000E+00 0.  1.
         11    1    4    4    0    0  0.60572469061E+02  0.78668569617E+02  0.45766231864E+01  0.99391716624E+02  0.00000000000E+00 0. -1.
</event>
<event>
 8    1  0.7026811E-009  0.1207649E+03  0.7561462E-02  0.1241841E+00
         -2   -1    0    0    0  501 -0.00000000000E+00  0.00000000000E+00  0.12969164963E+03  0.12969164963E+03  0.00000000000E+00 0.  1.
          2   -1    0    0  501    0  0.00000000000E+00 -0.00000000000E+00 -0.17546079361E+03  0.17546079361E+03  0.00000000000E+00 0. -1.
         25    2    1    2    0    0 -0.24773579877E+02  0.86251426600E+02  0.30180291373E+02  0.15688089550E+03  0.12509087310E+03 0.  0.
         23    2    1    2    0    0  0.24773579877E+02 -0.86251426600E+02 -0.75949435357E+02  0.14827154774E+03  0.90349854948E+02 0.  0.
          5    1    3    3  502    0  0.27468680889E+02  0.46658329363E+01 -0.31262617016E+02  0.42084700895E+02  0.41800000000E+01 0. -1.
         -5    1    3    3    0  502 -0.52242260766E+02  0.81585593664E+02  0.61442908388E+02  0.11479619460E+03  0.41800000000E+01 0. -1.
        -11    1    4    4    0    0 -0.16516443798E+01 -0.89719968660E+02 -0.29035708469E+02  0.94315815598E+02  0.00000000000E+00 0.  1.
         11    1    4    4    0    0  0.26425224257E+02  0.34685420602E+01 -0.46913726887E+02  0.53955732147E+02  0.00000000000E+00 0. -1.
</event>
<event>
 8    1  0.7026811E-009  0.1535883E+03  0.7561462E-02  0.1196132E+00
          2   -1    0    0  501    0  0.00000000000E+00  0.00000000000E+00  0.34799100660E+03  0.34799100660E+03  0.00000000000E+00 0. -1.
         -2   -1    0    0    0  501 -0.00000000000E+00 -0.00000000000E+00 -0.95333663373E+02  0.95333663373E+02  0.00000000000E+00 0.  1.
         25    2    1    2    0    0 -0.14223514746E+03 -0.34768403061E+02  0.12883795794E+03  0.23170294541E+03  0.12508939395E+03 0.  0.
         23    2    1    2    0    0  0.14223514746E+03  0.34768403061E+02  0.12381938528E+03  0.21162172456E+03  0.89514440793E+02 0.  0.
          5    1    3    3  502    0 -0.11058548183E+03 -0.24399382402E+02  0.16573497212E+02  0.11452786501E+03  0.41800000000E+01 0. -1.
         -5    1    3    3    0  502 -0.31649665629E+02 -0.10369020659E+02  0.11226446073E+03  0.11717508040E+03  0.41800000000E+01 0. -1.
        -11    1    4    4    0    0  0.69547916571E+01  0.23536097295E+02 -0.43545314028E+01  0.24925467831E+02  0.00000000000E+00 0.  1.
         11    1    4    4    0    0  0.13528035580E+03  0.11232305767E+02  0.12817391669E+03  0.18669625673E+03  0.00000000000E+00 0. -1.
</event>
<event>
 8    1  0.7026811E-009  0.1722446E+03  0.7561462E-02  0.1175527E+00
         -2   -1    0    0    0  501 -0.00000000000E+00  0.00000000000E+00  0.10107433122E+03  0.10107433122E+03  0.00000000000E+00 0.  1.
          2   -1    0    0  501    0  0.00000000000E+00 -0.00000000000E+00 -0.67407788925E+03  0.67407788925E+03  0.00000000000E+00 0. -1.
         25    2    1    2    0    0  0.16855375468E+03 -0.21550835928E+02 -0.53999324398E+03  0.57975762856E+03  0.12510554577E+03 0.  0.
         23    2    1    2    0    0 -0.16855375468E+03  0.21550835928E+02 -0.33010314048E+02  0.19539459191E+03  0.90634204200E+02 0.  0.
          5    1    3    3  502    0  0.22309346522E+02 -0.15047718094E+02 -0.86071240503E+01  0.28560387716E+02  0.41800000000E+01 0. -1.
         -5    1    3    3    0  502  0.14624440815E+03 -0.65031178345E+01 -0.53138611993E+03  0.55119724084E+03  0.41800000000E+01 0. -1.
        -11    1    4    4    0    0 -0.31344455568E+02 -0.27442809255E+01  0.29079018094E+02  0.42843847470E+02  0.00000000000E+00 0.  1.
         11    1    4    4    0    0 -0.13720929911E+03  0.24295116854E+02 -0.62089332142E+02  0.15255074444E+03  0.00000000000E+00 0. -1.
</event>
<event>
 8    1  0.7026811E-009  0.9498885E+02  0.7561462E-02  0.1291201E+00
          4   -1    0    0  501    0  0.00000000000E+00  0.00000000000E+00  0.73006814288E+03  0.73006814288E+03  0.00000000000E+00 0. -1.
         -4   -1    0    0    0  501 -0.00000000000E+00 -0.00000000000E+00 -0.23122829547E+02  0.23122829547E+02  0.00000000000E+00 0.  1.
         25    2    1    2    0    0  0.45338159340E+02 -0.89539129804E+01  0.54230213909E+03  0.55845738692E+03  0.12508925491E+03 0.  0.
         23    2    1    2    0    0 -0.45338159340E+02  0.89539129804E+01  0.16464317425E+03  0.19473358552E+03  0.93156176663E+02 0.  0.
          5    1    3    3  502    0  0.56329741519E+02 -0.28509466273E+02  0.52744840639E+03  0.53122982150E+03  0.41800000000E+01 0. -1.
         -5    1    3    3    0  502 -0.10991582179E+02  0.19555553293E+02  0.14853732693E+02  0.27227565413E+02  0.41800000000E+01 0. -1.
        -11    1    4    4    0    0 -0.17673564391E+02 -0.42188996053E+02  0.68223244961E+02  0.82138160554E+02  0.00000000000E+00 0. -1.
         11    1    4    4    0    0 -0.27664594948E+02  0.51142909033E+02  0.96419929289E+02  0.11259542496E+03  0.00000000000E+00 0.  1.
</event>
<event>
 8    1  0.7026811E-009  0.2568243E+03  0.7561462E-02  0.1109066E+00
          1   -1    0    0  501    0  0.00000000000E+00  0.00000000000E+00  0.80039472753E+03  0.80039472753E+03  0.00000000000E+00 0. -1.
         -1   -1    0    0    0  501 -0.00000000000E+00 -0.00000000000E+00 -0.12037544156E+03  0.12037544156E+03  0.00000000000E+00 0.  1.
         25    2    1    2    0    0  0.70583426092E+02  0.22951189362E+03  0.10416881762E+03  0.29009768855E+03  0.12509115470E+03 0.  0.
         23    2    1    2    0    0 -0.70583426092E+02 -0.22951189362E+03  0.57585046835E+03  0.63067248054E+03  0.92121042475E+02 0.  0.
          5    1    3    3  502    0  0.62586138526E+02  0.23688159051E+03  0.71274144097E+02  0.25520068314E+03  0.41800000000E+01 0.  1.
         -5    1    3    3    0  502  0.79972875667E+01 -0.73696968844E+01  0.32894673520E+02  0.34897005410E+02  0.41800000000E+01 0.  1.
        -11    1    4    4    0    0 -0.18344439589E+02 -0.19142741727E+03  0.44235089493E+03  0.48234353815E+03  0.00000000000E+00 0. -1.
         11    1    4    4    0    0 -0.52238986503E+02 -0.38084476348E+02  0.13349957342E+03  0.14832894240E+03  0.00000000000E+00 0.  1.
</event>
<event>
 8    1  0.7026811E-009  0.1343188E+03  0.7561462E-02  0.1221185E+00
         -2   -1    0    0    0  501 -0.00000000000E+00  0.00000000000E+00  0.96844875804E+02  0.96844875804E+02  0.00000000000E+00 0.  1.
          2   -1    0    0  501    0  0.00000000000E+00 -0.00000000000E+00 -0.23113562209E+03  0.23113562209E+03  0.00000000000E+00 0. -1.
         25    2    1    2    0    0 -0.14552174149E+01  0.98754702491E+02 -0.10587005396E+03  0.19133915275E+03  0.12509034387E+03 0.  0.
         23    2    1    2    0    0  0.14552174149E+01 -0.98754702491E+02 -0.28420692324E+02  0.13664134514E+03  0.90047279403E+02 0.  0.
          5    1    3    3  502    0  0.26306365031E+02 -0.21597848940E+02 -0.12695115527E+02  0.36566792015E+02  0.41800000000E+01 0. -1.
         -5    1    3    3    0  502 -0.27761582446E+02  0.12035255143E+03 -0.93174938435E+02  0.15477236074E+03  0.41800000000E+01 0. -1.
        -11    1    4    4    0    0  0.21744644595E+02 -0.20376287083E+02 -0.45025960752E+02  0.53994071763E+02  0.00000000000E+00 0. -1.
         11    1    4    4    0    0 -0.20289427180E+02 -0.78378415409E+02  0.16605268428E+02  0.82647273378E+02  0.00000000000E+00 0.  1.
</event>
<event>
 8    1  0.7026811E-009  0.1016597E+03  0.7561462E-02  0.1276844E+00
         -2   -1    0    0    0  501 -0.00000000000E+00  0.00000000000E+00  0.35935195631E+02  0.35935195631E+02  0.00000000000E+00 0.  1.
          2   -1    0    0  501    0  0.00000000000E+00 -0.00000000000E+00 -0.45604660963E+03  0.45604660963E+03  0.00000000000E+00 0. -1.
         25    2    1    2    0    0 -0.23936710744E+02  0.24567206244E+02 -0.12075320177E+03  0.17721538251E+03  0.12508973705E+03 0.  0.
         23    2    1    2    0    0  0.23936710744E+02 -0.24567206244E+02 -0.29935821223E+03  0.31476642275E+03  0.91027731599E+02 0.  0.
          5    1    3    3  502    0 -0.53540901796E+02  0.50516854367E+02 -0.32667919077E+02  0.80642706286E+02  0.41800000000E+01 0.  1.
         -5    1    3    3    0  502  0.29604191052E+02 -0.25949648122E+02 -0.88085282692E+02  0.96572676221E+02  0.41800000000E+01 0.  1.
        -11    1    4    4    0    0 -0.18493426761E+02  0.20834991642E+02 -0.44985561938E+02  0.52913178821E+02  0.00000000000E+00 0.  1.
         11    1    4    4    0    0  0.42430137505E+02 -0.45402197887E+02 -0.25437265029E+03  0.26185324393E+03  0.00000000000E+00 0. -1.
</event>
<event>
 8    1  0.7026811E-009  0.1280245E+03  0.7561462E-02  0.1230417E+00
         -2   -1    0    0    0  501 -0.00000000000E+00  0.00000000000E+00  0.34423028269E+02  0.34423028269E+02  0.00000000000E+00 0.  1.
          2   -1    0    0  501    0  0.00000000000E+00 -0.00000000000E+00 -0.70805177431E+03  0.70805177431E+03  0.00000000000E+00 0. -1.
         25    2    1    2    0    0 -0.32410482321E+02 -0.10795697918E+03 -0.36361359015E+03  0.40070946170E+03  0.12509229006E+03 0.  0.
         23    2    1    2    0    0  0.32410482321E+02  0.10795697918E+03 -0.31001515589E+03  0.34176534088E+03  0.89381220781E+02 0.  0.
          5    1    3    3  502    0 -0.10339333521E+02 -0.71313050072E+02 -0.59411985287E+02  0.93486412510E+02  0.41800000000E+01 0.  1.
         -5    1    3    3    0  502 -0.22071148800E+02 -0.36643929107E+02 -0.30420160486E+03  0.30722304919E+03  0.41800000000E+01 0.  1.
        -11    1    4    4    0    0  0.50026648186E+02  0.24708057099E+02 -0.90289321035E+02  0.10613818873E+03  0.00000000000E+00 0.  1.
         11    1    4    4    0    0 -0.17616165865E+02  0.83248922080E+02 -0.21972583485E+03  0.23562715214E+03  0.00000000000E+00 0. -1.
</event>
<event>
 8    1  0.7026811E-009  0.1292962E+03  0.7561462E-02  0.1228504E+00
          1   -1    0    0  501    0  0.00000000000E+00  0.00000000000E+00  0.61907707543E+02  0.61907707543E+02  0.00000000000E+00 0. -1.
         -1   -1    0    0    0  501 -0.00000000000E+00 -0.00000000000E+00 -0.36552119413E+03  0.36552119413E+03  0.00000000000E+00 0.  1.
         25    2    1    2    0    0 -0.78327118183E+02 -0.38018968513E+02 -0.84414744362E+02  0.17422259756E+03  0.12508830891E+03 0.  0.
         23    2    1    2    0    0  0.78327118183E+02  0.38018968513E+02 -0.21919874223E+03  0.25320630411E+03  0.92112781080E+02 0.  0.
          5    1    3    3  502    0  0.30013901720E+02 -0.81493729820E+01  0.33642844413E+01  0.31560059985E+02  0.41800000000E+01 0.  1.
         -5    1    3    3    0  502 -0.10834101990E+03 -0.29869595531E+02 -0.87779028804E+02  0.14266253758E+03  0.41800000000E+01 0.  1.
        -11    1    4    4    0    0 -0.13308855766E+00  0.36271452845E+02 -0.12725452924E+03  0.13232290511E+03  0.00000000000E+00 0.  1.
         11    1    4    4    0    0  0.78460206741E+02  0.17475156686E+01 -0.91944212985E+02  0.12088339900E+03  0.00000000000E+00 0. -1.
</event>
<event>
 8    1  0.7026811E-009  0.9436366E+02  0.7561462E-02  0.1292616E+00
          1   -1    0    0  501    0  0.00000000000E+00  0.00000000000E+00  0.53349046731E+03  0.53349046731E+03  0.00000000000E+00 0. -1.
         -1   -1    0    0    0  501 -0.00000000000E+00 -0.00000000000E+00 -0.26211231778E+02  0.26211231778E+02  0.00000000000E+00 0.  1.
         25    2    1    2    0    0  0.23797756186E+02  0.17550313699E+02  0.19825687813E+03  0.23627376893E+03  0.12508060380E+03 0.  0.
         23    2    1    2    0    0 -0.23797756186E+02 -0.17550313699E+02  0.30902235740E+03  0.32342793015E+03  0.90754955366E+02 0.  0.
          5    1    3    3  502    0 -0.17968270214E+02 -0.41948566292E+02  0.12434025603E+03  0.13251608437E+03  0.41800000000E+01 0. -1.
         -5    1    3    3    0  502  0.41766026400E+02  0.59498879991E+02  0.73916622107E+02  0.10375768456E+03  0.41800000000E+01 0. -1.
        -11    1    4    4    0    0 -0.39539840252E+02 -0.30311773069E+02  0.29402715252E+03  0.29821832434E+03  0.00000000000E+00 0. -1.
         11    1    4    4    0    0  0.15742084065E+02  0.12761459370E+02  0.14995204873E+02  0.25209605811E+02  0.00000000000E+00 0.  1.
</event>
<event>
 8    1  0.7026811E-009  0.1114545E+03  0.7561462E-02  0.1257900E+00
         -4   -1    0    0    0  501 -0.00000000000E+00  0.00000000000E+00  0.16155731299E+03  0.16155731299E+03  0.00000000000E+00 0.  1.
          4   -1    0    0  501    0  0.00000000000E+00 -0.00000000000E+00 -0.17639143441E+03  0.17639143441E+03  0.00000000000E+00 0. -1.
         25    2    1    2    0    0 -0.44673690856E+02  0.53784575239E+02 -0.11694500554E+03  0.18496291448E+03  0.12508647498E+03 0.  0.
         23    2    1    2    0    0  0.44673690856E+02 -0.53784575239E+02  0.10211088412E+03  0.15298583292E+03  0.89941721297E+02 0.  0.
          5    1    3    3  502    0  0.24817644867E+02  0.22964691243E+02 -0.10178308589E+03  0.10733387869E+03  0.41800000000E+01 0. -1.
         -5    1    3    3    0  502 -0.69491335723E+02  0.30819883996E+02 -0.15161919648E+02  0.77629035789E+02  0.41800000000E+01 0. -1.
        -11    1    4    4    0    0  0.63867673151E+02 -0.96698493411E+01  0.47335098540E+02  0.80082440109E+02  0.00000000000E+00 0.  1.
         11    1    4    4    0    0 -0.19193982295E+02 -0.44114725898E+02  0.54775785583E+02  0.72903392813E+02  0.00000000000E+00 0. -1.
</event>
<event>
 8    1  0.7026811E-009  0.1455459E+03  0.7561462E-02  0.1206056E+00
         -2   -1    0    0    0  501 -0.00000000000E+00  0.00000000000E+00  0.16819761941E+03  0.16819761941E+03  0.00000000000E+00 0.  1.
          2   -1    0    0  501    0  0.00000000000E+00 -0.00000000000E+00 -0.16158605359E+03  0.16158605359E+03  0.00000000000E+00 0. -1.
         25    2    1    2    0    0  0.59698862660E+02  0.10588185409E+03 -0.20435191137E+02  0.17562665978E+03  0.12510877411E+03 0.  0.
         23    2    1    2    0    0 -0.59698862660E+02 -0.10588185409E+03  0.27046756948E+02  0.15415701322E+03  0.90873188767E+02 0.  0.
          5    1    3    3  502    0  0.52016338188E+02  0.12051602993E+02  0.37156745296E+02  0.65184635415E+02  0.41800000000E+01 0. -1.
         -5    1    3    3    0  502  0.76825244717E+01  0.93830251095E+02 -0.57591936433E+02  0.11044202436E+03  0.41800000000E+01 0. -1.
        -11    1    4    4    0    0 -0.20439540855E+02  0.86716678467E+01 -0.14054860904E+02  0.26277590617E+02  0.00000000000E+00 0. -1.
         11    1    4    4    0    0 -0.39259321805E+02 -0.11455352193E+03  0.41101617852E+02  0.12787942261E+03  0.00000000000E+00 0.  1.
</event>
<event>
 8    1  0.7026811E-009  0.9406282E+02  0.7561462E-02  0.1293301E+00
          1   -1    0    0  501    0  0.00000000000E+00  0.00000000000E+00  0.25160923875E+03  0.25160923875E+03  0.00000000000E+00 0. -1.
         -1   -1    0    0    0  501 -0.00000000000E+00 -0.00000000000E+00 -0.59396721921E+02  0.59396721921E+02  0.00000000000E+00 0.  1.
         25    2    1    2    0    0  0.48856177991E+02 -0.21427380434E+02  0.12437291511E+03  0.18429009989E+03  0.12509260627E+03 0.  0.
         23    2    1    2    0    0 -0.48856177991E+02  0.21427380434E+02  0.67839601725E+02  0.12671586079E+03  0.92782751910E+02 0.  0.
          5    1    3    3  502    0  0.18951819119E+02 -0.46734817162E+02  0.13442109692E+03  0.14363084029E+03  0.41800000000E+01 0. -1.
         -5    1    3    3    0  502  0.29904358872E+02  0.25307436728E+02 -0.10048181820E+02  0.40659259600E+02  0.41800000000E+01 0. -1.
        -11    1    4    4    0    0  0.32172885882E+01  0.42007555108E+02  0.48050919732E+01  0.42403709046E+02  0.00000000000E+00 0.  1.
         11    1    4    4    0    0 -0.52073466579E+02 -0.20580174674E+02  0.63034509752E+02  0.84312151739E+02  0.00000000000E+00 0. -1.
</event>
<event>
 8    1  0.7026811E-009  0.1483585E+03  0.7561462E-02  0.1202505E+00
         -4   -1    0    0    0  501 -0.00000000000E+00  0.00000000000E+00  0.88587598475E+03  0.88587598475E+03  0.00000000000E+00 0.  1.
          4   -1    0    0  501    0  0.00000000000E+00 -0.00000000000E+00 -0.25792882243E+02  0.25792882243E+02  0.00000000000E+00 0. -1.
         25    2    1    2    0    0 -0.79689546210E+02 -0.65166464156E+02  0.52165295203E+03  0.54622959583E+03  0.12509147523E+03 0.  0.
         23    2    1    2    0    0  0.79689546210E+02  0.65166464156E+02  0.33843015048E+03  0.36543927116E+03  0.91726780871E+02 0.  0.
          5    1    3    3  502    0 -0.11134408740E+03 -0.34523078682E+02  0.34816809604E+03  0.36718911239E+03  0.41800000000E+01 0. -1.
         -5    1    3    3    0  502  0.31654541192E+02 -0.30643385474E+02  0.17348485600E+03  0.17904048344E+03  0.41800000000E+01 0. -1.
        -11    1    4    4    0    0  0.68256283691E+02 -0.14018623929E+01  0.20160884658E+03  0.21285443970E+03  0.00000000000E+00 0.  1.
         11    1    4    4    0    0  0.11433262519E+02  0.66568326549E+02  0.13682130390E+03  0.15258483146E+03  0.00000000000E+00 0. -1.
</event>
<event>
 8    1  0.7026811E-009  0.1039403E+03  0.7561462E-02  0.1272222E+00
         -2   -1    0    0    0  501 -0.00000000000E+00  0.00000000000E+00  0.37412414674E+03  0.37412414674E+03  0.00000000000E+00 0.  1.
          2   -1    0    0  501    0  0.00000000000E+00 -0.00000000000E+00 -0.45813002887E+02  0.45813002887E+02  0.00000000000E+00 0. -1.
         25    2    1    2    0    0 -0.66704140590E+01  0.12397160360E+02  0.29835154041E+03  0.32381804185E+03  0.12508516520E+03 0.  0.
         23    2    1    2    0    0  0.66704140590E+01 -0.12397160360E+02  0.29959603443E+02  0.96119107780E+02  0.90239243310E+02 0.  0.
          5    1    3    3  502    0  0.37591924205E+02 -0.35619257674E+02  0.76184459457E+02  0.92214036596E+02  0.41800000000E+01 0.  1.
         -5    1    3    3    0  502 -0.44262338264E+02  0.48016418035E+02  0.22216708095E+03  0.23160400525E+03  0.41800000000E+01 0.  1.
        -11    1    4    4    0    0 -0.12865519420E+02 -0.48098676554E+02  0.22943840992E+02  0.54821748564E+02  0.00000000000E+00 0.  1.
         11    1    4    4    0    0  0.19535933479E+02  0.35701516193E+02  0.70157624511E+01  0.41297359215E+02  0.00000000000E+00 0. -1.
</event>
<event>
 8    1  0.7026811E-009  0.6511833E+02  0.7561462E-02  0.1377527E+00
          1   -1    0    0  501    0  0.00000000000E+00  0.00000000000E+00  0.46482134029E+02  0.46482134029E+02  0.00000000000E+00 0. -1.
         -1   -1    0    0    0  501 -0.00000000000E+00 -0.00000000000E+00 -0.31548505071E+03  0.31548505071E+03  0.00000000000E+00 0.  1.
         25    2    1    2    0    0 -0.38114141716E+02 -0.17506364874E+02 -0.10365020166E+03  0.16778229819E+03  0.12509346374E+03 0.  0.
         23    2    1    2    0    0  0.38114141716E+02  0.17506364874E+02 -0.16535271503E+03  0.19418488655E+03  0.92774399428E+02 0.  0.
          5    1    3    3  502    0 -0.11461238724E+02 -0.10849657165E+02  0.28444268309E+02  0.32796704916E+02  0.41800000000E+01 0. -1.
         -5    1    3    3    0  502 -0.26652902992E+02 -0.66567077088E+01 -0.13209446996E+03  0.13498559327E+03  0.41800000000E+01 0. -1.
        -11    1    4    4    0    0  0.61205059778E+02  0.13707841720E+02 -0.61914732265E+02  0.88132844834E+02  0.00000000000E+00 0. -1.
         11    1    4    4    0    0 -0.23090918062E+02  0.37985231546E+01 -0.10343798276E+03  0.10605204172E+03  0.00000000000E+00 0.  1.
</event>
<event>
 8    1  0.7026811E-009  0.1783413E+03  0.7561462E-02  0.1169418E+00
         -2   -1    0    0    0  501 -0.00000000000E+00  0.00000000000E+00  0.15466741188E+02  0.15466741188E+02  0.00000000000E+00 0.  1.
          2   -1    0    0  501    0  0.00000000000E+00 -0.00000000000E+00 -0.22590112674E+04  0.22590112674E+04  0.00000000000E+00 0. -1.
         25    2    1    2    0    0  0.15151070180E+03  0.14896911876E+01 -0.12346672678E+04  0.12502033278E+04  0.12508951489E+03 0.  0.
         23    2    1    2    0    0 -0.15151070180E+03 -0.14896911876E+01 -0.10088772585E+04  0.10242746808E+04  0.91365131305E+02 0.  0.
          5    1    3    3  502    0  0.52843664529E+02  0.48550966606E+02 -0.74526033334E+03  0.74871896336E+03  0.41800000000E+01 0. -1.
         -5    1    3    3    0  502  0.98667037267E+02 -0.47061275418E+02 -0.48940693441E+03  0.50148436440E+03  0.41800000000E+01 0. -1.
        -11    1    4    4    0    0 -0.16027211008E+03  0.10429751465E+02 -0.95462506756E+03  0.96804181139E+03  0.00000000000E+00 0. -1.
         11    1    4    4    0    0  0.87614082851E+01 -0.11919442653E+02 -0.54252190900E+02  0.56232869442E+02  0.00000000000E+00 0.  1.
</event>
<event>
 8    1  0.7026811E-009  0.1023596E+03  0.7561462E-02  0.1275411E+00
         -2   -1    0    0    0  501 -0.00000000000E+00  0.00000000000E+00  0.30670455003E+02  0.30670455003E+02  0.00000000000E+00 0. -1.
          2   -1    0    0  501    0  0.00000000000E+00 -0.00000000000E+00 -0.61990677446E+03  0.61990677446E+03  0.00000000000E+00 0.  1.
         25    2    1    2    0    0 -0.65498812511E+02 -0.15291050175E+02 -0.19895456883E+03  0.24444589968E+03  0.12508783616E+03 0.  0.
         23    2    1    2    0    0  0.65498812511E+02  0.15291050175E+02 -0.39028175063E+03  0.40613132979E+03  0.89993897032E+02 0.  0.
          5    1    3    3  502    0 -0.34762579658E+01  0.29634734824E+02  0.11446469715E+01  0.30151028079E+02  0.41800000000E+01 0. -1.
         -5    1    3    3    0  502 -0.62022554546E+02 -0.44925784999E+02 -0.20009921580E+03  0.21429487160E+03  0.41800000000E+01 0. -1.
        -11    1    4    4    0    0  0.34022229052E+02 -0.28210629811E+02 -0.81469323216E+02  0.92685502260E+02  0.00000000000E+00 0. -1.
         11    1    4    4    0    0  0.31476583460E+02  0.43501679985E+02 -0.30881242742E+03  0.31344582753E+03  0.00000000000E+00 0.  1.
</event>
<event>
 8    1  0.7026811E-009  0.1173481E+03  0.7561462E-02  0.1247537E+00
         -1   -1    0    0    0  501 -0.00000000000E+00  0.00000000000E+00  0.74990907986E+03  0.74990907986E+03  0.00000000000E+00 0.  1.
          1   -1    0    0  501    0  0.00000000000E+00 -0.00000000000E+00 -0.19105404672E+02  0.19105404672E+02  0.00000000000E+00 0. -1.
         25    2    1    2    0    0 -0.34965751702E+02 -0.31311667220E+02  0.46292862650E+03  0.48182207336E+03  0.12508626161E+03 0.  0.
         23    2    1    2    0    0  0.34965751702E+02  0.31311667220E+02  0.26787504868E+03  0.28719241117E+03  0.92300677302E+02 0.  0.
          5    1    3    3  502    0  0.43878353724E+02 -0.30732690342E+02  0.16046754958E+03  0.16922504262E+03  0.41800000000E+01 0. -1.
         -5    1    3    3    0  502 -0.78844105427E+02 -0.57897687810E+00  0.30246107692E+03  0.31259703073E+03  0.41800000000E+01 0. -1.
        -11    1    4    4    0    0  0.65939818740E+02  0.24077907065E+02  0.20579399976E+03  0.21743729128E+03  0.00000000000E+00 0.  1.
         11    1    4    4    0    0 -0.30974067037E+02  0.72337601547E+01  0.62081048925E+02  0.69755119887E+02  0.00000000000E+00 0. -1.
</event>
<event>
 8    1  0.7026811E-009  0.1548009E+03  0.7561462E-02  0.1194695E+00
          1   -1    0    0  501    0  0.00000000000E+00  0.00000000000E+00  0.50395649881E+03  0.50395649881E+03  0.00000000000E+00 0.  1.
         -1   -1    0    0    0  501 -0.00000000000E+00 -0.00000000000E+00 -0.64141926184E+02  0.64141926184E+02  0.00000000000E+00 0. -1.
         25    2    1    2    0    0 -0.12072239891E+03  0.57445611943E+02  0.31353012100E+03  0.36307380929E+03  0.12509020062E+03 0.  0.
         23    2    1    2    0    0  0.12072239891E+03 -0.57445611943E+02  0.12628445163E+03  0.20502461570E+03  0.90628000034E+02 0.  0.
          5    1    3    3  502    0  0.12021170453E+02 -0.13547067419E+02  0.10041595558E+03  0.10212182974E+03  0.41800000000E+01 0. -1.
         -5    1    3    3    0  502 -0.13274356936E+03  0.70992679362E+02  0.21311416542E+03  0.26095197955E+03  0.41800000000E+01 0. -1.
        -11    1    4    4    0    0  0.27727477892E+02 -0.35187596069E+02  0.93949287665E+02  0.10408385370E+03  0.00000000000E+00 0.  1.
         11    1    4    4    0    0  0.92994921020E+02 -0.22258015874E+02  0.32335163967E+02  0.10094076201E+03  0.00000000000E+00 0. -1.
</event>
<event>
 8    1  0.7026811E-009  0.8037048E+02  0.7561462E-02  0.1328003E+00
         -3   -1    0    0    0  501 -0.00000000000E+00  0.00000000000E+00  0.43315620338E+02  0.43315620338E+02  0.00000000000E+00 0.  1.
          3   -1    0    0  501    0  0.00000000000E+00 -0.00000000000E+00 -0.31783575084E+03  0.31783575084E+03  0.00000000000E+00 0. -1.
         25    2    1    2    0    0 -0.28226097628E+02  0.28668544276E+02 -0.18895775578E+03  0.23015342940E+03  0.12508784743E+03 0.  0.
         23    2    1    2    0    0  0.28226097628E+02 -0.28668544276E+02 -0.85562374719E+02  0.13099794178E+03  0.90669414719E+02 0.  0.
          5    1    3    3  502    0 -0.35693952586E+02  0.60778615200E+02 -0.48115595773E+02  0.85444024212E+02  0.41800000000E+01 0.  1.
         -5    1    3    3    0  502  0.74678549582E+01 -0.32110070924E+02 -0.14084216001E+03  0.14470940519E+03  0.41800000000E+01 0.  1.
        -11    1    4    4    0    0  0.10429361203E+02  0.99281618579E+01  0.15624228625E+02  0.21247505574E+02  0.00000000000E+00 0.  1.
         11    1    4    4    0    0  0.17796736425E+02 -0.38596706134E+02 -0.10118660334E+03  0.10975043621E+03  0.00000000000E+00 0. -1.
</event>
<event>
 8    1  0.7026811E-009  0.1604282E+03  0.7561462E-02  0.1188214E+00
          4   -1    0    0  501    0  0.00000000000E+00  0.00000000000E+00  0.13164564417E+03  0.13164564417E+03  0.00000000000E+00 0. -1.
         -4   -1    0    0    0  501 -0.00000000000E+00 -0.00000000000E+00 -0.23481792511E+03  0.23481792511E+03  0.00000000000E+00 0.  1.
         25    2    1    2    0    0 -0.12792456591E+03 -0.30085402413E+02 -0.10539808503E+03  0.20982235431E+03  0.12508732166E+03 0.  0.
         23    2    1    2    0    0  0.12792456591E+03  0.30085402413E+02  0.22258040910E+01  0.15664121497E+03  0.85215550359E+02 0.  0.
          5    1    3    3  502    0 -0.38355791032E+02  0.48390339946E+02 -0.29634799052E+02  0.68618404388E+02  0.41800000000E+01 0. -1.
         -5    1    3    3    0  502 -0.89568774878E+02 -0.78475742359E+02 -0.75763285981E+02  0.14120394993E+03  0.41800000000E+01 0. -1.
        -11    1    4    4    0    0  0.85933593377E+02 -0.35526251727E+01 -0.33233242625E+02  0.92204403537E+02  0.00000000000E+00 0.  1.
         11    1    4    4    0    0  0.41990972533E+02  0.33638027585E+02  0.35459046716E+02  0.64436811436E+02  0.00000000000E+00 0. -1.
</event>
<event>
 8    1  0.7026811E-009  0.1199785E+03  0.7561462E-02  0.1243133E+00
          1   -1    0    0  501    0  0.00000000000E+00  0.00000000000E+00  0.12980962301E+03  0.12980962301E+03  0.00000000000E+00 0. -1.
         -1   -1    0    0    0  501 -0.00000000000E+00 -0.00000000000E+00 -0.23910160632E+03  0.23910160632E+03  0.00000000000E+00 0.  1.
         25    2    1    2    0    0 -0.10192919067E+03  0.35824537132E+02 -0.14823481462E+03  0.22202256733E+03  0.12508997869E+03 0.  0.
         23    2    1    2    0    0  0.10192919067E+03 -0.35824537132E+02  0.38942831305E+02  0.14688866200E+03  0.91579351064E+02 0.  0.
          5    1    3    3  502    0 -0.91671104405E+02 -0.23837866462E+01 -0.28911547529E+02  0.96242525954E+02  0.41800000000E+01 0. -1.
         -5    1    3    3    0  502 -0.10258086266E+02  0.38208323778E+02 -0.11932326709E+03  0.12578004137E+03  0.41800000000E+01 0. -1.
        -11    1    4    4    0    0  0.92795396185E+02 -0.29910503552E+02 -0.88266718267E+01  0.97895525493E+02  0.00000000000E+00 0.  1.
         11    1    4    4    0    0  0.91337944848E+01 -0.59140335797E+01  0.47769503132E+02  0.48993136502E+02  0.00000000000E+00 0. -1.
</event>
<event>
 8    1  0.7026811E-009  0.1078329E+03  0.7561462E-02  0.1264637E+00
          1   -1    0    0  501    0  0.00000000000E+00  0.00000000000E+00  0.44218580848E+03  0.44218580848E+03  0.00000000000E+00 0. -1.
         -1   -1    0    0    0  501 -0.00000000000E+00 -0.00000000000E+00 -0.29271352031E+02  0.29271352031E+02  0.00000000000E+00 0.  1.
         25    2    1    2    0    0 -0.73041047436E+01  0.26619746133E+02  0.22733137055E+03  0.26094068816E+03  0.12509408408E+03 0.  0.
         23    2    1    2    0    0  0.73041047436E+01 -0.26619746133E+02  0.18558308589E+03  0.21051647234E+03  0.95468018354E+02 0.  0.
          5    1    3    3  502    0  0.44033858414E+02 -0.28479309744E+02  0.89158391313E+02  0.10352170261E+03  0.41800000000E+01 0.  1.
         -5    1    3    3    0  502 -0.51337963157E+02  0.55099055876E+02  0.13817297924E+03  0.15741898555E+03  0.41800000000E+01 0.  1.
        -11    1    4    4    0    0  0.35585172495E+00 -0.56730292517E+02  0.66124790032E+02  0.87126004019E+02  0.00000000000E+00 0.  1.
         11    1    4    4    0    0  0.69482530187E+01  0.30110546384E+02  0.11945829586E+03  0.12339046832E+03  0.00000000000E+00 0. -1.
</event>
<event>
 8    1  0.7026811E-009  0.1141457E+03  0.7561462E-02  0.1253080E+00
          2   -1    0    0  501    0  0.00000000000E+00  0.00000000000E+00  0.12928405766E+04  0.12928405766E+04  0.00000000000E+00 0. -1.
         -2   -1    0    0    0  501 -0.00000000000E+00 -0.00000000000E+00 -0.17456090939E+02  0.17456090939E+02  0.00000000000E+00 0.  1.
         25    2    1    2    0    0  0.30014154325E+02 -0.84869848276E+02  0.90857332729E+03  0.92155096730E+03  0.12508778384E+03 0.  0.
         23    2    1    2    0    0 -0.30014154325E+02  0.84869848276E+02  0.36681115840E+03  0.38874570026E+03  0.92027457545E+02 0.  0.
          5    1    3    3  502    0  0.42012104705E+02 -0.65199469225E+02  0.88472438565E+03  0.88812763648E+03  0.41800000000E+01 0.  1.
         -5    1    3    3    0  502 -0.11997950380E+02 -0.19670379051E+02  0.23848941639E+02  0.33423330814E+02  0.41800000000E+01 0.  1.
        -11    1    4    4    0    0  0.31664037319E+02  0.39535490930E+02  0.11762839351E+03  0.12807070416E+03  0.00000000000E+00 0.  1.
         11    1    4    4    0    0 -0.61678191645E+02  0.45334357347E+02  0.24918276488E+03  0.26067499611E+03  0.00000000000E+00 0. -1.
</event>
<event>
 8    1  0.7026811E-009  0.1038129E+03  0.7561462E-02  0.1272476E+00
         -1   -1    0    0    0  501 -0.00000000000E+00  0.00000000000E+00  0.98588270218E+02  0.98588270218E+02  0.00000000000E+00 0.  1.
          1   -1    0    0  501    0  0.00000000000E+00 -0.00000000000E+00 -0.12476667638E+03  0.12476667638E+03  0.00000000000E+00 0. -1.
         25    2    1    2    0    0 -0.55848120017E+01  0.24059438532E+02 -0.22148257008E+02  0.12941578198E+03  0.12509137712E+03 0.  0.
         23    2    1    2    0    0  0.55848120017E+01 -0.24059438532E+02 -0.40301491567E+01  0.93939164617E+02  0.90544341839E+02 0.  0.
          5    1    3    3  502    0  0.16213149934E+02  0.71083985024E+02 -0.25386048301E+02  0.77315735824E+02  0.41800000000E+01 0.  1.
         -5    1    3    3    0  502 -0.21797961935E+02 -0.47024546493E+02  0.32377912926E+01  0.52100046160E+02  0.41800000000E+01 0.  1.
        -11    1    4    4    0    0 -0.61299466990E+01 -0.51968730734E+02  0.19246127151E+02  0.55756063625E+02  0.00000000000E+00 0.  1.
         11    1    4    4    0    0  0.11714758701E+02  0.27909292202E+02 -0.23276276307E+02  0.38183100992E+02  0.00000000000E+00 0. -1.
</event>
<event>
 8    1  0.7026811E-009  0.1224354E+03  0.7561462E-02  0.1239133E+00
          2   -1    0    0  501    0  0.00000000000E+00  0.00000000000E+00  0.12825941675E+03  0.12825941675E+03  0.00000000000E+00 0. -1.
         -2   -1    0    0    0  501 -0.00000000000E+00 -0.00000000000E+00 -0.12992992456E+03  0.12992992456E+03  0.00000000000E+00 0.  1.
         25    2    1    2    0    0 -0.15313759698E+02  0.65632157208E+02 -0.51413209174E+01  0.14218053921E+03  0.12508709467E+03 0.  0.
         23    2    1    2    0    0  0.15313759698E+02 -0.65632157208E+02  0.34708131052E+01  0.11600880210E+03  0.94360501934E+02 0.  0.
          5    1    3    3  502    0  0.40794825178E+02 -0.65439585744E+01  0.21639641286E+02  0.46827210360E+02  0.41800000000E+01 0.  1.
         -5    1    3    3    0  502 -0.56108584876E+02  0.72176115782E+02 -0.26780962204E+02  0.95353328850E+02  0.41800000000E+01 0.  1.
        -11    1    4    4    0    0 -0.39560227668E+01  0.21872328993E+02 -0.11722020139E+02  0.25128761368E+02  0.00000000000E+00 0.  1.
         11    1    4    4    0    0  0.19269782465E+02 -0.87504486201E+02  0.15192833244E+02  0.90880040732E+02  0.00000000000E+00 0. -1.
</event>
<event>
 8    1  0.7026811E-009  0.1207293E+03  0.7561462E-02  0.1241899E+00
          2   -1    0    0  501    0  0.00000000000E+00  0.00000000000E+00  0.12651613116E+03  0.12651613116E+03  0.00000000000E+00 0.  1.
         -2   -1    0    0    0  501 -0.00000000000E+00 -0.00000000000E+00 -0.19069456053E+03  0.19069456053E+03  0.00000000000E+00 0. -1.
         25    2    1    2    0    0 -0.73999389580E+02  0.19101669052E+02  0.45872117536E+02  0.15360084806E+03  0.12509270937E+03 0.  0.
         23    2    1    2    0    0  0.73999389580E+02 -0.19101669052E+02 -0.11005054690E+03  0.16360984363E+03  0.93895019261E+02 0.  0.
          5    1    3    3  502    0 -0.78886699745E+02  0.55412346865E+02  0.23035794414E+01  0.96521595822E+02  0.41800000000E+01 0. -1.
         -5    1    3    3    0  502  0.48873101648E+01 -0.36310677813E+02  0.43568538095E+02  0.57079252234E+02  0.41800000000E+01 0. -1.
        -11    1    4    4    0    0  0.66956072869E+02 -0.45378293429E+02 -0.10983605836E+03  0.13640478336E+03  0.00000000000E+00 0. -1.
         11    1    4    4    0    0  0.70433167119E+01  0.26276624377E+02 -0.21448853920E+00  0.27205060269E+02  0.00000000000E+00 0.  1.
</event>
<event>
 8    1  0.7026811E-009  0.8555760E+02  0.7561462E-02  0.1313981E+00
         -2   -1    0    0    0  501 -0.00000000000E+00  0.00000000000E+00  0.89459557408E+02  0.89459557408E+02  0.00000000000E+00 0.  1.
          2   -1    0    0  501    0  0.00000000000E+00 -0.00000000000E+00 -0.15207238194E+03  0.15207238194E+03  0.00000000000E+00 0. -1.
         25    2    1    2    0    0  0.24991632518E+02  0.26502161326E+02 -0.58103515047E+02  0.14265605851E+03  0.12509111206E+03 0.  0.
         23    2    1    2    0    0 -0.24991632518E+02 -0.26502161326E+02 -0.45093094862E+01  0.98875880843E+02  0.91810455230E+02 0.  0.
          5    1    3    3  502    0  0.31511202012E+02  0.49584418487E+02 -0.86879435113E+02  0.10496227443E+03  0.41800000000E+01 0.  1.
         -5    1    3    3    0  502 -0.65195694936E+01 -0.23082257161E+02  0.28775920065E+02  0.37693784071E+02  0.41800000000E+01 0.  1.
        -11    1    4    4    0    0  0.29393130246E+02 -0.92775867208E+01 -0.23490747122E+02  0.38753643975E+02  0.00000000000E+00 0. -1.
         11    1    4    4    0    0 -0.54384762764E+02 -0.17224574606E+02  0.18981437636E+02  0.60122236868E+02  0.00000000000E+00 0.  1.
</event>
<event>
 8    1  0.7026811E-009  0.1163321E+03  0.7561462E-02  0.1249274E+00
          2   -1    0    0  501    0  0.00000000000E+00  0.00000000000E+00  0.13137600962E+04  0.13137600962E+04  0.00000000000E+00 0. -1.
         -2   -1    0    0    0  501 -0.00000000000E+00 -0.00000000000E+00 -0.12467295494E+02  0.12467295494E+02  0.00000000000E+00 0.  1.
         25    2    1    2    0    0 -0.23416986196E+02  0.56740069170E+02  0.85141698186E+03  0.86274332316E+03  0.12508946381E+03 0.  0.
         23    2    1    2    0    0  0.23416986196E+02 -0.56740069170E+02  0.44987581884E+03  0.46348406853E+03  0.93066850790E+02 0.  0.
          5    1    3    3  502    0  0.47182197929E+02 -0.12589786945E+01  0.25718931894E+03  0.26151780629E+03  0.41800000000E+01 0.  1.
         -5    1    3    3    0  502 -0.70599184125E+02  0.57999047864E+02  0.59422766293E+03  0.60122551687E+03  0.41800000000E+01 0.  1.
        -11    1    4    4    0    0  0.41711112138E+02 -0.62051046466E+02  0.42797890955E+03  0.43446069588E+03  0.00000000000E+00 0. -1.
         11    1    4    4    0    0 -0.18294125943E+02  0.53109772967E+01  0.21896909289E+02  0.29023372655E+02  0.00000000000E+00 0.  1.
</event>
<event>
 8    1  0.7026811E-009  0.9554688E+02  0.7561462E-02  0.1289949E+00
          2   -1    0    0  501    0  0.00000000000E+00  0.00000000000E+00  0.15389790685E+03  0.15389790685E+03  0.00000000000E+00 0. -1.
         -2   -1    0    0    0  501 -0.00000000000E+00 -0.00000000000E+00 -0.86236348958E+02  0.86236348958E+02  0.00000000000E+00 0.  1.
         25    2    1    2    0    0 -0.85098363969E+01 -0.32659894063E+02  0.17077568115E+02  0.13068419814E+03  0.12509048851E+03 0.  0.
         23    2    1    2    0    0  0.85098363969E+01  0.32659894063E+02  0.50583989777E+02  0.10945005767E+03  0.91002687358E+02 0.  0.
          5    1    3    3  502    0 -0.29203218411E+01  0.47133150851E+02  0.17642433500E+02  0.50584484267E+02  0.41800000000E+01 0. -1.
         -5    1    3    3    0  502 -0.55895145557E+01 -0.79793044913E+02 -0.56486538497E+00  0.80099713872E+02  0.41800000000E+01 0. -1.
        -11    1    4    4    0    0 -0.22268435176E+02  0.65093368895E+01 -0.18333857588E+02  0.29570001792E+02  0.00000000000E+00 0.  1.
         11    1    4    4    0    0  0.30778271573E+02  0.26150557173E+02  0.68917847365E+02  0.79880055877E+02  0.00000000000E+00 0. -1.
</event>
<event>
 8    1  0.7026811E-009  0.1159935E+03  0.7561462E-02  0.1249857E+00
          2   -1    0    0  501    0  0.00000000000E+00  0.00000000000E+00  0.92199023863E+02  0.92199023863E+02  0.00000000000E+00 0.  1.
         -2   -1    0    0    0  501 -0.00000000000E+00 -0.00000000000E+00 -0.22460605296E+03  0.22460605296E+03  0.00000000000E+00 0. -1.
         25    2    1    2    0    0 -0.44413083299E+02 -0.11476340053E+02  0.19016311410E+02  0.13458116383E+03  0.12508493598E+03 0.  0.
         23    2    1    2    0    0  0.44413083299E+02  0.11476340053E+02 -0.15142334051E+03  0.18222391299E+03  0.90400763644E+02 0.  0.
          5    1    3    3  502    0 -0.64667964497E+02  0.40669832433E+02  0.45230351294E+01  0.76641445375E+02  0.41800000000E+01 0.  1.
         -5    1    3    3    0  502  0.20254881198E+02 -0.52146172486E+02  0.14493276281E+02  0.57939718455E+02  0.41800000000E+01 0.  1.
        -11    1    4    4    0    0  0.38012203024E+01 -0.36401319726E+02 -0.73903765239E+02  0.82469823997E+02  0.00000000000E+00 0.  1.
         11    1    4    4    0    0  0.40611862997E+02  0.47877659778E+02 -0.77519575268E+02  0.99754088997E+02  0.00000000000E+00 0. -1.
</event>
<event>
 8    1  0.7026811E-009  0.4755813E+03  0.7561462E-02  0.1020357E+00
          1   -1    0    0  501    0  0.00000000000E+00  0.00000000000E+00  0.39939908925E+03  0.39939908925E+03  0.00000000000E+00 0. -1.
         -1   -1    0    0    0  501 -0.00000000000E+00 -0.00000000000E+00 -0.81629674651E+03  0.81629674651E+03  0.00000000000E+00 0.  1.
         25    2    1    2    0    0  0.36339656577E+03 -0.29689626932E+03 -0.53553518089E+03  0.72294592353E+03  0.12509364344E+03 0.  0.
         23    2    1    2    0    0 -0.36339656577E+03  0.29689626932E+03  0.11863752362E+03  0.49274991223E+03  0.92320936087E+02 0.  0.
          5    1    3    3  502    0  0.15748509264E+03 -0.64758153239E+02 -0.24083642802E+03  0.29498276268E+03  0.41800000000E+01 0.  1.
         -5    1    3    3    0  502  0.20591147313E+03 -0.23213811609E+03 -0.29469875286E+03  0.42796316085E+03  0.41800000000E+01 0.  1.
        -11    1    4    4    0    0 -0.11488584578E+03  0.73853893035E+02 -0.50094303416E+01  0.13666839236E+03  0.00000000000E+00 0.  1.
         11    1    4    4    0    0 -0.24851071998E+03  0.22304237629E+03  0.12364695396E+03  0.35608151987E+03  0.00000000000E+00 0. -1.
</event>
<event>
 8    1  0.7026811E-009  0.7597662E+02  0.7561462E-02  0.1340873E+00
         -2   -1    0    0    0  501 -0.00000000000E+00  0.00000000000E+00  0.14038183466E+03  0.14038183466E+03  0.00000000000E+00 0.  1.
          2   -1    0    0  501    0  0.00000000000E+00 -0.00000000000E+00 -0.11177545181E+03  0.11177545181E+03  0.00000000000E+00 0. -1.
         25    2    1    2    0    0 -0.79824929205E+00 -0.55855682536E+02  0.54935621803E+02  0.14760139102E+03  0.12509098134E+03 0.  0.
         23    2    1    2    0    0  0.79824929205E+00  0.55855682536E+02 -0.26329238955E+02  0.10455589545E+03  0.84369496712E+02 0.  0.
          5    1    3    3  502    0 -0.10693944784E+02 -0.84365982091E+01 -0.39168229476E+02  0.41679242372E+02  0.41800000000E+01 0.  1.
         -5    1    3    3    0  502  0.98956954916E+01 -0.47419084327E+02  0.94103851279E+02  0.10592214864E+03  0.41800000000E+01 0.  1.
        -11    1    4    4    0    0 -0.29186915652E+02  0.43821423718E+01 -0.33394894525E+02  0.44567905463E+02  0.00000000000E+00 0. -1.
         11    1    4    4    0    0  0.29985164944E+02  0.51473540164E+02  0.70656555706E+01  0.59987989985E+02  0.00000000000E+00 0.  1.
</event>
<event>
 8    1  0.7026811E-009  0.1221515E+03  0.7561462E-02  0.1239589E+00
          1   -1    0    0  501    0  0.00000000000E+00  0.00000000000E+00  0.35679862518E+03  0.35679862518E+03  0.00000000000E+00 0. -1.
         -1   -1    0    0    0  501 -0.00000000000E+00 -0.00000000000E+00 -0.45825894310E+02  0.45825894310E+02  0.00000000000E+00 0.  1.
         25    2    1    2    0    0 -0.63915047296E+02 -0.15745705325E+02  0.17541015903E+03  0.22527543034E+03  0.12508890885E+03 0.  0.
         23    2    1    2    0    0  0.63915047296E+02  0.15745705325E+02  0.13556257184E+03  0.17734908915E+03  0.93500952029E+02 0.  0.
          5    1    3    3  502    0  0.31804475308E+02 -0.12798894632E+02  0.91788229199E+02  0.98070830388E+02  0.41800000000E+01 0. -1.
         -5    1    3    3    0  502 -0.95719522605E+02 -0.29468106936E+01  0.83621929827E+02  0.12720459995E+03  0.41800000000E+01 0. -1.
        -11    1    4    4    0    0 -0.16092630424E+02  0.28657797483E+02  0.32300339738E+02  0.46082036172E+02  0.00000000000E+00 0.  1.
         11    1    4    4    0    0  0.80007677720E+02 -0.12912092158E+02  0.10326223210E+03  0.13126705298E+03  0.00000000000E+00 0. -1.
</event>
<event>
 8    1  0.7026811E-009  0.2058146E+03  0.7561462E-02  0.1144924E+00
         -2   -1    0    0    0  501 -0.00000000000E+00  0.00000000000E+00  0.48794660490E+02  0.48794660490E+02  0.00000000000E+00 0.  1.
          2   -1    0    0  501    0  0.00000000000E+00 -0.00000000000E+00 -0.13488544238E+04  0.13488544238E+04  0.00000000000E+00 0. -1.
         25    2    1    2    0    0  0.18504750952E+03 -0.27494832242E+02 -0.10466669730E+04  0.10705874896E+04  0.12508906430E+03 0.  0.
         23    2    1    2    0    0 -0.18504750952E+03  0.27494832242E+02 -0.25339279031E+03  0.32706159465E+03  0.88106946032E+02 0.  0.
          5    1    3    3  502    0  0.60879033819E+02  0.48085017294E+02 -0.30041687718E+03  0.31030017425E+03  0.41800000000E+01 0. -1.
         -5    1    3    3    0  502  0.12416847570E+03 -0.75579849535E+02 -0.74625009582E+03  0.76028731538E+03  0.41800000000E+01 0. -1.
        -11    1    4    4    0    0 -0.11197961257E+03  0.28076975434E+02 -0.84581504479E+02  0.14311457326E+03  0.00000000000E+00 0.  1.
         11    1    4    4    0    0 -0.73067896950E+02 -0.58214319244E+00 -0.16881128583E+03  0.18394702139E+03  0.00000000000E+00 0. -1.
</event>
<event>
 8    1  0.7026811E-009  0.1116475E+03  0.7561462E-02  0.1257549E+00
         -2   -1    0    0    0  501 -0.00000000000E+00  0.00000000000E+00  0.21327966878E+03  0.21327966878E+03  0.00000000000E+00 0.  1.
          2   -1    0    0  501    0  0.00000000000E+00 -0.00000000000E+00 -0.10414101869E+03  0.10414101869E+03  0.00000000000E+00 0. -1.
         25    2    1    2    0    0 -0.71832131816E+02 -0.56647040047E+01  0.13470724538E+03  0.19744709229E+03  0.12508944105E+03 0.  0.
         23    2    1    2    0    0  0.71832131816E+02  0.56647040047E+01 -0.25568595281E+02  0.11997359518E+03  0.92455213178E+02 0.  0.
          5    1    3    3  502    0 -0.45063782185E+02 -0.44126546751E+02  0.97877820450E+01  0.63962251918E+02  0.41800000000E+01 0. -1.
         -5    1    3    3    0  502 -0.26768349631E+02  0.38461842746E+02  0.12491946333E+03  0.13348484037E+03  0.41800000000E+01 0. -1.
        -11    1    4    4    0    0  0.49644588911E+02  0.45565327845E+02 -0.30666415091E+02  0.74035216785E+02  0.00000000000E+00 0. -1.
         11    1    4    4    0    0  0.22187542905E+02 -0.39900623841E+02  0.50978198109E+01  0.45938378398E+02  0.00000000000E+00 0.  1.
</event>
<event>
 8    1  0.7026811E-009  0.7065115E+02  0.7561462E-02  0.1357893E+00
          2   -1    0    0  501    0  0.00000000000E+00  0.00000000000E+00  0.27876235727E+02  0.27876235727E+02  0.00000000000E+00 0. -1.
         -2   -1    0    0    0  501 -0.00000000000E+00 -0.00000000000E+00 -0.47870464985E+03  0.47870464985E+03  0.00000000000E+00 0.  1.
         25    2    1    2    0    0  0.22383270099E+02 -0.21984232678E+02 -0.32218866803E+03  0.34704173255E+03  0.12509240209E+03 0.  0.
         23    2    1    2    0    0 -0.22383270099E+02  0.21984232678E+02 -0.12863974609E+03  0.15953915303E+03  0.88995729147E+02 0.  0.
          5    1    3    3  502    0  0.84810702538E+01 -0.42775582510E+02 -0.31840324989E+03  0.32140283283E+03  0.41800000000E+01 0. -1.
         -5    1    3    3    0  502  0.13902199845E+02  0.20791349832E+02 -0.37854181381E+01  0.25638899720E+02  0.41800000000E+01 0. -1.
        -11    1    4    4    0    0 -0.29042808103E+01 -0.22964966023E+02 -0.10031607973E+03  0.10295212656E+03  0.00000000000E+00 0.  1.
         11    1    4    4    0    0 -0.19478989288E+02  0.44949198701E+02 -0.28323666363E+02  0.56587026462E+02  0.00000000000E+00 0. -1.
</event>
<event>
 8    1  0.7026811E-009  0.9987100E+02  0.7561462E-02  0.1280567E+00
         -4   -1    0    0    0  501 -0.00000000000E+00  0.00000000000E+00  0.78061468869E+02  0.78061468869E+02  0.00000000000E+00 0.  1.
          4   -1    0    0  501    0  0.00000000000E+00 -0.00000000000E+00 -0.17631860186E+03  0.17631860186E+03  0.00000000000E+00 0. -1.
         25    2    1    2    0    0 -0.90670870324E+01 -0.35755952016E+02 -0.17806750924E+02  0.13162767643E+03  0.12509222459E+03 0.  0.
         23    2    1    2    0    0  0.90670870324E+01  0.35755952016E+02 -0.80450382064E+02  0.12275239429E+03  0.85059897471E+02 0.  0.
          5    1    3    3  502    0 -0.15185545271E+02 -0.78695382152E+02 -0.31099700685E+02  0.86071062151E+02  0.41800000000E+01 0.  1.
         -5    1    3    3    0  502  0.61184582385E+01  0.42939430135E+02  0.13292949761E+02  0.45556614283E+02  0.41800000000E+01 0.  1.
        -11    1    4    4    0    0  0.37917727269E+02  0.17422478694E+02 -0.78025903202E+02  0.88483548615E+02  0.00000000000E+00 0. -1.
         11    1    4    4    0    0 -0.28850640237E+02  0.18333473323E+02 -0.24244788621E+01  0.34268845675E+02  0.00000000000E+00 0.  1.
</event>
<event>
 8    1  0.7026811E-009  0.1507711E+03  0.7561462E-02  0.1199529E+00
         -2   -1    0    0    0  501 -0.00000000000E+00  0.00000000000E+00  0.11012082851E+03  0.11012082851E+03  0.00000000000E+00 0.  1.
          2   -1    0    0  501    0  0.00000000000E+00 -0.00000000000E+00 -0.23156815986E+03  0.23156815986E+03  0.00000000000E+00 0. -1.
         25    2    1    2    0    0 -0.54662805680E+02 -0.99198357035E+02 -0.95386167380E+02  0.19383887178E+03  0.12508657371E+03 0.  0.
         23    2    1    2    0    0  0.54662805680E+02  0.99198357035E+02 -0.26061163965E+02  0.14785011659E+03  0.91390023230E+02 0.  0.
          5    1    3    3  502    0 -0.92634641929E+02 -0.60140152911E+02 -0.81910438061E+02  0.13756746396E+03  0.41800000000E+01 0. -1.
         -5    1    3    3    0  502  0.37971836249E+02 -0.39058204124E+02 -0.13475729319E+02  0.56271407821E+02  0.41800000000E+01 0. -1.
        -11    1    4    4    0    0 -0.85130089479E+01  0.63001113817E+02 -0.38002973725E+02  0.74066440953E+02  0.00000000000E+00 0. -1.
         11    1    4    4    0    0  0.63175814628E+02  0.36197243218E+02  0.11941809760E+02  0.73783675639E+02  0.00000000000E+00 0.  1.
</event>
<event>
 8    1  0.7026811E-009  0.1027729E+03  0.7561462E-02  0.1274571E+00
         -2   -1    0    0    0  501 -0.00000000000E+00  0.00000000000E+00  0.33711277080E+02  0.33711277080E+02  0.00000000000E+00 0.  1.
          2   -1    0    0  501    0  0.00000000000E+00 -0.00000000000E+00 -0.50267032850E+03  0.50267032850E+03  0.00000000000E+00 0. -1.
         25    2    1    2    0    0 -0.25674350862E+02  0.66975515802E+02 -0.26259008579E+03  0.29957656214E+03  0.12509065280E+03 0.  0.
         23    2    1    2    0    0  0.25674350862E+02 -0.66975515802E+02 -0.20636896563E+03  0.23680504344E+03  0.91343235193E+02 0.  0.
          5    1    3    3  502    0 -0.47061142874E+02  0.74426804483E+02 -0.91925546942E+02  0.12736514034E+03  0.41800000000E+01 0.  1.
         -5    1    3    3    0  502  0.21386792012E+02 -0.74512886811E+01 -0.17066453885E+03  0.17221142180E+03  0.41800000000E+01 0.  1.
        -11    1    4    4    0    0  0.29575286472E+02 -0.24073076800E+01 -0.14373019694E+03  0.14676124220E+03  0.00000000000E+00 0. -1.
         11    1    4    4    0    0 -0.39009356104E+01 -0.64568208122E+02 -0.62638768686E+02  0.90043801237E+02  0.00000000000E+00 0.  1.
</event>
<event>
 8    1  0.7026811E-009  0.1105782E+03  0.7561462E-02  0.1259503E+00
          1   -1    0    0  501    0  0.00000000000E+00  0.00000000000E+00  0.41400171338E+03  0.41400171338E+03  0.00000000000E+00 0. -1.
         -1   -1    0    0    0  501 -0.00000000000E+00 -0.00000000000E+00 -0.63037918137E+02  0.63037918137E+02  0.00000000000E+00 0.  1.
         25    2    1    2    0    0  0.72100286417E+02  0.68825827662E+02  0.28825210014E+03  0.32965573719E+03  0.12509270953E+03 0.  0.
         23    2    1    2    0    0 -0.72100286417E+02 -0.68825827662E+02  0.62711695112E+02  0.14738389433E+03  0.88621722780E+02 0.  0.
          5    1    3    3  502    0  0.18905265392E+02  0.17551427648E+02 -0.55172622585E+01  0.26709066903E+02  0.41800000000E+01 0. -1.
         -5    1    3    3    0  502  0.53195021026E+02  0.51274400014E+02  0.29376936239E+03  0.30294667029E+03  0.41800000000E+01 0. -1.
        -11    1    4    4    0    0  0.96669242711E+01 -0.28014706825E+02  0.45638782712E+02  0.54416649205E+02  0.00000000000E+00 0. -1.
         11    1    4    4    0    0 -0.81767210689E+02 -0.40811120837E+02  0.17072912401E+02  0.92967245122E+02  0.00000000000E+00 0.  1.
</event>
<event>
 8    1  0.7026811E-009  0.1143807E+03  0.7561462E-02  0.1252666E+00
          3   -1    0    0  501    0  0.00000000000E+00  0.00000000000E+00  0.17226096884E+03  0.17226096884E+03  0.00000000000E+00 0. -1.
         -3   -1    0    0    0  501 -0.00000000000E+00 -0.00000000000E+00 -0.17152716499E+03  0.17152716499E+03  0.00000000000E+00 0.  1.
         25    2    1    2    0    0  0.41372445869E+02 -0.87285723861E+02 -0.90518202773E+02  0.18213080522E+03  0.12509040054E+03 0.  0.
         23    2    1    2    0    0 -0.41372445869E+02  0.87285723861E+02  0.91252006626E+02  0.16165732861E+03  0.92063490658E+02 0.  0.
          5    1    3    3  502    0  0.14927622907E+02 -0.78538072450E+02 -0.11812228741E+03  0.14269341236E+03  0.41800000000E+01 0. -1.
         -5    1    3    3    0  502  0.26444822962E+02 -0.87476514106E+01  0.27604084632E+02  0.39437392853E+02  0.41800000000E+01 0. -1.
        -11    1    4    4    0    0 -0.14366226800E+02  0.92010802316E+02  0.96095862847E+02  0.13381625862E+03  0.00000000000E+00 0. -1.
         11    1    4    4    0    0 -0.27006219069E+02 -0.47250784553E+01 -0.48438562217E+01  0.27841069985E+02  0.00000000000E+00 0.  1.
</event>
<event>
 8    1  0.7026811E-009  0.7454651E+02  0.7561462E-02  0.1345281E+00
          2   -1    0    0  501    0  0.00000000000E+00  0.00000000000E+00  0.17407261543E+03  0.17407261543E+03  0.00000000000E+00 0. -1.
         -2   -1    0    0    0  501 -0.00000000000E+00 -0.00000000000E+00 -0.86723633708E+02  0.86723633708E+02  0.00000000000E+00 0.  1.
         25    2    1    2    0    0  0.44515106357E+01 -0.26619656647E+02 -0.87454597701E+01  0.12826974395E+03  0.12509285383E+03 0.  0.
         23    2    1    2    0    0 -0.44515106357E+01  0.26619656647E+02  0.96094441491E+02  0.13252650518E+03  0.87182055630E+02 0.  0.
          5    1    3    3  502    0 -0.45739213145E+02 -0.41385943218E+02 -0.33414106663E+02  0.70276929637E+02  0.41800000000E+01 0.  1.
         -5    1    3    3    0  502  0.50190723781E+02  0.14766286571E+02  0.24668646893E+02  0.57992814316E+02  0.41800000000E+01 0.  1.
        -11    1    4    4    0    0 -0.13221798850E+02  0.19105368929E+02  0.11114945493E+03  0.11355189307E+03  0.00000000000E+00 0. -1.
         11    1    4    4    0    0  0.87702882143E+01  0.75142877180E+01 -0.15055013443E+02  0.18974612118E+02  0.00000000000E+00 0.  1.
</event>
<event>
 8    1  0.7026811E-009  0.9819177E+02  0.7561462E-02  0.1284145E+00
         -2   -1    0    0    0  501 -0.00000000000E+00  0.00000000000E+00  0.11581124313E+04  0.11581124313E+04  0.00000000000E+00 0.  1.
          2   -1    0    0  501    0  0.00000000000E+00 -0.00000000000E+00 -0.36180834525E+02  0.36180834525E+02  0.00000000000E+00 0. -1.
         25    2    1    2    0    0 -0.46668706438E+01  0.13197175279E+02  0.10861471013E+04  0.10934177991E+04  0.12510400722E+03 0.  0.
         23    2    1    2    0    0  0.46668706438E+01 -0.13197175279E+02  0.35784495400E+02  0.10087546664E+03  0.93270491275E+02 0.  0.
          5    1    3    3  502    0 -0.44324467467E+02 -0.21758969324E+02  0.21410171844E+03  0.21976152848E+03  0.41800000000E+01 0.  1.
         -5    1    3    3    0  502  0.39657596823E+02  0.34956144603E+02  0.87204538289E+03  0.87365627065E+03  0.41800000000E+01 0.  1.
        -11    1    4    4    0    0 -0.39395380726E+02  0.14244271387E+02  0.10769038010E+02  0.43253525516E+02  0.00000000000E+00 0. -1.
         11    1    4    4    0    0  0.44062251370E+02 -0.27441446666E+02  0.25015457390E+02  0.57621941128E+02  0.00000000000E+00 0.  1.
</event>
<event>
 8    1  0.7026811E-009  0.1423877E+03  0.7561462E-02  0.1210152E+00
         -1   -1    0    0    0  501 -0.00000000000E+00  0.00000000000E+00  0.90306085045E+02  0.90306085045E+02  0.00000000000E+00 0.  1.
          1   -1    0    0  501    0  0.00000000000E+00 -0.00000000000E+00 -0.32632653072E+03  0.32632653072E+03  0.00000000000E+00 0. -1.
         25    2    1    2    0    0 -0.68523191086E+02 -0.99960549500E+02 -0.18917306535E+03  0.25714102544E+03  0.12509004411E+03 0.  0.
         23    2    1    2    0    0  0.68523191086E+02  0.99960549500E+02 -0.46847380319E+02  0.15949159032E+03  0.92495141324E+02 0.  0.
          5    1    3    3  502    0 -0.90862748652E+01  0.13018199470E+02  0.10948043328E+02  0.19732358224E+02  0.41800000000E+01 0.  1.
         -5    1    3    3    0  502 -0.59436916221E+02 -0.11297874897E+03 -0.20012110868E+03  0.23740866721E+03  0.41800000000E+01 0.  1.
        -11    1    4    4    0    0  0.62052382751E+02  0.11138373856E+03 -0.59994404081E+02  0.14091190135E+03  0.00000000000E+00 0.  1.
         11    1    4    4    0    0  0.64708083354E+01 -0.11423189057E+02  0.13147023762E+02  0.18579688979E+02  0.00000000000E+00 0. -1.
</event>
<event>
 8    1  0.7026811E-009  0.7724343E+02  0.7561462E-02  0.1337061E+00
          2   -1    0    0  501    0  0.00000000000E+00  0.00000000000E+00  0.15487358309E+03  0.15487358309E+03  0.00000000000E+00 0. -1.
         -2   -1    0    0    0  501 -0.00000000000E+00 -0.00000000000E+00 -0.78092445446E+02  0.78092445446E+02  0.00000000000E+00 0.  1.
         25    2    1    2    0    0 -0.15734703857E+02  0.48591204223E+01  0.65271571283E+02  0.14205395611E+03  0.12509099277E+03 0.  0.
         23    2    1    2    0    0  0.15734703857E+02 -0.48591204223E+01  0.11509566356E+02  0.90912072421E+02  0.88664213962E+02 0.  0.
          5    1    3    3  502    0  0.27982332249E+02 -0.44044700003E+02  0.54284134391E+02  0.75413434897E+02  0.41800000000E+01 0.  1.
         -5    1    3    3    0  502 -0.43717036106E+02  0.48903820425E+02  0.10987436892E+02  0.66640521213E+02  0.41800000000E+01 0.  1.
        -11    1    4    4    0    0  0.14345245945E+02 -0.18100221738E+02 -0.35334403513E+02  0.42212843778E+02  0.00000000000E+00 0.  1.
         11    1    4    4    0    0  0.13894579128E+01  0.13241101316E+02  0.46843969869E+02  0.48699228643E+02  0.00000000000E+00 0. -1.
</event>
<event>
 8    1  0.7026811E-009  0.8262227E+02  0.7561462E-02  0.1321770E+00
         -1   -1    0    0    0  501 -0.00000000000E+00  0.00000000000E+00  0.29900833783E+03  0.29900833783E+03  0.00000000000E+00 0.  1.
          1   -1    0    0  501    0  0.00000000000E+00 -0.00000000000E+00 -0.38615812084E+02  0.38615812084E+02  0.00000000000E+00 0. -1.
         25    2    1    2    0    0 -0.16938965709E+02 -0.94800340775E+01  0.14538208827E+03  0.19276912516E+03  0.12508870620E+03 0.  0.
         23    2    1    2    0    0  0.16938965709E+02  0.94800340775E+01  0.11501043747E+03  0.14485502475E+03  0.85899812937E+02 0.  0.
          5    1    3    3  502    0 -0.19619816972E+02 -0.43085954699E+02  0.43751996561E+01  0.47727889985E+02  0.41800000000E+01 0.  1.
         -5    1    3    3    0  502  0.26808512637E+01  0.33605920622E+02  0.14100688862E+03  0.14504123518E+03  0.41800000000E+01 0.  1.
        -11    1    4    4    0    0 -0.91964938255E+00  0.44461179387E+02  0.83095277037E+02  0.94246842352E+02  0.00000000000E+00 0. -1.
         11    1    4    4    0    0  0.17858615091E+02 -0.34981145309E+02  0.31915160436E+02  0.50608182400E+02  0.00000000000E+00 0.  1.
</event>
<event>
 8    1  0.7026811E-009  0.9536897E+02  0.7561462E-02  0.1290347E+00
         -4   -1    0    0    0  501 -0.00000000000E+00  0.00000000000E+00  0.18759090811E+03  0.18759090811E+03  0.00000000000E+00 0.  1.
          4   -1    0    0  501    0  0.00000000000E+00 -0.00000000000E+00 -0.92022509209E+02  0.92022509209E+02  0.00000000000E+00 0. -1.
         25    2    1    2    0    0 -0.10558984663E+02 -0.73392902135E+02  0.60962057365E+02  0.15767460697E+03  0.12508756534E+03 0.  0.
         23    2    1    2    0    0  0.10558984663E+02  0.73392902135E+02  0.34606341532E+02  0.12193881035E+03  0.90407214061E+02 0.  0.
          5    1    3    3  502    0 -0.23898450614E+02  0.31232314334E+01  0.74775565441E+02  0.78674952198E+02  0.41800000000E+01 0.  1.
         -5    1    3    3    0  502  0.13339465951E+02 -0.76516133568E+02 -0.13813508076E+02  0.78999654768E+02  0.41800000000E+01 0.  1.
        -11    1    4    4    0    0  0.29335273673E+02  0.54287434065E+02 -0.16816735094E+02  0.63956910166E+02  0.00000000000E+00 0. -1.
         11    1    4    4    0    0 -0.18776289010E+02  0.19105468070E+02  0.51423076626E+02  0.57981900183E+02  0.00000000000E+00 0.  1.
</event>
<event>
 8    1  0.7026811E-009  0.1303431E+03  0.7561462E-02  0.1226948E+00
         -2   -1    0    0    0  501 -0.00000000000E+00  0.00000000000E+00  0.39416159231E+02  0.39416159231E+02  0.00000000000E+00 0.  1.
          2   -1    0    0  501    0  0.00000000000E+00 -0.00000000000E+00 -0.73677374935E+03  0.73677374935E+03  0.00000000000E+00 0. -1.
         25    2    1    2    0    0  0.32285299339E+02  0.12478141928E+03 -0.42372304463E+03  0.46021800417E+03  0.12508656868E+03 0.  0.
         23    2    1    2    0    0 -0.32285299339E+02 -0.12478141928E+03 -0.27363454550E+03  0.31597190441E+03  0.91376346713E+02 0.  0.
          5    1    3    3  502    0  0.28217300211E+02  0.85915342010E+02 -0.10313356776E+03  0.13722852190E+03  0.41800000000E+01 0. -1.
         -5    1    3    3    0  502  0.40679991282E+01  0.38866077271E+02 -0.32058947687E+03  0.32298948227E+03  0.41800000000E+01 0. -1.
        -11    1    4    4    0    0 -0.34820023337E+02 -0.98861424793E+02 -0.11657010745E+03  0.15676289513E+03  0.00000000000E+00 0.  1.
         11    1    4    4    0    0  0.25347239978E+01 -0.25919994488E+02 -0.15706443804E+03  0.15920900928E+03  0.00000000000E+00 0. -1.
</event>
<event>
 8    1  0.7026811E-009  0.9521932E+02  0.7561462E-02  0.1290683E+00
          3   -1    0    0  501    0  0.00000000000E+00  0.00000000000E+00  0.11879255176E+03  0.11879255176E+03  0.00000000000E+00 0. -1.
         -3   -1    0    0    0  501 -0.00000000000E+00 -0.00000000000E+00 -0.14206459456E+03  0.14206459456E+03  0.00000000000E+00 0.  1.
         25    2    1    2    0    0 -0.41274695456E+02 -0.34943237440E+02 -0.59702730876E+02  0.14878404853E+03  0.12509055398E+03 0.  0.
         23    2    1    2    0    0  0.41274695456E+02  0.34943237440E+02  0.36430688067E+02  0.11207309779E+03  0.91151269257E+02 0.  0.
          5    1    3    3  502    0  0.10465104745E+02  0.24050064718E+02 -0.64808106673E+02  0.70039182754E+02  0.41800000000E+01 0.  1.
         -5    1    3    3    0  502 -0.51739800201E+02 -0.58993302158E+02  0.51053757971E+01  0.78744865778E+02  0.41800000000E+01 0.  1.
        -11    1    4    4    0    0  0.58973997188E+02  0.20433805261E+02 -0.71765393355E+01  0.62824958883E+02  0.00000000000E+00 0.  1.
         11    1    4    4    0    0 -0.17699301732E+02  0.14509432178E+02  0.43607227403E+02  0.49248138906E+02  0.00000000000E+00 0. -1.
</event>
<event>
 8    1  0.7026811E-009  0.1223919E+03  0.7561462E-02  0.1239202E+00
         -2   -1    0    0    0  501 -0.00000000000E+00  0.00000000000E+00  0.28048013759E+02  0.28048013759E+02  0.00000000000E+00 0. -1.
          2   -1    0    0  501    0  0.00000000000E+00 -0.00000000000E+00 -0.77211559577E+03  0.77211559577E+03  0.00000000000E+00 0.  1.
         25    2    1    2    0    0  0.17358494885E+02  0.48904700327E+02 -0.18327969404E+03  0.22788665335E+03  0.12509154035E+03 0.  0.
         23    2    1    2    0    0 -0.17358494885E+02 -0.48904700327E+02 -0.56078788797E+03  0.57227695618E+03  0.10161137842E+03 0.  0.
          5    1    3    3  502    0  0.54109183338E+02  0.71194637791E+02 -0.14372552592E+03  0.16932507012E+03  0.41800000000E+01 0. -1.
         -5    1    3    3    0  502 -0.36750688454E+02 -0.22289937464E+02 -0.39554168123E+02  0.58561583226E+02  0.41800000000E+01 0. -1.
        -11    1    4    4    0    0  0.21155092588E+02  0.22540927076E+02 -0.11098715474E+03  0.11521189111E+03  0.00000000000E+00 0.  1.
         11    1    4    4    0    0 -0.38513587473E+02 -0.71445627403E+02 -0.44980073323E+03  0.45706506507E+03  0.00000000000E+00 0. -1.
</event>
<event>
 8    1  0.7026811E-009  0.9330593E+02  0.7561462E-02  0.1295038E+00
         -2   -1    0    0    0  501 -0.00000000000E+00  0.00000000000E+00  0.27834187268E+02  0.27834187268E+02  0.00000000000E+00 0.  1.
          2   -1    0    0  501    0  0.00000000000E+00 -0.00000000000E+00 -0.66332699446E+03  0.66332699446E+03  0.00000000000E+00 0. -1.
         25    2    1    2    0    0 -0.56545079692E+02 -0.33107192609E+02 -0.46515590303E+03  0.48611867293E+03  0.12509163766E+03 0.  0.
         23    2    1    2    0    0  0.56545079692E+02  0.33107192609E+02 -0.17033690416E+03  0.20504250879E+03  0.93457676266E+02 0.  0.
          5    1    3    3  502    0 -0.43505037969E+02 -0.38297994403E+02 -0.46766439131E+03  0.47126094683E+03  0.41800000000E+01 0.  1.
         -5    1    3    3    0  502 -0.13040041723E+02  0.51908017945E+01  0.25084882870E+01  0.14857726101E+02  0.41800000000E+01 0.  1.
        -11    1    4    4    0    0  0.70898848900E+02 -0.70139008570E+01 -0.99498267491E+02  0.12237543387E+03  0.00000000000E+00 0.  1.
         11    1    4    4    0    0 -0.14353769209E+02  0.40121093466E+02 -0.70838636670E+02  0.82667074925E+02  0.00000000000E+00 0. -1.
</event>
<event>
 8    1  0.7026811E-009  0.1419269E+03  0.7561462E-02  0.1210759E+00
         -4   -1    0    0    0  501 -0.00000000000E+00  0.00000000000E+00  0.13192441788E+03  0.13192441788E+03  0.00000000000E+00 0.  1.
          4   -1    0    0  501    0  0.00000000000E+00 -0.00000000000E+00 -0.20462702360E+03  0.20462702360E+03  0.00000000000E+00 0. -1.
         25    2    1    2    0    0 -0.10726646269E+03  0.43225603682E+02 -0.74533693324E+02  0.18594910875E+03  0.12508897942E+03 0.  0.
         23    2    1    2    0    0  0.10726646269E+03 -0.43225603682E+02  0.18310875990E+01  0.15060233273E+03  0.96452905152E+02 0.  0.
          5    1    3    3  502    0 -0.27561351626E+02 -0.37120941860E+02 -0.53373607796E+02  0.70737591401E+02  0.41800000000E+01 0. -1.
         -5    1    3    3    0  502 -0.79705111060E+02  0.80346545542E+02 -0.21160085529E+02  0.11521151735E+03  0.41800000000E+01 0. -1.
        -11    1    4    4    0    0  0.31499541530E+02 -0.36352794317E+02  0.42631427484E+02  0.64274297978E+02  0.00000000000E+00 0.  1.
         11    1    4    4    0    0  0.75766921156E+02 -0.68728093646E+01 -0.40800339885E+02  0.86328034756E+02  0.00000000000E+00 0. -1.
</event>
<event>
 8    1  0.7026811E-009  0.1015194E+03  0.7561462E-02  0.1277133E+00
          1   -1    0    0  501    0  0.00000000000E+00  0.00000000000E+00  0.20352861514E+03  0.20352861514E+03  0.00000000000E+00 0. -1.
         -1   -1    0    0    0  501 -0.00000000000E+00 -0.00000000000E+00 -0.79399046386E+02  0.79399046386E+02  0.00000000000E+00 0.  1.
         25    2    1    2    0    0  0.46052535057E+02  0.30371034657E+02  0.12198171073E+03  0.18322016098E+03  0.12508738507E+03 0.  0.
         23    2    1    2    0    0 -0.46052535057E+02 -0.30371034657E+02  0.21478580254E+01  0.99707500550E+02  0.83028529076E+02 0.  0.
          5    1    3    3  502    0 -0.65775036013E+01  0.61526067517E+02  0.21736819727E+02  0.65716681821E+02  0.41800000000E+01 0.  1.
         -5    1    3    3    0  502  0.52630038658E+02 -0.31155032860E+02  0.10024489100E+03  0.11750347916E+03  0.41800000000E+01 0.  1.
        -11    1    4    4    0    0 -0.51119560066E+02 -0.22761590656E+01 -0.27881904639E+02  0.58273415274E+02  0.00000000000E+00 0.  1.
         11    1    4    4    0    0  0.50670250090E+01 -0.28094875591E+02  0.30029762664E+02  0.41434085276E+02  0.00000000000E+00 0. -1.
</event>
<event>
 8    1  0.7026811E-009  0.8564081E+02  0.7561462E-02  0.1313765E+00
          2   -1    0    0  501    0  0.00000000000E+00  0.00000000000E+00  0.59927249818E+02  0.59927249818E+02  0.00000000000E+00 0. -1.
         -2   -1    0    0    0  501 -0.00000000000E+00 -0.00000000000E+00 -0.20768305154E+03  0.20768305154E+03  0.00000000000E+00 0.  1.
         25    2    1    2    0    0  0.25704069340E+02 -0.71151999053E+01 -0.88001934784E+02  0.15524532855E+03  0.12508175830E+03 0.  0.
         23    2    1    2    0    0 -0.25704069340E+02  0.71151999053E+01 -0.59753866941E+02  0.11236497281E+03  0.91345701873E+02 0.  0.
          5    1    3    3  502    0  0.84776236705E+01  0.41003406279E+02 -0.94606109057E+02  0.10354196106E+03  0.41800000000E+01 0. -1.
         -5    1    3    3    0  502  0.17226445669E+02 -0.48118606184E+02  0.66041742728E+01  0.51703367486E+02  0.41800000000E+01 0. -1.
        -11    1    4    4    0    0  0.25313460925E+02  0.90131178367E+01 -0.54848887740E+02  0.61077066756E+02  0.00000000000E+00 0.  1.
         11    1    4    4    0    0 -0.51017530265E+02 -0.18979179315E+01 -0.49049792004E+01  0.51287906058E+02  0.00000000000E+00 0. -1.
</event>
<event>
 8    1  0.7026811E-009  0.1140783E+03  0.7561462E-02  0.1253199E+00
         -1   -1    0    0    0  501 -0.00000000000E+00  0.00000000000E+00  0.23983271279E+03  0.23983271279E+03  0.00000000000E+00 0.  1.
          1   -1    0    0  501    0  0.00000000000E+00 -0.00000000000E+00 -0.72797853862E+02  0.72797853862E+02  0.00000000000E+00 0. -1.
         25    2    1    2    0    0 -0.32028981183E+02  0.60342841164E+02  0.13050934205E+03  0.19325727962E+03  0.12509425905E+03 0.  0.
         23    2    1    2    0    0  0.32028981183E+02 -0.60342841164E+02  0.36525516885E+02  0.11937328704E+03  0.90822652236E+02 0.  0.
          5    1    3    3  502    0 -0.74048923702E+02  0.57529576207E+02  0.11438853079E+03  0.14796994160E+03  0.41800000000E+01 0.  1.
         -5    1    3    3    0  502  0.42019942519E+02  0.28132649571E+01  0.16120811252E+02  0.45287338014E+02  0.41800000000E+01 0.  1.
        -11    1    4    4    0    0  0.17409033427E+02 -0.71495068088E+02 -0.52082836267E+01  0.73768187073E+02  0.00000000000E+00 0. -1.
         11    1    4    4    0    0  0.14619947756E+02  0.11152226923E+02  0.41733800511E+02  0.45605099965E+02  0.00000000000E+00 0.  1.
</event>
<event>
 8    1  0.7026811E-009  0.1994405E+03  0.7561462E-02  0.1150212E+00
          1   -1    0    0  501    0  0.00000000000E+00  0.00000000000E+00  0.14403200175E+03  0.14403200175E+03  0.00000000000E+00 0. -1.
         -1   -1    0    0    0  501 -0.00000000000E+00 -0.00000000000E+00 -0.31529699161E+03  0.31529699161E+03  0.00000000000E+00 0.  1.
         25    2    1    2    0    0  0.15624524465E+03  0.82261504164E+02 -0.14159456704E+03  0.25860472378E+03  0.12509136744E+03 0.  0.
         23    2    1    2    0    0 -0.15624524465E+03 -0.82261504164E+02 -0.29670422828E+02  0.20072426958E+03  0.90721369395E+02 0.  0.
          5    1    3    3  502    0 -0.54664219286E+01  0.34846311663E+02  0.41545278190E+01  0.35761427637E+02  0.41800000000E+01 0. -1.
         -5    1    3    3    0  502  0.16171166658E+03  0.47415192500E+02 -0.14574909486E+03  0.22284329615E+03  0.41800000000E+01 0. -1.
        -11    1    4    4    0    0 -0.53860724243E+01  0.14566358274E+02  0.81190188595E+01  0.17524469657E+02  0.00000000000E+00 0.  1.
         11    1    4    4    0    0 -0.15085917222E+03 -0.96827862438E+02 -0.37789441688E+02  0.18319979992E+03  0.00000000000E+00 0. -1.
</event>
<event>
 8    1  0.7026811E-009  0.1136543E+03  0.7561462E-02  0.1253949E+00
          2   -1    0    0  501    0  0.00000000000E+00  0.00000000000E+00  0.13184428530E+03  0.13184428530E+03  0.00000000000E+00 0. -1.
         -2   -1    0    0    0  501 -0.00000000000E+00 -0.00000000000E+00 -0.13467476826E+03  0.13467476826E+03  0.00000000000E+00 0.  1.
         25    2    1    2    0    0  0.36235414222E+02 -0.45150962090E+02 -0.52813431064E+02  0.14760912986E+03  0.12509029577E+03 0.  0.
         23    2    1    2    0    0 -0.36235414222E+02  0.45150962090E+02  0.49982948096E+02  0.11890992370E+03  0.91047571263E+02 0.  0.
          5    1    3    3  502    0  0.50966481452E+02  0.18295027944E+02 -0.61177854547E+02  0.81807655914E+02  0.41800000000E+01 0.  1.
         -5    1    3    3    0  502 -0.14731067230E+02 -0.63445990034E+02  0.83644234835E+01  0.65801473945E+02  0.41800000000E+01 0.  1.
        -11    1    4    4    0    0 -0.46906864695E+02 -0.12945756853E+02  0.25861197040E+02  0.55105789971E+02  0.00000000000E+00 0.  1.
         11    1    4    4    0    0  0.10671450473E+02  0.58096718943E+02  0.24121751056E+02  0.63804133731E+02  0.00000000000E+00 0. -1.
</event>
<event>
 8    1  0.7026811E-009  0.1022939E+03  0.7561462E-02  0.1275545E+00
          1   -1    0    0  501    0  0.00000000000E+00  0.00000000000E+00  0.16781893135E+03  0.16781893135E+03  0.00000000000E+00 0. -1.
         -1   -1    0    0    0  501 -0.00000000000E+00 -0.00000000000E+00 -0.16502196189E+03  0.16502196189E+03  0.00000000000E+00 0.  1.
         25    2    1    2    0    0 -0.10751803996E+01  0.57495330090E+02  0.11251496832E+03  0.17779300803E+03  0.12507544368E+03 0.  0.
         23    2    1    2    0    0  0.10751803996E+01 -0.57495330090E+02 -0.10971799886E+03  0.15504788522E+03  0.93246653778E+02 0.  0.
          5    1    3    3  502    0 -0.47546607853E+02  0.21775340450E+02  0.10650417681E+03  0.11872429174E+03  0.41800000000E+01 0.  1.
         -5    1    3    3    0  502  0.46471427453E+02  0.35719989641E+02  0.60107915077E+01  0.59068716289E+02  0.41800000000E+01 0.  1.
        -11    1    4    4    0    0 -0.10756868645E+02  0.15802695895E+02  0.37172803795E+01  0.19474434370E+02  0.00000000000E+00 0. -1.
         11    1    4    4    0    0  0.11832049044E+02 -0.73298025986E+02 -0.11343527924E+03  0.13557345085E+03  0.00000000000E+00 0.  1.
</event>
<event>
 8    1  0.7026811E-009  0.8964027E+02  0.7561462E-02  0.1303725E+00
          2   -1    0    0  501    0  0.00000000000E+00  0.00000000000E+00  0.27417272872E+03  0.27417272872E+03  0.00000000000E+00 0. -1.
         -2   -1    0    0    0  501 -0.00000000000E+00 -0.00000000000E+00 -0.58520248612E+02  0.58520248612E+02  0.00000000000E+00 0.  1.
         25    2    1    2    0    0  0.22237536639E+02  0.20832578443E+02  0.19587930427E+03  0.23440225921E+03  0.12508882012E+03 0.  0.
         23    2    1    2    0    0 -0.22237536639E+02 -0.20832578443E+02  0.19773175837E+02  0.98290718128E+02  0.91332263889E+02 0.  0.
          5    1    3    3  502    0 -0.43216632448E+02 -0.61565617215E+01  0.13149152694E+03  0.13861123558E+03  0.41800000000E+01 0.  1.
         -5    1    3    3    0  502  0.65454169087E+02  0.26989140164E+02  0.64387777336E+02  0.95791023629E+02  0.41800000000E+01 0.  1.
        -11    1    4    4    0    0 -0.12395603942E+02 -0.40585074460E+02 -0.24372035167E+02  0.48936646434E+02  0.00000000000E+00 0.  1.
         11    1    4    4    0    0 -0.98419326970E+01  0.19752496017E+02  0.44145211005E+02  0.49354071694E+02  0.00000000000E+00 0. -1.
</event>
<event>
 8    1  0.7026811E-009  0.1156584E+03  0.7561462E-02  0.1250436E+00
         -1   -1    0    0    0  501 -0.00000000000E+00  0.00000000000E+00  0.55044243810E+02  0.55044243810E+02  0.00000000000E+00 0.  1.
          1   -1    0    0  501    0  0.00000000000E+00 -0.00000000000E+00 -0.29434876041E+03  0.29434876041E+03  0.00000000000E+00 0. -1.
         25    2    1    2    0    0  0.31355315092E+02 -0.57371402842E+02 -0.13552697734E+03  0.19567709869E+03  0.12508929497E+03 0.  0.
         23    2    1    2    0    0 -0.31355315092E+02  0.57371402842E+02 -0.10377753925E+03  0.15371590552E+03  0.92650786879E+02 0.  0.
          5    1    3    3  502    0  0.50221801825E+02  0.18683802386E+02 -0.22932666468E+02  0.58435378338E+02  0.41800000000E+01 0.  1.
         -5    1    3    3    0  502 -0.18866486734E+02 -0.76055205228E+02 -0.11259431087E+03  0.13724172035E+03  0.41800000000E+01 0.  1.
        -11    1    4    4    0    0 -0.23142251655E+02  0.75622194599E+02 -0.10740153999E+03  0.13337680053E+03  0.00000000000E+00 0. -1.
         11    1    4    4    0    0 -0.82130634368E+01 -0.18250791758E+02  0.36240007321E+01  0.20339104998E+02  0.00000000000E+00 0.  1.
</event>
<event>
 8    1  0.7026811E-009  0.1276156E+03  0.7561462E-02  0.1231037E+00
          1   -1    0    0  501    0  0.00000000000E+00  0.00000000000E+00  0.27922017357E+03  0.27922017357E+03  0.00000000000E+00 0. -1.
         -1   -1    0    0    0  501 -0.00000000000E+00 -0.00000000000E+00 -0.62828697445E+02  0.62828697445E+02  0.00000000000E+00 0.  1.
         25    2    1    2    0    0  0.62008202031E+02  0.88263324191E+01  0.15803314165E+03  0.21105894504E+03  0.12509389736E+03 0.  0.
         23    2    1    2    0    0 -0.62008202031E+02 -0.88263324191E+01  0.58358334478E+02  0.13098992598E+03  0.99145066656E+02 0.  0.
          5    1    3    3  502    0 -0.37502451540E+02  0.10586367561E+02  0.57026252523E+02  0.69195165485E+02  0.41800000000E+01 0.  1.
         -5    1    3    3    0  502  0.99510653571E+02 -0.17600351418E+01  0.10100688913E+03  0.14186377955E+03  0.41800000000E+01 0.  1.
        -11    1    4    4    0    0  0.13824294325E+02 -0.33855654430E+02  0.25785008219E+02  0.44745760685E+02  0.00000000000E+00 0.  1.
         11    1    4    4    0    0 -0.75832496355E+02  0.25029322011E+02  0.32573326259E+02  0.86244165295E+02  0.00000000000E+00 0. -1.
</event>
<event>
 8    1  0.7026811E-009  0.1846967E+03  0.7561462E-02  0.1163333E+00
         -1   -1    0    0    0  501 -0.00000000000E+00  0.00000000000E+00  0.17160778699E+03  0.17160778699E+03  0.00000000000E+00 0.  1.
          1   -1    0    0  501    0  0.00000000000E+00 -0.00000000000E+00 -0.22774477598E+03  0.22774477598E+03  0.00000000000E+00 0. -1.
         25    2    1    2    0    0  0.63870129964E+02 -0.14308130952E+03  0.21377888634E+02  0.20163340369E+03  0.12508941092E+03 0.  0.
         23    2    1    2    0    0 -0.63870129964E+02  0.14308130952E+03 -0.77514877622E+02  0.19771915929E+03  0.92372371750E+02 0.  0.
          5    1    3    3  502    0 -0.23299572066E+02  0.36670476621E+00  0.23989643547E+02  0.33704301333E+02  0.41800000000E+01 0.  1.
         -5    1    3    3    0  502  0.87169702030E+02 -0.14344801428E+03 -0.26117549129E+01  0.16792910235E+03  0.41800000000E+01 0.  1.
        -11    1    4    4    0    0 -0.81436719394E+02  0.13670309928E+03 -0.54775863338E+02  0.16828568514E+03  0.00000000000E+00 0.  1.
         11    1    4    4    0    0  0.17566589430E+02  0.63782102391E+01 -0.22739014284E+02  0.29433474152E+02  0.00000000000E+00 0. -1.
</event>
<event>
 8    1  0.7026811E-009  0.9038143E+02  0.7561462E-02  0.1301931E+00
         -1   -1    0    0    0  501 -0.00000000000E+00  0.00000000000E+00  0.12730936482E+03  0.12730936482E+03  0.00000000000E+00 0.  1.
          1   -1    0    0  501    0  0.00000000000E+00 -0.00000000000E+00 -0.20144063594E+03  0.20144063594E+03  0.00000000000E+00 0. -1.
         25    2    1    2    0    0 -0.11690947363E+02 -0.53820056120E+02 -0.14581256649E+03  0.19985706196E+03  0.12509302130E+03 0.  0.
         23    2    1    2    0    0  0.11690947363E+02  0.53820056120E+02  0.71681295378E+02  0.12889293879E+03  0.91879839315E+02 0.  0.
          5    1    3    3  502    0  0.17400197376E+02 -0.64783698104E+02 -0.15349254903E+03  0.16756231503E+03  0.41800000000E+01 0.  1.
         -5    1    3    3    0  502 -0.29091144740E+02  0.10963641984E+02  0.76799825379E+01  0.32294746935E+02  0.41800000000E+01 0.  1.
        -11    1    4    4    0    0 -0.18844503578E+02  0.47362742701E+02  0.28710498254E+00  0.50974769647E+02  0.00000000000E+00 0. -1.
         11    1    4    4    0    0  0.30535450941E+02  0.64573134190E+01  0.71394190396E+02  0.77918169146E+02  0.00000000000E+00 0.  1.
</event>
<event>
 8    1  0.7026811E-009  0.7363095E+02  0.7561462E-02  0.1348164E+00
          2   -1    0    0  501    0  0.00000000000E+00  0.00000000000E+00  0.18620318491E+03  0.18620318491E+03  0.00000000000E+00 0. -1.
         -2   -1    0    0    0  501 -0.00000000000E+00 -0.00000000000E+00 -0.68216910801E+02  0.68216910801E+02  0.00000000000E+00 0.  1.
         25    2    1    2    0    0 -0.12852168887E+01  0.24313711351E+02  0.66469539876E+02  0.14372850668E+03  0.12508747164E+03 0.  0.
         23    2    1    2    0    0  0.12852168887E+01 -0.24313711351E+02  0.51516734236E+02  0.11069158903E+03  0.94899133997E+02 0.  0.
          5    1    3    3  502    0 -0.45134018306E+02  0.13399326755E+02  0.82931380305E+02  0.95455265990E+02  0.41800000000E+01 0. -1.
         -5    1    3    3    0  502  0.43848801418E+02  0.10914384596E+02 -0.16461840429E+02  0.48273240695E+02  0.41800000000E+01 0. -1.
        -11    1    4    4    0    0 -0.16601606352E+02 -0.31286365974E+02  0.73449823248E+02  0.81543402949E+02  0.00000000000E+00 0. -1.
         11    1    4    4    0    0  0.17886823241E+02  0.69726546235E+01 -0.21933089012E+02  0.29148186080E+02  0.00000000000E+00 0.  1.
</event>
<event>
 8    1  0.7026811E-009  0.1931180E+03  0.7561462E-02  0.1155679E+00
         -1   -1    0    0    0  501 -0.00000000000E+00  0.00000000000E+00  0.91216394601E+02  0.91216394601E+02  0.00000000000E+00 0.  1.
          1   -1    0    0  501    0  0.00000000000E+00 -0.00000000000E+00 -0.54362711938E+03  0.54362711938E+03  0.00000000000E+00 0. -1.
         25    2    1    2    0    0  0.10975792572E+03 -0.14632677657E+03 -0.32529646149E+03  0.39360349243E+03  0.12509034174E+03 0.  0.
         23    2    1    2    0    0 -0.10975792572E+03  0.14632677657E+03 -0.12711426329E+03  0.24124002155E+03  0.92630363625E+02 0.  0.
          5    1    3    3  502    0  0.89996967708E+02 -0.64867028868E+02 -0.27301849221E+03  0.29472657688E+03  0.41800000000E+01 0. -1.
         -5    1    3    3    0  502  0.19760958013E+02 -0.81459747703E+02 -0.52277969286E+02  0.98876915558E+02  0.41800000000E+01 0. -1.
        -11    1    4    4    0    0 -0.94139440493E+02  0.81203821783E+02 -0.38464356090E+02  0.13013762568E+03  0.00000000000E+00 0.  1.
         11    1    4    4    0    0 -0.15618485228E+02  0.65122954789E+02 -0.88649907201E+02  0.11110239587E+03  0.00000000000E+00 0. -1.
</event>
<event>
 8    1  0.7026811E-009  0.1716386E+03  0.7561462E-02  0.1176150E+00
         -1   -1    0    0    0  501 -0.00000000000E+00  0.00000000000E+00  0.48324158661E+02  0.48324158661E+02  0.00000000000E+00 0.  1.
          1   -1    0    0  501    0  0.00000000000E+00 -0.00000000000E+00 -0.68584220426E+03  0.68584220426E+03  0.00000000000E+00 0. -1.
         25    2    1    2    0    0  0.35730698619E+02 -0.13361244882E+03 -0.24313265206E+03  0.30641471810E+03  0.12509006223E+03 0.  0.
         23    2    1    2    0    0 -0.35730698619E+02  0.13361244882E+03 -0.39438539354E+03  0.42775164482E+03  0.91118942624E+02 0.  0.
          5    1    3    3  502    0  0.50720994890E+02 -0.15081122987E+03 -0.18631841590E+03  0.24504830316E+03  0.41800000000E+01 0. -1.
         -5    1    3    3    0  502 -0.14990296271E+02  0.17198781059E+02 -0.56814236161E+02  0.61366414941E+02  0.41800000000E+01 0. -1.
        -11    1    4    4    0    0 -0.59739280791E+02  0.11804913519E+03 -0.35662439458E+03  0.38037526050E+03  0.00000000000E+00 0. -1.
         11    1    4    4    0    0  0.24008582172E+02  0.15563313628E+02 -0.37760998960E+02  0.47376384322E+02  0.00000000000E+00 0.  1.
</event>
<event>
 8    1  0.7026811E-009  0.1667940E+03  0.7561462E-02  0.1181233E+00
         -1   -1    0    0    0  501 -0.00000000000E+00  0.00000000000E+00  0.44990089758E+02  0.44990089758E+02  0.00000000000E+00 0.  1.
          1   -1    0    0  501    0  0.00000000000E+00 -0.00000000000E+00 -0.76067209777E+03  0.76067209777E+03  0.00000000000E+00 0. -1.
         25    2    1    2    0    0 -0.66948047887E+02 -0.12347510342E+03 -0.49116322603E+03  0.52594235876E+03  0.12508360343E+03 0.  0.
         23    2    1    2    0    0  0.66948047887E+02  0.12347510342E+03 -0.22451878198E+03  0.27971982877E+03  0.90035309010E+02 0.  0.
          5    1    3    3  502    0  0.15292820896E+02  0.47170384420E+01 -0.62936131834E+01  0.17697536256E+02  0.41800000000E+01 0.  1.
         -5    1    3    3    0  502 -0.82240868783E+02 -0.12819214186E+03 -0.48486961285E+03  0.50824482250E+03  0.41800000000E+01 0.  1.
        -11    1    4    4    0    0  0.82576223773E+02  0.12407914873E+03 -0.21431141828E+03  0.26104377389E+03  0.00000000000E+00 0. -1.
         11    1    4    4    0    0 -0.15628175886E+02 -0.60404531546E+00 -0.10207363698E+02  0.18676054882E+02  0.00000000000E+00 0.  1.
</event>
<event>
 8    1  0.7026811E-009  0.1364255E+03  0.7561462E-02  0.1218221E+00
         -2   -1    0    0    0  501 -0.00000000000E+00  0.00000000000E+00  0.29159589583E+02  0.29159589583E+02  0.00000000000E+00 0.  1.
          2   -1    0    0  501    0  0.00000000000E+00 -0.00000000000E+00 -0.10096692119E+04  0.10096692119E+04  0.00000000000E+00 0. -1.
         25    2    1    2    0    0  0.12378464010E+03 -0.11018122857E+02 -0.66636630360E+03  0.68930192922E+03  0.12509621453E+03 0.  0.
         23    2    1    2    0    0 -0.12378464010E+03  0.11018122857E+02 -0.31414331868E+03  0.34952687223E+03  0.89660323371E+02 0.  0.
          5    1    3    3  502    0  0.49837262228E+02  0.17684697835E+02 -0.70832836033E+02  0.88494430923E+02  0.41800000000E+01 0.  1.
         -5    1    3    3    0  502  0.73947377867E+02 -0.28702820692E+02 -0.59553346757E+03  0.60080749829E+03  0.41800000000E+01 0.  1.
        -11    1    4    4    0    0 -0.24149403306E+02 -0.24684401286E+02 -0.28068355195E+02  0.44501077631E+02  0.00000000000E+00 0.  1.
         11    1    4    4    0    0 -0.99635236790E+02  0.35702524143E+02 -0.28607496348E+03  0.30502579460E+03  0.00000000000E+00 0. -1.
</event>
<event>
 8    1  0.7026811E-009  0.1373347E+03  0.7561462E-02  0.1216961E+00
         -2   -1    0    0    0  501 -0.00000000000E+00  0.00000000000E+00  0.34870383564E+02  0.34870383564E+02  0.00000000000E+00 0.  1.
          2   -1    0    0  501    0  0.00000000000E+00 -0.00000000000E+00 -0.63812122534E+03  0.63812122534E+03  0.00000000000E+00 0. -1.
         25    2    1    2    0    0  0.74783593161E+02  0.65811288019E+02 -0.27123368188E+03  0.31486339481E+03  0.12509011059E+03 0.  0.
         23    2    1    2    0    0 -0.74783593161E+02 -0.65811288019E+02 -0.33201715990E+03  0.35812821410E+03  0.89981730522E+02 0.  0.
          5    1    3    3  502    0  0.11445270356E+02  0.77677044243E+02 -0.21607822360E+03  0.22993909743E+03  0.41800000000E+01 0. -1.
         -5    1    3    3    0  502  0.63338322805E+02 -0.11865756225E+02 -0.55155458284E+02  0.84924297377E+02  0.41800000000E+01 0. -1.
        -11    1    4    4    0    0  0.10760293423E+02 -0.41013195516E+02 -0.14344396059E+03  0.14957953052E+03  0.00000000000E+00 0.  1.
         11    1    4    4    0    0 -0.85543886584E+02 -0.24798092503E+02 -0.18857319931E+03  0.20854868358E+03  0.00000000000E+00 0. -1.
</event>
<event>
 8    1  0.7026811E-009  0.1468539E+03  0.7561462E-02  0.1204393E+00
          2   -1    0    0  501    0  0.00000000000E+00  0.00000000000E+00  0.48827606353E+02  0.48827606353E+02  0.00000000000E+00 0. -1.
         -2   -1    0    0    0  501 -0.00000000000E+00 -0.00000000000E+00 -0.61928467149E+03  0.61928467149E+03  0.00000000000E+00 0.  1.
         25    2    1    2    0    0 -0.12057837881E+03  0.52386009553E+02 -0.36801768444E+03  0.41032695957E+03  0.12509099990E+03 0.  0.
         23    2    1    2    0    0  0.12057837881E+03 -0.52386009553E+02 -0.20243938070E+03  0.25778531828E+03  0.90488275639E+02 0.  0.
          5    1    3    3  502    0 -0.88340456164E+02  0.25217049247E+02 -0.35392547839E+03  0.36567834557E+03  0.41800000000E+01 0.  1.
         -5    1    3    3    0  502 -0.32237922644E+02  0.27168960305E+02 -0.14092206050E+02  0.44648613997E+02  0.41800000000E+01 0.  1.
        -11    1    4    4    0    0  0.18187133457E+02 -0.53992508831E+02 -0.78946202650E+02  0.97357412384E+02  0.00000000000E+00 0.  1.
         11    1    4    4    0    0  0.10239124535E+03  0.16064992780E+01 -0.12349317805E+03  0.16042790590E+03  0.00000000000E+00 0. -1.
</event>
<event>
 8    1  0.7026811E-009  0.6202602E+02  0.7561462E-02  0.1389521E+00
         -1   -1    0    0    0  501 -0.00000000000E+00  0.00000000000E+00  0.29795489680E+02  0.29795489680E+02  0.00000000000E+00 0.  1.
          1   -1    0    0  501    0  0.00000000000E+00 -0.00000000000E+00 -0.53896971216E+03  0.53896971216E+03  0.00000000000E+00 0. -1.
         25    2    1    2    0    0 -0.16184645878E+02 -0.22274765159E+02 -0.41427592707E+03  0.43362440585E+03  0.12508986241E+03 0.  0.
         23    2    1    2    0    0  0.16184645878E+02  0.22274765159E+02 -0.94898295413E+02  0.13514079599E+03  0.92191324664E+02 0.  0.
          5    1    3    3  502    0 -0.54090571149E+01 -0.58898643939E+01 -0.41345808058E+03  0.41355653204E+03  0.41800000000E+01 0.  1.
         -5    1    3    3    0  502 -0.10775588763E+02 -0.16384900765E+02 -0.81784649058E+00  0.20067873807E+02  0.41800000000E+01 0.  1.
        -11    1    4    4    0    0 -0.17043175779E+02 -0.29141185588E+02 -0.44435301898E+02  0.55804790053E+02  0.00000000000E+00 0.  1.
         11    1    4    4    0    0  0.33227821657E+02  0.51415950747E+02 -0.50462993515E+02  0.79336005936E+02  0.00000000000E+00 0. -1.
</event>
<event>
 8    1  0.7026811E-009  0.1029899E+03  0.7561462E-02  0.1274131E+00
          1   -1    0    0  501    0  0.00000000000E+00  0.00000000000E+00  0.21446795708E+03  0.21446795708E+03  0.00000000000E+00 0. -1.
         -1   -1    0    0    0  501 -0.00000000000E+00 -0.00000000000E+00 -0.94344271709E+02  0.94344271709E+02  0.00000000000E+00 0.  1.
         25    2    1    2    0    0 -0.82277463183E+02 -0.30117145169E+01  0.11113566463E+03  0.18649383491E+03  0.12510061205E+03 0.  0.
         23    2    1    2    0    0  0.82277463183E+02  0.30117145169E+01  0.89880207472E+01  0.12231839388E+03  0.90013074561E+02 0.  0.
          5    1    3    3  502    0 -0.37350519646E+02  0.81776471013E+01  0.13056256564E+03  0.13611021702E+03  0.41800000000E+01 0.  1.
         -5    1    3    3    0  502 -0.44926943537E+02 -0.11189361618E+02 -0.19426901016E+02  0.50383617894E+02  0.41800000000E+01 0.  1.
        -11    1    4    4    0    0  0.41628934127E+02 -0.42852888734E+02  0.12089503062E+02  0.60954854718E+02  0.00000000000E+00 0.  1.
         11    1    4    4    0    0  0.40648529056E+02  0.45864603251E+02 -0.31014823151E+01  0.61363539160E+02  0.00000000000E+00 0. -1.
</event>
<event>
 8    1  0.7026811E-009  0.9663682E+02  0.7561462E-02  0.1287532E+00
          1   -1    0    0  501    0  0.00000000000E+00  0.00000000000E+00  0.18009596241E+03  0.18009596241E+03  0.00000000000E+00 0. -1.
         -1   -1    0    0    0  501 -0.00000000000E+00 -0.00000000000E+00 -0.72579748829E+02  0.72579748829E+02  0.00000000000E+00 0.  1.
         25    2    1    2    0    0 -0.31201882325E+02  0.82203357300E+01  0.82824328626E+02  0.15345595786E+03  0.12509088780E+03 0.  0.
         23    2    1    2    0    0  0.31201882325E+02 -0.82203357300E+01  0.24691884953E+02  0.99219753372E+02  0.90519273619E+02 0.  0.
          5    1    3    3  502    0  0.14743227532E+02  0.38960370077E+02 -0.12055631885E+02  0.43567004197E+02  0.41800000000E+01 0.  1.
         -5    1    3    3    0  502 -0.45945109857E+02 -0.30740034347E+02  0.94879960511E+02  0.10988895367E+03  0.41800000000E+01 0.  1.
        -11    1    4    4    0    0  0.96947489101E+01  0.41066230505E+02  0.13405563391E+02  0.44273384490E+02  0.00000000000E+00 0. -1.
         11    1    4    4    0    0  0.21507133415E+02 -0.49286566235E+02  0.11286321562E+02  0.54946368883E+02  0.00000000000E+00 0.  1.
</event>
<event>
 8    1  0.7026811E-009  0.8003829E+02  0.7561462E-02  0.1328943E+00
          2   -1    0    0  501    0  0.00000000000E+00  0.00000000000E+00  0.15006367058E+04  0.15006367058E+04  0.00000000000E+00 0.  1.
         -2   -1    0    0    0  501 -0.00000000000E+00 -0.00000000000E+00 -0.18247708617E+02  0.18247708617E+02  0.00000000000E+00 0. -1.
         25    2    1    2    0    0  0.53182745542E+02 -0.28710785402E+02  0.12908567044E+04  0.12983114178E+04  0.12509513466E+03 0.  0.
         23    2    1    2    0    0 -0.53182745542E+02  0.28710785402E+02  0.19153229279E+03  0.22057299660E+03  0.91187247072E+02 0.  0.
          5    1    3    3  502    0  0.32889261766E+02 -0.21263072204E+02  0.12588331875E+04  0.12594492003E+04  0.41800000000E+01 0. -1.
         -5    1    3    3    0  502  0.20293483776E+02 -0.74477131975E+01  0.32023516885E+02  0.38862217503E+02  0.41800000000E+01 0. -1.
        -11    1    4    4    0    0  0.13469423008E+02  0.29048821481E+02  0.11359389811E+03  0.11802047735E+03  0.00000000000E+00 0.  1.
         11    1    4    4    0    0 -0.66652168550E+02 -0.33803607976E+00  0.77938394676E+02  0.10255251925E+03  0.00000000000E+00 0. -1.
</event>
<event>
 8    1  0.7026811E-009  0.1037295E+03  0.7561462E-02  0.1272643E+00
         -3   -1    0    0    0  501 -0.00000000000E+00  0.00000000000E+00  0.75133169091E+02  0.75133169091E+02  0.00000000000E+00 0.  1.
          3   -1    0    0  501    0  0.00000000000E+00 -0.00000000000E+00 -0.26855323738E+03  0.26855323738E+03  0.00000000000E+00 0. -1.
         25    2    1    2    0    0 -0.64448463755E+02 -0.45003601728E+02 -0.48404561658E+02  0.15546216509E+03  0.12508618844E+03 0.  0.
         23    2    1    2    0    0  0.64448463755E+02  0.45003601728E+02 -0.14501550663E+03  0.18822424138E+03  0.90663880514E+02 0.  0.
          5    1    3    3  502    0 -0.50370436228E+02 -0.54261387609E+02  0.26366031804E+02  0.78702725901E+02  0.41800000000E+01 0.  1.
         -5    1    3    3    0  502 -0.14078027527E+02  0.92577858814E+01 -0.74770593462E+02  0.76759439193E+02  0.41800000000E+01 0.  1.
        -11    1    4    4    0    0  0.52230788708E+02 -0.15291873653E+02 -0.92568972159E+02  0.10738208089E+03  0.00000000000E+00 0. -1.
         11    1    4    4    0    0  0.12217675048E+02  0.60295475380E+02 -0.52446534475E+02  0.80842160494E+02  0.00000000000E+00 0.  1.
</event>
<event>
 8    1  0.7026811E-009  0.1425183E+03  0.7561462E-02  0.1209980E+00
          1   -1    0    0  501    0  0.00000000000E+00  0.00000000000E+00  0.56129469169E+03  0.56129469169E+03  0.00000000000E+00 0. -1.
         -1   -1    0    0    0  501 -0.00000000000E+00 -0.00000000000E+00 -0.42515055720E+02  0.42515055720E+02  0.00000000000E+00 0.  1.
         25    2    1    2    0    0 -0.10453974665E+03 -0.29433172601E+02  0.32782611296E+03  0.36730445953E+03  0.12509090843E+03 0.  0.
         23    2    1    2    0    0  0.10453974665E+03  0.29433172601E+02  0.19095352301E+03  0.23650528788E+03  0.87616396667E+02 0.  0.
          5    1    3    3  502    0 -0.11182855698E+03 -0.53832255846E+02  0.18931021996E+03  0.22640532173E+03  0.41800000000E+01 0. -1.
         -5    1    3    3    0  502  0.72888103302E+01  0.24399083245E+02  0.13851589300E+03  0.14089913780E+03  0.41800000000E+01 0. -1.
        -11    1    4    4    0    0  0.11339653356E+03  0.10174138427E+02  0.17908342630E+03  0.21221017999E+03  0.00000000000E+00 0.  1.
         11    1    4    4    0    0 -0.88567869040E+01  0.19259034173E+02  0.11870096715E+02  0.24295107894E+02  0.00000000000E+00 0. -1.
</event>
<event>
 8    1  0.7026811E-009  0.1532277E+03  0.7561462E-02  0.1196562E+00
          1   -1    0    0  501    0  0.00000000000E+00  0.00000000000E+00  0.14473517209E+04  0.14473517209E+04  0.00000000000E+00 0. -1.
         -1   -1    0    0    0  501 -0.00000000000E+00 -0.00000000000E+00 -0.16995207723E+02  0.16995207723E+02  0.00000000000E+00 0.  1.
         25    2    1    2    0    0  0.44047494962E+02  0.99128837081E+02  0.84481237001E+03  0.86088483502E+03  0.12509216802E+03 0.  0.
         23    2    1    2    0    0 -0.44047494962E+02 -0.99128837081E+02  0.58554414319E+03  0.60346209362E+03  0.97661899734E+02 0.  0.
          5    1    3    3  502    0 -0.35762151503E+02  0.64032267455E+02  0.28534766626E+03  0.29465204190E+03  0.41800000000E+01 0. -1.
         -5    1    3    3    0  502  0.79809646465E+02  0.35096569627E+02  0.55946470375E+03  0.56623279312E+03  0.41800000000E+01 0. -1.
        -11    1    4    4    0    0 -0.25752157980E+02  0.15214430066E+02  0.10645516430E+03  0.11057736897E+03  0.00000000000E+00 0. -1.
         11    1    4    4    0    0 -0.18295336982E+02 -0.11434326715E+03  0.47908897890E+03  0.49288472465E+03  0.00000000000E+00 0.  1.
</event>
<event>
 8    1  0.7026811E-009  0.1369511E+03  0.7561462E-02  0.1217491E+00
          1   -1    0    0  501    0  0.00000000000E+00  0.00000000000E+00  0.52804517920E+03  0.52804517920E+03  0.00000000000E+00 0. -1.
         -1   -1    0    0    0  501 -0.00000000000E+00 -0.00000000000E+00 -0.52882210220E+02  0.52882210220E+02  0.00000000000E+00 0.  1.
         25    2    1    2    0    0 -0.84116934311E+02  0.52923290450E+02  0.12029908054E+03  0.19998943453E+03  0.12508945533E+03 0.  0.
         23    2    1    2    0    0  0.84116934311E+02 -0.52923290450E+02  0.35486388845E+03  0.38093795489E+03  0.96482189254E+02 0.  0.
          5    1    3    3  502    0 -0.54789750097E+02  0.78981855603E+02  0.28938294864E+02  0.10047361614E+03  0.41800000000E+01 0. -1.
         -5    1    3    3    0  502 -0.29327184215E+02 -0.26058565153E+02  0.91360785671E+02  0.99515818392E+02  0.41800000000E+01 0. -1.
        -11    1    4    4    0    0  0.10187955235E+03 -0.24612103925E+02  0.27904710106E+03  0.29808133698E+03  0.00000000000E+00 0. -1.
         11    1    4    4    0    0 -0.17762618037E+02 -0.28311186525E+02  0.75816787391E+02  0.82856617915E+02  0.00000000000E+00 0.  1.
</event>
<event>
 8    1  0.7026811E-009  0.8486805E+02  0.7561462E-02  0.1315778E+00
         -2   -1    0    0    0  501 -0.00000000000E+00  0.00000000000E+00  0.43301084925E+02  0.43301084925E+02  0.00000000000E+00 0.  1.
          2   -1    0    0  501    0  0.00000000000E+00 -0.00000000000E+00 -0.28108877611E+03  0.28108877611E+03  0.00000000000E+00 0. -1.
         25    2    1    2    0    0  0.45832672325E+01 -0.10999050819E+02 -0.15901171561E+03  0.20267292139E+03  0.12509836891E+03 0.  0.
         23    2    1    2    0    0 -0.45832672325E+01  0.10999050819E+02 -0.78775975571E+02  0.12171693965E+03  0.92018333027E+02 0.  0.
          5    1    3    3  502    0 -0.46169306887E+02 -0.12559697702E+02 -0.14047220788E+03  0.14845627131E+03  0.41800000000E+01 0.  1.
         -5    1    3    3    0  502  0.50752574119E+02  0.15606468835E+01 -0.18539507736E+02  0.54216650077E+02  0.41800000000E+01 0.  1.
        -11    1    4    4    0    0  0.79086590443E+01  0.39160253007E+02 -0.31714043909E+01  0.40076553111E+02  0.00000000000E+00 0.  1.
         11    1    4    4    0    0 -0.12491926277E+02 -0.28161202188E+02 -0.75604571180E+02  0.81640386538E+02  0.00000000000E+00 0. -1.
</event>
<event>
 8    1  0.7026811E-009  0.1717484E+03  0.7561462E-02  0.1176037E+00
         -1   -1    0    0    0  501 -0.00000000000E+00  0.00000000000E+00  0.91253257464E+02  0.91253257464E+02  0.00000000000E+00 0.  1.
          1   -1    0    0  501    0  0.00000000000E+00 -0.00000000000E+00 -0.60229222990E+03  0.60229222990E+03  0.00000000000E+00 0. -1.
         25    2    1    2    0    0 -0.10292927550E+03 -0.10436577466E+03 -0.47087460419E+02  0.19837690128E+03  0.12509802299E+03 0.  0.
         23    2    1    2    0    0  0.10292927550E+03  0.10436577466E+03 -0.46395151202E+03  0.49516858608E+03  0.91947117764E+02 0.  0.
          5    1    3    3  502    0 -0.10025355646E+03 -0.41152882169E+02  0.15178325203E+02  0.10950885467E+03  0.41800000000E+01 0.  1.
         -5    1    3    3    0  502 -0.26757190383E+01 -0.63212892496E+02 -0.62265785622E+02  0.88868046615E+02  0.41800000000E+01 0.  1.
        -11    1    4    4    0    0  0.95967930974E+02  0.35349927198E+02 -0.30655709918E+03  0.32316670031E+03  0.00000000000E+00 0.  1.
         11    1    4    4    0    0  0.69613445258E+01  0.69015847467E+02 -0.15739441283E+03  0.17200188577E+03  0.00000000000E+00 0. -1.
</event>
<event>
 8    1  0.7026811E-009  0.1747025E+03  0.7561462E-02  0.1173031E+00
          2   -1    0    0  501    0  0.00000000000E+00  0.00000000000E+00  0.33679908241E+03  0.33679908241E+03  0.00000000000E+00 0.  1.
         -2   -1    0    0    0  501 -0.00000000000E+00 -0.00000000000E+00 -0.10762577462E+03  0.10762577462E+03  0.00000000000E+00 0. -1.
         25    2    1    2    0    0 -0.14377308523E+03 -0.90474133001E+01  0.19088219369E+03  0.26987987986E+03  0.12508629806E+03 0.  0.
         23    2    1    2    0    0  0.14377308523E+03  0.90474133001E+01  0.38291114099E+02  0.17454497717E+03  0.90814007255E+02 0.  0.
          5    1    3    3  502    0  0.17909319022E+01  0.34551558848E+02  0.16544424152E+02  0.38577299367E+02  0.41800000000E+01 0.  1.
         -5    1    3    3    0  502 -0.14556401713E+03 -0.43598972148E+02  0.17433776954E+03  0.23130258050E+03  0.41800000000E+01 0.  1.
        -11    1    4    4    0    0  0.10878969150E+03 -0.27231823773E+02  0.50026188007E+02  0.12279816240E+03  0.00000000000E+00 0.  1.
         11    1    4    4    0    0  0.34983393730E+02  0.36279237073E+02 -0.11735073908E+02  0.51746814773E+02  0.00000000000E+00 0. -1.
</event>
<event>
 8    1  0.7026811E-009  0.1729827E+03  0.7561462E-02  0.1174773E+00
         -1   -1    0    0    0  501 -0.00000000000E+00  0.00000000000E+00  0.43833869925E+02  0.43833869925E+02  0.00000000000E+00 0.  1.
          1   -1    0    0  501    0  0.00000000000E+00 -0.00000000000E+00 -0.74775397426E+03  0.74775397426E+03  0.00000000000E+00 0. -1.
         25    2    1    2    0    0 -0.23684417782E+02  0.13949455288E+03 -0.31335886341E+03  0.36586903959E+03  0.12508674961E+03 0.  0.
         23    2    1    2    0    0  0.23684417782E+02 -0.13949455288E+03 -0.39056124093E+03  0.42571880459E+03  0.93159732379E+02 0.  0.
          5    1    3    3  502    0  0.27700367453E+02  0.13401417212E+03 -0.22191147310E+03  0.26074754645E+03  0.41800000000E+01 0.  1.
         -5    1    3    3    0  502 -0.51384785234E+02  0.54803807642E+01 -0.91447390307E+02  0.10512149314E+03  0.41800000000E+01 0.  1.
        -11    1    4    4    0    0  0.38613580083E+02 -0.36485569985E+02 -0.65134219032E+02  0.84051602441E+02  0.00000000000E+00 0.  1.
         11    1    4    4    0    0 -0.14929162301E+02 -0.10300898290E+03 -0.32542702189E+03  0.34166720215E+03  0.00000000000E+00 0. -1.
</event>
<event>
 8    1  0.7026811E-009  0.6134048E+02  0.7561462E-02  0.1392291E+00
          2   -1    0    0  501    0  0.00000000000E+00  0.00000000000E+00  0.14402623084E+04  0.14402623084E+04  0.00000000000E+00 0. -1.
         -2   -1    0    0    0  501 -0.00000000000E+00 -0.00000000000E+00 -0.24487149486E+02  0.24487149486E+02  0.00000000000E+00 0.  1.
         25    2    1    2    0    0 -0.18498608219E+01  0.13554678032E+02  0.13324148880E+04  0.13383435953E+04  0.12508794492E+03 0.  0.
         23    2    1    2    0    0  0.18498608219E+01 -0.13554678032E+02  0.83360270871E+02  0.12640586257E+03  0.94033802703E+02 0.  0.
          5    1    3    3  502    0 -0.14191786025E+02 -0.31834840963E+01  0.17008824665E+02  0.22766507814E+02  0.41800000000E+01 0. -1.
         -5    1    3    3    0  502  0.12341925203E+02  0.16738162128E+02  0.13154060634E+04  0.13155770875E+04  0.41800000000E+01 0. -1.
        -11    1    4    4    0    0 -0.94826767467E+00 -0.49886773247E+02  0.73178913459E+02  0.88570552283E+02  0.00000000000E+00 0. -1.
         11    1    4    4    0    0  0.27981284966E+01  0.36332095215E+02  0.10181357411E+02  0.37835310287E+02  0.00000000000E+00 0.  1.
</event>
<event>
 8    1  0.7026811E-009  0.1081668E+03  0.7561462E-02  0.1264003E+00
         -1   -1    0    0    0  501 -0.00000000000E+00  0.00000000000E+00  0.48083634912E+02  0.48083634912E+02  0.00000000000E+00 0.  1.
          1   -1    0    0  501    0  0.00000000000E+00 -0.00000000000E+00 -0.31802239395E+03  0.31802239395E+03  0.00000000000E+00 0. -1.
         25    2    1    2    0    0 -0.43038014162E+02 -0.24296565402E+02 -0.20650937984E+03  0.24644416761E+03  0.12508401189E+03 0.  0.
         23    2    1    2    0    0  0.43038014162E+02  0.24296565402E+02 -0.63429379200E+02  0.11966186126E+03  0.88617611911E+02 0.  0.
          5    1    3    3  502    0  0.26671980616E+02  0.29546971097E+02 -0.33242526430E+02  0.52028415452E+02  0.41800000000E+01 0.  1.
         -5    1    3    3    0  502 -0.69709994778E+02 -0.53843536499E+02 -0.17326685341E+03  0.19441575215E+03  0.41800000000E+01 0.  1.
        -11    1    4    4    0    0 -0.89423094882E+01  0.34081035219E+02  0.22807084538E+01  0.35308405397E+02  0.00000000000E+00 0.  1.
         11    1    4    4    0    0  0.51980323651E+02 -0.97844698173E+01 -0.65710087654E+02  0.84353455862E+02  0.00000000000E+00 0. -1.
</event>
<event>
 8    1  0.7026811E-009  0.1408551E+03  0.7561462E-02  0.1212183E+00
          2   -1    0    0  501    0  0.00000000000E+00  0.00000000000E+00  0.23129780931E+03  0.23129780931E+03  0.00000000000E+00 0. -1.
         -2   -1    0    0    0  501 -0.00000000000E+00 -0.00000000000E+00 -0.11502478875E+03  0.11502478875E+03  0.00000000000E+00 0.  1.
         25    2    1    2    0    0  0.93930385717E+02  0.69300757796E+02  0.29289942480E+02  0.17358533140E+03  0.12509378144E+03 0.  0.
         23    2    1    2    0    0 -0.93930385717E+02 -0.69300757796E+02  0.86983078087E+02  0.17273726665E+03  0.92987069130E+02 0.  0.
          5    1    3    3  502    0  0.38430299260E+02 -0.19303791177E+02  0.50874299898E+02  0.66747217509E+02  0.41800000000E+01 0.  1.
         -5    1    3    3    0  502  0.55500086456E+02  0.88604548973E+02 -0.21584357418E+02  0.10683811389E+03  0.41800000000E+01 0.  1.
        -11    1    4    4    0    0  0.38813495975E+00 -0.32688996555E+02  0.59510482360E+02  0.67898590967E+02  0.00000000000E+00 0. -1.
         11    1    4    4    0    0 -0.94318520677E+02 -0.36611761241E+02  0.27472595726E+02  0.10483867569E+03  0.00000000000E+00 0.  1.
</event>
<event>
 8    1  0.7026811E-009  0.1170809E+03  0.7561462E-02  0.1247992E+00
          2   -1    0    0  501    0  0.00000000000E+00  0.00000000000E+00  0.51669149376E+03  0.51669149376E+03  0.00000000000E+00 0. -1.
         -2   -1    0    0    0  501 -0.00000000000E+00 -0.00000000000E+00 -0.36002350544E+02  0.36002350544E+02  0.00000000000E+00 0.  1.
         25    2    1    2    0    0  0.55157344806E+02 -0.47315149425E+02  0.33879197836E+03  0.36838349068E+03  0.12508131578E+03 0.  0.
         23    2    1    2    0    0 -0.55157344806E+02  0.47315149425E+02  0.14189716486E+03  0.18431035362E+03  0.92490242757E+02 0.  0.
          5    1    3    3  502    0 -0.76464070634E+01 -0.67568408734E+02  0.24018123053E+03  0.24965667085E+03  0.41800000000E+01 0. -1.
         -5    1    3    3    0  502  0.62803751870E+02  0.20253259308E+02  0.98610747827E+02  0.11872681984E+03  0.41800000000E+01 0. -1.
        -11    1    4    4    0    0 -0.66697305003E+01 -0.17638393510E+02 -0.21950941906E+01  0.18984642979E+02  0.00000000000E+00 0. -1.
         11    1    4    4    0    0 -0.48487614306E+02  0.64953542935E+02  0.14409225905E+03  0.16532571064E+03  0.00000000000E+00 0.  1.
</event>
<event>
 8    1  0.7026811E-009  0.1643504E+03  0.7561462E-02  0.1183871E+00
         -4   -1    0    0    0  501 -0.00000000000E+00  0.00000000000E+00  0.66384473174E+03  0.66384473174E+03  0.00000000000E+00 0.  1.
          4   -1    0    0  501    0  0.00000000000E+00 -0.00000000000E+00 -0.53184178547E+02  0.53184178547E+02  0.00000000000E+00 0. -1.
         25    2    1    2    0    0  0.13711677571E+03 -0.22759342244E+02  0.20067388746E+03  0.27429230444E+03  0.12508901362E+03 0.  0.
         23    2    1    2    0    0 -0.13711677571E+03  0.22759342244E+02  0.40998666574E+03  0.44273660585E+03  0.92777358431E+02 0.  0.
          5    1    3    3  502    0  0.11882550995E+03  0.35876308425E+02  0.14854512000E+03  0.19362266499E+03  0.41800000000E+01 0. -1.
         -5    1    3    3    0  502  0.18291265752E+02 -0.58635650669E+02  0.52128767455E+02  0.80669639448E+02  0.41800000000E+01 0. -1.
        -11    1    4    4    0    0 -0.41047160544E+02 -0.84945585114E+01  0.25023408581E+03  0.25372056403E+03  0.00000000000E+00 0.  1.
         11    1    4    4    0    0 -0.96069615163E+02  0.31253900755E+02  0.15975257993E+03  0.18901604182E+03  0.00000000000E+00 0. -1.
</event>
<event>
 8    1  0.7026811E-009  0.1020088E+03  0.7561462E-02  0.1276128E+00
          2   -1    0    0  501    0  0.00000000000E+00  0.00000000000E+00  0.52331656924E+03  0.52331656924E+03  0.00000000000E+00 0. -1.
         -2   -1    0    0    0  501 -0.00000000000E+00 -0.00000000000E+00 -0.35997332098E+02  0.35997332098E+02  0.00000000000E+00 0.  1.
         25    2    1    2    0    0  0.72835722719E+02 -0.49063260284E+01  0.34775438308E+03  0.37670944674E+03  0.12509109389E+03 0.  0.
         23    2    1    2    0    0 -0.72835722719E+02  0.49063260284E+01  0.13956485406E+03  0.18260445460E+03  0.92395475057E+02 0.  0.
          5    1    3    3  502    0  0.64056108531E+02 -0.31154466937E+02  0.34035865602E+03  0.34775749162E+03  0.41800000000E+01 0. -1.
         -5    1    3    3    0  502  0.87796141879E+01  0.26248140908E+02  0.73957270609E+01  0.28951955119E+02  0.41800000000E+01 0. -1.
        -11    1    4    4    0    0 -0.21725445314E+02  0.38008652245E+02  0.19387775290E+02  0.47880460004E+02  0.00000000000E+00 0.  1.
         11    1    4    4    0    0 -0.51110277405E+02 -0.33102326216E+02  0.12017707877E+03  0.13472399459E+03  0.00000000000E+00 0. -1.
</event>
<event>
 8    1  0.7026811E-009  0.1078885E+03  0.7561462E-02  0.1264531E+00
         -2   -1    0    0    0  501 -0.00000000000E+00  0.00000000000E+00  0.68557207031E+02  0.68557207031E+02  0.00000000000E+00 0.  1.
          2   -1    0    0  501    0  0.00000000000E+00 -0.00000000000E+00 -0.20460979029E+03  0.20460979029E+03  0.00000000000E+00 0. -1.
         25    2    1    2    0    0  0.34965588927E+02 -0.71659573544E+01 -0.10453630395E+03  0.16689509170E+03  0.12510871048E+03 0.  0.
         23    2    1    2    0    0 -0.34965588927E+02  0.71659573544E+01 -0.31516279317E+02  0.10627190562E+03  0.95007887615E+02 0.  0.
          5    1    3    3  502    0 -0.44053172915E+02 -0.18191219498E+02 -0.54968887442E+02  0.72874230681E+02  0.41800000000E+01 0. -1.
         -5    1    3    3    0  502  0.79018761842E+02  0.11025262144E+02 -0.49567416505E+02  0.94020861022E+02  0.41800000000E+01 0. -1.
        -11    1    4    4    0    0 -0.29817224894E+02 -0.34760897572E+02  0.10182685052E+02  0.46915604816E+02  0.00000000000E+00 0.  1.
         11    1    4    4    0    0 -0.51483640330E+01  0.41926854926E+02 -0.41698964368E+02  0.59356300808E+02  0.00000000000E+00 0. -1.
</event>
<event>
 8    1  0.7026811E-009  0.9779726E+02  0.7561462E-02  0.1284997E+00
         -2   -1    0    0    0  501 -0.00000000000E+00  0.00000000000E+00  0.21175587329E+02  0.21175587329E+02  0.00000000000E+00 0.  1.
          2   -1    0    0  501    0  0.00000000000E+00 -0.00000000000E+00 -0.76987810275E+03  0.76987810275E+03  0.00000000000E+00 0. -1.
         25    2    1    2    0    0  0.96702872529E+01  0.44962250911E+02 -0.55995753899E+03  0.57559965618E+03  0.12508956895E+03 0.  0.
         23    2    1    2    0    0 -0.96702872529E+01 -0.44962250911E+02 -0.18874497643E+03  0.21545403390E+03  0.93170038817E+02 0.  0.
          5    1    3    3  502    0 -0.57380861398E+02  0.13999105343E+02 -0.25957205783E+03  0.26623986142E+03  0.41800000000E+01 0.  1.
         -5    1    3    3    0  502  0.67051148651E+02  0.30963145567E+02 -0.30038548117E+03  0.30935979476E+03  0.41800000000E+01 0.  1.
        -11    1    4    4    0    0  0.16467061198E+02 -0.22899355061E+02 -0.51147472213E+01  0.28665400849E+02  0.00000000000E+00 0.  1.
         11    1    4    4    0    0 -0.26137348451E+02 -0.22062895850E+02 -0.18363022921E+03  0.18678863305E+03  0.00000000000E+00 0. -1.
</event>
<event>
 8    1  0.7026811E-009  0.8924467E+02  0.7561462E-02  0.1304691E+00
          1   -1    0    0  501    0  0.00000000000E+00  0.00000000000E+00  0.17378677144E+02  0.17378677144E+02  0.00000000000E+00 0. -1.
         -1   -1    0    0    0  501 -0.00000000000E+00 -0.00000000000E+00 -0.83523693701E+03  0.83523693701E+03  0.00000000000E+00 0.  1.
         25    2    1    2    0    0 -0.46033309621E+02 -0.21743422816E+02 -0.44534303889E+03  0.46537045874E+03  0.12508956608E+03 0.  0.
         23    2    1    2    0    0  0.46033309621E+02  0.21743422816E+02 -0.37251522097E+03  0.38724515542E+03  0.92732834042E+02 0.  0.
          5    1    3    3  502    0  0.18487769258E+01  0.16932824658E+02 -0.18829135519E+01  0.17639622742E+02  0.41800000000E+01 0.  1.
         -5    1    3    3    0  502 -0.47882086547E+02 -0.38676247474E+02 -0.44346012534E+03  0.44773083599E+03  0.41800000000E+01 0.  1.
        -11    1    4    4    0    0  0.32844773466E+02 -0.30834684626E+02 -0.10440490029E+03  0.11370989457E+03  0.00000000000E+00 0. -1.
         11    1    4    4    0    0  0.13188536155E+02  0.52578107442E+02 -0.26811032069E+03  0.27353526085E+03  0.00000000000E+00 0.  1.
</event>
<event>
 8    1  0.7026811E-009  0.1157395E+03  0.7561462E-02  0.1250296E+00
          1   -1    0    0  501    0  0.00000000000E+00  0.00000000000E+00  0.54311042051E+03  0.54311042051E+03  0.00000000000E+00 0. -1.
         -1   -1    0    0    0  501 -0.00000000000E+00 -0.00000000000E+00 -0.25042890902E+02  0.25042890902E+02  0.00000000000E+00 0.  1.
         25    2    1    2    0    0 -0.44620416828E+02 -0.13478407681E+02  0.26901225217E+03  0.30031250452E+03  0.12508940596E+03 0.  0.
         23    2    1    2    0    0  0.44620416828E+02  0.13478407681E+02  0.24905527744E+03  0.26784080689E+03  0.86818877811E+02 0.  0.
          5    1    3    3  502    0  0.43594790548E+01  0.51317447922E+02  0.92230995238E+02  0.10571903519E+03  0.41800000000E+01 0. -1.
         -5    1    3    3    0  502 -0.48979895883E+02 -0.64795855603E+02  0.17678125693E+03  0.19459346933E+03  0.41800000000E+01 0. -1.
        -11    1    4    4    0    0  0.70980940949E+02  0.69679842961E+01  0.18467149080E+03  0.19796566949E+03  0.00000000000E+00 0. -1.
         11    1    4    4    0    0 -0.26360524121E+02  0.65104233852E+01  0.64383786634E+02  0.69875137395E+02  0.00000000000E+00 0.  1.
</event>
<event>
 8    1  0.7026811E-009  0.2888469E+03  0.7561462E-02  0.1090953E+00
         -1   -1    0    0    0  501 -0.00000000000E+00  0.00000000000E+00  0.21148257291E+03  0.21148257291E+03  0.00000000000E+00 0.  1.
          1   -1    0    0  501    0  0.00000000000E+00 -0.00000000000E+00 -0.40655595287E+03  0.40655595287E+03  0.00000000000E+00 0. -1.
         25    2    1    2    0    0  0.12888351544E+03  0.23658845581E+03 -0.13942708118E+03  0.32813376025E+03  0.12508715231E+03 0.  0.
         23    2    1    2    0    0 -0.12888351544E+03 -0.23658845581E+03 -0.55646298783E+02  0.28990476553E+03  0.91450557863E+02 0.  0.
          5    1    3    3  502    0  0.14889083898E+03  0.16974973039E+03 -0.11925325763E+03  0.25538650073E+03  0.41800000000E+01 0. -1.
         -5    1    3    3    0  502 -0.20007323538E+02  0.66838725418E+02 -0.20173823552E+02  0.72747259518E+02  0.41800000000E+01 0. -1.
        -11    1    4    4    0    0  0.98505791654E+01 -0.41021760824E+02 -0.22600822477E+02  0.47860379728E+02  0.00000000000E+00 0. -1.
         11    1    4    4    0    0 -0.13873409461E+03 -0.19556669499E+03 -0.33045476306E+02  0.24204438580E+03  0.00000000000E+00 0.  1.
</event>
<event>
 8    1  0.7026811E-009  0.7886750E+02  0.7561462E-02  0.1332296E+00
          2   -1    0    0  501    0  0.00000000000E+00  0.00000000000E+00  0.46751290035E+03  0.46751290035E+03  0.00000000000E+00 0. -1.
         -2   -1    0    0    0  501 -0.00000000000E+00 -0.00000000000E+00 -0.32401420354E+02  0.32401420354E+02  0.00000000000E+00 0.  1.
         25    2    1    2    0    0 -0.27444646751E+02 -0.34257790505E+02  0.32137291019E+03  0.34764221994E+03  0.12509101022E+03 0.  0.
         23    2    1    2    0    0  0.27444646751E+02  0.34257790505E+02  0.11373856981E+03  0.15227210076E+03  0.91233357732E+02 0.  0.
          5    1    3    3  502    0 -0.39228489542E+02 -0.25141651825E+02  0.32762878519E+03  0.33095176436E+03  0.41800000000E+01 0.  1.
         -5    1    3    3    0  502  0.11783842790E+02 -0.91161386800E+01 -0.62558750047E+01  0.16690455579E+02  0.41800000000E+01 0.  1.
        -11    1    4    4    0    0 -0.24151622709E+02  0.36577932754E+02  0.27482575226E+02  0.51735268290E+02  0.00000000000E+00 0.  1.
         11    1    4    4    0    0  0.51596269460E+02 -0.23201422484E+01  0.86255994581E+02  0.10053683247E+03  0.00000000000E+00 0. -1.
</event>
<event>
 8    1  0.7026811E-009  0.1524986E+03  0.7561462E-02  0.1197436E+00
          2   -1    0    0  501    0  0.00000000000E+00  0.00000000000E+00  0.62186507854E+03  0.62186507854E+03  0.00000000000E+00 0. -1.
         -2   -1    0    0    0  501 -0.00000000000E+00 -0.00000000000E+00 -0.45099130178E+02  0.45099130178E+02  0.00000000000E+00 0.  1.
         25    2    1    2    0    0  0.45821915312E+02  0.10778757604E+03  0.40927790960E+03  0.44370501219E+03  0.12509165073E+03 0.  0.
         23    2    1    2    0    0 -0.45821915312E+02 -0.10778757604E+03  0.16748803876E+03  0.22325919653E+03  0.89858868430E+02 0.  0.
          5    1    3    3  502    0 -0.33931405301E+02  0.51800663301E+02  0.86153258396E+02  0.10618147351E+03  0.41800000000E+01 0. -1.
         -5    1    3    3    0  502  0.79753320613E+02  0.55986912741E+02  0.32312465121E+03  0.33752353868E+03  0.41800000000E+01 0. -1.
        -11    1    4    4    0    0  0.22445627045E+02 -0.54028952110E+02  0.48941666852E+02  0.76277261316E+02  0.00000000000E+00 0.  1.
         11    1    4    4    0    0 -0.68267542357E+02 -0.53758623931E+02  0.11854637191E+03  0.14698193522E+03  0.00000000000E+00 0. -1.
</event>
<event>
 8    1  0.7026811E-009  0.1260655E+03  0.7561462E-02  0.1233413E+00
          1   -1    0    0  501    0  0.00000000000E+00  0.00000000000E+00  0.21117722283E+03  0.21117722283E+03  0.00000000000E+00 0. -1.
         -1   -1    0    0    0  501 -0.00000000000E+00 -0.00000000000E+00 -0.99226741522E+02  0.99226741522E+02  0.00000000000E+00 0.  1.
         25    2    1    2    0    0  0.65988742536E+02  0.68213617891E+02  0.57393827893E+02  0.16718128177E+03  0.12509163715E+03 0.  0.
         23    2    1    2    0    0 -0.65988742536E+02 -0.68213617891E+02  0.54556653412E+02  0.14322268258E+03  0.92350942428E+02 0.  0.
          5    1    3    3  502    0  0.83277225289E+02  0.24853270139E+02 -0.72802541591E+01  0.87311258089E+02  0.41800000000E+01 0.  1.
         -5    1    3    3    0  502 -0.17288482753E+02  0.43360347752E+02  0.64674082052E+02  0.79870023678E+02  0.41800000000E+01 0.  1.
        -11    1    4    4    0    0 -0.34463496613E+02  0.83469760649E+01 -0.11527399750E+02  0.37286533135E+02  0.00000000000E+00 0.  1.
         11    1    4    4    0    0 -0.31525245923E+02 -0.76560593956E+02  0.66084053163E+02  0.10593614945E+03  0.00000000000E+00 0. -1.
</event>
<event>
 8    1  0.7026811E-009  0.6514471E+02  0.7561462E-02  0.1377428E+00
          1   -1    0    0  501    0  0.00000000000E+00  0.00000000000E+00  0.13519846565E+03  0.13519846565E+03  0.00000000000E+00 0. -1.
         -1   -1    0    0    0  501 -0.00000000000E+00 -0.00000000000E+00 -0.92723207729E+02  0.92723207729E+02  0.00000000000E+00 0.  1.
         25    2    1    2    0    0  0.15792376394E+01  0.18696782941E+02  0.45528212880E+02  0.13443371365E+03  0.12509013356E+03 0.  0.
         23    2    1    2    0    0 -0.15792376394E+01 -0.18696782941E+02 -0.30529549551E+01  0.93487959732E+02  0.91534771519E+02 0.  0.
          5    1    3    3  502    0 -0.14987161168E+02  0.48096866407E+02 -0.24807168119E+02  0.56309781994E+02  0.41800000000E+01 0. -1.
         -5    1    3    3    0  502  0.16566398807E+02 -0.29400083467E+02  0.70335380998E+02  0.78123931657E+02  0.41800000000E+01 0. -1.
        -11    1    4    4    0    0  0.48264181110E+01 -0.31261019374E+02 -0.41704895885E+02  0.52343519034E+02  0.00000000000E+00 0.  1.
         11    1    4    4    0    0 -0.64056557504E+01  0.12564236434E+02  0.38651940929E+02  0.41144440698E+02  0.00000000000E+00 0. -1.
</event>
<event>
 8    1  0.7026811E-009  0.1143234E+03  0.7561462E-02  0.1252767E+00
          2   -1    0    0  501    0  0.00000000000E+00  0.00000000000E+00  0.19580622784E+03  0.19580622784E+03  0.00000000000E+00 0.  1.
         -2   -1    0    0    0  501 -0.00000000000E+00 -0.00000000000E+00 -0.83091064633E+02  0.83091064633E+02  0.00000000000E+00 0. -1.
         25    2    1    2    0    0 -0.31973263605E+02 -0.20737373492E+02  0.12156977542E+03  0.17855144654E+03  0.12509628500E+03 0.  0.
         23    2    1    2    0    0  0.31973263605E+02  0.20737373492E+02 -0.88546122197E+01  0.10034584593E+03  0.92404309386E+02 0.  0.
          5    1    3    3  502    0 -0.75222265972E+02 -0.36630605514E+02  0.69065998530E+02  0.10857152072E+03  0.41800000000E+01 0. -1.
         -5    1    3    3    0  502  0.43249002367E+02  0.15893232022E+02  0.52503776894E+02  0.69979925821E+02  0.41800000000E+01 0. -1.
        -11    1    4    4    0    0  0.25695780012E+02 -0.34499214516E+02  0.42606736724E+01  0.43227563577E+02  0.00000000000E+00 0.  1.
         11    1    4    4    0    0  0.62774835928E+01  0.55236588008E+02 -0.13115285892E+02  0.57118282354E+02  0.00000000000E+00 0. -1.
</event>
<event>
 8    1  0.7026811E-009  0.1733340E+03  0.7561462E-02  0.1174415E+00
          1   -1    0    0  501    0  0.00000000000E+00  0.00000000000E+00  0.50921278762E+03  0.50921278762E+03  0.00000000000E+00 0. -1.
         -1   -1    0    0    0  501 -0.00000000000E+00 -0.00000000000E+00 -0.69306543465E+02  0.69306543465E+02  0.00000000000E+00 0.  1.
         25    2    1    2    0    0  0.83068146734E+02 -0.12844705924E+03  0.21969558415E+03  0.29549051800E+03  0.12509809153E+03 0.  0.
         23    2    1    2    0    0 -0.83068146734E+02  0.12844705924E+03  0.22021066001E+03  0.28302881309E+03  0.90628970133E+02 0.  0.
          5    1    3    3  502    0  0.80364052894E+02 -0.13894718433E+03  0.13436063869E+03  0.20936798862E+03  0.41800000000E+01 0.  1.
         -5    1    3    3    0  502  0.27040938401E+01  0.10500125091E+02  0.85334945451E+02  0.86122529373E+02  0.41800000000E+01 0.  1.
        -11    1    4    4    0    0 -0.77542680005E+02  0.42637724960E+02  0.13884522063E+03  0.16464761797E+03  0.00000000000E+00 0. -1.
         11    1    4    4    0    0 -0.55254667291E+01  0.85809334276E+02  0.81365439381E+02  0.11838119512E+03  0.00000000000E+00 0.  1.
</event>
<event>
 8    1  0.7026811E-009  0.1272777E+03  0.7561462E-02  0.1231552E+00
          2   -1    0    0  501    0  0.00000000000E+00  0.00000000000E+00  0.33770737089E+04  0.33770737089E+04  0.00000000000E+00 0. -1.
         -2   -1    0    0    0  501 -0.00000000000E+00 -0.00000000000E+00 -0.16700633810E+02  0.16700633810E+02  0.00000000000E+00 0.  1.
         25    2    1    2    0    0  0.77821092593E+02  0.96002510646E+02  0.29533071515E+04  0.29585375262E+04  0.12509419732E+03 0.  0.
         23    2    1    2    0    0 -0.77821092593E+02 -0.96002510646E+02  0.40706592353E+03  0.43523681648E+03  0.91955509954E+02 0.  0.
          5    1    3    3  502    0  0.77765229626E+02  0.87036983454E+02  0.13088138960E+04  0.13140145182E+04  0.41800000000E+01 0. -1.
         -5    1    3    3    0  502  0.55862967569E-01  0.89655271917E+01  0.16444932556E+04  0.16445230080E+04  0.41800000000E+01 0. -1.
        -11    1    4    4    0    0 -0.51622650061E+02 -0.37607829851E+02  0.82044683075E+02  0.10397392407E+03  0.00000000000E+00 0.  1.
         11    1    4    4    0    0 -0.26198442532E+02 -0.58394680795E+02  0.32502124046E+03  0.33126289241E+03  0.00000000000E+00 0. -1.
</event>
<event>
 8    1  0.7026811E-009  0.1402496E+03  0.7561462E-02  0.1212993E+00
         -1   -1    0    0    0  501 -0.00000000000E+00  0.00000000000E+00  0.13243381403E+03  0.13243381403E+03  0.00000000000E+00 0.  1.
          1   -1    0    0  501    0  0.00000000000E+00 -0.00000000000E+00 -0.23441762994E+03  0.23441762994E+03  0.00000000000E+00 0. -1.
         25    2    1    2    0    0  0.13419723794E+02  0.13186807637E+03 -0.96590378065E+02  0.20627216092E+03  0.12509686120E+03 0.  0.
         23    2    1    2    0    0 -0.13419723794E+02 -0.13186807637E+03 -0.53934378483E+01  0.16057928306E+03  0.90483912507E+02 0.  0.
          5    1    3    3  502    0 -0.73359388411E+01  0.76962564567E+02 -0.12010830280E+03  0.14290041688E+03  0.41800000000E+01 0. -1.
         -5    1    3    3    0  502  0.20755662635E+02  0.54905511805E+02  0.23517924735E+02  0.63371744033E+02  0.41800000000E+01 0. -1.
        -11    1    4    4    0    0 -0.34849584513E+02 -0.61707059731E+02  0.32551388886E+02  0.77986201855E+02  0.00000000000E+00 0.  1.
         11    1    4    4    0    0  0.21429860719E+02 -0.70161016640E+02 -0.37944826734E+02  0.82593081201E+02  0.00000000000E+00 0. -1.
</event>
<event>
 8    1  0.7026811E-009  0.1013712E+03  0.7561462E-02  0.1277439E+00
          1   -1    0    0  501    0  0.00000000000E+00  0.00000000000E+00  0.14417875115E+03  0.14417875115E+03  0.00000000000E+00 0. -1.
         -1   -1    0    0    0  501 -0.00000000000E+00 -0.00000000000E+00 -0.90560789894E+02  0.90560789894E+02  0.00000000000E+00 0.  1.
         25    2    1    2    0    0  0.14890087218E+02  0.16831534275E+02  0.10938285154E+02  0.12756418869E+03  0.12509180993E+03 0.  0.
         23    2    1    2    0    0 -0.14890087218E+02 -0.16831534275E+02  0.42679676097E+02  0.10717535235E+03  0.95707816589E+02 0.  0.
          5    1    3    3  502    0  0.25519112093E+02 -0.51479565771E+02  0.11858500119E+01  0.57621605447E+02  0.41800000000E+01 0. -1.
         -5    1    3    3    0  502 -0.10629024876E+02  0.68311100046E+02  0.97524351416E+01  0.69942583242E+02  0.41800000000E+01 0. -1.
        -11    1    4    4    0    0  0.94612835453E+00  0.28160308734E+02 -0.15328143102E+02  0.32075693567E+02  0.00000000000E+00 0.  1.
         11    1    4    4    0    0 -0.15836215572E+02 -0.44991843009E+02  0.58007819200E+02  0.75099658783E+02  0.00000000000E+00 0. -1.
</event>
<event>
 8    1  0.7026811E-009  0.8139622E+02  0.7561462E-02  0.1325135E+00
          1   -1    0    0  501    0  0.00000000000E+00  0.00000000000E+00  0.13526926327E+03  0.13526926327E+03  0.00000000000E+00 0. -1.
         -1   -1    0    0    0  501 -0.00000000000E+00 -0.00000000000E+00 -0.10535453350E+03  0.10535453350E+03  0.00000000000E+00 0.  1.
         25    2    1    2    0    0 -0.37323700600E+01  0.16645381455E+02  0.68630757931E+02  0.14369899463E+03  0.12509284877E+03 0.  0.
         23    2    1    2    0    0  0.37323700600E+01 -0.16645381455E+02 -0.38716028169E+02  0.96924802141E+02  0.87203710488E+02 0.  0.
          5    1    3    3  502    0 -0.23048334737E+02  0.53714779502E+02  0.80938062269E+02  0.99924699624E+02  0.41800000000E+01 0. -1.
         -5    1    3    3    0  502  0.19315964677E+02 -0.37069398047E+02 -0.12307304338E+02  0.43774295003E+02  0.41800000000E+01 0. -1.
        -11    1    4    4    0    0 -0.28089892456E+02 -0.80804179454E+01  0.15797107880E+02  0.33224747248E+02  0.00000000000E+00 0. -1.
         11    1    4    4    0    0  0.31822262516E+02 -0.85649635099E+01 -0.54513136048E+02  0.63700054893E+02  0.00000000000E+00 0.  1.
</event>
<event>
 8    1  0.7026811E-009  0.9459789E+02  0.7561462E-02  0.1292084E+00
          2   -1    0    0  501    0  0.00000000000E+00  0.00000000000E+00  0.70087838594E+02  0.70087838594E+02  0.00000000000E+00 0. -1.
         -2   -1    0    0    0  501 -0.00000000000E+00 -0.00000000000E+00 -0.17341933193E+03  0.17341933193E+03  0.00000000000E+00 0.  1.
         25    2    1    2    0    0  0.15862312943E+02  0.19568724945E+02 -0.44592358742E+02  0.13516873454E+03  0.12509020893E+03 0.  0.
         23    2    1    2    0    0 -0.15862312943E+02 -0.19568724945E+02 -0.58739134594E+02  0.10833843599E+03  0.87477898987E+02 0.  0.
          5    1    3    3  502    0 -0.24229514281E+02  0.50379513063E+02 -0.60030673900E+02  0.82135978156E+02  0.41800000000E+01 0. -1.
         -5    1    3    3    0  502  0.40091827224E+02 -0.30810788118E+02  0.15438315158E+02  0.53032756382E+02  0.41800000000E+01 0. -1.
        -11    1    4    4    0    0  0.11882167418E+02  0.26262754827E+02 -0.44298397909E+02  0.52851359972E+02  0.00000000000E+00 0.  1.
         11    1    4    4    0    0 -0.27744480361E+02 -0.45831479771E+02 -0.14440736685E+02  0.55487076014E+02  0.00000000000E+00 0. -1.
</event>
<event>
 8    1  0.7026811E-009  0.1025953E+03  0.7561462E-02  0.1274931E+00
         -1   -1    0    0    0  501 -0.00000000000E+00  0.00000000000E+00  0.21609418696E+03  0.21609418696E+03  0.00000000000E+00 0.  1.
          1   -1    0    0  501    0  0.00000000000E+00 -0.00000000000E+00 -0.62165463342E+02  0.62165463342E+02  0.00000000000E+00 0. -1.
         25    2    1    2    0    0  0.31736030043E+02 -0.12400088440E+02  0.11616459492E+03  0.17407625964E+03  0.12508954098E+03 0.  0.
         23    2    1    2    0    0 -0.31736030043E+02  0.12400088440E+02  0.37764128698E+02  0.10418339066E+03  0.90923658509E+02 0.  0.
          5    1    3    3  502    0 -0.27873860616E+02  0.28689289258E+02  0.87122006453E+02  0.95956989491E+02  0.41800000000E+01 0. -1.
         -5    1    3    3    0  502  0.59609890660E+02 -0.41089377698E+02  0.29042588464E+02  0.78119270150E+02  0.41800000000E+01 0. -1.
        -11    1    4    4    0    0 -0.12295052967E+02  0.49264622601E+02  0.47166758363E+01  0.50994297705E+02  0.00000000000E+00 0. -1.
         11    1    4    4    0    0 -0.19440977077E+02 -0.36864534161E+02  0.33047452862E+02  0.53189092954E+02  0.00000000000E+00 0.  1.
</event>
<event>
 8    1  0.7026811E-009  0.1320130E+03  0.7561462E-02  0.1224499E+00
          2   -1    0    0  501    0  0.00000000000E+00  0.00000000000E+00  0.36357969662E+03  0.36357969662E+03  0.00000000000E+00 0. -1.
         -2   -1    0    0    0  501 -0.00000000000E+00 -0.00000000000E+00 -0.61498728472E+02  0.61498728472E+02  0.00000000000E+00 0.  1.
         25    2    1    2    0    0 -0.25344905695E+02  0.97824123345E+02  0.18997122578E+03  0.24889617910E+03  0.12509323721E+03 0.  0.
         23    2    1    2    0    0  0.25344905695E+02 -0.97824123345E+02  0.11210974238E+03  0.17618224599E+03  0.90882705255E+02 0.  0.
          5    1    3    3  502    0  0.74861512346E+01 -0.14269311599E+02 -0.84058421989E+01  0.18649029382E+02  0.41800000000E+01 0.  1.
         -5    1    3    3    0  502 -0.32831056930E+02  0.11209343494E+03  0.19837706797E+03  0.23024714972E+03  0.41800000000E+01 0.  1.
        -11    1    4    4    0    0 -0.29621403535E+02 -0.22224516116E+02  0.11321849807E+02  0.38723906660E+02  0.00000000000E+00 0.  1.
         11    1    4    4    0    0  0.54966309230E+02 -0.75599607229E+02  0.10078789257E+03  0.13745833933E+03  0.00000000000E+00 0. -1.
</event>
<event>
 8    1  0.7026811E-009  0.1077714E+03  0.7561462E-02  0.1264753E+00
         -1   -1    0    0    0  501 -0.00000000000E+00  0.00000000000E+00  0.55878990619E+02  0.55878990619E+02  0.00000000000E+00 0.  1.
          1   -1    0    0  501    0  0.00000000000E+00 -0.00000000000E+00 -0.38288774502E+03  0.38288774502E+03  0.00000000000E+00 0. -1.
         25    2    1    2    0    0  0.22997901364E+00 -0.52993713055E+02 -0.29959796097E+03  0.32896036011E+03  0.12509034253E+03 0.  0.
         23    2    1    2    0    0 -0.22997901364E+00  0.52993713055E+02 -0.27410793431E+02  0.10980637553E+03  0.92182981054E+02 0.  0.
          5    1    3    3  502    0  0.52999762807E+02 -0.14498824377E+02 -0.64075162040E+02  0.84512067519E+02  0.41800000000E+01 0. -1.
         -5    1    3    3    0  502 -0.52769783794E+02 -0.38494888678E+02 -0.23552279893E+03  0.24444829259E+03  0.41800000000E+01 0. -1.
        -11    1    4    4    0    0 -0.14729667730E+02 -0.17581070412E+02  0.13836218600E+02  0.26786154883E+02  0.00000000000E+00 0.  1.
         11    1    4    4    0    0  0.14499688717E+02  0.70574783467E+02 -0.41247012030E+02  0.83020220644E+02  0.00000000000E+00 0. -1.
</event>
<event>
 8    1  0.7026811E-009  0.1683789E+03  0.7561462E-02  0.1179549E+00
          2   -1    0    0  501    0  0.00000000000E+00  0.00000000000E+00  0.62875396063E+03  0.62875396063E+03  0.00000000000E+00 0. -1.
         -2   -1    0    0    0  501 -0.00000000000E+00 -0.00000000000E+00 -0.51856211299E+02  0.51856211299E+02  0.00000000000E+00 0.  1.
         25    2    1    2    0    0  0.24572517851E+02  0.14048611812E+03  0.34137332100E+03  0.39054249221E+03  0.12509011116E+03 0.  0.
         23    2    1    2    0    0 -0.24572517851E+02 -0.14048611812E+03  0.23552442834E+03  0.29006767973E+03  0.91254284612E+02 0.  0.
          5    1    3    3  502    0  0.73731614554E+02  0.10716338528E+03  0.23137459421E+03  0.26546566139E+03  0.41800000000E+01 0.  1.
         -5    1    3    3    0  502 -0.49159096704E+02  0.33322732841E+02  0.10999872679E+03  0.12507683082E+03  0.41800000000E+01 0.  1.
        -11    1    4    4    0    0 -0.34030331841E+02 -0.10705940391E+03  0.22850614388E+03  0.25462685884E+03  0.00000000000E+00 0. -1.
         11    1    4    4    0    0  0.94578139909E+01 -0.33426714210E+02  0.70182844543E+01  0.35440820885E+02  0.00000000000E+00 0.  1.
</event>
<event>
 8    1  0.7026811E-009  0.1040514E+03  0.7561462E-02  0.1272000E+00
          1   -1    0    0  501    0  0.00000000000E+00  0.00000000000E+00  0.10552397320E+03  0.10552397320E+03  0.00000000000E+00 0. -1.
         -1   -1    0    0    0  501 -0.00000000000E+00 -0.00000000000E+00 -0.12172802165E+03  0.12172802165E+03  0.00000000000E+00 0.  1.
         25    2    1    2    0    0  0.20845167414E+02 -0.32081899243E+02 -0.24969230234E+02  0.13317443507E+03  0.12509275932E+03 0.  0.
         23    2    1    2    0    0 -0.20845167414E+02  0.32081899243E+02  0.87651817819E+01  0.94077559783E+02  0.85498477060E+02 0.  0.
          5    1    3    3  502    0 -0.18767194907E+02  0.42267574924E+02 -0.74959284097E+01  0.47036335289E+02  0.41800000000E+01 0.  1.
         -5    1    3    3    0  502  0.39612362321E+02 -0.74349474167E+02 -0.17473301824E+02  0.86138099783E+02  0.41800000000E+01 0.  1.
        -11    1    4    4    0    0 -0.37044196145E+02 -0.44959029278E+01  0.30818738376E+02  0.48397109896E+02  0.00000000000E+00 0. -1.
         11    1    4    4    0    0  0.16199028731E+02  0.36577802171E+02 -0.22053556594E+02  0.45680449888E+02  0.00000000000E+00 0.  1.
</event>
<event>
 8    1  0.7026811E-009  0.9956142E+02  0.7561462E-02  0.1281221E+00
         -3   -1    0    0    0  501 -0.00000000000E+00  0.00000000000E+00  0.23717800616E+03  0.23717800616E+03  0.00000000000E+00 0.  1.
          3   -1    0    0  501    0  0.00000000000E+00 -0.00000000000E+00 -0.68746682218E+02  0.68746682218E+02  0.00000000000E+00 0. -1.
         25    2    1    2    0    0  0.36163653624E+02  0.48378744154E+02  0.14055602741E+03  0.19761651594E+03  0.12509187745E+03 0.  0.
         23    2    1    2    0    0 -0.36163653624E+02 -0.48378744154E+02  0.27875296535E+02  0.10830817244E+03  0.85471137413E+02 0.  0.
          5    1    3    3  502    0  0.42355242424E+01  0.74358954060E+02  0.31498220203E+02  0.80974094564E+02  0.41800000000E+01 0.  1.
         -5    1    3    3    0  502  0.31928129381E+02 -0.25980209906E+02  0.10905780721E+03  0.11664242138E+03  0.41800000000E+01 0.  1.
        -11    1    4    4    0    0  0.10026541662E+02 -0.32967235894E+02  0.45011989902E+02  0.56687295006E+02  0.00000000000E+00 0.  1.
         11    1    4    4    0    0 -0.46190195286E+02 -0.15411508260E+02 -0.17136693366E+02  0.51620877433E+02  0.00000000000E+00 0. -1.
</event>
<event>
 8    1  0.7026811E-009  0.2519196E+03  0.7561462E-02  0.1112098E+00
         -2   -1    0    0    0  501 -0.00000000000E+00  0.00000000000E+00  0.69743612911E+02  0.69743612911E+02  0.00000000000E+00 0.  1.
          2   -1    0    0  501    0  0.00000000000E+00 -0.00000000000E+00 -0.10649729047E+04  0.10649729047E+04  0.00000000000E+00 0. -1.
         25    2    1    2    0    0  0.22698051254E+03 -0.40404954700E+02 -0.31034511127E+03  0.40634140917E+03  0.12508612746E+03 0.  0.
         23    2    1    2    0    0 -0.22698051254E+03  0.40404954700E+02 -0.68488418050E+03  0.72837510842E+03  0.91166026747E+02 0.  0.
          5    1    3    3  502    0  0.10746231282E+03 -0.75416166271E+02 -0.20342798901E+03  0.24214905724E+03  0.41800000000E+01 0.  1.
         -5    1    3    3    0  502  0.11951819971E+03  0.35011211571E+02 -0.10691712226E+03  0.16419235193E+03  0.41800000000E+01 0.  1.
        -11    1    4    4    0    0 -0.53273433885E+02 -0.29190850964E+02 -0.17369001066E+03  0.18400647907E+03  0.00000000000E+00 0. -1.
         11    1    4    4    0    0 -0.17370707865E+03  0.69595805664E+02 -0.51119416984E+03  0.54436862935E+03  0.00000000000E+00 0.  1.
</event>
<event>
 8    1  0.7026811E-009  0.4270468E+02  0.7561462E-02  0.1489202E+00
          2   -1    0    0  501    0  0.00000000000E+00  0.00000000000E+00  0.77380283974E+02  0.77380283974E+02  0.00000000000E+00 0. -1.
         -2   -1    0    0    0  501 -0.00000000000E+00 -0.00000000000E+00 -0.16651170162E+03  0.16651170162E+03  0.00000000000E+00 0.  1.
         25    2    1    2    0    0 -0.13375875896E+02 -0.22914985011E+02 -0.29676885149E+02  0.13126960494E+03  0.12508789340E+03 0.  0.
         23    2    1    2    0    0  0.13375875896E+02  0.22914985011E+02 -0.59454532498E+02  0.11262238066E+03  0.91896401431E+02 0.  0.
          5    1    3    3  502    0 -0.30473348049E+02 -0.86929767617E+01 -0.74495016008E+02  0.81062769484E+02  0.41800000000E+01 0. -1.
         -5    1    3    3    0  502  0.17097472153E+02 -0.14222008249E+02  0.44818130860E+02  0.50206835455E+02  0.41800000000E+01 0. -1.
        -11    1    4    4    0    0  0.14888481964E+01  0.17823446127E+02 -0.83460260354E+02  0.85355181209E+02  0.00000000000E+00 0.  1.
         11    1    4    4    0    0  0.11887027700E+02  0.50915388837E+01  0.24005727856E+02  0.27267199446E+02  0.00000000000E+00 0. -1.
</event>
<event>
 8    1  0.7026811E-009  0.1558999E+03  0.7561462E-02  0.1193405E+00
          3   -1    0    0  501    0  0.00000000000E+00  0.00000000000E+00  0.83002572625E+02  0.83002572625E+02  0.00000000000E+00 0. -1.
         -3   -1    0    0    0  501 -0.00000000000E+00 -0.00000000000E+00 -0.47515992542E+03  0.47515992542E+03  0.00000000000E+00 0.  1.
         25    2    1    2    0    0 -0.79028840746E+02 -0.11200919595E+03 -0.33220070909E+03  0.38052156279E+03  0.12509089088E+03 0.  0.
         23    2    1    2    0    0  0.79028840746E+02  0.11200919595E+03 -0.59956643701E+02  0.17764093525E+03  0.95759517058E+02 0.  0.
          5    1    3    3  502    0 -0.82907642338E+01 -0.58041384895E+02 -0.31054106536E+02  0.66478335304E+02  0.41800000000E+01 0. -1.
         -5    1    3    3    0  502 -0.70738076512E+02 -0.53967811055E+02 -0.30114660256E+03  0.31404322749E+03  0.41800000000E+01 0. -1.
        -11    1    4    4    0    0 -0.18229769922E+02  0.41149303689E+01 -0.19150964242E+02  0.26758486406E+02  0.00000000000E+00 0.  1.
         11    1    4    4    0    0  0.97258610668E+02  0.10789426558E+03 -0.40805679458E+02  0.15088244885E+03  0.00000000000E+00 0. -1.
</event>
<event>
 8    1  0.7026811E-009  0.2125762E+03  0.7561462E-02  0.1139542E+00
         -2   -1    0    0    0  501 -0.00000000000E+00  0.00000000000E+00  0.76291461608E+02  0.76291461608E+02  0.00000000000E+00 0.  1.
          2   -1    0    0  501    0  0.00000000000E+00 -0.00000000000E+00 -0.74934119430E+03  0.74934119430E+03  0.00000000000E+00 0. -1.
         25    2    1    2    0    0 -0.20869712350E+03 -0.37425179338E+02 -0.31802364928E+03  0.40217058756E+03  0.12508799540E+03 0.  0.
         23    2    1    2    0    0  0.20869712350E+03  0.37425179338E+02 -0.35502608341E+03  0.42346206834E+03  0.91222091725E+02 0.  0.
          5    1    3    3  502    0 -0.88546383072E+02 -0.15104998640E+02 -0.39946190832E+02  0.98396105111E+02  0.41800000000E+01 0.  1.
         -5    1    3    3    0  502 -0.12015074043E+03 -0.22320180697E+02 -0.27807745845E+03  0.30377448245E+03  0.41800000000E+01 0.  1.
        -11    1    4    4    0    0  0.10422332972E+03  0.28763763980E+02 -0.98176628801E+02  0.14604282598E+03  0.00000000000E+00 0. -1.
         11    1    4    4    0    0  0.10447379378E+03  0.86614153577E+01 -0.25684945461E+03  0.27741924237E+03  0.00000000000E+00 0.  1.
</event>
<event>
 8    1  0.7026811E-009  0.1204847E+03  0.7561462E-02  0.1242300E+00
          2   -1    0    0  501    0  0.00000000000E+00  0.00000000000E+00  0.12014373268E+03  0.12014373268E+03  0.00000000000E+00 0. -1.
         -2   -1    0    0    0  501 -0.00000000000E+00 -0.00000000000E+00 -0.14043735635E+03  0.14043735635E+03  0.00000000000E+00 0.  1.
         25    2    1    2    0    0  0.20627701434E+02  0.63406114994E+02 -0.96644174045E+01  0.14207715072E+03  0.12508668317E+03 0.  0.
         23    2    1    2    0    0 -0.20627701434E+02 -0.63406114994E+02 -0.10629206264E+02  0.11850393831E+03  0.97387709107E+02 0.  0.
          5    1    3    3  502    0  0.40535180570E+02 -0.14775658586E+02 -0.36796005066E+02  0.56858063098E+02  0.41800000000E+01 0. -1.
         -5    1    3    3    0  502 -0.19907479136E+02  0.78181773580E+02  0.27131587661E+02  0.85219087619E+02  0.41800000000E+01 0. -1.
        -11    1    4    4    0    0 -0.49312366941E+02 -0.23364755850E+01 -0.12793378899E+02  0.50998423458E+02  0.00000000000E+00 0. -1.
         11    1    4    4    0    0  0.28684665507E+02 -0.61069639409E+02  0.21641726354E+01  0.67505514856E+02  0.00000000000E+00 0.  1.
</event>
<event>
 8    1  0.7026811E-009  0.1151685E+03  0.7561462E-02  0.1251287E+00
          2   -1    0    0  501    0  0.00000000000E+00  0.00000000000E+00  0.83379520029E+03  0.83379520029E+03  0.00000000000E+00 0.  1.
         -2   -1    0    0    0  501 -0.00000000000E+00 -0.00000000000E+00 -0.54253306951E+02  0.54253306951E+02  0.00000000000E+00 0. -1.
         25    2    1    2    0    0  0.59717498508E+02 -0.71738911855E+02  0.73572063457E+03  0.75209380333E+03  0.12509031047E+03 0.  0.
         23    2    1    2    0    0 -0.59717498508E+02  0.71738911855E+02  0.43821258765E+02  0.13595470391E+03  0.88604332242E+02 0.  0.
          5    1    3    3  502    0 -0.20851158734E+02 -0.73801596167E+00  0.23068717941E+02  0.31383970997E+02  0.41800000000E+01 0. -1.
         -5    1    3    3    0  502  0.80568657242E+02 -0.71000895893E+02  0.71265191663E+03  0.72070983233E+03  0.41800000000E+01 0. -1.
        -11    1    4    4    0    0 -0.15262593735E+02 -0.20930357000E+01  0.47256259776E+02  0.49703940024E+02  0.00000000000E+00 0.  1.
         11    1    4    4    0    0 -0.44454904773E+02  0.73831947555E+02 -0.34350010109E+01  0.86250763881E+02  0.00000000000E+00 0. -1.
</event>
<event>
 8    1  0.7026811E-009  0.1074289E+03  0.7561462E-02  0.1265407E+00
          1   -1    0    0  501    0  0.00000000000E+00  0.00000000000E+00  0.93178143612E+03  0.93178143612E+03  0.00000000000E+00 0. -1.
         -1   -1    0    0    0  501 -0.00000000000E+00 -0.00000000000E+00 -0.17694013673E+02  0.17694013673E+02  0.00000000000E+00 0.  1.
         25    2    1    2    0    0  0.55974450065E+02 -0.34634377527E+02  0.43862524674E+03  0.46083684377E+03  0.12508321362E+03 0.  0.
         23    2    1    2    0    0 -0.55974450065E+02  0.34634377527E+02  0.47546217571E+03  0.48863860603E+03  0.91491680507E+02 0.  0.
          5    1    3    3  502    0  0.75993339345E+02 -0.26417718010E+02  0.42948746318E+03  0.43697807368E+03  0.41800000000E+01 0.  1.
         -5    1    3    3    0  502 -0.20018889280E+02 -0.82166595167E+01  0.91377835581E+01  0.23858770085E+02  0.41800000000E+01 0.  1.
        -11    1    4    4    0    0 -0.72568660213E+02 -0.14017366385E+01  0.32781467057E+03  0.33575382880E+03  0.00000000000E+00 0. -1.
         11    1    4    4    0    0  0.16594210148E+02  0.36036114165E+02  0.14764750514E+03  0.15288477723E+03  0.00000000000E+00 0.  1.
</event>
<event>
 8    1  0.7026811E-009  0.1266437E+03  0.7561462E-02  0.1232523E+00
         -1   -1    0    0    0  501 -0.00000000000E+00  0.00000000000E+00  0.70354505010E+03  0.70354505010E+03  0.00000000000E+00 0.  1.
          1   -1    0    0  501    0  0.00000000000E+00 -0.00000000000E+00 -0.41171359186E+02  0.41171359186E+02  0.00000000000E+00 0. -1.
         25    2    1    2    0    0  0.64239278636E+02  0.47654593244E+02  0.56687027753E+03  0.58599242532E+03  0.12509023066E+03 0.  0.
         23    2    1    2    0    0 -0.64239278636E+02 -0.47654593244E+02  0.95503413382E+02  0.15872398396E+03  0.98360337235E+02 0.  0.
          5    1    3    3  502    0  0.60895736557E+02  0.78763010941E+02  0.27642580934E+03  0.29383771557E+03  0.41800000000E+01 0. -1.
         -5    1    3    3    0  502  0.33435420794E+01 -0.31108417697E+02  0.29044446819E+03  0.29215470975E+03  0.41800000000E+01 0. -1.
        -11    1    4    4    0    0  0.20701972965E+02  0.60657682931E+01  0.35880072100E+02  0.41865795150E+02  0.00000000000E+00 0.  1.
         11    1    4    4    0    0 -0.84941251602E+02 -0.53720361537E+02  0.59623341281E+02  0.11685818881E+03  0.00000000000E+00 0. -1.
</event>
<event>
 8    1  0.7026811E-009  0.1037474E+03  0.7561462E-02  0.1272607E+00
          1   -1    0    0  501    0  0.00000000000E+00  0.00000000000E+00  0.58126125621E+02  0.58126125621E+02  0.00000000000E+00 0. -1.
         -1   -1    0    0    0  501 -0.00000000000E+00 -0.00000000000E+00 -0.23675801616E+03  0.23675801616E+03  0.00000000000E+00 0.  1.
         25    2    1    2    0    0 -0.87445002352E+01 -0.39002627381E+02 -0.12666630474E+03  0.18245333641E+03  0.12508875243E+03 0.  0.
         23    2    1    2    0    0  0.87445002352E+01  0.39002627381E+02 -0.51965585791E+02  0.11243080536E+03  0.91337794262E+02 0.  0.
          5    1    3    3  502    0  0.45288562553E+02 -0.21794298243E+01 -0.10330090260E+03  0.11289088843E+03  0.41800000000E+01 0. -1.
         -5    1    3    3    0  502 -0.54033062788E+02 -0.36823197556E+02 -0.23365402146E+02  0.69562447987E+02  0.41800000000E+01 0. -1.
        -11    1    4    4    0    0  0.46203899797E+02  0.61415679818E+01 -0.10920129377E+02  0.47872418357E+02  0.00000000000E+00 0. -1.
         11    1    4    4    0    0 -0.37459399562E+02  0.32861059399E+02 -0.41045456413E+02  0.64558387004E+02  0.00000000000E+00 0.  1.
</event>
<event>
 8    1  0.7026811E-009  0.1332678E+03  0.7561462E-02  0.1222686E+00
         -1   -1    0    0    0  501 -0.00000000000E+00  0.00000000000E+00  0.40580382348E+02  0.40580382348E+02  0.00000000000E+00 0.  1.
          1   -1    0    0  501    0  0.00000000000E+00 -0.00000000000E+00 -0.60967044479E+03  0.60967044479E+03  0.00000000000E+00 0. -1.
         25    2    1    2    0    0  0.10347770846E+03  0.45925488509E+02 -0.32737390989E+03  0.36828943776E+03  0.12508655583E+03 0.  0.
         23    2    1    2    0    0 -0.10347770846E+03 -0.45925488509E+02 -0.24171615255E+03  0.28196138937E+03  0.90877610286E+02 0.  0.
          5    1    3    3  502    0  0.10929883485E+02  0.40908516076E+02 -0.22957411439E+03  0.23348386548E+03  0.41800000000E+01 0. -1.
         -5    1    3    3    0  502  0.92547824971E+02  0.50169724331E+01 -0.97799795496E+02  0.13480557228E+03  0.41800000000E+01 0. -1.
        -11    1    4    4    0    0 -0.71611492337E+02  0.42848335933E+01 -0.69973237414E+02  0.10021386924E+03  0.00000000000E+00 0.  1.
         11    1    4    4    0    0 -0.31866216119E+02 -0.50210322102E+02 -0.17174291514E+03  0.18174752013E+03  0.00000000000E+00 0. -1.
</event>
<event>
 8    1  0.7026811E-009  0.3275520E+03  0.7561462E-02  0.1072225E+00
          2   -1    0    0  501    0  0.00000000000E+00  0.00000000000E+00  0.16692089423E+03  0.16692089423E+03  0.00000000000E+00 0. -1.
         -2   -1    0    0    0  501 -0.00000000000E+00 -0.00000000000E+00 -0.65788189369E+03  0.65788189369E+03  0.00000000000E+00 0.  1.
         25    2    1    2    0    0 -0.19099423330E+03 -0.24729549486E+03 -0.23161704160E+03  0.40856719993E+03  0.12508734535E+03 0.  0.
         23    2    1    2    0    0  0.19099423330E+03  0.24729549486E+03 -0.25934395785E+03  0.41623558799E+03  0.91427114706E+02 0.  0.
          5    1    3    3  502    0 -0.18208073517E+03 -0.14880157453E+03 -0.18461087361E+03  0.29898821007E+03  0.41800000000E+01 0.  1.
         -5    1    3    3    0  502 -0.89134981231E+01 -0.98493920324E+02 -0.47006167994E+02  0.10957898986E+03  0.41800000000E+01 0.  1.
        -11    1    4    4    0    0  0.11351771625E+03  0.20054348062E+03 -0.15303483674E+03  0.27662903097E+03  0.00000000000E+00 0. -1.
         11    1    4    4    0    0  0.77476517049E+02  0.46752014236E+02 -0.10630912112E+03  0.13960655701E+03  0.00000000000E+00 0.  1.
</event>
<event>
 8    1  0.7026811E-009  0.1760348E+03  0.7561462E-02  0.1171697E+00
         -1   -1    0    0    0  501 -0.00000000000E+00  0.00000000000E+00  0.26714224975E+03  0.26714224975E+03  0.00000000000E+00 0.  1.
          1   -1    0    0  501    0  0.00000000000E+00 -0.00000000000E+00 -0.14472708565E+03  0.14472708565E+03  0.00000000000E+00 0. -1.
         25    2    1    2    0    0  0.99762725607E+02  0.12169233774E+03  0.11011695262E+03  0.22920329231E+03  0.12508708753E+03 0.  0.
         23    2    1    2    0    0 -0.99762725607E+02 -0.12169233774E+03  0.12298211484E+02  0.18266604309E+03  0.91945694887E+02 0.  0.
          5    1    3    3  502    0 -0.18287611865E+02 -0.50708146619E+01  0.35665168787E+02  0.40615595203E+02  0.41800000000E+01 0. -1.
         -5    1    3    3    0  502  0.11805033747E+03  0.12676315240E+03  0.74451783831E+02  0.18858769711E+03  0.41800000000E+01 0. -1.
        -11    1    4    4    0    0 -0.77791127339E+02 -0.76433033668E+02  0.49826308444E+02  0.11990049684E+03  0.00000000000E+00 0.  1.
         11    1    4    4    0    0 -0.21971598269E+02 -0.45259304070E+02 -0.37528096960E+02  0.62765546256E+02  0.00000000000E+00 0. -1.
</event>
<event>
 8    1  0.7026811E-009  0.1198664E+03  0.7561462E-02  0.1243318E+00
          2   -1    0    0  501    0  0.00000000000E+00  0.00000000000E+00  0.22240153181E+03  0.22240153181E+03  0.00000000000E+00 0. -1.
         -2   -1    0    0    0  501 -0.00000000000E+00 -0.00000000000E+00 -0.90589046649E+02  0.90589046649E+02  0.00000000000E+00 0.  1.
         25    2    1    2    0    0  0.87932286805E+02  0.32202940524E+01  0.10028552152E+03  0.18289140912E+03  0.12509845861E+03 0.  0.
         23    2    1    2    0    0 -0.87932286805E+02 -0.32202940524E+01  0.31526963645E+02  0.13009916934E+03  0.90495232305E+02 0.  0.
          5    1    3    3  502    0  0.10908301673E+03 -0.12212964637E+01  0.11328556776E+03  0.15732669311E+03  0.41800000000E+01 0. -1.
         -5    1    3    3    0  502 -0.21150729923E+02  0.44415905161E+01 -0.13000046237E+02  0.25564716011E+02  0.41800000000E+01 0. -1.
        -11    1    4    4    0    0 -0.91255631243E+01 -0.25145797874E+02 -0.20020079663E+02  0.33412432459E+02  0.00000000000E+00 0.  1.
         11    1    4    4    0    0 -0.78806723681E+02  0.21925503822E+02  0.51547043308E+02  0.96686736882E+02  0.00000000000E+00 0. -1.
</event>
<event>
 8    1  0.7026811E-009  0.6576489E+02  0.7561462E-02  0.1375117E+00
          2   -1    0    0  501    0  0.00000000000E+00  0.00000000000E+00  0.46223955341E+02  0.46223955341E+02  0.00000000000E+00 0. -1.
         -2   -1    0    0    0  501 -0.00000000000E+00 -0.00000000000E+00 -0.30247784362E+03  0.30247784362E+03  0.00000000000E+00 0.  1.
         25    2    1    2    0    0 -0.29592971278E+02  0.33625238491E+01 -0.12630257442E+03  0.18024114598E+03  0.12508988721E+03 0.  0.
         23    2    1    2    0    0  0.29592971278E+02 -0.33625238491E+01 -0.12995131386E+03  0.16846065299E+03  0.10297862455E+03 0.  0.
          5    1    3    3  502    0  0.12158963520E+02 -0.95925485978E+01  0.21060349559E+02  0.26473913689E+02  0.41800000000E+01 0. -1.
         -5    1    3    3    0  502 -0.41751934798E+02  0.12955072447E+02 -0.14736292398E+03  0.15376723229E+03  0.41800000000E+01 0. -1.
        -11    1    4    4    0    0 -0.20256195910E+02  0.53910900681E+01  0.72833458221E+01  0.22190638820E+02  0.00000000000E+00 0. -1.
         11    1    4    4    0    0  0.49849167188E+02 -0.87536139172E+01 -0.13723465969E+03  0.14627001417E+03  0.00000000000E+00 0.  1.
</event>
<event>
 8    1  0.7026811E-009  0.9138239E+02  0.7561462E-02  0.1299538E+00
          2   -1    0    0  501    0  0.00000000000E+00  0.00000000000E+00  0.52549407689E+03  0.52549407689E+03  0.00000000000E+00 0. -1.
         -2   -1    0    0    0  501 -0.00000000000E+00 -0.00000000000E+00 -0.36484210534E+02  0.36484210534E+02  0.00000000000E+00 0.  1.
         25    2    1    2    0    0  0.77433061509E+02  0.19340119962E+02  0.20458354125E+03  0.25272827930E+03  0.12508892258E+03 0.  0.
         23    2    1    2    0    0 -0.77433061509E+02 -0.19340119962E+02  0.28442632511E+03  0.30925000813E+03  0.91473022562E+02 0.  0.
          5    1    3    3  502    0 -0.27708728075E+01  0.21800189481E+02  0.15856052223E+03  0.16013068915E+03  0.41800000000E+01 0.  1.
         -5    1    3    3    0  502  0.80203934316E+02 -0.24600695191E+01  0.46023019018E+02  0.92597590149E+02  0.41800000000E+01 0.  1.
        -11    1    4    4    0    0 -0.11183534351E+02 -0.50533389835E+01 -0.40471813149E+01  0.12922358610E+02  0.00000000000E+00 0.  1.
         11    1    4    4    0    0 -0.66249527158E+02 -0.14286780978E+02  0.28847350643E+03  0.29632764952E+03  0.00000000000E+00 0. -1.
</event>
<event>
 8    1  0.7026811E-009  0.9980898E+02  0.7561462E-02  0.1280698E+00
          2   -1    0    0  501    0  0.00000000000E+00  0.00000000000E+00  0.30144977908E+03  0.30144977908E+03  0.00000000000E+00 0.  1.
         -2   -1    0    0    0  501 -0.00000000000E+00 -0.00000000000E+00 -0.43475167955E+02  0.43475167955E+02  0.00000000000E+00 0. -1.
         25    2    1    2    0    0 -0.12560806383E+02 -0.30608386019E+02  0.16949415163E+03  0.21323802063E+03  0.12509012294E+03 0.  0.
         23    2    1    2    0    0  0.12560806383E+02  0.30608386019E+02  0.88480459495E+02  0.13168692640E+03  0.91749701474E+02 0.  0.
          5    1    3    3  502    0  0.22364788198E+02  0.42355624602E+02  0.56083142422E+02  0.73871333754E+02  0.41800000000E+01 0. -1.
         -5    1    3    3    0  502 -0.34925594581E+02 -0.72964010621E+02  0.11341100921E+03  0.13936668688E+03  0.41800000000E+01 0. -1.
        -11    1    4    4    0    0  0.38036134007E+02  0.17103850040E+02  0.33880794050E+01  0.41842182764E+02  0.00000000000E+00 0. -1.
         11    1    4    4    0    0 -0.25475327625E+02  0.13504535979E+02  0.85092380090E+02  0.89844743635E+02  0.00000000000E+00 0.  1.
</event>
<event>
 8    1  0.7026811E-009  0.1094324E+03  0.7561462E-02  0.1261625E+00
          2   -1    0    0  501    0  0.00000000000E+00  0.00000000000E+00  0.71562330398E+02  0.71562330398E+02  0.00000000000E+00 0. -1.
         -2   -1    0    0    0  501 -0.00000000000E+00 -0.00000000000E+00 -0.26354191392E+03  0.26354191392E+03  0.00000000000E+00 0.  1.
         25    2    1    2    0    0 -0.32292550381E+02  0.57424265370E+02 -0.41128972632E+02  0.14723505819E+03  0.12508483084E+03 0.  0.
         23    2    1    2    0    0  0.32292550381E+02 -0.57424265370E+02 -0.15085061089E+03  0.18786918613E+03  0.90545950919E+02 0.  0.
          5    1    3    3  502    0 -0.24602017002E+02 -0.37418099725E+02 -0.22079221067E+02  0.50103271655E+02  0.41800000000E+01 0. -1.
         -5    1    3    3    0  502 -0.76905333793E+01  0.94842365095E+02 -0.19049751565E+02  0.97131786534E+02  0.41800000000E+01 0. -1.
        -11    1    4    4    0    0  0.70865696228E+01 -0.52480809793E+02 -0.23470572889E+02  0.57925147020E+02  0.00000000000E+00 0. -1.
         11    1    4    4    0    0  0.25205980758E+02 -0.49434555775E+01 -0.12738003800E+03  0.12994403911E+03  0.00000000000E+00 0.  1.
</event>
<event>
 8    1  0.7026811E-009  0.1230254E+03  0.7561462E-02  0.1238188E+00
          1   -1    0    0  501    0  0.00000000000E+00  0.00000000000E+00  0.71940142434E+02  0.71940142434E+02  0.00000000000E+00 0. -1.
         -1   -1    0    0    0  501 -0.00000000000E+00 -0.00000000000E+00 -0.28828781498E+03  0.28828781498E+03  0.00000000000E+00 0.  1.
         25    2    1    2    0    0 -0.31771262731E+02  0.87098581292E+02 -0.13378501781E+03  0.20528167220E+03  0.12508620209E+03 0.  0.
         23    2    1    2    0    0  0.31771262731E+02 -0.87098581292E+02 -0.82562654744E+02  0.15494628522E+03  0.92715604655E+02 0.  0.
          5    1    3    3  502    0  0.23717547867E+02  0.58496372230E+02 -0.12758717360E+03  0.14240894252E+03  0.41800000000E+01 0. -1.
         -5    1    3    3    0  502 -0.55488810598E+02  0.28602209063E+02 -0.61978442042E+01  0.62872729682E+02  0.41800000000E+01 0. -1.
        -11    1    4    4    0    0 -0.14897713268E+02  0.60179705648E+01  0.70490985907E+01  0.17545586946E+02  0.00000000000E+00 0. -1.
         11    1    4    4    0    0  0.46668975999E+02 -0.93116551857E+02 -0.89611753334E+02  0.13740069827E+03  0.00000000000E+00 0.  1.
</event>
<event>
 8    1  0.7026811E-009  0.9036583E+02  0.7561462E-02  0.1301968E+00
         -3   -1    0    0    0  501 -0.00000000000E+00  0.00000000000E+00  0.12113038553E+03  0.12113038553E+03  0.00000000000E+00 0.  1.
          3   -1    0    0  501    0  0.00000000000E+00 -0.00000000000E+00 -0.13558999055E+03  0.13558999055E+03  0.00000000000E+00 0. -1.
         25    2    1    2    0    0  0.24567352271E+02 -0.24205164482E+02 -0.64587844601E+02  0.14493607989E+03  0.12508170450E+03 0.  0.
         23    2    1    2    0    0 -0.24567352271E+02  0.24205164482E+02  0.50128239585E+02  0.11178429618E+03  0.93773363403E+02 0.  0.
          5    1    3    3  502    0  0.31624885373E+02  0.20467774568E+02  0.24365511497E+02  0.45057892995E+02  0.41800000000E+01 0. -1.
         -5    1    3    3    0  502 -0.70575331021E+01 -0.44672939050E+02 -0.88953356098E+02  0.99878186898E+02  0.41800000000E+01 0. -1.
        -11    1    4    4    0    0  0.25238700830E+02  0.38101008150E+02  0.36007644521E+02  0.58182723428E+02  0.00000000000E+00 0.  1.
         11    1    4    4    0    0 -0.49806053101E+02 -0.13895843668E+02  0.14120595065E+02  0.53601572755E+02  0.00000000000E+00 0. -1.
</event>
<event>
 8    1  0.7026811E-009  0.1007299E+03  0.7561462E-02  0.1278769E+00
          2   -1    0    0  501    0  0.00000000000E+00  0.00000000000E+00  0.16820217926E+03  0.16820217926E+03  0.00000000000E+00 0. -1.
         -2   -1    0    0    0  501 -0.00000000000E+00 -0.00000000000E+00 -0.75590283682E+02  0.75590283682E+02  0.00000000000E+00 0.  1.
         25    2    1    2    0    0  0.14633198435E+02 -0.14389315713E+02  0.24620405715E+02  0.12913065975E+03  0.12508948800E+03 0.  0.
         23    2    1    2    0    0 -0.14633198435E+02  0.14389315713E+02  0.67991489866E+02  0.11466180319E+03  0.90018350987E+02 0.  0.
          5    1    3    3  502    0  0.59198404838E+02  0.66363644464E+01 -0.19538842055E+02  0.62830973391E+02  0.41800000000E+01 0. -1.
         -5    1    3    3    0  502 -0.44565206403E+02 -0.21025680160E+02  0.44159247769E+02  0.66299686360E+02  0.41800000000E+01 0. -1.
        -11    1    4    4    0    0  0.52954479945E+01 -0.36893714398E+02  0.25865823626E+02  0.45367706173E+02  0.00000000000E+00 0.  1.
         11    1    4    4    0    0 -0.19928646430E+02  0.51283030111E+02  0.42125666240E+02  0.69294097022E+02  0.00000000000E+00 0. -1.
</event>
<event>
 8    1  0.7026811E-009  0.9991094E+02  0.7561462E-02  0.1280483E+00
          1   -1    0    0  501    0  0.00000000000E+00  0.00000000000E+00  0.17491274090E+03  0.17491274090E+03  0.00000000000E+00 0. -1.
         -1   -1    0    0    0  501 -0.00000000000E+00 -0.00000000000E+00 -0.69492942782E+02  0.69492942782E+02  0.00000000000E+00 0.  1.
         25    2    1    2    0    0 -0.21161878045E+02 -0.16138170429E+01  0.62404386523E+02  0.14139413306E+03  0.12509022311E+03 0.  0.
         23    2    1    2    0    0  0.21161878045E+02  0.16138170429E+01  0.43015411600E+02  0.10301155063E+03  0.91162626334E+02 0.  0.
          5    1    3    3  502    0  0.15869190666E+02 -0.54906661238E+02  0.48081321314E+02  0.74805471191E+02  0.41800000000E+01 0.  1.
         -5    1    3    3    0  502 -0.37031068711E+02  0.53292844195E+02  0.14323065208E+02  0.66588661867E+02  0.41800000000E+01 0.  1.
        -11    1    4    4    0    0 -0.74048151029E+01  0.33712282450E+02 -0.88758926824E+01  0.35638893720E+02  0.00000000000E+00 0.  1.
         11    1    4    4    0    0  0.28566693148E+02 -0.32098465407E+02  0.51891304282E+02  0.67372656909E+02  0.00000000000E+00 0. -1.
</event>
<event>
 8    1  0.7026811E-009  0.9035914E+02  0.7561462E-02  0.1301984E+00
          2   -1    0    0  501    0  0.00000000000E+00  0.00000000000E+00  0.16817179628E+03  0.16817179628E+03  0.00000000000E+00 0. -1.
         -2   -1    0    0    0  501 -0.00000000000E+00 -0.00000000000E+00 -0.11349229013E+03  0.11349229013E+03  0.00000000000E+00 0.  1.
         25    2    1    2    0    0 -0.48778049999E+02  0.70833551315E+02  0.31676658021E+02  0.15507258643E+03  0.12508959287E+03 0.  0.
         23    2    1    2    0    0  0.48778049999E+02 -0.70833551315E+02  0.23002848127E+02  0.12659149998E+03  0.89997703813E+02 0.  0.
          5    1    3    3  502    0 -0.54514586258E+01  0.25487592149E+02  0.74484483698E+02  0.79023708255E+02  0.41800000000E+01 0. -1.
         -5    1    3    3    0  502 -0.43326591373E+02  0.45345959165E+02 -0.42807825677E+02  0.76048878176E+02  0.41800000000E+01 0. -1.
        -11    1    4    4    0    0  0.20805889300E+02 -0.56133330645E+02 -0.28394119191E+02  0.66257541786E+02  0.00000000000E+00 0.  1.
         11    1    4    4    0    0  0.27972160699E+02 -0.14700220670E+02  0.51396967318E+02  0.60333958194E+02  0.00000000000E+00 0. -1.
</event>
<event>
 8    1  0.7026811E-009  0.1026859E+03  0.7561462E-02  0.1274747E+00
          2   -1    0    0  501    0  0.00000000000E+00  0.00000000000E+00  0.60724987480E+02  0.60724987480E+02  0.00000000000E+00 0. -1.
         -2   -1    0    0    0  501 -0.00000000000E+00 -0.00000000000E+00 -0.25531383372E+03  0.25531383372E+03  0.00000000000E+00 0.  1.
         25    2    1    2    0    0  0.36537891699E+02 -0.45199770849E+02 -0.84442228939E+02  0.16173234880E+03  0.12509526692E+03 0.  0.
         23    2    1    2    0    0 -0.36537891699E+02  0.45199770849E+02 -0.11014661730E+03  0.15430647239E+03  0.91105286926E+02 0.  0.
          5    1    3    3  502    0 -0.17793286888E+01 -0.57630792376E+02 -0.10227353760E+03  0.11748116076E+03  0.41800000000E+01 0. -1.
         -5    1    3    3    0  502  0.38317220388E+02  0.12431021527E+02  0.17831308662E+02  0.44251188041E+02  0.41800000000E+01 0. -1.
        -11    1    4    4    0    0 -0.48711635686E+02  0.66557758096E+02 -0.93160214200E+02  0.12442501406E+03  0.00000000000E+00 0. -1.
         11    1    4    4    0    0  0.12173743987E+02 -0.21357987247E+02 -0.16986403097E+02  0.29881458333E+02  0.00000000000E+00 0.  1.
</event>
<event>
 8    1  0.7026811E-009  0.9505535E+02  0.7561462E-02  0.1291051E+00
         -1   -1    0    0    0  501 -0.00000000000E+00  0.00000000000E+00  0.26070888881E+02  0.26070888881E+02  0.00000000000E+00 0.  1.
          1   -1    0    0  501    0  0.00000000000E+00 -0.00000000000E+00 -0.67458701912E+03  0.67458701912E+03  0.00000000000E+00 0. -1.
         25    2    1    2    0    0 -0.13067593656E+01  0.75161455057E+02 -0.31601742783E+03  0.34808721240E+03  0.12508693298E+03 0.  0.
         23    2    1    2    0    0  0.13067593656E+01 -0.75161455057E+02 -0.33249870241E+03  0.35257069559E+03  0.89998646333E+02 0.  0.
          5    1    3    3  502    0 -0.77417160991E+01  0.43169572555E+02 -0.16933357643E+02  0.47199122489E+02  0.41800000000E+01 0.  1.
         -5    1    3    3    0  502  0.64349567335E+01  0.31991882502E+02 -0.29908407018E+03  0.30088808991E+03  0.41800000000E+01 0.  1.
        -11    1    4    4    0    0  0.17818109987E+02  0.13885487189E+02 -0.11094734473E+03  0.11322369496E+03  0.00000000000E+00 0. -1.
         11    1    4    4    0    0 -0.16511350622E+02 -0.89046942245E+02 -0.22155135768E+03  0.23934700063E+03  0.00000000000E+00 0.  1.
</event>
<event>
 8    1  0.7026811E-009  0.2589212E+03  0.7561462E-02  0.1107793E+00
         -2   -1    0    0    0  501 -0.00000000000E+00  0.00000000000E+00  0.44579901189E+02  0.44579901189E+02  0.00000000000E+00 0.  1.
          2   -1    0    0  501    0  0.00000000000E+00 -0.00000000000E+00 -0.15565475002E+04  0.15565475002E+04  0.00000000000E+00 0. -1.
         25    2    1    2    0    0 -0.24031622974E+03  0.47240730241E+01 -0.78196102839E+03  0.82757757295E+03  0.12508949673E+03 0.  0.
         23    2    1    2    0    0  0.24031622974E+03 -0.47240730241E+01 -0.73000657059E+03  0.77354982841E+03  0.87724208609E+02 0.  0.
          5    1    3    3  502    0 -0.23398553710E+03  0.31204243623E+02 -0.62275413609E+03  0.66600534743E+03  0.41800000000E+01 0.  1.
         -5    1    3    3    0  502 -0.63306926466E+01 -0.26480170599E+02 -0.15920689230E+03  0.16157222552E+03  0.41800000000E+01 0.  1.
        -11    1    4    4    0    0  0.10788099481E+03 -0.43326996264E+02 -0.29033650669E+03  0.31274722183E+03  0.00000000000E+00 0.  1.
         11    1    4    4    0    0  0.13243523493E+03  0.38602923240E+02 -0.43967006390E+03  0.46080260658E+03  0.00000000000E+00 0. -1.
</event>
<event>
 8    1  0.7026811E-009  0.1732856E+03  0.7561462E-02  0.1174464E+00
          1   -1    0    0  501    0  0.00000000000E+00  0.00000000000E+00  0.21105006072E+03  0.21105006072E+03  0.00000000000E+00 0. -1.
         -1   -1    0    0    0  501 -0.00000000000E+00 -0.00000000000E+00 -0.15782207458E+03  0.15782207458E+03  0.00000000000E+00 0.  1.
         25    2    1    2    0    0 -0.13384147883E+03 -0.52199523540E+02  0.42529374571E+02  0.19517694144E+03  0.12508780539E+03 0.  0.
         23    2    1    2    0    0  0.13384147883E+03  0.52199523540E+02  0.10698611567E+02  0.17369519385E+03  0.97042404975E+02 0.  0.
          5    1    3    3  502    0 -0.22980534812E+02  0.39868251865E+02  0.13223392056E+02  0.48061554120E+02  0.41800000000E+01 0.  1.
         -5    1    3    3    0  502 -0.11086094402E+03 -0.92067775405E+02  0.29305982515E+02  0.14711538732E+03  0.41800000000E+01 0.  1.
        -11    1    4    4    0    0  0.40531207637E+02 -0.12771845392E+02 -0.30986141738E+02  0.52593153614E+02  0.00000000000E+00 0.  1.
         11    1    4    4    0    0  0.93310271192E+02  0.64971368931E+02  0.41684753305E+02  0.12110204023E+03  0.00000000000E+00 0. -1.
</event>
<event>
 8    1  0.7026811E-009  0.1826238E+03  0.7561462E-02  0.1165288E+00
         -2   -1    0    0    0  501 -0.00000000000E+00  0.00000000000E+00  0.20448429263E+03  0.20448429263E+03  0.00000000000E+00 0.  1.
          2   -1    0    0  501    0  0.00000000000E+00 -0.00000000000E+00 -0.18577749757E+03  0.18577749757E+03  0.00000000000E+00 0. -1.
         25    2    1    2    0    0 -0.14913598656E+03 -0.27248517831E+02  0.64872793489E+02  0.20697816904E+03  0.12508980339E+03 0.  0.
         23    2    1    2    0    0  0.14913598656E+03  0.27248517831E+02 -0.46165998434E+02  0.18328362116E+03  0.92073677900E+02 0.  0.
          5    1    3    3  502    0 -0.67087999948E+02  0.43235512882E+02 -0.16227186701E+01  0.79938819901E+02  0.41800000000E+01 0. -1.
         -5    1    3    3    0  502 -0.82047986611E+02 -0.70484030713E+02  0.66495512159E+02  0.12703934914E+03  0.41800000000E+01 0. -1.
        -11    1    4    4    0    0  0.52400579991E+02 -0.34110032582E+02 -0.11266888161E+02  0.63531550233E+02  0.00000000000E+00 0.  1.
         11    1    4    4    0    0  0.96735406568E+02  0.61358550413E+02 -0.34899110273E+02  0.11975207092E+03  0.00000000000E+00 0. -1.
</event>
<event>
 8    1  0.7026811E-009  0.1602783E+03  0.7561462E-02  0.1188383E+00
         -2   -1    0    0    0  501 -0.00000000000E+00  0.00000000000E+00  0.52980912289E+02  0.52980912289E+02  0.00000000000E+00 0.  1.
          2   -1    0    0  501    0  0.00000000000E+00 -0.00000000000E+00 -0.60138379461E+03  0.60138379461E+03  0.00000000000E+00 0. -1.
         25    2    1    2    0    0  0.84197894051E+02 -0.11285608806E+03 -0.32152516209E+03  0.37262816841E+03  0.12509012774E+03 0.  0.
         23    2    1    2    0    0 -0.84197894051E+02  0.11285608806E+03 -0.22687772023E+03  0.28173653849E+03  0.89867653858E+02 0.  0.
          5    1    3    3  502    0  0.11558991532E+02 -0.83065352831E+02 -0.25870585562E+03  0.27199201322E+03  0.41800000000E+01 0.  1.
         -5    1    3    3    0  502  0.72638902520E+02 -0.29790735226E+02 -0.62819306472E+02  0.10063615518E+03  0.41800000000E+01 0.  1.
        -11    1    4    4    0    0 -0.77524890960E+02  0.44710959653E+02 -0.17237284333E+03  0.19422043083E+03  0.00000000000E+00 0. -1.
         11    1    4    4    0    0 -0.66730030917E+01  0.68145128404E+02 -0.54504876900E+02  0.87516107668E+02  0.00000000000E+00 0.  1.
</event>
<event>
 8    1  0.7026811E-009  0.1437142E+03  0.7561462E-02  0.1208417E+00
          1   -1    0    0  501    0  0.00000000000E+00  0.00000000000E+00  0.41777968519E+02  0.41777968519E+02  0.00000000000E+00 0. -1.
         -1   -1    0    0    0  501 -0.00000000000E+00 -0.00000000000E+00 -0.62958135633E+03  0.62958135633E+03  0.00000000000E+00 0.  1.
         25    2    1    2    0    0 -0.97557649260E+02  0.52412396606E+02 -0.41257668850E+03  0.44512117908E+03  0.12509510750E+03 0.  0.
         23    2    1    2    0    0  0.97557649260E+02 -0.52412396606E+02 -0.17522669931E+03  0.22623814577E+03  0.90635248131E+02 0.  0.
          5    1    3    3  502    0 -0.12240252698E+03  0.36834903202E+02 -0.26067753886E+03  0.29036087954E+03  0.41800000000E+01 0.  1.
         -5    1    3    3    0  502  0.24844877717E+02  0.15577493403E+02 -0.15189914964E+03  0.15476029953E+03  0.41800000000E+01 0.  1.
        -11    1    4    4    0    0  0.56134806041E+02 -0.65697281478E+02 -0.66208746483E+02  0.10886159724E+03  0.00000000000E+00 0. -1.
         11    1    4    4    0    0  0.41422843218E+02  0.13284884872E+02 -0.10901795283E+03  0.11737654853E+03  0.00000000000E+00 0.  1.
</event>
<event>
 8    1  0.7026811E-009  0.8525093E+02  0.7561462E-02  0.1314778E+00
         -2   -1    0    0    0  501 -0.00000000000E+00  0.00000000000E+00  0.37216748854E+02  0.37216748854E+02  0.00000000000E+00 0.  1.
          2   -1    0    0  501    0  0.00000000000E+00 -0.00000000000E+00 -0.33461599794E+03  0.33461599794E+03  0.00000000000E+00 0. -1.
         25    2    1    2    0    0  0.23128219319E+02 -0.46026241012E+01 -0.16753479913E+03  0.21040758707E+03  0.12508934847E+03 0.  0.
         23    2    1    2    0    0 -0.23128219319E+02  0.46026241012E+01 -0.12986444996E+03  0.16142515973E+03  0.92936581342E+02 0.  0.
          5    1    3    3  502    0 -0.26418929130E+02 -0.11368333898E+02 -0.15630634625E+03  0.15898536130E+03  0.41800000000E+01 0.  1.
         -5    1    3    3    0  502  0.49547148449E+02  0.67657097969E+01 -0.11228452879E+02  0.51422225765E+02  0.41800000000E+01 0.  1.
        -11    1    4    4    0    0  0.30237115005E+02 -0.15810293610E+02 -0.26058051875E+02  0.42933327094E+02  0.00000000000E+00 0.  1.
         11    1    4    4    0    0 -0.53365334324E+02  0.20412917712E+02 -0.10380639809E+03  0.11849183263E+03  0.00000000000E+00 0. -1.
</event>
<event>
 8    1  0.7026811E-009  0.9849155E+02  0.7561462E-02  0.1283500E+00
          2   -1    0    0  501    0  0.00000000000E+00  0.00000000000E+00  0.70296305107E+02  0.70296305107E+02  0.00000000000E+00 0. -1.
         -2   -1    0    0    0  501 -0.00000000000E+00 -0.00000000000E+00 -0.18749538188E+03  0.18749538188E+03  0.00000000000E+00 0.  1.
         25    2    1    2    0    0  0.16827349342E+02 -0.23869742595E+02 -0.95465785723E+02  0.16005412747E+03  0.12510269054E+03 0.  0.
         23    2    1    2    0    0 -0.16827349342E+02  0.23869742595E+02 -0.21733291051E+02  0.97737559516E+02  0.90704852697E+02 0.  0.
          5    1    3    3  502    0 -0.39597939815E+02  0.13180577428E+02 -0.80522695801E+02  0.90791527126E+02  0.41800000000E+01 0. -1.
         -5    1    3    3    0  502  0.56425289157E+02 -0.37050320023E+02 -0.14943089922E+02  0.69262600346E+02  0.41800000000E+01 0. -1.
        -11    1    4    4    0    0  0.31723959308E+02  0.22400308155E+02  0.95109042829E+01  0.39983005138E+02  0.00000000000E+00 0. -1.
         11    1    4    4    0    0 -0.48551308650E+02  0.14694344398E+01 -0.31244195334E+02  0.57754554377E+02  0.00000000000E+00 0.  1.
</event>
<event>
 8    1  0.7026811E-009  0.6261029E+02  0.7561462E-02  0.1387193E+00
         -2   -1    0    0    0  501 -0.00000000000E+00  0.00000000000E+00  0.68485678003E+03  0.68485678003E+03  0.00000000000E+00 0.  1.
          2   -1    0    0  501    0  0.00000000000E+00 -0.00000000000E+00 -0.18292691483E+02  0.18292691483E+02  0.00000000000E+00 0. -1.
         25    2    1    2    0    0  0.23745871288E+02 -0.83269238473E+01  0.42539973782E+03  0.44412336471E+03  0.12508965617E+03 0.  0.
         23    2    1    2    0    0 -0.23745871288E+02  0.83269238473E+01  0.24116435073E+03  0.25902610681E+03  0.91110240261E+02 0.  0.
          5    1    3    3  502    0  0.17082063247E+02  0.13321837037E+02  0.44033468792E+01  0.22497335188E+02  0.41800000000E+01 0.  1.
         -5    1    3    3    0  502  0.66638080410E+01 -0.21648760884E+02  0.42099639094E+03  0.42162602952E+03  0.41800000000E+01 0.  1.
        -11    1    4    4    0    0 -0.43601839069E+02  0.28284349428E+02  0.21282952660E+03  0.21908339094E+03  0.00000000000E+00 0.  1.
         11    1    4    4    0    0  0.19855967782E+02 -0.19957425581E+02  0.28334824130E+02  0.39942715867E+02  0.00000000000E+00 0. -1.
</event>
<event>
 8    1  0.7026811E-009  0.1392028E+03  0.7561462E-02  0.1214406E+00
         -1   -1    0    0    0  501 -0.00000000000E+00  0.00000000000E+00  0.89272082472E+02  0.89272082472E+02  0.00000000000E+00 0.  1.
          1   -1    0    0  501    0  0.00000000000E+00 -0.00000000000E+00 -0.27758145335E+03  0.27758145335E+03  0.00000000000E+00 0. -1.
         25    2    1    2    0    0 -0.42449806786E+02  0.96260043331E+02 -0.15129824623E+03  0.22273307727E+03  0.12510348660E+03 0.  0.
         23    2    1    2    0    0  0.42449806786E+02 -0.96260043331E+02 -0.37011124652E+02  0.14412045855E+03  0.91284725928E+02 0.  0.
          5    1    3    3  502    0  0.40706729468E+02  0.32593661432E+02 -0.23226849336E+02  0.57239352893E+02  0.41800000000E+01 0. -1.
         -5    1    3    3    0  502 -0.83156536255E+02  0.63666381898E+02 -0.12807139689E+03  0.16549372438E+03  0.41800000000E+01 0. -1.
        -11    1    4    4    0    0 -0.15598838101E+02 -0.23345724800E+02  0.20356203095E+02  0.34680277118E+02  0.00000000000E+00 0.  1.
         11    1    4    4    0    0  0.58048644888E+02 -0.72914318531E+02 -0.57367327747E+02  0.10944018144E+03  0.00000000000E+00 0. -1.
</event>
<event>
 8    1  0.7026811E-009  0.9606021E+02  0.7561462E-02  0.1288806E+00
         -1   -1    0    0    0  501 -0.00000000000E+00  0.00000000000E+00  0.43674313635E+03  0.43674313635E+03  0.00000000000E+00 0.  1.
          1   -1    0    0  501    0  0.00000000000E+00 -0.00000000000E+00 -0.35283765374E+02  0.35283765374E+02  0.00000000000E+00 0. -1.
         25    2    1    2    0    0 -0.18821850214E+02  0.13354616830E+02  0.33129825949E+03  0.35487857408E+03  0.12509059821E+03 0.  0.
         23    2    1    2    0    0  0.18821850214E+02 -0.13354616830E+02  0.70161111481E+02  0.11714832764E+03  0.90931519669E+02 0.  0.
          5    1    3    3  502    0 -0.67548492319E+02 -0.31491596366E+01  0.24618612068E+03  0.25533858784E+03  0.41800000000E+01 0.  1.
         -5    1    3    3    0  502  0.48726642105E+02  0.16503776467E+02  0.85112138810E+02  0.99539986243E+02  0.41800000000E+01 0.  1.
        -11    1    4    4    0    0 -0.19352729119E+02 -0.26114369905E+02 -0.40194565069E+01  0.32751251434E+02  0.00000000000E+00 0. -1.
         11    1    4    4    0    0  0.38174579333E+02  0.12759753074E+02  0.74180567987E+02  0.84397076209E+02  0.00000000000E+00 0.  1.
</event>
<event>
 8    1  0.7026811E-009  0.1088428E+03  0.7561462E-02  0.1262728E+00
         -1   -1    0    0    0  501 -0.00000000000E+00  0.00000000000E+00  0.35083480445E+03  0.35083480445E+03  0.00000000000E+00 0.  1.
          1   -1    0    0  501    0  0.00000000000E+00 -0.00000000000E+00 -0.51606326329E+02  0.51606326329E+02  0.00000000000E+00 0. -1.
         25    2    1    2    0    0  0.18050766737E+02  0.23619542649E+02  0.27339211267E+03  0.30211838728E+03  0.12509420326E+03 0.  0.
         23    2    1    2    0    0 -0.18050766737E+02 -0.23619542649E+02  0.25836365454E+02  0.10032274350E+03  0.92268207466E+02 0.  0.
          5    1    3    3  502    0  0.30875865712E+02  0.69270251866E+02  0.12488968236E+03  0.14617315772E+03  0.41800000000E+01 0.  1.
         -5    1    3    3    0  502 -0.12825098975E+02 -0.45650709218E+02  0.14850243031E+03  0.15594522956E+03  0.41800000000E+01 0.  1.
        -11    1    4    4    0    0 -0.30609530833E+02 -0.53543968238E+02  0.52671371921E+01  0.61900263704E+02  0.00000000000E+00 0. -1.
         11    1    4    4    0    0  0.12558764095E+02  0.29924425589E+02  0.20569228262E+02  0.38422479797E+02  0.00000000000E+00 0.  1.
</event>
<event>
 8    1  0.7026811E-009  0.1737570E+03  0.7561462E-02  0.1173986E+00
         -1   -1    0    0    0  501 -0.00000000000E+00  0.00000000000E+00  0.26098640190E+02  0.26098640190E+02  0.00000000000E+00 0.  1.
          1   -1    0    0  501    0  0.00000000000E+00 -0.00000000000E+00 -0.15628967352E+04  0.15628967352E+04  0.00000000000E+00 0. -1.
         25    2    1    2    0    0 -0.12399313826E+03  0.60042630813E+02 -0.11952206355E+04  0.12096195615E+04  0.12509076724E+03 0.  0.
         23    2    1    2    0    0  0.12399313826E+03 -0.60042630813E+02 -0.34157745951E+03  0.37937581395E+03  0.90947410709E+02 0.  0.
          5    1    3    3  502    0 -0.14563441482E+03  0.68644881983E+02 -0.10849726490E+04  0.10968612602E+04  0.41800000000E+01 0. -1.
         -5    1    3    3    0  502  0.21641276565E+02 -0.86022511704E+01 -0.11024798655E+03  0.11275830131E+03  0.41800000000E+01 0. -1.
        -11    1    4    4    0    0  0.13765666017E+03 -0.54481767234E+02 -0.28825276322E+03  0.32404825961E+03  0.00000000000E+00 0.  1.
         11    1    4    4    0    0 -0.13663521918E+02 -0.55608635794E+01 -0.53324696282E+02  0.55327554334E+02  0.00000000000E+00 0. -1.
</event>
<event>
 8    1  0.7026811E-009  0.1627557E+03  0.7561462E-02  0.1185620E+00
         -2   -1    0    0    0  501 -0.00000000000E+00  0.00000000000E+00  0.54343153247E+02  0.54343153247E+02  0.00000000000E+00 0.  1.
          2   -1    0    0  501    0  0.00000000000E+00 -0.00000000000E+00 -0.67026193881E+03  0.67026193881E+03  0.00000000000E+00 0. -1.
         25    2    1    2    0    0 -0.14907990036E+03 -0.16020740945E+02 -0.24376674633E+03  0.31233179180E+03  0.12508973067E+03 0.  0.
         23    2    1    2    0    0  0.14907990036E+03  0.16020740945E+02 -0.37215203923E+03  0.41227330026E+03  0.94819053843E+02 0.  0.
          5    1    3    3  502    0 -0.14284458247E+03  0.87430227307E+01 -0.24775607293E+03  0.28614954004E+03  0.41800000000E+01 0.  1.
         -5    1    3    3    0  502 -0.62353178840E+01 -0.24763763676E+02  0.39893266026E+01  0.26182251760E+02  0.41800000000E+01 0.  1.
        -11    1    4    4    0    0  0.24367497931E+02 -0.14114755990E+02 -0.13238577796E+02  0.31116896281E+02  0.00000000000E+00 0.  1.
         11    1    4    4    0    0  0.12471240242E+03  0.30135496935E+02 -0.35891346144E+03  0.38115640398E+03  0.00000000000E+00 0. -1.
</event>
<event>
 8    1  0.7026811E-009  0.1243916E+03  0.7561462E-02  0.1236023E+00
         -2   -1    0    0    0  501 -0.00000000000E+00  0.00000000000E+00  0.53749798900E+02  0.53749798900E+02  0.00000000000E+00 0.  1.
          2   -1    0    0  501    0  0.00000000000E+00 -0.00000000000E+00 -0.46453382492E+03  0.46453382492E+03  0.00000000000E+00 0. -1.
         25    2    1    2    0    0 -0.92000797973E+02  0.48545671603E+02 -0.29733786092E+03  0.33893642649E+03  0.12508904270E+03 0.  0.
         23    2    1    2    0    0  0.92000797973E+02 -0.48545671603E+02 -0.11344616510E+03  0.17934719733E+03  0.92057350369E+02 0.  0.
          5    1    3    3  502    0 -0.13638413984E+02 -0.27368242674E+02 -0.16265310620E+03  0.16555522462E+03  0.41800000000E+01 0.  1.
         -5    1    3    3    0  502 -0.78362383989E+02  0.75913914277E+02 -0.13468475472E+03  0.17338120186E+03  0.41800000000E+01 0.  1.
        -11    1    4    4    0    0  0.56173535658E+02 -0.46376767128E+02 -0.12232577785E+03  0.14237228159E+03  0.00000000000E+00 0. -1.
         11    1    4    4    0    0  0.35827262315E+02 -0.21689044748E+01  0.88796127552E+01  0.36974915744E+02  0.00000000000E+00 0.  1.
</event>
<event>
 8    1  0.7026811E-009  0.1163978E+03  0.7561462E-02  0.1249161E+00
          1   -1    0    0  501    0  0.00000000000E+00  0.00000000000E+00  0.37857637992E+03  0.37857637992E+03  0.00000000000E+00 0. -1.
         -1   -1    0    0    0  501 -0.00000000000E+00 -0.00000000000E+00 -0.38199201323E+02  0.38199201323E+02  0.00000000000E+00 0.  1.
         25    2    1    2    0    0  0.54053017966E+02  0.64182172832E+01  0.17247633853E+03  0.21990596635E+03  0.12509046494E+03 0.  0.
         23    2    1    2    0    0 -0.54053017966E+02 -0.64182172832E+01  0.16790084007E+03  0.19686961489E+03  0.87201094657E+02 0.  0.
          5    1    3    3  502    0  0.40530660486E+02  0.61917563994E+02  0.12583145650E+03  0.14603953922E+03  0.41800000000E+01 0. -1.
         -5    1    3    3    0  502  0.13522357480E+02 -0.55499346710E+02  0.46644882028E+02  0.73866427127E+02  0.41800000000E+01 0. -1.
        -11    1    4    4    0    0  0.23313947488E+02 -0.58186997127E+01  0.54807965094E+02  0.59844051096E+02  0.00000000000E+00 0. -1.
         11    1    4    4    0    0 -0.77366965453E+02 -0.59951757054E+00  0.11309287497E+03  0.13702556380E+03  0.00000000000E+00 0.  1.
</event>
<event>
 8    1  0.7026811E-009  0.1036387E+03  0.7561462E-02  0.1272825E+00
          1   -1    0    0  501    0  0.00000000000E+00  0.00000000000E+00  0.33170730092E+03  0.33170730092E+03  0.00000000000E+00 0. -1.
         -1   -1    0    0    0  501 -0.00000000000E+00 -0.00000000000E+00 -0.38150504492E+02  0.38150504492E+02  0.00000000000E+00 0.  1.
         25    2    1    2    0    0 -0.16232669253E+02  0.17081636938E+02  0.17095675822E+03  0.21314170124E+03  0.12509152551E+03 0.  0.
         23    2    1    2    0    0  0.16232669253E+02 -0.17081636938E+02  0.12260003821E+03  0.15671610418E+03  0.94730597313E+02 0.  0.
          5    1    3    3  502    0  0.29705614451E+02  0.56638234927E+02  0.10840093710E+03  0.12593072996E+03  0.41800000000E+01 0. -1.
         -5    1    3    3    0  502 -0.45938283705E+02 -0.39556597990E+02  0.62555821121E+02  0.87210971273E+02  0.41800000000E+01 0. -1.
        -11    1    4    4    0    0 -0.26021670951E+02  0.14387317480E+02  0.89943191023E+02  0.94730670191E+02  0.00000000000E+00 0. -1.
         11    1    4    4    0    0  0.42254340205E+02 -0.31468954417E+02  0.32656847191E+02  0.61985433988E+02  0.00000000000E+00 0.  1.
</event>
<event>
 8    1  0.7026811E-009  0.1286791E+03  0.7561462E-02  0.1229429E+00
         -2   -1    0    0    0  501 -0.00000000000E+00  0.00000000000E+00  0.35978120520E+03  0.35978120520E+03  0.00000000000E+00 0. -1.
          2   -1    0    0  501    0  0.00000000000E+00 -0.00000000000E+00 -0.58317101113E+02  0.58317101113E+02  0.00000000000E+00 0.  1.
         25    2    1    2    0    0  0.74265043209E+02  0.59133886472E+02  0.17840324311E+03  0.23767269931E+03  0.12509389143E+03 0.  0.
         23    2    1    2    0    0 -0.74265043209E+02 -0.59133886472E+02  0.12306086098E+03  0.18042560700E+03  0.91636842945E+02 0.  0.
          5    1    3    3  502    0  0.80750152638E+02  0.83057194283E+02  0.92895322426E+02  0.14854661895E+03  0.41800000000E+01 0.  1.
         -5    1    3    3    0  502 -0.64851094296E+01 -0.23923307811E+02  0.85507920680E+02  0.89126080358E+02  0.41800000000E+01 0.  1.
        -11    1    4    4    0    0 -0.62097115044E+02 -0.74318567801E+02  0.58836663887E+02  0.11331837554E+03  0.00000000000E+00 0.  1.
         11    1    4    4    0    0 -0.12167928165E+02  0.15184681330E+02  0.64224197090E+02  0.67107231464E+02  0.00000000000E+00 0. -1.
</event>
<event>
 8    1  0.7026811E-009  0.1167920E+03  0.7561462E-02  0.1248485E+00
         -2   -1    0    0    0  501 -0.00000000000E+00  0.00000000000E+00  0.15304015803E+02  0.15304015803E+02  0.00000000000E+00 0.  1.
          2   -1    0    0  501    0  0.00000000000E+00 -0.00000000000E+00 -0.12333259150E+04  0.12333259150E+04  0.00000000000E+00 0. -1.
         25    2    1    2    0    0  0.41770993812E+02 -0.15327200099E+02 -0.97913048255E+03  0.98809175887E+03  0.12509629530E+03 0.  0.
         23    2    1    2    0    0 -0.41770993812E+02  0.15327200099E+02 -0.23889141661E+03  0.26053817190E+03  0.93974949319E+02 0.  0.
          5    1    3    3  502    0  0.84293206745E+02 -0.52472861416E+00 -0.52827720023E+03  0.53497653474E+03  0.41800000000E+01 0. -1.
         -5    1    3    3    0  502 -0.42522212934E+02 -0.14802471485E+02 -0.45085328232E+03  0.45311522412E+03  0.41800000000E+01 0. -1.
        -11    1    4    4    0    0 -0.43232291125E+02 -0.33763632169E+02 -0.12775719836E+03  0.13903566300E+03  0.00000000000E+00 0. -1.
         11    1    4    4    0    0  0.14612973132E+01  0.49090832267E+02 -0.11113421826E+03  0.12150250890E+03  0.00000000000E+00 0.  1.
</event>
<event>
 8    1  0.7026811E-009  0.1006224E+03  0.7561462E-02  0.1278993E+00
         -1   -1    0    0    0  501 -0.00000000000E+00  0.00000000000E+00  0.90914395565E+02  0.90914395565E+02  0.00000000000E+00 0.  1.
          1   -1    0    0  501    0  0.00000000000E+00 -0.00000000000E+00 -0.24777558907E+03  0.24777558907E+03  0.00000000000E+00 0. -1.
         25    2    1    2    0    0  0.72056869016E+02 -0.33775593280E+02 -0.10425548618E+02  0.14862372622E+03  0.12508931552E+03 0.  0.
         23    2    1    2    0    0 -0.72056869016E+02  0.33775593280E+02 -0.14643564488E+03  0.19006625842E+03  0.91371775851E+02 0.  0.
          5    1    3    3  502    0  0.11578619966E+01 -0.40274494247E+02 -0.52120913496E+02  0.66010889669E+02  0.41800000000E+01 0. -1.
         -5    1    3    3    0  502  0.70899007019E+02  0.64989009670E+01  0.41695364878E+02  0.82612836547E+02  0.41800000000E+01 0. -1.
        -11    1    4    4    0    0 -0.55941775373E+02  0.46534228202E+01 -0.14638872778E+03  0.15678263997E+03  0.00000000000E+00 0. -1.
         11    1    4    4    0    0 -0.16115093642E+02  0.29122170459E+02 -0.46917102294E-01  0.33283618442E+02  0.00000000000E+00 0.  1.
</event>
<event>
 8    1  0.7026811E-009  0.9907322E+02  0.7561462E-02  0.1282257E+00
          4   -1    0    0  501    0  0.00000000000E+00  0.00000000000E+00  0.13707340758E+04  0.13707340758E+04  0.00000000000E+00 0. -1.
         -4   -1    0    0    0  501 -0.00000000000E+00 -0.00000000000E+00 -0.94094094718E+01  0.94094094718E+01  0.00000000000E+00 0.  1.
         25    2    1    2    0    0  0.27189475813E+02 -0.13923975691E+01  0.89486104227E+03  0.90397194513E+03  0.12509111178E+03 0.  0.
         23    2    1    2    0    0 -0.27189475813E+02  0.13923975691E+01  0.46646362402E+03  0.47617154010E+03  0.91705052770E+02 0.  0.
          5    1    3    3  502    0 -0.32704826910E+02 -0.21863343265E+02  0.64403784748E+03  0.64525175930E+03  0.41800000000E+01 0.  1.
         -5    1    3    3    0  502  0.59894302723E+02  0.20470945696E+02  0.25082319479E+03  0.25872018584E+03  0.41800000000E+01 0.  1.
        -11    1    4    4    0    0  0.48062152891E+01 -0.41423381004E+02  0.18038315982E+03  0.18514070472E+03  0.00000000000E+00 0.  1.
         11    1    4    4    0    0 -0.31995691102E+02  0.42815778573E+02  0.28608046420E+03  0.29103083538E+03  0.00000000000E+00 0. -1.
</event>
<event>
 8    1  0.7026811E-009  0.1261552E+03  0.7561462E-02  0.1233275E+00
          1   -1    0    0  501    0  0.00000000000E+00  0.00000000000E+00  0.25054856192E+03  0.25054856192E+03  0.00000000000E+00 0.  1.
         -1   -1    0    0    0  501 -0.00000000000E+00 -0.00000000000E+00 -0.89556927321E+02  0.89556927321E+02  0.00000000000E+00 0. -1.
         25    2    1    2    0    0 -0.93717020607E+02 -0.50314772269E+02  0.90825597763E+02  0.18763548583E+03  0.12507329880E+03 0.  0.
         23    2    1    2    0    0  0.93717020607E+02  0.50314772269E+02  0.70166036835E+02  0.15247000341E+03  0.83721998039E+02 0.  0.
          5    1    3    3  502    0 -0.28143888173E+02  0.24970705205E+02  0.78243727693E+02  0.86920468725E+02  0.41800000000E+01 0. -1.
         -5    1    3    3    0  502 -0.65573132434E+02 -0.75285477474E+02  0.12581870070E+02  0.10071501710E+03  0.41800000000E+01 0. -1.
        -11    1    4    4    0    0  0.27652740772E+02  0.38522202271E+02 -0.94412301798E+01  0.48350501211E+02  0.00000000000E+00 0.  1.
         11    1    4    4    0    0  0.66064279835E+02  0.11792569998E+02  0.79607267015E+02  0.10411950220E+03  0.00000000000E+00 0. -1.
</event>
<event>
 8    1  0.7026811E-009  0.1020133E+03  0.7561462E-02  0.1276118E+00
          2   -1    0    0  501    0  0.00000000000E+00  0.00000000000E+00  0.82919518767E+03  0.82919518767E+03  0.00000000000E+00 0. -1.
         -2   -1    0    0    0  501 -0.00000000000E+00 -0.00000000000E+00 -0.15903797717E+02  0.15903797717E+02  0.00000000000E+00 0.  1.
         25    2    1    2    0    0 -0.14281348346E+02  0.34308692034E+02  0.44065849553E+03  0.45957408939E+03  0.12508953072E+03 0.  0.
         23    2    1    2    0    0  0.14281348346E+02 -0.34308692034E+02  0.37263289442E+03  0.38552489600E+03  0.91614017311E+02 0.  0.
          5    1    3    3  502    0  0.43337307032E+02  0.15543355312E+02  0.33103274490E+03  0.33424522236E+03  0.41800000000E+01 0. -1.
         -5    1    3    3    0  502 -0.57618655377E+02  0.18765336722E+02  0.10962575064E+03  0.12532886703E+03  0.41800000000E+01 0. -1.
        -11    1    4    4    0    0  0.45663232104E+02  0.59076445917E+01  0.14046494303E+03  0.14781891372E+03  0.00000000000E+00 0. -1.
         11    1    4    4    0    0 -0.31381883758E+02 -0.40216336626E+02  0.23216795139E+03  0.23770598228E+03  0.00000000000E+00 0.  1.
</event>
<event>
 8    1  0.7026811E-009  0.1126466E+03  0.7561462E-02  0.1255746E+00
          1   -1    0    0  501    0  0.00000000000E+00  0.00000000000E+00  0.34928235452E+03  0.34928235452E+03  0.00000000000E+00 0. -1.
         -1   -1    0    0    0  501 -0.00000000000E+00 -0.00000000000E+00 -0.38665363914E+02  0.38665363914E+02  0.00000000000E+00 0.  1.
         25    2    1    2    0    0  0.14360570859E+02 -0.30011340549E+02  0.21443575734E+03  0.25047364466E+03  0.12508975211E+03 0.  0.
         23    2    1    2    0    0 -0.14360570859E+02  0.30011340549E+02  0.96181233264E+02  0.13747407378E+03  0.92419612491E+02 0.  0.
          5    1    3    3  502    0 -0.45356646372E+02 -0.46445659448E+02  0.13317303882E+03  0.14821253429E+03  0.41800000000E+01 0. -1.
         -5    1    3    3    0  502  0.59717217231E+02  0.16434318899E+02  0.81262718527E+02  0.10226111037E+03  0.41800000000E+01 0. -1.
        -11    1    4    4    0    0  0.35527530205E+02 -0.67876190675E+01  0.33067168340E+02  0.49007293305E+02  0.00000000000E+00 0.  1.
         11    1    4    4    0    0 -0.49888101064E+02  0.36798959617E+02  0.63114064924E+02  0.88466780477E+02  0.00000000000E+00 0. -1.
</event>
<event>
 8    1  0.7026811E-009  0.3335437E+03  0.7561462E-02  0.1069580E+00
         -2   -1    0    0    0  501 -0.00000000000E+00  0.00000000000E+00  0.20410177731E+03  0.20410177731E+03  0.00000000000E+00 0.  1.
          2   -1    0    0  501    0  0.00000000000E+00 -0.00000000000E+00 -0.99216577730E+03  0.99216577730E+03  0.00000000000E+00 0. -1.
         25    2    1    2    0    0 -0.25638648076E+03 -0.20466962411E+03 -0.14661342903E+02  0.35140609441E+03  0.12509038997E+03 0.  0.
         23    2    1    2    0    0  0.25638648076E+03  0.20466962411E+03 -0.77340265708E+03  0.84486146020E+03  0.89529516910E+02 0.  0.
          5    1    3    3  502    0 -0.17952500303E+03 -0.18459510624E+03  0.31473025861E+02  0.25944672617E+03  0.41800000000E+01 0.  1.
         -5    1    3    3    0  502 -0.76861477729E+02 -0.20074517862E+02 -0.46134368764E+02  0.91959368241E+02  0.41800000000E+01 0.  1.
        -11    1    4    4    0    0  0.12345912207E+03  0.75830279412E+02 -0.44352999054E+03  0.46659536925E+03  0.00000000000E+00 0.  1.
         11    1    4    4    0    0  0.13292735869E+03  0.12883934469E+03 -0.32987266655E+03  0.37826609095E+03  0.00000000000E+00 0. -1.
</event>
<event>
 8    1  0.7026811E-009  0.4162172E+03  0.7561462E-02  0.1038305E+00
          1   -1    0    0  501    0  0.00000000000E+00  0.00000000000E+00  0.22726029955E+04  0.22726029955E+04  0.00000000000E+00 0. -1.
         -1   -1    0    0    0  501 -0.00000000000E+00 -0.00000000000E+00 -0.82919543646E+02  0.82919543646E+02  0.00000000000E+00 0.  1.
         25    2    1    2    0    0 -0.39789134217E+03 -0.10467377009E+03  0.13413516456E+04  0.14085977775E+04  0.12509733547E+03 0.  0.
         23    2    1    2    0    0  0.39789134217E+03  0.10467377009E+03  0.84833180620E+03  0.94692476158E+03  0.87895007609E+02 0.  0.
          5    1    3    3  502    0 -0.33471609673E+03 -0.73670060344E+02  0.12295169477E+04  0.12763978770E+04  0.41800000000E+01 0.  1.
         -5    1    3    3    0  502 -0.63175245438E+02 -0.31003709745E+02  0.11183469789E+03  0.13219990056E+03  0.41800000000E+01 0.  1.
        -11    1    4    4    0    0  0.21652822421E+03  0.98067883427E+02  0.44067372683E+03  0.50069463265E+03  0.00000000000E+00 0. -1.
         11    1    4    4    0    0  0.18136311796E+03  0.66058866619E+01  0.40765807937E+03  0.44623012893E+03  0.00000000000E+00 0.  1.
</event>
<event>
 8    1  0.7026811E-009  0.9356949E+02  0.7561462E-02  0.1294431E+00
         -2   -1    0    0    0  501 -0.00000000000E+00  0.00000000000E+00  0.15338537545E+03  0.15338537545E+03  0.00000000000E+00 0.  1.
          2   -1    0    0  501    0  0.00000000000E+00 -0.00000000000E+00 -0.20205786217E+03  0.20205786217E+03  0.00000000000E+00 0. -1.
         25    2    1    2    0    0  0.78658908596E+02  0.12053535625E+02 -0.14151509383E+03  0.20495597625E+03  0.12509164160E+03 0.  0.
         23    2    1    2    0    0 -0.78658908596E+02 -0.12053535625E+02  0.92842607110E+02  0.15048726136E+03  0.87716329808E+02 0.  0.
          5    1    3    3  502    0  0.41885836534E+02 -0.22004147939E+02 -0.14688555995E+03  0.15437436947E+03  0.41800000000E+01 0.  1.
         -5    1    3    3    0  502  0.36773072062E+02  0.34057683564E+02  0.53704661152E+01  0.50581606784E+02  0.41800000000E+01 0.  1.
        -11    1    4    4    0    0 -0.32554648936E+02 -0.25463373209E+02  0.93758284406E+02  0.10246367375E+03  0.00000000000E+00 0.  1.
         11    1    4    4    0    0 -0.46104259660E+02  0.13409837584E+02 -0.91567729628E+00  0.48023587618E+02  0.00000000000E+00 0. -1.
</event>
<event>
 8    1  0.7026811E-009  0.1306074E+03  0.7561462E-02  0.1226557E+00
          1   -1    0    0  501    0  0.00000000000E+00  0.00000000000E+00  0.41902541849E+03  0.41902541849E+03  0.00000000000E+00 0. -1.
         -1   -1    0    0    0  501 -0.00000000000E+00 -0.00000000000E+00 -0.46071466453E+02  0.46071466453E+02  0.00000000000E+00 0.  1.
         25    2    1    2    0    0  0.79521962754E+02  0.21166800517E+01  0.26371495212E+03  0.30252412207E+03  0.12508815118E+03 0.  0.
         23    2    1    2    0    0 -0.79521962754E+02 -0.21166800517E+01  0.10923899992E+03  0.16257276288E+03  0.90379871830E+02 0.  0.
          5    1    3    3  502    0  0.57199548210E+02  0.57810746286E+02  0.19430939626E+03  0.21068337518E+03  0.41800000000E+01 0. -1.
         -5    1    3    3    0  502  0.22322414545E+02 -0.55694066234E+02  0.69405555864E+02  0.91840746892E+02  0.41800000000E+01 0. -1.
        -11    1    4    4    0    0 -0.96846244916E+02  0.11599887179E+02  0.95764259677E+02  0.13669142610E+03  0.00000000000E+00 0.  1.
         11    1    4    4    0    0  0.17324282162E+02 -0.13716567231E+02  0.13474740241E+02  0.25881336781E+02  0.00000000000E+00 0. -1.
</event>
<event>
 8    1  0.7026811E-009  0.2545981E+03  0.7561462E-02  0.1110433E+00
         -2   -1    0    0    0  501 -0.00000000000E+00  0.00000000000E+00  0.76938922177E+02  0.76938922177E+02  0.00000000000E+00 0.  1.
          2   -1    0    0  501    0  0.00000000000E+00 -0.00000000000E+00 -0.95771829811E+03  0.95771829811E+03  0.00000000000E+00 0. -1.
         25    2    1    2    0    0  0.18363918409E+03 -0.15147304335E+03 -0.58722999642E+03  0.64587452013E+03  0.12508954497E+03 0.  0.
         23    2    1    2    0    0 -0.18363918409E+03  0.15147304335E+03 -0.29354937952E+03  0.38878270016E+03  0.91177392674E+02 0.  0.
          5    1    3    3  502    0 -0.15887414549E+02 -0.76080648365E+01 -0.81405889100E+02  0.83394746668E+02  0.41800000000E+01 0.  1.
         -5    1    3    3    0  502  0.19952659864E+03 -0.14386497851E+03 -0.50582410732E+03  0.56247977346E+03  0.41800000000E+01 0.  1.
        -11    1    4    4    0    0 -0.51889389661E+02  0.79528131850E+02 -0.64020597260E+02  0.11452453619E+03  0.00000000000E+00 0.  1.
         11    1    4    4    0    0 -0.13174979443E+03  0.71944911499E+02 -0.22952878226E+03  0.27425816398E+03  0.00000000000E+00 0. -1.
</event>
<event>
 8    1  0.7026811E-009  0.1173073E+03  0.7561462E-02  0.1247606E+00
         -2   -1    0    0    0  501 -0.00000000000E+00  0.00000000000E+00  0.17314563515E+02  0.17314563515E+02  0.00000000000E+00 0. -1.
          2   -1    0    0  501    0  0.00000000000E+00 -0.00000000000E+00 -0.11037819097E+04  0.11037819097E+04  0.00000000000E+00 0.  1.
         25    2    1    2    0    0 -0.18267863499E+02  0.78570805359E+02 -0.71248142124E+03  0.72786355467E+03  0.12509393395E+03 0.  0.
         23    2    1    2    0    0  0.18267863499E+02 -0.78570805359E+02 -0.37398592491E+03  0.39323291851E+03  0.90882175803E+02 0.  0.
          5    1    3    3  502    0  0.29109205877E+02 -0.18774826027E+02 -0.27318934665E+03  0.27540829959E+03  0.41800000000E+01 0. -1.
         -5    1    3    3    0  502 -0.47377069375E+02  0.97345631386E+02 -0.43929207459E+03  0.45245525508E+03  0.41800000000E+01 0. -1.
        -11    1    4    4    0    0 -0.13749756916E+02 -0.16012506729E+02 -0.11575513043E+02  0.24071740469E+02  0.00000000000E+00 0. -1.
         11    1    4    4    0    0  0.32017620415E+02 -0.62558298630E+02 -0.36241041186E+03  0.36916117804E+03  0.00000000000E+00 0.  1.
</event>
<event>
 8    1  0.7026811E-009  0.9642221E+02  0.7561462E-02  0.1288005E+00
         -2   -1    0    0    0  501 -0.00000000000E+00  0.00000000000E+00  0.35984507090E+02  0.35984507090E+02  0.00000000000E+00 0. -1.
          2   -1    0    0  501    0  0.00000000000E+00 -0.00000000000E+00 -0.43203523474E+03  0.43203523474E+03  0.00000000000E+00 0.  1.
         25    2    1    2    0    0  0.49308455131E+02 -0.36377395633E+02 -0.20725154821E+03  0.24971544550E+03  0.12509980345E+03 0.  0.
         23    2    1    2    0    0 -0.49308455131E+02  0.36377395633E+02 -0.18879917944E+03  0.21830429633E+03  0.90868019574E+02 0.  0.
          5    1    3    3  502    0  0.28880865714E+01 -0.43315126225E+02 -0.19663399267E+03  0.20141236476E+03  0.41800000000E+01 0. -1.
         -5    1    3    3    0  502  0.46420368560E+02  0.69377305915E+01 -0.10617555541E+02  0.48303080737E+02  0.41800000000E+01 0. -1.
        -11    1    4    4    0    0  0.21784934053E+02  0.19042341486E+02 -0.95172576603E+02  0.99473682239E+02  0.00000000000E+00 0.  1.
         11    1    4    4    0    0 -0.71093389184E+02  0.17335054147E+02 -0.93626602833E+02  0.11883061409E+03  0.00000000000E+00 0. -1.
</event>
<event>
 8    1  0.7026811E-009  0.1431946E+03  0.7561462E-02  0.1209094E+00
          2   -1    0    0  501    0  0.00000000000E+00  0.00000000000E+00  0.55243758304E+02  0.55243758304E+02  0.00000000000E+00 0. -1.
         -2   -1    0    0    0  501 -0.00000000000E+00 -0.00000000000E+00 -0.47805844117E+03  0.47805844117E+03  0.00000000000E+00 0.  1.
         25    2    1    2    0    0 -0.10961974849E+03  0.32595645360E+02 -0.28713932546E+03  0.33343214498E+03  0.12509611396E+03 0.  0.
         23    2    1    2    0    0  0.10961974849E+03 -0.32595645360E+02 -0.13567535741E+03  0.19987005449E+03  0.91985165753E+02 0.  0.
          5    1    3    3  502    0  0.15387476109E+02  0.40695496304E+02 -0.85204160840E+02  0.95760739684E+02  0.41800000000E+01 0.  1.
         -5    1    3    3    0  502 -0.12500722460E+03 -0.80998509434E+01 -0.20193516462E+03  0.23767140530E+03  0.41800000000E+01 0.  1.
        -11    1    4    4    0    0  0.60235039438E+02 -0.42124811274E+01 -0.12911093222E+03  0.14253293581E+03  0.00000000000E+00 0.  1.
         11    1    4    4    0    0  0.49384709054E+02 -0.28383164233E+02 -0.65644251902E+01  0.57337118678E+02  0.00000000000E+00 0. -1.
</event>
<event>
 8    1  0.7026811E-009  0.1200922E+03  0.7561462E-02  0.1242945E+00
         -1   -1    0    0    0  501 -0.00000000000E+00  0.00000000000E+00  0.18286280850E+02  0.18286280850E+02  0.00000000000E+00 0.  1.
          1   -1    0    0  501    0  0.00000000000E+00 -0.00000000000E+00 -0.80492342898E+03  0.80492342898E+03  0.00000000000E+00 0. -1.
         25    2    1    2    0    0 -0.33290009638E+02 -0.37348013354E+02 -0.49084051894E+03  0.50899329545E+03  0.12508661373E+03 0.  0.
         23    2    1    2    0    0  0.33290009638E+02  0.37348013354E+02 -0.29579662919E+03  0.31421641439E+03  0.93451647307E+02 0.  0.
          5    1    3    3  502    0 -0.69834418007E+02 -0.59003071894E+02 -0.35482941949E+03  0.36644180680E+03  0.41800000000E+01 0. -1.
         -5    1    3    3    0  502  0.36544408369E+02  0.21655058540E+02 -0.13601109945E+03  0.14255148865E+03  0.41800000000E+01 0. -1.
        -11    1    4    4    0    0  0.54326129340E+02  0.55888575126E+02 -0.21484804443E+03  0.22854877675E+03  0.00000000000E+00 0. -1.
         11    1    4    4    0    0 -0.21036119702E+02 -0.18540561772E+02 -0.80948584760E+02  0.85667637633E+02  0.00000000000E+00 0.  1.
</event>
<event>
 8    1  0.7026811E-009  0.1712280E+03  0.7561462E-02  0.1176573E+00
         -2   -1    0    0    0  501 -0.00000000000E+00  0.00000000000E+00  0.81416959772E+02  0.81416959772E+02  0.00000000000E+00 0.  1.
          2   -1    0    0  501    0  0.00000000000E+00 -0.00000000000E+00 -0.48083699981E+03  0.48083699981E+03  0.00000000000E+00 0. -1.
         25    2    1    2    0    0 -0.13141742851E+03 -0.94997622794E+02 -0.16381814921E+03  0.26225805226E+03  0.12509121117E+03 0.  0.
         23    2    1    2    0    0  0.13141742851E+03  0.94997622794E+02 -0.23560189082E+03  0.29999590731E+03  0.90521845943E+02 0.  0.
          5    1    3    3  502    0 -0.91836200877E+02 -0.55843130502E+02 -0.21923939868E+02  0.10977465352E+03  0.41800000000E+01 0.  1.
         -5    1    3    3    0  502 -0.39581227635E+02 -0.39154492293E+02 -0.14189420934E+03  0.15248339875E+03  0.41800000000E+01 0.  1.
        -11    1    4    4    0    0  0.61763477074E+02  0.62460030229E+00 -0.12180660800E+03  0.13657220427E+03  0.00000000000E+00 0.  1.
         11    1    4    4    0    0  0.69653951437E+02  0.94373022492E+02 -0.11379528282E+03  0.16342370305E+03  0.00000000000E+00 0. -1.
</event>
<event>
 8    1  0.7026811E-009  0.1410294E+03  0.7561462E-02  0.1211951E+00
         -2   -1    0    0    0  501 -0.00000000000E+00  0.00000000000E+00  0.38199279110E+02  0.38199279110E+02  0.00000000000E+00 0.  1.
          2   -1    0    0  501    0  0.00000000000E+00 -0.00000000000E+00 -0.89716112165E+03  0.89716112165E+03  0.00000000000E+00 0. -1.
         25    2    1    2    0    0 -0.92702037969E+02  0.69444492925E+02 -0.69118956567E+03  0.71190610811E+03  0.12510429903E+03 0.  0.
         23    2    1    2    0    0  0.92702037969E+02 -0.69444492925E+02 -0.16777227688E+03  0.22345429266E+03  0.91477202495E+02 0.  0.
          5    1    3    3  502    0 -0.11629296815E+03  0.53440095198E+02 -0.41729517866E+03  0.43650044301E+03  0.41800000000E+01 0. -1.
         -5    1    3    3    0  502  0.23590930185E+02  0.16004397727E+02 -0.27389438701E+03  0.27540566510E+03  0.41800000000E+01 0. -1.
        -11    1    4    4    0    0  0.73284048305E+02 -0.26263307845E+02 -0.40694143999E+02  0.87842623087E+02  0.00000000000E+00 0.  1.
         11    1    4    4    0    0  0.19417989665E+02 -0.43181185080E+02 -0.12707813288E+03  0.13561166957E+03  0.00000000000E+00 0. -1.
</event>
<event>
 8    1  0.7026811E-009  0.1000362E+03  0.7561462E-02  0.1280220E+00
         -1   -1    0    0    0  501 -0.00000000000E+00  0.00000000000E+00  0.11404651657E+03  0.11404651657E+03  0.00000000000E+00 0.  1.
          1   -1    0    0  501    0  0.00000000000E+00 -0.00000000000E+00 -0.19086310478E+03  0.19086310478E+03  0.00000000000E+00 0. -1.
         25    2    1    2    0    0 -0.57819853691E+02 -0.41908713700E+02 -0.11346001565E+03  0.18335692226E+03  0.12508840884E+03 0.  0.
         23    2    1    2    0    0  0.57819853691E+02  0.41908713700E+02  0.36643427448E+02  0.12155269908E+03  0.91284402359E+02 0.  0.
          5    1    3    3  502    0 -0.21015773492E+02 -0.61105394507E+02 -0.24873065889E+01  0.64801165633E+02  0.41800000000E+01 0. -1.
         -5    1    3    3    0  502 -0.36804080199E+02  0.19196680807E+02 -0.11097270906E+03  0.11855575663E+03  0.41800000000E+01 0. -1.
        -11    1    4    4    0    0  0.20649082843E+02 -0.15073412419E+02  0.46248233729E+02  0.52844030006E+02  0.00000000000E+00 0.  1.
         11    1    4    4    0    0  0.37170770848E+02  0.56982126120E+02 -0.96048062804E+01  0.68708669076E+02  0.00000000000E+00 0. -1.
</event>
<event>
 8    1  0.7026811E-009  0.1185274E+03  0.7561462E-02  0.1245546E+00
          2   -1    0    0  501    0  0.00000000000E+00  0.00000000000E+00  0.10366111550E+03  0.10366111550E+03  0.00000000000E+00 0.  1.
         -2   -1    0    0    0  501 -0.00000000000E+00 -0.00000000000E+00 -0.19640811467E+03  0.19640811467E+03  0.00000000000E+00 0. -1.
         25    2    1    2    0    0  0.57669731193E+02  0.39403336844E+02 -0.11360619753E+03  0.18284543882E+03  0.12509062926E+03 0.  0.
         23    2    1    2    0    0 -0.57669731193E+02 -0.39403336844E+02  0.20859198354E+02  0.11722379135E+03  0.91803541615E+02 0.  0.
          5    1    3    3  502    0  0.93384800329E+02  0.10057436512E+02 -0.58225661892E+02  0.11058740012E+03  0.41800000000E+01 0. -1.
         -5    1    3    3    0  502 -0.35715069136E+02  0.29345900332E+02 -0.55380535637E+02  0.72258038703E+02  0.41800000000E+01 0. -1.
        -11    1    4    4    0    0 -0.71508564334E+02 -0.41420202128E+02  0.41357155568E+02  0.92409535407E+02  0.00000000000E+00 0.  1.
         11    1    4    4    0    0  0.13838833141E+02  0.20168652834E+01 -0.20497957214E+02  0.24814255947E+02  0.00000000000E+00 0. -1.
</event>
<event>
 8    1  0.7026811E-009  0.6565961E+02  0.7561462E-02  0.1375507E+00
         -2   -1    0    0    0  501 -0.00000000000E+00  0.00000000000E+00  0.88212094151E+02  0.88212094151E+02  0.00000000000E+00 0.  1.
          2   -1    0    0  501    0  0.00000000000E+00 -0.00000000000E+00 -0.15413103033E+03  0.15413103033E+03  0.00000000000E+00 0. -1.
         25    2    1    2    0    0  0.48225406172E+01 -0.23404190487E+01 -0.73839107787E+02  0.14535403148E+03  0.12508735415E+03 0.  0.
         23    2    1    2    0    0 -0.48225406172E+01  0.23404190487E+01  0.79201716084E+01  0.96989093003E+02  0.96516426498E+02 0.  0.
          5    1    3    3  502    0 -0.13637432568E+02  0.21477162678E+02 -0.10120319212E+03  0.10443565760E+03  0.41800000000E+01 0.  1.
         -5    1    3    3    0  502  0.18459973185E+02 -0.23817581727E+02  0.27364084332E+02  0.40918373876E+02  0.41800000000E+01 0.  1.
        -11    1    4    4    0    0 -0.77848444120E+01 -0.35912826686E+02  0.34427924987E+02  0.50354909810E+02  0.00000000000E+00 0.  1.
         11    1    4    4    0    0  0.29623037948E+01  0.38253245734E+02 -0.26507753378E+02  0.46634183194E+02  0.00000000000E+00 0. -1.
</event>
<event>
 8    1  0.7026811E-009  0.1434864E+03  0.7561462E-02  0.1208713E+00
          1   -1    0    0  501    0  0.00000000000E+00  0.00000000000E+00  0.32383811998E+03  0.32383811998E+03  0.00000000000E+00 0. -1.
         -1   -1    0    0    0  501 -0.00000000000E+00 -0.00000000000E+00 -0.79852173235E+02  0.79852173235E+02  0.00000000000E+00 0.  1.
         25    2    1    2    0    0  0.52237951002E+02 -0.10187356134E+03  0.11151025703E+03  0.20295126001E+03  0.12509056916E+03 0.  0.
         23    2    1    2    0    0 -0.52237951002E+02  0.10187356134E+03  0.13247568972E+03  0.20073903321E+03  0.98180064474E+02 0.  0.
          5    1    3    3  502    0 -0.37668544861E+02 -0.56420035253E+02  0.35496206144E+02  0.76678502206E+02  0.41800000000E+01 0.  1.
         -5    1    3    3    0  502  0.89906495863E+02 -0.45453526087E+02  0.76014050881E+02  0.12627275780E+03  0.41800000000E+01 0.  1.
        -11    1    4    4    0    0 -0.48708432915E+02  0.65474420371E+02  0.14125234001E+03  0.16313072892E+03  0.00000000000E+00 0. -1.
         11    1    4    4    0    0 -0.35295180864E+01  0.36399140969E+02 -0.87766502847E+01  0.37608304288E+02  0.00000000000E+00 0.  1.
</event>
<event>
 8    1  0.7026811E-009  0.1230592E+03  0.7561462E-02  0.1238134E+00
         -2   -1    0    0    0  501 -0.00000000000E+00  0.00000000000E+00  0.32361835165E+02  0.32361835165E+02  0.00000000000E+00 0.  1.
          2   -1    0    0  501    0  0.00000000000E+00 -0.00000000000E+00 -0.67110730070E+03  0.67110730070E+03  0.00000000000E+00 0. -1.
         25    2    1    2    0    0 -0.34786877585E+01 -0.70759656201E+02 -0.52075107037E+03  0.54022621531E+03  0.12507460254E+03 0.  0.
         23    2    1    2    0    0  0.34786877585E+01  0.70759656201E+02 -0.11799439516E+03  0.16324292056E+03  0.87786921618E+02 0.  0.
          5    1    3    3  502    0  0.56196265132E+01 -0.10553777622E+03 -0.34771589889E+03  0.36344686153E+03  0.41800000000E+01 0.  1.
         -5    1    3    3    0  502 -0.90983142716E+01  0.34778120020E+02 -0.17303517148E+03  0.17677935378E+03  0.41800000000E+01 0.  1.
        -11    1    4    4    0    0 -0.24998993801E+02  0.71423792543E+02 -0.53312299406E+02  0.92566241688E+02  0.00000000000E+00 0. -1.
         11    1    4    4    0    0  0.28477681559E+02 -0.66413634153E+00 -0.64682095759E+02  0.70676678868E+02  0.00000000000E+00 0.  1.
</event>
<event>
 8    1  0.7026811E-009  0.1120257E+03  0.7561462E-02  0.1256864E+00
         -2   -1    0    0    0  501 -0.00000000000E+00  0.00000000000E+00  0.82649238845E+02  0.82649238845E+02  0.00000000000E+00 0. -1.
          2   -1    0    0  501    0  0.00000000000E+00 -0.00000000000E+00 -0.16369407969E+03  0.16369407969E+03  0.00000000000E+00 0.  1.
         25    2    1    2    0    0  0.22708641638E+02 -0.18775964925E+02 -0.65829507316E+02  0.14439276606E+03  0.12509007792E+03 0.  0.
         23    2    1    2    0    0 -0.22708641638E+02  0.18775964925E+02 -0.15215333529E+02  0.10195055247E+03  0.96406376920E+02 0.  0.
          5    1    3    3  502    0 -0.27400216823E+02 -0.56015522074E+02 -0.49499680922E+02  0.79725788842E+02  0.41800000000E+01 0.  1.
         -5    1    3    3    0  502  0.50108858461E+02  0.37239557149E+02 -0.16329826394E+02  0.64666977222E+02  0.41800000000E+01 0.  1.
        -11    1    4    4    0    0  0.49708075927E+01 -0.36673156385E+02  0.36007575474E+01  0.37183259436E+02  0.00000000000E+00 0. -1.
         11    1    4    4    0    0 -0.27679449231E+02  0.55449121309E+02 -0.18816091077E+02  0.64767293035E+02  0.00000000000E+00 0.  1.
</event>
<event>
 8    1  0.7026811E-009  0.1002861E+03  0.7561462E-02  0.1279696E+00
         -2   -1    0    0    0  501 -0.00000000000E+00  0.00000000000E+00  0.16225612826E+03  0.16225612826E+03  0.00000000000E+00 0.  1.
          2   -1    0    0  501    0  0.00000000000E+00 -0.00000000000E+00 -0.87913736806E+02  0.87913736806E+02  0.00000000000E+00 0. -1.
         25    2    1    2    0    0  0.19454611729E+02  0.32618281007E+02  0.10965134023E+02  0.13118780306E+03  0.12509025276E+03 0.  0.
         23    2    1    2    0    0 -0.19454611729E+02 -0.32618281007E+02  0.63377257429E+02  0.11898206200E+03  0.93261032299E+02 0.  0.
          5    1    3    3  502    0 -0.36904694250E+02  0.24393266809E+02  0.46186171280E+02  0.64090738339E+02  0.41800000000E+01 0.  1.
         -5    1    3    3    0  502  0.56359305979E+02  0.82250141985E+01 -0.35221037257E+02  0.67097064723E+02  0.41800000000E+01 0.  1.
        -11    1    4    4    0    0  0.35964161189E+02 -0.23243881298E+02  0.38240709653E+02  0.57411242650E+02  0.00000000000E+00 0.  1.
         11    1    4    4    0    0 -0.55418772917E+02 -0.93743997091E+01  0.25136547775E+02  0.61570819351E+02  0.00000000000E+00 0. -1.
</event>
<event>
 8    1  0.7026811E-009  0.1015234E+03  0.7561462E-02  0.1277125E+00
         -1   -1    0    0    0  501 -0.00000000000E+00  0.00000000000E+00  0.41579006343E+02  0.41579006343E+02  0.00000000000E+00 0.  1.
          1   -1    0    0  501    0  0.00000000000E+00 -0.00000000000E+00 -0.38570825206E+03  0.38570825206E+03  0.00000000000E+00 0. -1.
         25    2    1    2    0    0  0.34690103362E+02  0.32181328369E+02 -0.27092603295E+03  0.30213960578E+03  0.12509350455E+03 0.  0.
         23    2    1    2    0    0 -0.34690103362E+02 -0.32181328369E+02 -0.73203212763E+02  0.12514765262E+03  0.89800798612E+02 0.  0.
          5    1    3    3  502    0  0.18353514888E+00  0.63713999790E+02 -0.65699736336E+02  0.91615693028E+02  0.41800000000E+01 0.  1.
         -5    1    3    3    0  502  0.34506568213E+02 -0.31532671421E+02 -0.20522629661E+03  0.21052391275E+03  0.41800000000E+01 0.  1.
        -11    1    4    4    0    0 -0.19852224755E+01 -0.53298101081E+02 -0.15502576716E+02  0.55542403368E+02  0.00000000000E+00 0.  1.
         11    1    4    4    0    0 -0.32704880886E+02  0.21116772712E+02 -0.57700636048E+02  0.69605249255E+02  0.00000000000E+00 0. -1.
</event>
<event>
 8    1  0.7026811E-009  0.9685974E+02  0.7561462E-02  0.1287042E+00
         -3   -1    0    0    0  501 -0.00000000000E+00  0.00000000000E+00  0.78604864178E+02  0.78604864178E+02  0.00000000000E+00 0.  1.
          3   -1    0    0  501    0  0.00000000000E+00 -0.00000000000E+00 -0.16984069716E+03  0.16984069716E+03  0.00000000000E+00 0. -1.
         25    2    1    2    0    0  0.23086853950E+02 -0.27647672165E+02 -0.42462113011E+02  0.13691459669E+03  0.12508069053E+03 0.  0.
         23    2    1    2    0    0 -0.23086853950E+02  0.27647672165E+02 -0.48773719971E+02  0.11153096465E+03  0.93610275691E+02 0.  0.
          5    1    3    3  502    0 -0.24842422919E+02  0.35612688131E+02  0.56858626491E+01  0.43991032796E+02  0.41800000000E+01 0.  1.
         -5    1    3    3    0  502  0.47929276868E+02 -0.63260360296E+02 -0.48147975660E+02  0.92923563890E+02  0.41800000000E+01 0.  1.
        -11    1    4    4    0    0  0.11255507232E+02  0.33894761097E+02  0.15073199225E+02  0.38765224207E+02  0.00000000000E+00 0.  1.
         11    1    4    4    0    0 -0.34342361182E+02 -0.62470889327E+01 -0.63846919197E+02  0.72765740446E+02  0.00000000000E+00 0. -1.
</event>
<event>
 8    1  0.7026811E-009  0.2783071E+03  0.7561462E-02  0.1096617E+00
          2   -1    0    0  501    0  0.00000000000E+00  0.00000000000E+00  0.10532142063E+04  0.10532142063E+04  0.00000000000E+00 0. -1.
         -2   -1    0    0    0  501 -0.00000000000E+00 -0.00000000000E+00 -0.78414868355E+02  0.78414868355E+02  0.00000000000E+00 0.  1.
         25    2    1    2    0    0 -0.44257556488E+02 -0.25953620948E+03  0.57185876479E+03  0.64186248645E+03  0.12508888562E+03 0.  0.
         23    2    1    2    0    0  0.44257556488E+02  0.25953620948E+03  0.40294057320E+03  0.48976658826E+03  0.90512043957E+02 0.  0.
          5    1    3    3  502    0 -0.81512961476E+02 -0.22451870158E+03  0.49224565334E+03  0.54715287250E+03  0.41800000000E+01 0.  1.
         -5    1    3    3    0  502  0.37255404987E+02 -0.35017507903E+02  0.79613111447E+02  0.94709613951E+02  0.41800000000E+01 0.  1.
        -11    1    4    4    0    0 -0.18487022414E+01  0.10821599527E+03  0.96948372695E+02  0.14530349721E+03  0.00000000000E+00 0.  1.
         11    1    4    4    0    0  0.46106258730E+02  0.15132021420E+03  0.30599220051E+03  0.34446309105E+03  0.00000000000E+00 0. -1.
</event>
<event>
 8    1  0.7026811E-009  0.5665396E+02  0.7561462E-02  0.1412435E+00
         -1   -1    0    0    0  501 -0.00000000000E+00  0.00000000000E+00  0.27555413510E+02  0.27555413510E+02  0.00000000000E+00 0.  1.
          1   -1    0    0  501    0  0.00000000000E+00 -0.00000000000E+00 -0.40981410174E+03  0.40981410174E+03  0.00000000000E+00 0. -1.
         25    2    1    2    0    0 -0.85650433348E+01  0.54566741712E+01 -0.26766436609E+03  0.29562804659E+03  0.12509433958E+03 0.  0.
         23    2    1    2    0    0  0.85650433348E+01 -0.54566741712E+01 -0.11459432214E+03  0.14174146866E+03  0.82798852719E+02 0.  0.
          5    1    3    3  502    0 -0.32765678872E+02  0.11425965345E+02 -0.26808175383E+03  0.27035059003E+03  0.41800000000E+01 0. -1.
         -5    1    3    3    0  502  0.24200635537E+02 -0.59692911737E+01  0.41738773400E+00  0.25277456558E+02  0.41800000000E+01 0. -1.
        -11    1    4    4    0    0 -0.21982300710E+02 -0.49402914276E+01 -0.10820889591E+03  0.11052960317E+03  0.00000000000E+00 0. -1.
         11    1    4    4    0    0  0.30547344045E+02 -0.51638274364E+00 -0.63854262350E+01  0.31211865493E+02  0.00000000000E+00 0.  1.
</event>
<event>
 8    1  0.7026811E-009  0.1283798E+03  0.7561462E-02  0.1229880E+00
          1   -1    0    0  501    0  0.00000000000E+00  0.00000000000E+00  0.31836990768E+03  0.31836990768E+03  0.00000000000E+00 0. -1.
         -1   -1    0    0    0  501 -0.00000000000E+00 -0.00000000000E+00 -0.81570974929E+02  0.81570974929E+02  0.00000000000E+00 0.  1.
         25    2    1    2    0    0 -0.86812944215E+02  0.65727871293E+02  0.68010139828E+02  0.17924646717E+03  0.12508907437E+03 0.  0.
         23    2    1    2    0    0  0.86812944215E+02 -0.65727871293E+02  0.16878879293E+03  0.22069441544E+03  0.91431548384E+02 0.  0.
          5    1    3    3  502    0 -0.88240499630E+02  0.57706944831E+02  0.10036156366E+03  0.14562415018E+03  0.41800000000E+01 0.  1.
         -5    1    3    3    0  502  0.14275554146E+01  0.80209264619E+01 -0.32351423833E+02  0.33622316990E+02  0.41800000000E+01 0.  1.
        -11    1    4    4    0    0  0.80624827807E+02 -0.47183447139E+01  0.10000270541E+03  0.12854247051E+03  0.00000000000E+00 0.  1.
         11    1    4    4    0    0  0.61881164085E+01 -0.61009526579E+02  0.68786087521E+02  0.92151944931E+02  0.00000000000E+00 0. -1.
</event>
<event>
 8    1  0.7026811E-009  0.1545474E+03  0.7561462E-02  0.1194994E+00
          1   -1    0    0  501    0  0.00000000000E+00  0.00000000000E+00  0.26825350935E+03  0.26825350935E+03  0.00000000000E+00 0. -1.
         -1   -1    0    0    0  501 -0.00000000000E+00 -0.00000000000E+00 -0.10553133508E+03  0.10553133508E+03  0.00000000000E+00 0.  1.
         25    2    1    2    0    0  0.33438507190E+02 -0.12148856880E+03  0.61764243174E+02  0.18799090674E+03  0.12509257839E+03 0.  0.
         23    2    1    2    0    0 -0.33438507190E+02  0.12148856880E+03  0.10095793110E+03  0.18579393769E+03  0.91919950601E+02 0.  0.
          5    1    3    3  502    0  0.61693842576E+02 -0.12875291928E+03  0.32551633271E+02  0.14649411478E+03  0.41800000000E+01 0. -1.
         -5    1    3    3    0  502 -0.28255335387E+02  0.72643504829E+01  0.29212609903E+02  0.41496791961E+02  0.41800000000E+01 0. -1.
        -11    1    4    4    0    0 -0.22206868707E+02  0.93560426825E+01 -0.11400385451E+02  0.26658007069E+02  0.00000000000E+00 0.  1.
         11    1    4    4    0    0 -0.11231638482E+02  0.11213252612E+03  0.11235831655E+03  0.15913593062E+03  0.00000000000E+00 0. -1.
</event>
<event>
 8    1  0.7026811E-009  0.1352482E+03  0.7561462E-02  0.1219870E+00
          2   -1    0    0  501    0  0.00000000000E+00  0.00000000000E+00  0.48291973796E+03  0.48291973796E+03  0.00000000000E+00 0. -1.
         -2   -1    0    0    0  501 -0.00000000000E+00 -0.00000000000E+00 -0.50729846064E+02  0.50729846064E+02  0.00000000000E+00 0.  1.
         25    2    1    2    0    0 -0.98709688497E+02  0.79300383279E+01  0.32238709786E+03  0.35970455789E+03  0.12508972777E+03 0.  0.
         23    2    1    2    0    0  0.98709688497E+02 -0.79300383279E+01  0.10980279404E+03  0.17394502613E+03  0.91617304184E+02 0.  0.
          5    1    3    3  502    0  0.12874526962E+02 -0.17311489885E+02  0.15718424035E+03  0.15871294510E+03  0.41800000000E+01 0.  1.
         -5    1    3    3    0  502 -0.11158421546E+03  0.25241528213E+02  0.16520285750E+03  0.20099161279E+03  0.41800000000E+01 0.  1.
        -11    1    4    4    0    0  0.11296231078E+03 -0.20772223146E+02  0.10052589737E+03  0.15263494015E+03  0.00000000000E+00 0.  1.
         11    1    4    4    0    0 -0.14252622284E+02  0.12842184818E+02  0.92768966653E+01  0.21310085983E+02  0.00000000000E+00 0. -1.
</event>
<event>
 8    1  0.7026811E-009  0.9908875E+02  0.7561462E-02  0.1282224E+00
         -1   -1    0    0    0  501 -0.00000000000E+00  0.00000000000E+00  0.58591273242E+02  0.58591273242E+02  0.00000000000E+00 0.  1.
          1   -1    0    0  501    0  0.00000000000E+00 -0.00000000000E+00 -0.24788005708E+03  0.24788005708E+03  0.00000000000E+00 0. -1.
         25    2    1    2    0    0 -0.31143338585E+02  0.28971084734E+02 -0.68830099527E+02  0.14897697580E+03  0.12508926984E+03 0.  0.
         23    2    1    2    0    0  0.31143338585E+02 -0.28971084734E+02 -0.12045868431E+03  0.15749435452E+03  0.92113765485E+02 0.  0.
          5    1    3    3  502    0 -0.18720027679E+02 -0.48949308143E+02 -0.20995363191E+02  0.56610527992E+02  0.41800000000E+01 0. -1.
         -5    1    3    3    0  502 -0.12423310906E+02  0.77920392877E+02 -0.47834736336E+02  0.92366447806E+02  0.41800000000E+01 0. -1.
        -11    1    4    4    0    0  0.38544237724E+02 -0.19727074456E+01 -0.52701257963E+01  0.38952844085E+02  0.00000000000E+00 0.  1.
         11    1    4    4    0    0 -0.74008991397E+01 -0.26998377288E+02 -0.11518855851E+03  0.11854151044E+03  0.00000000000E+00 0. -1.
</event>
<event>
 8    1  0.7026811E-009  0.1972513E+03  0.7561462E-02  0.1152079E+00
         -2   -1    0    0    0  501 -0.00000000000E+00  0.00000000000E+00  0.81852421011E+02  0.81852421011E+02  0.00000000000E+00 0.  1.
          2   -1    0    0  501    0  0.00000000000E+00 -0.00000000000E+00 -0.61078208429E+03  0.61078208429E+03  0.00000000000E+00 0. -1.
         25    2    1    2    0    0  0.17902424818E+02 -0.19316018644E+03 -0.30461690993E+03  0.38219267733E+03  0.12509367029E+03 0.  0.
         23    2    1    2    0    0 -0.17902424818E+02  0.19316018644E+03 -0.22431275334E+03  0.31044182797E+03  0.91796311468E+02 0.  0.
          5    1    3    3  502    0  0.19448939125E+02 -0.15586205661E+03 -0.13103968569E+03  0.20459744267E+03  0.41800000000E+01 0.  1.
         -5    1    3    3    0  502 -0.15465143071E+01 -0.37298129835E+02 -0.17357722425E+03  0.17759523466E+03  0.41800000000E+01 0.  1.
        -11    1    4    4    0    0 -0.26314836188E+02  0.50863495694E+02 -0.18686014825E+02  0.60238965362E+02  0.00000000000E+00 0.  1.
         11    1    4    4    0    0  0.84124113702E+01  0.14229669075E+03 -0.20562673852E+03  0.25020286261E+03  0.00000000000E+00 0. -1.
</event>
<event>
 8    1  0.7026811E-009  0.1083202E+03  0.7561462E-02  0.1263713E+00
          1   -1    0    0  501    0  0.00000000000E+00  0.00000000000E+00  0.46522032080E+02  0.46522032080E+02  0.00000000000E+00 0. -1.
         -1   -1    0    0    0  501 -0.00000000000E+00 -0.00000000000E+00 -0.33812091032E+03  0.33812091032E+03  0.00000000000E+00 0.  1.
         25    2    1    2    0    0 -0.19885331087E+02 -0.45961493325E+02 -0.22768097824E+03  0.26456825694E+03  0.12509935839E+03 0.  0.
         23    2    1    2    0    0  0.19885331087E+02  0.45961493325E+02 -0.63917900005E+02  0.12007468546E+03  0.88456468878E+02 0.  0.
          5    1    3    3  502    0  0.41623450641E+02 -0.51406527655E+02 -0.76544779698E+02  0.10125077001E+03  0.41800000000E+01 0. -1.
         -5    1    3    3    0  502 -0.61508781727E+02  0.54450343299E+01 -0.15113619854E+03  0.16331748693E+03  0.41800000000E+01 0. -1.
        -11    1    4    4    0    0  0.31854976596E+02 -0.82905348128E+01 -0.54581860916E+02  0.63738936628E+02  0.00000000000E+00 0.  1.
         11    1    4    4    0    0 -0.11969645509E+02  0.54252028138E+02 -0.93360390892E+01  0.56335748833E+02  0.00000000000E+00 0. -1.
</event>
<event>
 8    1  0.7026811E-009  0.1158260E+03  0.7561462E-02  0.1250146E+00
         -3   -1    0    0    0  501 -0.00000000000E+00  0.00000000000E+00  0.30389016252E+02  0.30389016252E+02  0.00000000000E+00 0.  1.
          3   -1    0    0  501    0  0.00000000000E+00 -0.00000000000E+00 -0.59309893569E+03  0.59309893569E+03  0.00000000000E+00 0. -1.
         25    2    1    2    0    0 -0.41515546691E+02  0.44676179913E+02 -0.42814642184E+03  0.45019617722E+03  0.12509091805E+03 0.  0.
         23    2    1    2    0    0  0.41515546691E+02 -0.44676179913E+02 -0.13456349760E+03  0.17329177472E+03  0.90571533237E+02 0.  0.
          5    1    3    3  502    0  0.10193263209E+02 -0.37919656686E+02 -0.90396692060E+02  0.98645006530E+02  0.41800000000E+01 0.  1.
         -5    1    3    3    0  502 -0.51708809900E+02  0.82595836599E+02 -0.33774972978E+03  0.35155117069E+03  0.41800000000E+01 0.  1.
        -11    1    4    4    0    0  0.59030248149E+02 -0.16227794726E+02 -0.40326940094E+02  0.73308755382E+02  0.00000000000E+00 0.  1.
         11    1    4    4    0    0 -0.17514701458E+02 -0.28448385187E+02 -0.94236557503E+02  0.99983019343E+02  0.00000000000E+00 0. -1.
</event>
<event>
 8    1  0.7026811E-009  0.1045219E+03  0.7561462E-02  0.1271064E+00
          2   -1    0    0  501    0  0.00000000000E+00  0.00000000000E+00  0.20788675464E+02  0.20788675464E+02  0.00000000000E+00 0. -1.
         -2   -1    0    0    0  501 -0.00000000000E+00 -0.00000000000E+00 -0.92751168971E+03  0.92751168971E+03  0.00000000000E+00 0.  1.
         25    2    1    2    0    0  0.59643274586E+02  0.15210690534E+02 -0.29023563523E+03  0.32197512955E+03  0.12507027936E+03 0.  0.
         23    2    1    2    0    0 -0.59643274586E+02 -0.15210690534E+02 -0.61648737902E+03  0.62632523563E+03  0.91858189555E+02 0.  0.
          5    1    3    3  502    0  0.24009509686E+02 -0.31353169691E+02 -0.24393848642E+03  0.24714962141E+03  0.41800000000E+01 0. -1.
         -5    1    3    3    0  502  0.35633764900E+02  0.46563860225E+02 -0.46297148806E+02  0.74825508134E+02  0.41800000000E+01 0. -1.
        -11    1    4    4    0    0 -0.22330138323E+02 -0.52958081027E+02 -0.32700356884E+03  0.33201585422E+03  0.00000000000E+00 0.  1.
         11    1    4    4    0    0 -0.37313136263E+02  0.37747390493E+02 -0.28948381018E+03  0.29430938141E+03  0.00000000000E+00 0. -1.
</event>
<event>
 8    1  0.7026811E-009  0.1194192E+03  0.7561462E-02  0.1244058E+00
         -1   -1    0    0    0  501 -0.00000000000E+00  0.00000000000E+00  0.20454419956E+03  0.20454419956E+03  0.00000000000E+00 0.  1.
          1   -1    0    0  501    0  0.00000000000E+00 -0.00000000000E+00 -0.76085753474E+02  0.76085753474E+02  0.00000000000E+00 0. -1.
         25    2    1    2    0    0 -0.68839704040E+01  0.57759579716E+02  0.89346881765E+02  0.16435962241E+03  0.12509061556E+03 0.  0.
         23    2    1    2    0    0  0.68839704040E+01 -0.57759579716E+02  0.39111564318E+02  0.11627033062E+03  0.92765927049E+02 0.  0.
          5    1    3    3  502    0  0.36287113575E+02 -0.21649203122E+02  0.91121457808E+01  0.43427482176E+02  0.41800000000E+01 0.  1.
         -5    1    3    3    0  502 -0.43171083979E+02  0.79408782838E+02  0.80234735984E+02  0.12093214024E+03  0.41800000000E+01 0.  1.
        -11    1    4    4    0    0  0.15978488360E+02  0.21125771354E+02 -0.25261992073E+01  0.26608118836E+02  0.00000000000E+00 0.  1.
         11    1    4    4    0    0 -0.90945179560E+01 -0.78885351070E+02  0.41637763525E+02  0.89662211782E+02  0.00000000000E+00 0. -1.
</event>
<event>
 8    1  0.7026811E-009  0.1774567E+03  0.7561462E-02  0.1170287E+00
         -1   -1    0    0    0  501 -0.00000000000E+00  0.00000000000E+00  0.61173194597E+02  0.61173194597E+02  0.00000000000E+00 0.  1.
          1   -1    0    0  501    0  0.00000000000E+00 -0.00000000000E+00 -0.59439470673E+03  0.59439470673E+03  0.00000000000E+00 0. -1.
         25    2    1    2    0    0  0.15566539059E+03  0.10561260691E+02 -0.28786415555E+03  0.35050732062E+03  0.12508539362E+03 0.  0.
         23    2    1    2    0    0 -0.15566539059E+03 -0.10561260691E+02 -0.24535735658E+03  0.30506058071E+03  0.92295565547E+02 0.  0.
          5    1    3    3  502    0  0.43341371173E+02 -0.53645896036E+02 -0.80833792264E+02  0.10633875582E+03  0.41800000000E+01 0. -1.
         -5    1    3    3    0  502  0.11232401942E+03  0.64207156727E+02 -0.20703036329E+03  0.24416856480E+03  0.41800000000E+01 0. -1.
        -11    1    4    4    0    0 -0.55940091890E+02  0.12247666768E+01 -0.21918648760E+02  0.60093436393E+02  0.00000000000E+00 0.  1.
         11    1    4    4    0    0 -0.99725298702E+02 -0.11786027368E+02 -0.22343870782E+03  0.24496714432E+03  0.00000000000E+00 0. -1.
</event>
<event>
 8    1  0.7026811E-009  0.1196237E+03  0.7561462E-02  0.1243719E+00
         -1   -1    0    0    0  501 -0.00000000000E+00  0.00000000000E+00  0.12154942813E+02  0.12154942813E+02  0.00000000000E+00 0.  1.
          1   -1    0    0  501    0  0.00000000000E+00 -0.00000000000E+00 -0.12894667320E+04  0.12894667320E+04  0.00000000000E+00 0. -1.
         25    2    1    2    0    0  0.17884424542E+02 -0.61786062482E+02 -0.71759015242E+03  0.73124743194E+03  0.12509919943E+03 0.  0.
         23    2    1    2    0    0 -0.17884424542E+02  0.61786062482E+02 -0.55972163681E+03  0.57037424293E+03  0.88888110117E+02 0.  0.
          5    1    3    3  502    0 -0.26614564162E+02 -0.78690336302E+02 -0.31365467122E+03  0.32449534547E+03  0.41800000000E+01 0.  1.
         -5    1    3    3    0  502  0.44498988704E+02  0.16904273821E+02 -0.40393548121E+03  0.40675208647E+03  0.41800000000E+01 0.  1.
        -11    1    4    4    0    0 -0.47368438128E+02  0.62950154836E+02 -0.44493293835E+03  0.45185374908E+03  0.00000000000E+00 0.  1.
         11    1    4    4    0    0  0.29484013586E+02 -0.11640923539E+01 -0.11478869846E+03  0.11852049385E+03  0.00000000000E+00 0. -1.
</event>
<event>
 8    1  0.7026811E-009  0.1668188E+03  0.7561462E-02  0.1181206E+00
         -1   -1    0    0    0  501 -0.00000000000E+00  0.00000000000E+00  0.12691600155E+03  0.12691600155E+03  0.00000000000E+00 0.  1.
          1   -1    0    0  501    0  0.00000000000E+00 -0.00000000000E+00 -0.29188521648E+03  0.29188521648E+03  0.00000000000E+00 0. -1.
         25    2    1    2    0    0 -0.53257534935E+02  0.11887056309E+03  0.99351603400E+01  0.18086098650E+03  0.12508162627E+03 0.  0.
         23    2    1    2    0    0  0.53257534935E+02 -0.11887056309E+03 -0.17490437527E+03  0.23794023154E+03  0.95170570540E+02 0.  0.
          5    1    3    3  502    0 -0.87162105393E+02  0.11611409462E+03  0.25903957729E+00  0.14524894178E+03  0.41800000000E+01 0.  1.
         -5    1    3    3    0  502  0.33904570458E+02  0.27564684729E+01  0.96761207627E+01  0.35612044724E+02  0.41800000000E+01 0.  1.
        -11    1    4    4    0    0 -0.22455664480E+00 -0.95916569785E+02 -0.14116445266E+03  0.17066763454E+03  0.00000000000E+00 0.  1.
         11    1    4    4    0    0  0.53482091580E+02 -0.22953993309E+02 -0.33739922609E+02  0.67272596993E+02  0.00000000000E+00 0. -1.
</event>
<event>
 8    1  0.7026811E-009  0.1461601E+03  0.7561462E-02  0.1205272E+00
          1   -1    0    0  501    0  0.00000000000E+00  0.00000000000E+00  0.34445899665E+02  0.34445899665E+02  0.00000000000E+00 0. -1.
         -1   -1    0    0    0  501 -0.00000000000E+00 -0.00000000000E+00 -0.74364830866E+03  0.74364830866E+03  0.00000000000E+00 0.  1.
         25    2    1    2    0    0  0.11653757388E+03  0.21428844361E+02 -0.41541608027E+03  0.44973107090E+03  0.12508922769E+03 0.  0.
         23    2    1    2    0    0 -0.11653757388E+03 -0.21428844361E+02 -0.29378632872E+03  0.32836313743E+03  0.86439236355E+02 0.  0.
          5    1    3    3  502    0 -0.69603282341E+01 -0.14841815042E+02 -0.18497087487E+03  0.18574289379E+03  0.41800000000E+01 0. -1.
         -5    1    3    3    0  502  0.12349790211E+03  0.36270659403E+02 -0.23044520541E+03  0.26398817711E+03  0.41800000000E+01 0. -1.
        -11    1    4    4    0    0 -0.80375542226E+02 -0.54908357516E+02 -0.19101892760E+03  0.21439073258E+03  0.00000000000E+00 0. -1.
         11    1    4    4    0    0 -0.36162031654E+02  0.33479513155E+02 -0.10276740112E+03  0.11397240485E+03  0.00000000000E+00 0.  1.
</event>
<event>
 8    1  0.7026811E-009  0.1264065E+03  0.7561462E-02  0.1232887E+00
          1   -1    0    0  501    0  0.00000000000E+00  0.00000000000E+00  0.49810247443E+03  0.49810247443E+03  0.00000000000E+00 0. -1.
         -1   -1    0    0    0  501 -0.00000000000E+00 -0.00000000000E+00 -0.43212351806E+02  0.43212351806E+02  0.00000000000E+00 0.  1.
         25    2    1    2    0    0  0.24563686450E+02 -0.72651640102E+02  0.13245280349E+03  0.19767512051E+03  0.12510025026E+03 0.  0.
         23    2    1    2    0    0 -0.24563686450E+02  0.72651640102E+02  0.32243731914E+03  0.34363970573E+03  0.90778780993E+02 0.  0.
          5    1    3    3  502    0  0.71700917247E+02 -0.24120716794E+02  0.90211395703E+02  0.11780661623E+03  0.41800000000E+01 0.  1.
         -5    1    3    3    0  502 -0.47137230797E+02 -0.48530923308E+02  0.42241407784E+02  0.79868504280E+02  0.41800000000E+01 0.  1.
        -11    1    4    4    0    0  0.19882188533E+02 -0.43533474724E+01  0.20516334212E+02  0.28899360280E+02  0.00000000000E+00 0.  1.
         11    1    4    4    0    0 -0.44445874983E+02  0.77004987574E+02  0.30192098493E+03  0.31474034545E+03  0.00000000000E+00 0. -1.
</event>
<event>
 8    1  0.7026811E-009  0.1022428E+03  0.7561462E-02  0.1275649E+00
         -3   -1    0    0    0  501 -0.00000000000E+00  0.00000000000E+00  0.71250994336E+03  0.71250994336E+03  0.00000000000E+00 0.  1.
          3   -1    0    0  501    0  0.00000000000E+00 -0.00000000000E+00 -0.18177295313E+02  0.18177295313E+02  0.00000000000E+00 0. -1.
         25    2    1    2    0    0 -0.15177222459E+02 -0.27192553744E+02  0.43382799957E+03  0.45257222284E+03  0.12508037664E+03 0.  0.
         23    2    1    2    0    0  0.15177222459E+02  0.27192553744E+02  0.26050464848E+03  0.27811501583E+03  0.92279505249E+02 0.  0.
          5    1    3    3  502    0  0.21921728741E+02 -0.56598953877E+02  0.11386995585E+03  0.12910400078E+03  0.41800000000E+01 0.  1.
         -5    1    3    3    0  502 -0.37098951200E+02  0.29406400132E+02  0.31995804372E+03  0.32346822207E+03  0.41800000000E+01 0.  1.
        -11    1    4    4    0    0 -0.12084090200E+02 -0.30230456081E+02  0.11054597613E+03  0.11524026445E+03  0.00000000000E+00 0. -1.
         11    1    4    4    0    0  0.27261312659E+02  0.57423009825E+02  0.14995867234E+03  0.16287475138E+03  0.00000000000E+00 0.  1.
</event>
<event>
 8    1  0.7026811E-009  0.1718352E+03  0.7561462E-02  0.1175947E+00
          1   -1    0    0  501    0  0.00000000000E+00  0.00000000000E+00  0.65972042574E+03  0.65972042574E+03  0.00000000000E+00 0. -1.
         -1   -1    0    0    0  501 -0.00000000000E+00 -0.00000000000E+00 -0.61670256902E+02  0.61670256902E+02  0.00000000000E+00 0.  1.
         25    2    1    2    0    0  0.13252697384E+03 -0.13739512614E+02  0.12957267782E+03  0.22402851108E+03  0.12509005530E+03 0.  0.
         23    2    1    2    0    0 -0.13252697384E+03  0.13739512614E+02  0.46847749102E+03  0.49736217157E+03  0.10072634764E+03 0.  0.
          5    1    3    3  502    0  0.46926175944E+02 -0.64196794721E+02  0.80115245732E+02  0.11295671489E+03  0.41800000000E+01 0. -1.
         -5    1    3    3    0  502  0.85600797900E+02  0.50457282107E+02  0.49457432090E+02  0.11107179618E+03  0.41800000000E+01 0. -1.
        -11    1    4    4    0    0 -0.29242576166E+02 -0.38898439399E+02  0.10253782168E+03  0.11349987543E+03  0.00000000000E+00 0.  1.
         11    1    4    4    0    0 -0.10328439768E+03  0.52637952013E+02  0.36593966934E+03  0.38386229614E+03  0.00000000000E+00 0. -1.
</event>
<event>
 8    1  0.7026811E-009  0.7993907E+02  0.7561462E-02  0.1329224E+00
          1   -1    0    0  501    0  0.00000000000E+00  0.00000000000E+00  0.41625852576E+03  0.41625852576E+03  0.00000000000E+00 0. -1.
         -1   -1    0    0    0  501 -0.00000000000E+00 -0.00000000000E+00 -0.32035135137E+02  0.32035135137E+02  0.00000000000E+00 0.  1.
         25    2    1    2    0    0  0.67579764387E+01  0.15882187271E+02  0.14309085162E+03  0.19084104312E+03  0.12508955913E+03 0.  0.
         23    2    1    2    0    0 -0.67579764387E+01 -0.15882187271E+02  0.24113253900E+03  0.25745261778E+03  0.88538324562E+02 0.  0.
          5    1    3    3  502    0  0.35074604995E+02 -0.40667596297E+01 -0.74346109928E+01  0.36325091742E+02  0.41800000000E+01 0.  1.
         -5    1    3    3    0  502 -0.28316628557E+02  0.19948946900E+02  0.15052546262E+03  0.15451595138E+03  0.41800000000E+01 0.  1.
        -11    1    4    4    0    0  0.26922199559E+02 -0.39852181763E+02  0.14627885735E+03  0.15398215912E+03  0.00000000000E+00 0.  1.
         11    1    4    4    0    0 -0.33680175997E+02  0.23969994492E+02  0.94853681651E+02  0.10347045865E+03  0.00000000000E+00 0. -1.
</event>
<event>
 8    1  0.7026811E-009  0.1122791E+03  0.7561462E-02  0.1256407E+00
          1   -1    0    0  501    0  0.00000000000E+00  0.00000000000E+00  0.15424291806E+03  0.15424291806E+03  0.00000000000E+00 0. -1.
         -1   -1    0    0    0  501 -0.00000000000E+00 -0.00000000000E+00 -0.15468608133E+03  0.15468608133E+03  0.00000000000E+00 0.  1.
         25    2    1    2    0    0 -0.54909642644E+02  0.73347484286E+02  0.54413237414E+02  0.16433150704E+03  0.12509644876E+03 0.  0.
         23    2    1    2    0    0  0.54909642644E+02 -0.73347484286E+02 -0.54856400691E+02  0.14459749235E+03  0.97489936870E+02 0.  0.
          5    1    3    3  502    0 -0.38651320390E+02  0.83656003143E+02  0.86643578087E+02  0.12655762898E+03  0.41800000000E+01 0.  1.
         -5    1    3    3    0  502 -0.16258322254E+02 -0.10308518857E+02 -0.32230340673E+02  0.37773878057E+02  0.41800000000E+01 0.  1.
        -11    1    4    4    0    0  0.42816757097E+02 -0.48921278689E+01  0.15398415830E+02  0.45763728143E+02  0.00000000000E+00 0.  1.
         11    1    4    4    0    0  0.12092885547E+02 -0.68455356417E+02 -0.70254816522E+02  0.98833764208E+02  0.00000000000E+00 0. -1.
</event>
<event>
 8    1  0.7026811E-009  0.1191519E+03  0.7561462E-02  0.1244503E+00
         -2   -1    0    0    0  501 -0.00000000000E+00  0.00000000000E+00  0.42862165441E+02  0.42862165441E+02  0.00000000000E+00 0.  1.
          2   -1    0    0  501    0  0.00000000000E+00 -0.00000000000E+00 -0.39811537806E+03  0.39811537806E+03  0.00000000000E+00 0. -1.
         25    2    1    2    0    0  0.47432711343E+02 -0.39359722687E+02 -0.13046407103E+03  0.19096396890E+03  0.12508922301E+03 0.  0.
         23    2    1    2    0    0 -0.47432711343E+02  0.39359722687E+02 -0.22478914159E+03  0.25001357460E+03  0.90429969770E+02 0.  0.
          5    1    3    3  502    0 -0.23903678477E+02  0.30382193246E+02 -0.45545241271E+02  0.59885765534E+02  0.41800000000E+01 0.  1.
         -5    1    3    3    0  502  0.71336389819E+02 -0.69741915933E+02 -0.84918829761E+02  0.13107820337E+03  0.41800000000E+01 0.  1.
        -11    1    4    4    0    0 -0.31847910602E+01 -0.22937065276E+02 -0.17312233290E+02  0.28913064159E+02  0.00000000000E+00 0.  1.
         11    1    4    4    0    0 -0.44247920283E+02  0.62296787963E+02 -0.20747690830E+03  0.22110051044E+03  0.00000000000E+00 0. -1.
</event>
<event>
 8    1  0.7026811E-009  0.1599255E+03  0.7561462E-02  0.1188781E+00
          2   -1    0    0  501    0  0.00000000000E+00  0.00000000000E+00  0.64273968305E+03  0.64273968305E+03  0.00000000000E+00 0.  1.
         -2   -1    0    0    0  501 -0.00000000000E+00 -0.00000000000E+00 -0.55293821514E+02  0.55293821514E+02  0.00000000000E+00 0. -1.
         25    2    1    2    0    0  0.78863122820E+01  0.12491672941E+03  0.14518197366E+03  0.22889147231E+03  0.12508843837E+03 0.  0.
         23    2    1    2    0    0 -0.78863122820E+01 -0.12491672941E+03  0.44226388788E+03  0.46914203226E+03  0.93970828970E+02 0.  0.
          5    1    3    3  502    0  0.50615519783E+02  0.12014017617E+03  0.12691365742E+03  0.18198939973E+03  0.41800000000E+01 0.  1.
         -5    1    3    3    0  502 -0.42729207501E+02  0.47765532353E+01  0.18268316240E+02  0.46902072585E+02  0.41800000000E+01 0.  1.
        -11    1    4    4    0    0  0.32277447835E+02 -0.34294164343E+02  0.73544050399E+02  0.87330697328E+02  0.00000000000E+00 0. -1.
         11    1    4    4    0    0 -0.40163760117E+02 -0.90622565064E+02  0.36871983748E+03  0.38181133493E+03  0.00000000000E+00 0.  1.
</event>
<event>
 8    1  0.7026811E-009  0.1088212E+03  0.7561462E-02  0.1262769E+00
         -1   -1    0    0    0  501 -0.00000000000E+00  0.00000000000E+00  0.13364267024E+03  0.13364267024E+03  0.00000000000E+00 0.  1.
          1   -1    0    0  501    0  0.00000000000E+00 -0.00000000000E+00 -0.14175237627E+03  0.14175237627E+03  0.00000000000E+00 0. -1.
         25    2    1    2    0    0 -0.46449804231E+02  0.63980025457E+02  0.21174816279E+02  0.14948780718E+03  0.12508878320E+03 0.  0.
         23    2    1    2    0    0  0.46449804231E+02 -0.63980025457E+02 -0.29284522305E+02  0.12590723933E+03  0.93509473845E+02 0.  0.
          5    1    3    3  502    0  0.21858827384E+02  0.65603386082E+02  0.37974430904E+02  0.79000901277E+02  0.41800000000E+01 0.  1.
         -5    1    3    3    0  502 -0.68308631615E+02 -0.16233606253E+01 -0.16799614624E+02  0.70486905907E+02  0.41800000000E+01 0.  1.
        -11    1    4    4    0    0  0.87378327054E+01 -0.20921740992E+02 -0.57706530157E+02  0.62000907972E+02  0.00000000000E+00 0. -1.
         11    1    4    4    0    0  0.37711971525E+02 -0.43058284465E+02  0.28422007853E+02  0.63906331359E+02  0.00000000000E+00 0.  1.
</event>
<event>
 8    1  0.7026811E-009  0.1300683E+03  0.7561462E-02  0.1227354E+00
         -1   -1    0    0    0  501 -0.00000000000E+00  0.00000000000E+00  0.50509016887E+03  0.50509016887E+03  0.00000000000E+00 0.  1.
          1   -1    0    0  501    0  0.00000000000E+00 -0.00000000000E+00 -0.36232635830E+02  0.36232635830E+02  0.00000000000E+00 0. -1.
         25    2    1    2    0    0  0.60275132193E+02  0.49648363529E+02  0.19465014186E+03  0.24420260918E+03  0.12509270579E+03 0.  0.
         23    2    1    2    0    0 -0.60275132193E+02 -0.49648363529E+02  0.27420739118E+03  0.29712019552E+03  0.83622160018E+02 0.  0.
          5    1    3    3  502    0  0.82950131158E+02 -0.82005174929E+01  0.92675761033E+02  0.12471664616E+03  0.41800000000E+01 0. -1.
         -5    1    3    3    0  502 -0.22674998965E+02  0.57848881022E+02  0.10197438083E+03  0.11948596302E+03  0.41800000000E+01 0. -1.
        -11    1    4    4    0    0 -0.59548294629E+02  0.49923390555E+01  0.14537211355E+03  0.15717497969E+03  0.00000000000E+00 0.  1.
         11    1    4    4    0    0 -0.72683756400E+00 -0.54640702585E+02  0.12883527763E+03  0.13994521583E+03  0.00000000000E+00 0. -1.
</event>
<event>
 8    1  0.7026811E-009  0.1983322E+03  0.7561462E-02  0.1151154E+00
         -2   -1    0    0    0  501 -0.00000000000E+00  0.00000000000E+00  0.25561533514E+02  0.25561533514E+02  0.00000000000E+00 0. -1.
          2   -1    0    0  501    0  0.00000000000E+00 -0.00000000000E+00 -0.18294161184E+04  0.18294161184E+04  0.00000000000E+00 0.  1.
         25    2    1    2    0    0 -0.28459689363E+02  0.18097725672E+03 -0.10967897012E+04  0.11189990065E+04  0.12509359056E+03 0.  0.
         23    2    1    2    0    0  0.28459689363E+02 -0.18097725672E+03 -0.70706488368E+03  0.73597864546E+03  0.90338781685E+02 0.  0.
          5    1    3    3  502    0 -0.39476416552E+02  0.46150880778E+02 -0.63144805465E+03  0.63437560591E+03  0.41800000000E+01 0. -1.
         -5    1    3    3    0  502  0.11016727188E+02  0.13482637594E+03 -0.46534164659E+03  0.48462340057E+03  0.41800000000E+01 0. -1.
        -11    1    4    4    0    0 -0.18395128245E+02 -0.12966364315E+03 -0.39043702336E+03  0.41181562660E+03  0.00000000000E+00 0.  1.
         11    1    4    4    0    0  0.46854817608E+02 -0.51313613568E+02 -0.31662786032E+03  0.32416301886E+03  0.00000000000E+00 0. -1.
</event>
<event>
 8    1  0.7026811E-009  0.1007678E+03  0.7561462E-02  0.1278690E+00
         -1   -1    0    0    0  501 -0.00000000000E+00  0.00000000000E+00  0.20705836676E+02  0.20705836676E+02  0.00000000000E+00 0.  1.
          1   -1    0    0  501    0  0.00000000000E+00 -0.00000000000E+00 -0.67408841643E+03  0.67408841643E+03  0.00000000000E+00 0. -1.
         25    2    1    2    0    0 -0.25982973842E+01 -0.33516756248E+02 -0.48499760039E+03  0.50199614352E+03  0.12508929461E+03 0.  0.
         23    2    1    2    0    0  0.25982973842E+01  0.33516756248E+02 -0.16838497936E+03  0.19279810959E+03  0.87678307955E+02 0.  0.
          5    1    3    3  502    0 -0.32637848619E+02 -0.67727351798E+02 -0.20711457687E+03  0.22037727582E+03  0.41800000000E+01 0. -1.
         -5    1    3    3    0  502  0.30039551235E+02  0.34210595550E+02 -0.27788302352E+03  0.28161886770E+03  0.41800000000E+01 0. -1.
        -11    1    4    4    0    0 -0.35241585052E+02  0.13763256703E+02 -0.12999481578E+03  0.13538851015E+03  0.00000000000E+00 0. -1.
         11    1    4    4    0    0  0.37839882436E+02  0.19753499545E+02 -0.38390163587E+02  0.57409599436E+02  0.00000000000E+00 0.  1.
</event>
<event>
 8    1  0.7026811E-009  0.1130095E+03  0.7561462E-02  0.1255096E+00
         -1   -1    0    0    0  501 -0.00000000000E+00  0.00000000000E+00  0.68277292688E+02  0.68277292688E+02  0.00000000000E+00 0.  1.
          1   -1    0    0  501    0  0.00000000000E+00 -0.00000000000E+00 -0.24851340437E+03  0.24851340437E+03  0.00000000000E+00 0. -1.
         25    2    1    2    0    0 -0.58001624058E+02  0.41422482526E+02 -0.88763257987E+02  0.16913434272E+03  0.12508996549E+03 0.  0.
         23    2    1    2    0    0  0.58001624058E+02 -0.41422482526E+02 -0.91472853699E+02  0.14765635434E+03  0.91406266538E+02 0.  0.
          5    1    3    3  502    0 -0.40503447685E+02  0.71506549508E+02 -0.10253684853E+03  0.13147240624E+03  0.41800000000E+01 0. -1.
         -5    1    3    3    0  502 -0.17498176373E+02 -0.30084066981E+02  0.13773590543E+02  0.37661936474E+02  0.41800000000E+01 0. -1.
        -11    1    4    4    0    0  0.53684120680E+02 -0.65231494982E+02 -0.46116249510E+02  0.96248850485E+02  0.00000000000E+00 0.  1.
         11    1    4    4    0    0  0.43175033788E+01  0.23809012456E+02 -0.45356604189E+02  0.51407503860E+02  0.00000000000E+00 0. -1.
</event>
<event>
 8    1  0.7026811E-009  0.2000410E+03  0.7561462E-02  0.1149704E+00
          2   -1    0    0  501    0  0.00000000000E+00  0.00000000000E+00  0.14514424035E+04  0.14514424035E+04  0.00000000000E+00 0. -1.
         -2   -1    0    0    0  501 -0.00000000000E+00 -0.00000000000E+00 -0.30233849029E+02  0.30233849029E+02  0.00000000000E+00 0.  1.
         25    2    1    2    0    0  0.69918234123E+02 -0.15229330467E+03  0.94337344500E+03  0.96627205355E+03  0.12508562921E+03 0.  0.
         23    2    1    2    0    0 -0.69918234123E+02  0.15229330467E+03  0.47783510946E+03  0.51540419896E+03  0.96089990998E+02 0.  0.
          5    1    3    3  502    0  0.15974083903E+01 -0.13751225202E+03  0.67767681966E+03  0.69150236115E+03  0.41800000000E+01 0.  1.
         -5    1    3    3    0  502  0.68320825733E+02 -0.14781052646E+02  0.26569662534E+03  0.27476969240E+03  0.41800000000E+01 0.  1.
        -11    1    4    4    0    0  0.78401361349E+01 -0.98837652309E+01  0.43797577743E+02  0.45578332197E+02  0.00000000000E+00 0. -1.
         11    1    4    4    0    0 -0.77758370258E+02  0.16217706990E+03  0.43403753171E+03  0.46982586677E+03  0.00000000000E+00 0.  1.
</event>
<event>
 8    1  0.7026811E-009  0.8115281E+02  0.7561462E-02  0.1325811E+00
          2   -1    0    0  501    0  0.00000000000E+00  0.00000000000E+00  0.13133285092E+03  0.13133285092E+03  0.00000000000E+00 0. -1.
         -2   -1    0    0    0  501 -0.00000000000E+00 -0.00000000000E+00 -0.94173351661E+02  0.94173351661E+02  0.00000000000E+00 0.  1.
         25    2    1    2    0    0  0.14443737280E+02 -0.20618256447E+02  0.51191711473E+01  0.12770305420E+03  0.12509248616E+03 0.  0.
         23    2    1    2    0    0 -0.14443737280E+02  0.20618256447E+02  0.32040328117E+02  0.97803148381E+02  0.88910849517E+02 0.  0.
          5    1    3    3  502    0  0.69899388900E+02 -0.82141430403E+01  0.11796266752E+00  0.70504489429E+02  0.41800000000E+01 0.  1.
         -5    1    3    3    0  502 -0.55455651621E+02 -0.12404113406E+02  0.50012084797E+01  0.57198564775E+02  0.41800000000E+01 0.  1.
        -11    1    4    4    0    0 -0.15276145950E+02  0.11323589058E+01 -0.29503383617E+02  0.33242931830E+02  0.00000000000E+00 0.  1.
         11    1    4    4    0    0  0.83240867084E+00  0.19485897541E+02  0.61543711733E+02  0.64560216551E+02  0.00000000000E+00 0. -1.
</event>
<event>
 8    1  0.7026811E-009  0.1311263E+03  0.7561462E-02  0.1225794E+00
         -1   -1    0    0    0  501 -0.00000000000E+00  0.00000000000E+00  0.12984541866E+03  0.12984541866E+03  0.00000000000E+00 0.  1.
          1   -1    0    0  501    0  0.00000000000E+00 -0.00000000000E+00 -0.17214201596E+03  0.17214201596E+03  0.00000000000E+00 0. -1.
         25    2    1    2    0    0  0.46976399815E+02  0.89827375639E+02 -0.45405763106E+02  0.16728971759E+03  0.12509367184E+03 0.  0.
         23    2    1    2    0    0 -0.46976399815E+02 -0.89827375639E+02  0.31091658041E+01  0.13469771703E+03  0.88645747254E+02 0.  0.
          5    1    3    3  502    0  0.84243862391E+02  0.28590953261E+02 -0.21648600645E+02  0.91654815852E+02  0.41800000000E+01 0.  1.
         -5    1    3    3    0  502 -0.37267462577E+02  0.61236422378E+02 -0.23757162461E+02  0.75634901737E+02  0.41800000000E+01 0.  1.
        -11    1    4    4    0    0 -0.20637754259E+02 -0.37615989597E+02  0.45448035786E+02  0.62501228236E+02  0.00000000000E+00 0.  1.
         11    1    4    4    0    0 -0.26338645556E+02 -0.52211386042E+02 -0.42338869982E+02  0.72196488789E+02  0.00000000000E+00 0. -1.
</event>
<event>
 8    1  0.7026811E-009  0.6097097E+02  0.7561462E-02  0.1393802E+00
          2   -1    0    0  501    0  0.00000000000E+00  0.00000000000E+00  0.10928871201E+04  0.10928871201E+04  0.00000000000E+00 0. -1.
         -2   -1    0    0    0  501 -0.00000000000E+00 -0.00000000000E+00 -0.12225520291E+02  0.12225520291E+02  0.00000000000E+00 0.  1.
         25    2    1    2    0    0 -0.13895840149E+02  0.24565068025E+02  0.75530336789E+03  0.76611162392E+03  0.12508919144E+03 0.  0.
         23    2    1    2    0    0  0.13895840149E+02 -0.24565068025E+02  0.32535823191E+03  0.33900101646E+03  0.90923996568E+02 0.  0.
          5    1    3    3  502    0 -0.14379183722E+02  0.50926882612E+00  0.55765897377E+01  0.15987214652E+02  0.41800000000E+01 0. -1.
         -5    1    3    3    0  502  0.48334357263E+00  0.24055799199E+02  0.74972677816E+03  0.75012440927E+03  0.41800000000E+01 0. -1.
        -11    1    4    4    0    0 -0.28193145730E+02  0.80173880973E+01  0.45483669824E+02  0.54110037874E+02  0.00000000000E+00 0.  1.
         11    1    4    4    0    0  0.42088985879E+02 -0.32582456122E+02  0.27987456209E+03  0.28489097859E+03  0.00000000000E+00 0. -1.
</event>
<event>
 8    1  0.7026811E-009  0.1426993E+03  0.7561462E-02  0.1209742E+00
         -1   -1    0    0    0  501 -0.00000000000E+00  0.00000000000E+00  0.27060344820E+02  0.27060344820E+02  0.00000000000E+00 0.  1.
          1   -1    0    0  501    0  0.00000000000E+00 -0.00000000000E+00 -0.14072556404E+04  0.14072556404E+04  0.00000000000E+00 0. -1.
         25    2    1    2    0    0 -0.11988739136E+03 -0.15122613540E+02 -0.11198349953E+04  0.11332607422E+04  0.12509121900E+03 0.  0.
         23    2    1    2    0    0  0.11988739136E+03  0.15122613540E+02 -0.26036030027E+03  0.30105524300E+03  0.90802496313E+02 0.  0.
          5    1    3    3  502    0 -0.92410000489E+02  0.37975681812E+02 -0.46181281171E+03  0.47251487390E+03  0.41800000000E+01 0.  1.
         -5    1    3    3    0  502 -0.27477390874E+02 -0.53098295353E+02 -0.65802218360E+03  0.66074586831E+03  0.41800000000E+01 0.  1.
        -11    1    4    4    0    0  0.82964892962E+02  0.26060164570E+02 -0.85312226051E+02  0.12182151516E+03  0.00000000000E+00 0.  1.
         11    1    4    4    0    0  0.36922498401E+02 -0.10937551030E+02 -0.17504807422E+03  0.17923372784E+03  0.00000000000E+00 0. -1.
</event>
<event>
 8    1  0.7026811E-009  0.1250956E+03  0.7561462E-02  0.1234920E+00
          2   -1    0    0  501    0  0.00000000000E+00  0.00000000000E+00  0.61548769534E+03  0.61548769534E+03  0.00000000000E+00 0. -1.
         -2   -1    0    0    0  501 -0.00000000000E+00 -0.00000000000E+00 -0.26674110790E+02  0.26674110790E+02  0.00000000000E+00 0.  1.
         25    2    1    2    0    0  0.14362363531E+02  0.63908339129E+02  0.36833567004E+03  0.39447398449E+03  0.12509198742E+03 0.  0.
         23    2    1    2    0    0 -0.14362363531E+02 -0.63908339129E+02  0.22047791451E+03  0.24768782164E+03  0.91914051738E+02 0.  0.
          5    1    3    3  502    0 -0.50067117091E+02 -0.14525971579E+00  0.12835697804E+03  0.13783948464E+03  0.41800000000E+01 0.  1.
         -5    1    3    3    0  502  0.64429480622E+02  0.64053598845E+02  0.23997869200E+03  0.25663449985E+03  0.41800000000E+01 0.  1.
        -11    1    4    4    0    0  0.30938695513E+02 -0.54597161995E+02  0.15759108696E+03  0.16962607013E+03  0.00000000000E+00 0.  1.
         11    1    4    4    0    0 -0.45301059044E+02 -0.93111771341E+01  0.62886827547E+02  0.78061751511E+02  0.00000000000E+00 0. -1.
</event>
<event>
 8    1  0.7026811E-009  0.1564134E+03  0.7561462E-02  0.1192807E+00
         -2   -1    0    0    0  501 -0.00000000000E+00  0.00000000000E+00  0.15984894989E+03  0.15984894989E+03  0.00000000000E+00 0.  1.
          2   -1    0    0  501    0  0.00000000000E+00 -0.00000000000E+00 -0.16614130847E+03  0.16614130847E+03  0.00000000000E+00 0. -1.
         25    2    1    2    0    0  0.11790647662E+03 -0.38897375634E+02  0.13409705614E+02  0.17675886908E+03  0.12509570150E+03 0.  0.
         23    2    1    2    0    0 -0.11790647662E+03  0.38897375634E+02 -0.19702064200E+02  0.14923138928E+03  0.80416995428E+02 0.  0.
          5    1    3    3  502    0 -0.22659760998E+02  0.10776654852E+02  0.10684015675E+02  0.27590245544E+02  0.41800000000E+01 0. -1.
         -5    1    3    3    0  502  0.14056623761E+03 -0.49674030486E+02  0.27256899398E+01  0.14916862353E+03  0.41800000000E+01 0. -1.
        -11    1    4    4    0    0  0.17199845699E+00  0.18400253221E+02  0.15784531473E+02  0.24243562772E+02  0.00000000000E+00 0.  1.
         11    1    4    4    0    0 -0.11807847507E+03  0.20497122413E+02 -0.35486595673E+02  0.12498782651E+03  0.00000000000E+00 0. -1.
</event>
<event>
 8    1  0.7026811E-009  0.1080888E+03  0.7561462E-02  0.1264151E+00
          4   -1    0    0  501    0  0.00000000000E+00  0.00000000000E+00  0.31349866614E+02  0.31349866614E+02  0.00000000000E+00 0. -1.
         -4   -1    0    0    0  501 -0.00000000000E+00 -0.00000000000E+00 -0.40042430545E+03  0.40042430545E+03  0.00000000000E+00 0.  1.
         25    2    1    2    0    0 -0.45181686252E+01  0.15150704554E+02 -0.16639192906E+03  0.20876659513E+03  0.12508900626E+03 0.  0.
         23    2    1    2    0    0  0.45181686252E+01 -0.15150704554E+02 -0.20268250977E+03  0.22300757693E+03  0.91663634590E+02 0.  0.
          5    1    3    3  502    0 -0.38405398912E+02 -0.42449210463E+02 -0.94145412875E+02  0.11026214808E+03  0.41800000000E+01 0.  1.
         -5    1    3    3    0  502  0.33887230287E+02  0.57599915017E+02 -0.72246516187E+02  0.98504447045E+02  0.41800000000E+01 0.  1.
        -11    1    4    4    0    0  0.47253258245E+02 -0.13107813127E+02 -0.12584714683E+03  0.13506364998E+03  0.00000000000E+00 0.  1.
         11    1    4    4    0    0 -0.42735089620E+02 -0.20428914270E+01 -0.76835362939E+02  0.87943926955E+02  0.00000000000E+00 0. -1.
</event>
<event>
 8    1  0.7026811E-009  0.1045964E+03  0.7561462E-02  0.1270917E+00
         -1   -1    0    0    0  501 -0.00000000000E+00  0.00000000000E+00  0.55433641739E+02  0.55433641739E+02  0.00000000000E+00 0.  1.
          1   -1    0    0  501    0  0.00000000000E+00 -0.00000000000E+00 -0.42755181371E+03  0.42755181371E+03  0.00000000000E+00 0. -1.
         25    2    1    2    0    0  0.96537098722E+02 -0.34974438925E+02 -0.25010582298E+03  0.29789713925E+03  0.12508860890E+03 0.  0.
         23    2    1    2    0    0 -0.96537098722E+02  0.34974438925E+02 -0.12201234899E+03  0.18508831620E+03  0.93957696226E+02 0.  0.
          5    1    3    3  502    0  0.87924592955E+02 -0.29681615031E+02 -0.67169299447E+02  0.11463384974E+03  0.41800000000E+01 0.  1.
         -5    1    3    3    0  502  0.86125057672E+01 -0.52928238943E+01 -0.18293652353E+03  0.18326328951E+03  0.41800000000E+01 0.  1.
        -11    1    4    4    0    0 -0.54388882324E+02  0.71516902283E+01 -0.20123787621E+01  0.54893960158E+02  0.00000000000E+00 0.  1.
         11    1    4    4    0    0 -0.42148216399E+02  0.27822748697E+02 -0.11999997023E+03  0.13019435604E+03  0.00000000000E+00 0. -1.
</event>
<event>
 8    1  0.7026811E-009  0.1163129E+03  0.7561462E-02  0.1249307E+00
          2   -1    0    0  501    0  0.00000000000E+00  0.00000000000E+00  0.23849893164E+03  0.23849893164E+03  0.00000000000E+00 0. -1.
         -2   -1    0    0    0  501 -0.00000000000E+00 -0.00000000000E+00 -0.72221385897E+02  0.72221385897E+02  0.00000000000E+00 0.  1.
         25    2    1    2    0    0  0.54019905553E+02 -0.16507493067E+02  0.14820988888E+03  0.20200443339E+03  0.12509585293E+03 0.  0.
         23    2    1    2    0    0 -0.54019905553E+02  0.16507493067E+02  0.18067656856E+02  0.10871588415E+03  0.91115617314E+02 0.  0.
          5    1    3    3  502    0  0.74557304807E+02 -0.54226986587E+02  0.11558723539E+03  0.14790956412E+03  0.41800000000E+01 0.  1.
         -5    1    3    3    0  502 -0.20537399254E+02  0.37719493520E+02  0.32622653496E+02  0.54094869264E+02  0.41800000000E+01 0.  1.
        -11    1    4    4    0    0 -0.67316822090E+02 -0.94947363521E+01 -0.93922496718E+01  0.68628848953E+02  0.00000000000E+00 0.  1.
         11    1    4    4    0    0  0.13296916538E+02  0.26002229419E+02  0.27459906528E+02  0.40087035194E+02  0.00000000000E+00 0. -1.
</event>
<event>
 8    1  0.7026811E-009  0.1321344E+03  0.7561462E-02  0.1224323E+00
          2   -1    0    0  501    0  0.00000000000E+00  0.00000000000E+00  0.56924269107E+02  0.56924269107E+02  0.00000000000E+00 0. -1.
         -2   -1    0    0    0  501 -0.00000000000E+00 -0.00000000000E+00 -0.58673988255E+03  0.58673988255E+03  0.00000000000E+00 0.  1.
         25    2    1    2    0    0 -0.12521140989E+00  0.11060334375E+03 -0.44757429018E+03  0.47770719170E+03  0.12509316706E+03 0.  0.
         23    2    1    2    0    0  0.12521140989E+00 -0.11060334375E+03 -0.82241323271E+02  0.16595695996E+03  0.92438963542E+02 0.  0.
          5    1    3    3  502    0 -0.17861978612E+01  0.12194071219E+03 -0.44912978212E+03  0.46541138939E+03  0.41800000000E+01 0. -1.
         -5    1    3    3    0  502  0.16609864513E+01 -0.11337368439E+02  0.15554919421E+01  0.12295802303E+02  0.41800000000E+01 0. -1.
        -11    1    4    4    0    0  0.27298932206E+02 -0.94710518842E+02 -0.90066556208E+02  0.13351890737E+03  0.00000000000E+00 0.  1.
         11    1    4    4    0    0 -0.27173720796E+02 -0.15892824906E+02  0.78252329362E+01  0.32438052591E+02  0.00000000000E+00 0. -1.
</event>
<event>
 8    1  0.7026811E-009  0.1515615E+03  0.7561462E-02  0.1198567E+00
          2   -1    0    0  501    0  0.00000000000E+00  0.00000000000E+00  0.10054647325E+03  0.10054647325E+03  0.00000000000E+00 0. -1.
         -2   -1    0    0    0  501 -0.00000000000E+00 -0.00000000000E+00 -0.32000042437E+03  0.32000042437E+03  0.00000000000E+00 0.  1.
         25    2    1    2    0    0 -0.88886675564E+02 -0.72156835907E+02 -0.14852330781E+02  0.17022116602E+03  0.12508878276E+03 0.  0.
         23    2    1    2    0    0  0.88886675564E+02  0.72156835907E+02 -0.20460162034E+03  0.25032573159E+03  0.87713732058E+02 0.  0.
          5    1    3    3  502    0 -0.15277347738E+02  0.29403562543E+02  0.21306492453E+02  0.39615727492E+02  0.41800000000E+01 0.  1.
         -5    1    3    3    0  502 -0.73609327827E+02 -0.10156039845E+03 -0.36158823234E+02  0.13060543853E+03  0.41800000000E+01 0.  1.
        -11    1    4    4    0    0  0.35625426590E+02  0.82594617193E+02 -0.12814750664E+03  0.15656572187E+03  0.00000000000E+00 0.  1.
         11    1    4    4    0    0  0.53261248975E+02 -0.10437781286E+02 -0.76454113700E+02  0.93760009717E+02  0.00000000000E+00 0. -1.
</event>
<event>
 8    1  0.7026811E-009  0.1124002E+03  0.7561462E-02  0.1256188E+00
         -1   -1    0    0    0  501 -0.00000000000E+00  0.00000000000E+00  0.23324783679E+03  0.23324783679E+03  0.00000000000E+00 0.  1.
          1   -1    0    0  501    0  0.00000000000E+00 -0.00000000000E+00 -0.97060834635E+02  0.97060834635E+02  0.00000000000E+00 0. -1.
         25    2    1    2    0    0  0.92279015704E+02 -0.14184301725E+02  0.25049290111E+02  0.15809741754E+03  0.12510281909E+03 0.  0.
         23    2    1    2    0    0 -0.92279015704E+02  0.14184301725E+02  0.11113771204E+03  0.17221125388E+03  0.92674234662E+02 0.  0.
          5    1    3    3  502    0  0.80140919679E+02 -0.13256111184E+02 -0.40803682968E+02  0.90998375999E+02  0.41800000000E+01 0. -1.
         -5    1    3    3    0  502  0.12138096024E+02 -0.92819054147E+00  0.65852973078E+02  0.67099041543E+02  0.41800000000E+01 0. -1.
        -11    1    4    4    0    0 -0.69683477200E+02 -0.33878655079E+02  0.55601909739E+02  0.95368352357E+02  0.00000000000E+00 0. -1.
         11    1    4    4    0    0 -0.22595538504E+02  0.48062956804E+02  0.55535802302E+02  0.76842901522E+02  0.00000000000E+00 0.  1.
</event>
<event>
 8    1  0.7026811E-009  0.1036849E+03  0.7561462E-02  0.1272732E+00
          2   -1    0    0  501    0  0.00000000000E+00  0.00000000000E+00  0.13502408025E+03  0.13502408025E+03  0.00000000000E+00 0. -1.
         -2   -1    0    0    0  501 -0.00000000000E+00 -0.00000000000E+00 -0.16469356957E+03  0.16469356957E+03  0.00000000000E+00 0.  1.
         25    2    1    2    0    0  0.17161733939E+02  0.14726206329E+02 -0.11724315746E+03  0.17292624646E+03  0.12508454133E+03 0.  0.
         23    2    1    2    0    0 -0.17161733939E+02 -0.14726206329E+02  0.87573668134E+02  0.12679140336E+03  0.88856774361E+02 0.  0.
          5    1    3    3  502    0 -0.13697665240E+01  0.64555020342E+02 -0.95457492236E+02  0.11532056250E+03  0.41800000000E+01 0. -1.
         -5    1    3    3    0  502  0.18531500463E+02 -0.49828814014E+02 -0.21785665223E+02  0.57605683961E+02  0.41800000000E+01 0. -1.
        -11    1    4    4    0    0  0.18740540242E+02  0.27898043178E+02  0.47337056126E+02  0.58054332693E+02  0.00000000000E+00 0. -1.
         11    1    4    4    0    0 -0.35902274181E+02 -0.42624249507E+02  0.40236612008E+02  0.68737070662E+02  0.00000000000E+00 0.  1.
</event>
<event>
 8    1  0.7026811E-009  0.7434635E+02  0.7561462E-02  0.1345907E+00
          1   -1    0    0  501    0  0.00000000000E+00  0.00000000000E+00  0.88920678878E+03  0.88920678878E+03  0.00000000000E+00 0. -1.
         -1   -1    0    0    0  501 -0.00000000000E+00 -0.00000000000E+00 -0.17028632211E+02  0.17028632211E+02  0.00000000000E+00 0.  1.
         25    2    1    2    0    0 -0.42997285003E+02 -0.33309057979E+02  0.41224464096E+03  0.43422483603E+03  0.12508918566E+03 0.  0.
         23    2    1    2    0    0  0.42997285003E+02  0.33309057979E+02  0.45993351561E+03  0.47201058496E+03  0.91087285986E+02 0.  0.
          5    1    3    3  502    0 -0.73788541966E+01 -0.49997488001E+01 -0.72645812898E+01  0.12234848533E+02  0.41800000000E+01 0.  1.
         -5    1    3    3    0  502 -0.35618430806E+02 -0.28309309179E+02  0.41950922225E+03  0.42198998750E+03  0.41800000000E+01 0.  1.
        -11    1    4    4    0    0 -0.14519527492E+02 -0.12865936947E+02  0.29526614605E+02  0.35329449219E+02  0.00000000000E+00 0.  1.
         11    1    4    4    0    0  0.57516812494E+02  0.46174994926E+02  0.43040690101E+03  0.43668113574E+03  0.00000000000E+00 0. -1.
</event>
<event>
 8    1  0.7026811E-009  0.1057994E+03  0.7561462E-02  0.1268552E+00
         -1   -1    0    0    0  501 -0.00000000000E+00  0.00000000000E+00  0.11000057049E+02  0.11000057049E+02  0.00000000000E+00 0.  1.
          1   -1    0    0  501    0  0.00000000000E+00 -0.00000000000E+00 -0.19056362458E+04  0.19056362458E+04  0.00000000000E+00 0. -1.
         25    2    1    2    0    0  0.67009315000E+02 -0.51393522602E+02 -0.13239828277E+04  0.13325575270E+04  0.12508993632E+03 0.  0.
         23    2    1    2    0    0 -0.67009315000E+02  0.51393522602E+02 -0.57065336101E+03  0.58407877584E+03  0.91494346794E+02 0.  0.
          5    1    3    3  502    0  0.38896412716E+02 -0.41404881332E+02 -0.19441800937E+03  0.20259104098E+03  0.41800000000E+01 0.  1.
         -5    1    3    3    0  502  0.28112902284E+02 -0.99886412701E+01 -0.11295648184E+04  0.11299664860E+04  0.41800000000E+01 0.  1.
        -11    1    4    4    0    0 -0.83249232547E+02  0.14908220353E+02 -0.38720260127E+03  0.39633135655E+03  0.00000000000E+00 0. -1.
         11    1    4    4    0    0  0.16239917547E+02  0.36485302249E+02 -0.18345075974E+03  0.18774741930E+03  0.00000000000E+00 0.  1.
</event>
<event>
 8    1  0.7026811E-009  0.1067756E+03  0.7561462E-02  0.1266660E+00
          2   -1    0    0  501    0  0.00000000000E+00  0.00000000000E+00  0.26754292264E+04  0.26754292264E+04  0.00000000000E+00 0. -1.
         -2   -1    0    0    0  501 -0.00000000000E+00 -0.00000000000E+00 -0.95834609355E+01  0.95834609355E+01  0.00000000000E+00 0.  1.
         25    2    1    2    0    0  0.38577143819E+02  0.79546767751E+02  0.20970891645E+04  0.21026760615E+04  0.12509105183E+03 0.  0.
         23    2    1    2    0    0 -0.38577143819E+02 -0.79546767751E+02  0.56875660093E+03  0.58233662585E+03  0.88408090246E+02 0.  0.
          5    1    3    3  502    0  0.13076440175E+02  0.40659118909E+02  0.18858572113E+04  0.18863454220E+04  0.41800000000E+01 0. -1.
         -5    1    3    3    0  502  0.25500703644E+02  0.38887648842E+02  0.21123195328E+03  0.21633063955E+03  0.41800000000E+01 0. -1.
        -11    1    4    4    0    0 -0.53716374635E+02 -0.12419942178E+02  0.21555444667E+03  0.22249364788E+03  0.00000000000E+00 0. -1.
         11    1    4    4    0    0  0.15139230816E+02 -0.67126825573E+02  0.35320215425E+03  0.35984297797E+03  0.00000000000E+00 0.  1.
</event>
<event>
 8    1  0.7026811E-009  0.1034004E+03  0.7561462E-02  0.1273304E+00
          2   -1    0    0  501    0  0.00000000000E+00  0.00000000000E+00  0.33497257840E+02  0.33497257840E+02  0.00000000000E+00 0. -1.
         -2   -1    0    0    0  501 -0.00000000000E+00 -0.00000000000E+00 -0.38534748902E+03  0.38534748902E+03  0.00000000000E+00 0.  1.
         25    2    1    2    0    0 -0.33521408927E+02  0.25794839758E+01 -0.19795455215E+03  0.23656636267E+03  0.12508917075E+03 0.  0.
         23    2    1    2    0    0  0.33521408927E+02 -0.25794839758E+01 -0.15389567903E+03  0.18227838418E+03  0.91712543976E+02 0.  0.
          5    1    3    3  502    0  0.16517965850E+02 -0.52009751243E+02 -0.72695801053E+02  0.90994556491E+02  0.41800000000E+01 0. -1.
         -5    1    3    3    0  502 -0.50039374777E+02  0.54589235219E+02 -0.12525875109E+03  0.14557180618E+03  0.41800000000E+01 0. -1.
        -11    1    4    4    0    0  0.53647661570E+02 -0.13050992841E+02 -0.14922987175E+03  0.15911616708E+03  0.00000000000E+00 0.  1.
         11    1    4    4    0    0 -0.20126252643E+02  0.10471508865E+02 -0.46658072832E+01  0.23162217099E+02  0.00000000000E+00 0. -1.
</event>
<event>
 8    1  0.7026811E-009  0.1167913E+03  0.7561462E-02  0.1248486E+00
          1   -1    0    0  501    0  0.00000000000E+00  0.00000000000E+00  0.58971890036E+02  0.58971890036E+02  0.00000000000E+00 0. -1.
         -1   -1    0    0    0  501 -0.00000000000E+00 -0.00000000000E+00 -0.30663067676E+03  0.30663067676E+03  0.00000000000E+00 0.  1.
         25    2    1    2    0    0 -0.26406031455E+02 -0.72861753663E+02 -0.13860647652E+03  0.20215213736E+03  0.12509043794E+03 0.  0.
         23    2    1    2    0    0  0.26406031455E+02  0.72861753663E+02 -0.10905231021E+03  0.16345042943E+03  0.93901665996E+02 0.  0.
          5    1    3    3  502    0  0.35418293906E+02 -0.75302305371E+02 -0.94885180114E+02  0.12627574012E+03  0.41800000000E+01 0. -1.
         -5    1    3    3    0  502 -0.61824325362E+02  0.24405517086E+01 -0.43721296401E+02  0.75876397240E+02  0.41800000000E+01 0. -1.
        -11    1    4    4    0    0 -0.10849856680E+02  0.81187748000E+01  0.14010486607E+02  0.19491732329E+02  0.00000000000E+00 0. -1.
         11    1    4    4    0    0  0.37255888135E+02  0.64742978863E+02 -0.12306279681E+03  0.14395869711E+03  0.00000000000E+00 0.  1.
</event>
<event>
 8    1  0.7026811E-009  0.1273571E+03  0.7561462E-02  0.1231431E+00
         -3   -1    0    0    0  501 -0.00000000000E+00  0.00000000000E+00  0.72010135421E+03  0.72010135421E+03  0.00000000000E+00 0.  1.
          3   -1    0    0  501    0  0.00000000000E+00 -0.00000000000E+00 -0.26111199408E+02  0.26111199408E+02  0.00000000000E+00 0. -1.
         25    2    1    2    0    0  0.62430848034E+02 -0.54970425303E+02  0.39369222929E+03  0.42137864193E+03  0.12508808905E+03 0.  0.
         23    2    1    2    0    0 -0.62430848034E+02  0.54970425303E+02  0.30029792551E+03  0.32483391169E+03  0.91754387769E+02 0.  0.
          5    1    3    3  502    0  0.84844634146E+02 -0.79261137953E+02  0.28768479747E+03  0.31025949628E+03  0.41800000000E+01 0.  1.
         -5    1    3    3    0  502 -0.22413786112E+02  0.24290712650E+02  0.10600743182E+03  0.11111914565E+03  0.41800000000E+01 0.  1.
        -11    1    4    4    0    0 -0.18537763642E+02  0.58320460758E+02  0.25268363809E+03  0.25998835701E+03  0.00000000000E+00 0.  1.
         11    1    4    4    0    0 -0.43893084392E+02 -0.33500354554E+01  0.47614287419E+02  0.64845554678E+02  0.00000000000E+00 0. -1.
</event>
<event>
 8    1  0.7026811E-009  0.1237900E+03  0.7561462E-02  0.1236972E+00
         -1   -1    0    0    0  501 -0.00000000000E+00  0.00000000000E+00  0.40032391307E+03  0.40032391307E+03  0.00000000000E+00 0.  1.
          1   -1    0    0  501    0  0.00000000000E+00 -0.00000000000E+00 -0.65409773656E+02  0.65409773656E+02  0.00000000000E+00 0. -1.
         25    2    1    2    0    0 -0.56967213713E+02 -0.91124476118E+02  0.10265356364E+03  0.19424779655E+03  0.12508204808E+03 0.  0.
         23    2    1    2    0    0  0.56967213713E+02  0.91124476118E+02  0.23226057578E+03  0.27148589018E+03  0.90612802182E+02 0.  0.
          5    1    3    3  502    0 -0.49494551640E+02 -0.39370381182E+02  0.12268966219E+03  0.13809403740E+03  0.41800000000E+01 0.  1.
         -5    1    3    3    0  502 -0.74726620725E+01 -0.51754094936E+02 -0.20036098557E+02  0.56153759148E+02  0.41800000000E+01 0.  1.
        -11    1    4    4    0    0  0.73701516855E+01  0.80730847380E+02  0.93435071346E+02  0.12370085453E+03  0.00000000000E+00 0.  1.
         11    1    4    4    0    0  0.49597062027E+02  0.10393628738E+02  0.13882550443E+03  0.14778503565E+03  0.00000000000E+00 0. -1.
</event>
<event>
 8    1  0.7026811E-009  0.1287230E+03  0.7561462E-02  0.1229363E+00
         -1   -1    0    0    0  501 -0.00000000000E+00  0.00000000000E+00  0.16740859044E+02  0.16740859044E+02  0.00000000000E+00 0.  1.
          1   -1    0    0  501    0  0.00000000000E+00 -0.00000000000E+00 -0.11468445706E+04  0.11468445706E+04  0.00000000000E+00 0. -1.
         25    2    1    2    0    0  0.15848170225E+02  0.73807108278E+02 -0.79612103349E+03  0.80941641343E+03  0.12509027394E+03 0.  0.
         23    2    1    2    0    0 -0.15848170225E+02 -0.73807108278E+02 -0.33398267807E+03  0.35416901622E+03  0.90513032574E+02 0.  0.
          5    1    3    3  502    0  0.64403537321E+02  0.93794523110E+01 -0.37076207517E+03  0.37645421837E+03  0.41800000000E+01 0. -1.
         -5    1    3    3    0  502 -0.48555367097E+02  0.64427655967E+02 -0.42535895832E+03  0.43296219506E+03  0.41800000000E+01 0. -1.
        -11    1    4    4    0    0  0.24262737829E+02  0.33420282163E+01 -0.13218272106E+03  0.13443259035E+03  0.00000000000E+00 0. -1.
         11    1    4    4    0    0 -0.40110908054E+02 -0.77149136494E+02 -0.20179995701E+03  0.21973642587E+03  0.00000000000E+00 0.  1.
</event>
<event>
 8    1  0.7026811E-009  0.9747900E+02  0.7561462E-02  0.1285688E+00
         -2   -1    0    0    0  501 -0.00000000000E+00  0.00000000000E+00  0.28064551818E+02  0.28064551818E+02  0.00000000000E+00 0.  1.
          2   -1    0    0  501    0  0.00000000000E+00 -0.00000000000E+00 -0.51774666959E+03  0.51774666959E+03  0.00000000000E+00 0. -1.
         25    2    1    2    0    0 -0.42292983840E+02 -0.12040835341E+02 -0.37718927154E+03  0.39981659383E+03  0.12509150225E+03 0.  0.
         23    2    1    2    0    0  0.42292983840E+02  0.12040835341E+02 -0.11249284623E+03  0.14599462758E+03  0.82012880889E+02 0.  0.
          5    1    3    3  502    0 -0.24742676921E+02  0.42056501819E+02 -0.29931492876E+03  0.30329498576E+03  0.41800000000E+01 0.  1.
         -5    1    3    3    0  502 -0.17550306919E+02 -0.54097337160E+02 -0.77874342776E+02  0.96521608066E+02  0.41800000000E+01 0.  1.
        -11    1    4    4    0    0  0.42819910935E+02  0.41419538974E+02 -0.93960529855E+02  0.11125513090E+03  0.00000000000E+00 0.  1.
         11    1    4    4    0    0 -0.52692709524E+00 -0.29378703633E+02 -0.18532316378E+02  0.34739496681E+02  0.00000000000E+00 0. -1.
</event>
<event>
 8    1  0.7026811E-009  0.1731819E+03  0.7561462E-02  0.1174570E+00
          3   -1    0    0  501    0  0.00000000000E+00  0.00000000000E+00  0.82708102519E+02  0.82708102519E+02  0.00000000000E+00 0.  1.
         -3   -1    0    0    0  501 -0.00000000000E+00 -0.00000000000E+00 -0.46072375934E+03  0.46072375934E+03  0.00000000000E+00 0. -1.
         25    2    1    2    0    0 -0.70548475936E+02  0.14503138916E+03 -0.18427650665E+03  0.27498560073E+03  0.12509219964E+03 0.  0.
         23    2    1    2    0    0  0.70548475936E+02 -0.14503138916E+03 -0.19373915017E+03  0.26844626112E+03  0.92289465832E+02 0.  0.
          5    1    3    3  502    0 -0.65986822643E+02  0.15606476075E+03 -0.11561866773E+03  0.20517216926E+03  0.41800000000E+01 0. -1.
         -5    1    3    3    0  502 -0.45616532933E+01 -0.11033371595E+02 -0.68657838911E+02  0.69813431469E+02  0.41800000000E+01 0. -1.
        -11    1    4    4    0    0  0.42620695824E+02 -0.52808599574E+02 -0.21677676607E+02  0.71240392788E+02  0.00000000000E+00 0.  1.
         11    1    4    4    0    0  0.27927780112E+02 -0.92222789585E+02 -0.17206147357E+03  0.19720586834E+03  0.00000000000E+00 0. -1.
</event>
<event>
 8    1  0.7026811E-009  0.1366993E+03  0.7561462E-02  0.1217841E+00
          3   -1    0    0  501    0  0.00000000000E+00  0.00000000000E+00  0.35720012186E+03  0.35720012186E+03  0.00000000000E+00 0. -1.
         -3   -1    0    0    0  501 -0.00000000000E+00 -0.00000000000E+00 -0.56492811623E+02  0.56492811623E+02  0.00000000000E+00 0.  1.
         25    2    1    2    0    0  0.94882327881E+01  0.92109632447E+02  0.14105662258E+03  0.21004400765E+03  0.12508918188E+03 0.  0.
         23    2    1    2    0    0 -0.94882327881E+01 -0.92109632447E+02  0.15965068766E+03  0.20364892584E+03  0.86083285113E+02 0.  0.
          5    1    3    3  502    0 -0.48820037313E+02  0.83112869735E+02  0.86606539288E+02  0.12965072389E+03  0.41800000000E+01 0. -1.
         -5    1    3    3    0  502  0.58308270101E+02  0.89967627119E+01  0.54450083296E+02  0.80393283752E+02  0.41800000000E+01 0. -1.
        -11    1    4    4    0    0 -0.47770111815E+01  0.12331199395E+02  0.50339011953E+00  0.13233734014E+02  0.00000000000E+00 0.  1.
         11    1    4    4    0    0 -0.47112216066E+01 -0.10444083184E+03  0.15914729754E+03  0.19041519183E+03  0.00000000000E+00 0. -1.
</event>
<event>
 8    1  0.7026811E-009  0.1280200E+03  0.7561462E-02  0.1230424E+00
         -2   -1    0    0    0  501 -0.00000000000E+00  0.00000000000E+00  0.40932607457E+02  0.40932607457E+02  0.00000000000E+00 0. -1.
          2   -1    0    0  501    0  0.00000000000E+00 -0.00000000000E+00 -0.44978284834E+03  0.44978284834E+03  0.00000000000E+00 0.  1.
         25    2    1    2    0    0  0.56848100477E+02 -0.40753774809E+02 -0.14954231004E+03  0.20713328783E+03  0.12509484301E+03 0.  0.
         23    2    1    2    0    0 -0.56848100477E+02  0.40753774809E+02 -0.25930793085E+03  0.28358216797E+03  0.91025635398E+02 0.  0.
          5    1    3    3  502    0  0.92224213894E+02 -0.49459629078E+02 -0.94940694812E+02  0.14136042044E+03  0.41800000000E+01 0.  1.
         -5    1    3    3    0  502 -0.35376113417E+02  0.87058542691E+01 -0.54601615224E+02  0.65772867385E+02  0.41800000000E+01 0.  1.
        -11    1    4    4    0    0 -0.70950878524E+02 -0.59006589776E+00 -0.16768535339E+03  0.18207897485E+03  0.00000000000E+00 0.  1.
         11    1    4    4    0    0  0.14102778047E+02  0.41343840707E+02 -0.91622577467E+02  0.10150319313E+03  0.00000000000E+00 0. -1.
</event>
<event>
 8    1  0.7026811E-009  0.1235760E+03  0.7561462E-02  0.1237312E+00
          2   -1    0    0  501    0  0.00000000000E+00  0.00000000000E+00  0.70523219141E+02  0.70523219141E+02  0.00000000000E+00 0. -1.
         -2   -1    0    0    0  501 -0.00000000000E+00 -0.00000000000E+00 -0.28983741233E+03  0.28983741233E+03  0.00000000000E+00 0.  1.
         25    2    1    2    0    0  0.74206971671E+02 -0.26606005762E+02 -0.18214510576E+03  0.23460410593E+03  0.12509073818E+03 0.  0.
         23    2    1    2    0    0 -0.74206971671E+02  0.26606005762E+02 -0.37169087424E+02  0.12575652554E+03  0.90656541232E+02 0.  0.
          5    1    3    3  502    0  0.84040372460E+02  0.30694716849E+02 -0.10967590404E+03  0.14160235229E+03  0.41800000000E+01 0.  1.
         -5    1    3    3    0  502 -0.98334007889E+01 -0.57300722612E+02 -0.72469201719E+02  0.93001753643E+02  0.41800000000E+01 0.  1.
        -11    1    4    4    0    0 -0.70103750057E+02  0.43103921786E+02 -0.56644101798E+02  0.99905145583E+02  0.00000000000E+00 0.  1.
         11    1    4    4    0    0 -0.41032216135E+01 -0.16497916024E+02  0.19475014373E+02  0.25851379955E+02  0.00000000000E+00 0. -1.
</event>
<event>
 8    1  0.7026811E-009  0.1434267E+03  0.7561462E-02  0.1208791E+00
          2   -1    0    0  501    0  0.00000000000E+00  0.00000000000E+00  0.15173535773E+04  0.15173535773E+04  0.00000000000E+00 0. -1.
         -2   -1    0    0    0  501 -0.00000000000E+00 -0.00000000000E+00 -0.18126329032E+02  0.18126329032E+02  0.00000000000E+00 0.  1.
         25    2    1    2    0    0  0.61207875728E+02 -0.87992482958E+02  0.10852111810E+04  0.10976430421E+04  0.12509140433E+03 0.  0.
         23    2    1    2    0    0 -0.61207875728E+02  0.87992482958E+02  0.41401606721E+03  0.43783686415E+03  0.93822889510E+02 0.  0.
          5    1    3    3  502    0  0.43893538271E+01  0.28911831549E+02  0.11406468192E+03  0.11782777470E+03  0.41800000000E+01 0. -1.
         -5    1    3    3    0  502  0.56818521901E+02 -0.11690431451E+03  0.97114649911E+03  0.97981526744E+03  0.41800000000E+01 0. -1.
        -11    1    4    4    0    0 -0.65272376379E+02  0.34898842298E+02  0.13667249519E+03  0.15542774287E+03  0.00000000000E+00 0. -1.
         11    1    4    4    0    0  0.40645006505E+01  0.53093640660E+02  0.27734357202E+03  0.28240912129E+03  0.00000000000E+00 0.  1.
</event>
<event>
 8    1  0.7026811E-009  0.1376485E+03  0.7561462E-02  0.1216529E+00
         -1   -1    0    0    0  501 -0.00000000000E+00  0.00000000000E+00  0.23330323666E+02  0.23330323666E+02  0.00000000000E+00 0.  1.
          1   -1    0    0  501    0  0.00000000000E+00 -0.00000000000E+00 -0.10633070702E+04  0.10633070702E+04  0.00000000000E+00 0. -1.
         25    2    1    2    0    0 -0.88719403603E+02  0.12340093538E+02 -0.80359128631E+03  0.81818688054E+03  0.12508959017E+03 0.  0.
         23    2    1    2    0    0  0.88719403603E+02 -0.12340093538E+02 -0.23638546022E+03  0.26845051333E+03  0.90355862100E+02 0.  0.
          5    1    3    3  502    0  0.26713423408E+02  0.21725926040E+02 -0.12289884783E+03  0.12769973395E+03  0.41800000000E+01 0. -1.
         -5    1    3    3    0  502 -0.11543282701E+03 -0.93858325021E+01 -0.68069243848E+03  0.69048714659E+03  0.41800000000E+01 0. -1.
        -11    1    4    4    0    0  0.82369532128E+02  0.25598633554E+02 -0.18629168937E+03  0.20529155704E+03  0.00000000000E+00 0.  1.
         11    1    4    4    0    0  0.63498714753E+01 -0.37938727092E+02 -0.50093770856E+02  0.63158956291E+02  0.00000000000E+00 0. -1.
</event>
<event>
 8    1  0.7026811E-009  0.1404759E+03  0.7561462E-02  0.1212690E+00
          2   -1    0    0  501    0  0.00000000000E+00  0.00000000000E+00  0.34100742173E+03  0.34100742173E+03  0.00000000000E+00 0. -1.
         -2   -1    0    0    0  501 -0.00000000000E+00 -0.00000000000E+00 -0.77669810201E+02  0.77669810201E+02  0.00000000000E+00 0.  1.
         25    2    1    2    0    0 -0.93616622566E+01 -0.10147442452E+03  0.57040034184E+02  0.17112598987E+03  0.12508332965E+03 0.  0.
         23    2    1    2    0    0  0.93616622566E+01  0.10147442452E+03  0.20629757735E+03  0.24755124206E+03  0.91313895305E+02 0.  0.
          5    1    3    3  502    0 -0.26813446116E+02 -0.12714628747E+03  0.46619322023E+02  0.13811579524E+03  0.41800000000E+01 0.  1.
         -5    1    3    3    0  502  0.17451783859E+02  0.25671862950E+02  0.10420712161E+02  0.33010194624E+02  0.41800000000E+01 0.  1.
        -11    1    4    4    0    0 -0.24896073269E+02  0.64877545289E+02  0.56413345544E+02  0.89506289736E+02  0.00000000000E+00 0. -1.
         11    1    4    4    0    0  0.34257735526E+02  0.36596879233E+02  0.14988423180E+03  0.15804495233E+03  0.00000000000E+00 0.  1.
</event>
<event>
 8    1  0.7026811E-009  0.1149331E+03  0.7561462E-02  0.1251698E+00
         -1   -1    0    0    0  501 -0.00000000000E+00  0.00000000000E+00  0.36322701775E+02  0.36322701775E+02  0.00000000000E+00 0.  1.
          1   -1    0    0  501    0  0.00000000000E+00 -0.00000000000E+00 -0.43228062700E+03  0.43228062700E+03  0.00000000000E+00 0. -1.
         25    2    1    2    0    0  0.31253384380E+02 -0.50445166907E+02 -0.17802094495E+03  0.22552141617E+03  0.12508782280E+03 0.  0.
         23    2    1    2    0    0 -0.31253384380E+02  0.50445166907E+02 -0.21793698027E+03  0.24308191260E+03  0.89837631105E+02 0.  0.
          5    1    3    3  502    0 -0.33882244833E+02  0.84063763961E+01 -0.10668566346E+03  0.11232976839E+03  0.41800000000E+01 0. -1.
         -5    1    3    3    0  502  0.65135629214E+02 -0.58851543303E+02 -0.71335281486E+02  0.11319164778E+03  0.41800000000E+01 0. -1.
        -11    1    4    4    0    0  0.30202950346E+02  0.28612567142E+02 -0.70434652475E+02  0.81804263198E+02  0.00000000000E+00 0. -1.
         11    1    4    4    0    0 -0.61456334726E+02  0.21832599765E+02 -0.14750232780E+03  0.16127764940E+03  0.00000000000E+00 0.  1.
</event>
<event>
 8    1  0.7026811E-009  0.9943413E+02  0.7561462E-02  0.1281490E+00
          2   -1    0    0  501    0  0.00000000000E+00  0.00000000000E+00  0.11217552252E+03  0.11217552252E+03  0.00000000000E+00 0. -1.
         -2   -1    0    0    0  501 -0.00000000000E+00 -0.00000000000E+00 -0.16279384841E+03  0.16279384841E+03  0.00000000000E+00 0.  1.
         25    2    1    2    0    0  0.60669701735E+02  0.39373295340E+01 -0.83708727951E+02  0.16233138837E+03  0.12509201910E+03 0.  0.
         23    2    1    2    0    0 -0.60669701735E+02 -0.39373295340E+01  0.33090402058E+02  0.11263798256E+03  0.88859580995E+02 0.  0.
          5    1    3    3  502    0  0.16380656980E+02 -0.57057912811E+02 -0.17799997584E+02  0.62114761945E+02  0.41800000000E+01 0.  1.
         -5    1    3    3    0  502  0.44289044755E+02  0.60995242345E+02 -0.65908730367E+02  0.10021662643E+03  0.41800000000E+01 0.  1.
        -11    1    4    4    0    0 -0.17654385008E+02 -0.10209542571E+02  0.58729707473E+02  0.62169852898E+02  0.00000000000E+00 0. -1.
         11    1    4    4    0    0 -0.43015316728E+02  0.62722130375E+01 -0.25639305415E+02  0.50468129663E+02  0.00000000000E+00 0.  1.
</event>
<event>
 8    1  0.7026811E-009  0.1172327E+03  0.7561462E-02  0.1247733E+00
          3   -1    0    0  501    0  0.00000000000E+00  0.00000000000E+00  0.74063512851E+02  0.74063512851E+02  0.00000000000E+00 0. -1.
         -3   -1    0    0    0  501 -0.00000000000E+00 -0.00000000000E+00 -0.25650177174E+03  0.25650177174E+03  0.00000000000E+00 0.  1.
         25    2    1    2    0    0  0.45223131273E+02  0.62803289567E+02 -0.57489532421E+02  0.15792944180E+03  0.12508907813E+03 0.  0.
         23    2    1    2    0    0 -0.45223131273E+02 -0.62803289567E+02 -0.12494872647E+03  0.17263584279E+03  0.90562493273E+02 0.  0.
          5    1    3    3  502    0  0.68200761879E+02  0.80080844761E+02 -0.69873588352E+02  0.12634902599E+03  0.41800000000E+01 0.  1.
         -5    1    3    3    0  502 -0.22977630607E+02 -0.17277555194E+02  0.12384055930E+02  0.31580415815E+02  0.41800000000E+01 0.  1.
        -11    1    4    4    0    0  0.31969815041E+01 -0.49943527884E+02 -0.15704608191E+02  0.52451991255E+02  0.00000000000E+00 0. -1.
         11    1    4    4    0    0 -0.48420112777E+02 -0.12859761683E+02 -0.10924411828E+03  0.12018385154E+03  0.00000000000E+00 0.  1.
</event>
<event>
 8    1  0.7026811E-009  0.1345467E+03  0.7561462E-02  0.1220861E+00
          4   -1    0    0  501    0  0.00000000000E+00  0.00000000000E+00  0.12723183153E+04  0.12723183153E+04  0.00000000000E+00 0. -1.
         -4   -1    0    0    0  501 -0.00000000000E+00 -0.00000000000E+00 -0.20571975880E+02  0.20571975880E+02  0.00000000000E+00 0.  1.
         25    2    1    2    0    0  0.69134676190E+02 -0.63793069059E+02  0.96400862900E+03  0.97663160376E+03  0.12508994194E+03 0.  0.
         23    2    1    2    0    0 -0.69134676190E+02  0.63793069059E+02  0.28773771047E+03  0.31625868746E+03  0.91528182867E+02 0.  0.
          5    1    3    3  502    0  0.76198295235E+02  0.11984320375E+02  0.38925037594E+03  0.39684144403E+03  0.41800000000E+01 0.  1.
         -5    1    3    3    0  502 -0.70636190451E+01 -0.75777389433E+02  0.57475825306E+03  0.57979015973E+03  0.41800000000E+01 0.  1.
        -11    1    4    4    0    0  0.12814165621E+02  0.16896087168E+02  0.11065670999E+02  0.23919232362E+02  0.00000000000E+00 0.  1.
         11    1    4    4    0    0 -0.81948841812E+02  0.46896981891E+02  0.27667203947E+03  0.29233945510E+03  0.00000000000E+00 0. -1.
</event>
<event>
 8    1  0.7026811E-009  0.1131706E+03  0.7561462E-02  0.1254809E+00
          2   -1    0    0  501    0  0.00000000000E+00  0.00000000000E+00  0.73564003584E+02  0.73564003584E+02  0.00000000000E+00 0. -1.
         -2   -1    0    0    0  501 -0.00000000000E+00 -0.00000000000E+00 -0.27618454836E+03  0.27618454836E+03  0.00000000000E+00 0.  1.
         25    2    1    2    0    0  0.56027958112E+02 -0.29619590486E+02 -0.19188600948E+03  0.23766373195E+03  0.12508939452E+03 0.  0.
         23    2    1    2    0    0 -0.56027958112E+02  0.29619590486E+02 -0.10734535303E+02  0.11208481999E+03  0.91822243460E+02 0.  0.
          5    1    3    3  502    0  0.75119677711E+02  0.19913958638E+02 -0.15323210706E+03  0.17186355856E+03  0.41800000000E+01 0.  1.
         -5    1    3    3    0  502 -0.19091719599E+02 -0.49533549125E+02 -0.38653902416E+02  0.65800173390E+02  0.41800000000E+01 0.  1.
        -11    1    4    4    0    0 -0.39000419697E+02 -0.19265206310E+02 -0.34117922355E+02  0.55283031181E+02  0.00000000000E+00 0.  1.
         11    1    4    4    0    0 -0.17027538415E+02  0.48884796796E+02  0.23383387053E+02  0.56801788813E+02  0.00000000000E+00 0. -1.
</event>
<event>
 8    1  0.7026811E-009  0.6052434E+02  0.7561462E-02  0.1395644E+00
         -1   -1    0    0    0  501 -0.00000000000E+00  0.00000000000E+00  0.58577516707E+02  0.58577516707E+02  0.00000000000E+00 0.  1.
          1   -1    0    0  501    0  0.00000000000E+00 -0.00000000000E+00 -0.26339879560E+03  0.26339879560E+03  0.00000000000E+00 0. -1.
         25    2    1    2    0    0  0.11994690108E+01 -0.36602631250E+02 -0.17755367032E+03  0.22025971440E+03  0.12509134505E+03 0.  0.
         23    2    1    2    0    0 -0.11994690108E+01  0.36602631250E+02 -0.27267608573E+02  0.10171659790E+03  0.90893082636E+02 0.  0.
          5    1    3    3  502    0  0.25857804296E+02 -0.37014911209E+02 -0.18782370183E+03  0.19321993961E+03  0.41800000000E+01 0. -1.
         -5    1    3    3    0  502 -0.24658335285E+02  0.41227995862E+00  0.10270031508E+02  0.27039774795E+02  0.41800000000E+01 0. -1.
        -11    1    4    4    0    0 -0.18023970710E+02  0.16099128842E+02  0.30048613330E+02  0.38561180385E+02  0.00000000000E+00 0.  1.
         11    1    4    4    0    0  0.16824501699E+02  0.20503502409E+02 -0.57316221903E+02  0.63155417517E+02  0.00000000000E+00 0. -1.
</event>
<event>
 8    1  0.7026811E-009  0.9085879E+02  0.7561462E-02  0.1300785E+00
         -2   -1    0    0    0  501 -0.00000000000E+00  0.00000000000E+00  0.22742169285E+02  0.22742169285E+02  0.00000000000E+00 0.  1.
          2   -1    0    0  501    0  0.00000000000E+00 -0.00000000000E+00 -0.91759701393E+03  0.91759701393E+03  0.00000000000E+00 0. -1.
         25    2    1    2    0    0  0.18321485854E+02 -0.83258280595E+02 -0.62724462854E+03  0.64524925825E+03  0.12507263132E+03 0.  0.
         23    2    1    2    0    0 -0.18321485854E+02  0.83258280595E+02 -0.26761021611E+03  0.29508992497E+03  0.90527442924E+02 0.  0.
          5    1    3    3  502    0  0.14609612190E+02 -0.26164067930E+02 -0.53991785062E+03  0.54076497394E+03  0.41800000000E+01 0. -1.
         -5    1    3    3    0  502  0.37118736644E+01 -0.57094212665E+02 -0.87326777918E+02  0.10448428431E+03  0.41800000000E+01 0. -1.
        -11    1    4    4    0    0  0.93151115447E+01  0.49957868810E+02 -0.23623188095E+03  0.24163621735E+03  0.00000000000E+00 0. -1.
         11    1    4    4    0    0 -0.27636597399E+02  0.33300411785E+02 -0.31378335157E+02  0.53453707617E+02  0.00000000000E+00 0.  1.
</event>
<event>
 8    1  0.7026811E-009  0.1111236E+03  0.7561462E-02  0.1258503E+00
          2   -1    0    0  501    0  0.00000000000E+00  0.00000000000E+00  0.83944372396E+02  0.83944372396E+02  0.00000000000E+00 0.  1.
         -2   -1    0    0    0  501 -0.00000000000E+00 -0.00000000000E+00 -0.28995200481E+03  0.28995200481E+03  0.00000000000E+00 0. -1.
         25    2    1    2    0    0 -0.64745761183E+02  0.52097719159E+02 -0.21358866012E+02  0.15168801366E+03  0.12508743501E+03 0.  0.
         23    2    1    2    0    0  0.64745761183E+02 -0.52097719159E+02 -0.18464876640E+03  0.22220836355E+03  0.91516140458E+02 0.  0.
          5    1    3    3  502    0 -0.72651837189E+02  0.53604309613E+02 -0.62286907995E+02  0.10976722081E+03  0.41800000000E+01 0. -1.
         -5    1    3    3    0  502  0.79060760062E+01 -0.15065904542E+01  0.40928041983E+02  0.41920792850E+02  0.41800000000E+01 0. -1.
        -11    1    4    4    0    0  0.32176078269E+02  0.23920182942E+02 -0.72731330303E+02  0.83050114825E+02  0.00000000000E+00 0.  1.
         11    1    4    4    0    0  0.32569682914E+02 -0.76017902101E+02 -0.11191743610E+03  0.13915824873E+03  0.00000000000E+00 0. -1.
</event>
<event>
 8    1  0.7026811E-009  0.1060703E+03  0.7561462E-02  0.1268025E+00
         -2   -1    0    0    0  501 -0.00000000000E+00  0.00000000000E+00  0.23341410838E+03  0.23341410838E+03  0.00000000000E+00 0.  1.
          2   -1    0    0  501    0  0.00000000000E+00 -0.00000000000E+00 -0.56018806632E+02  0.56018806632E+02  0.00000000000E+00 0. -1.
         25    2    1    2    0    0  0.29439854860E+02 -0.11915074495E+02  0.12826568025E+03  0.18196117260E+03  0.12509640102E+03 0.  0.
         23    2    1    2    0    0 -0.29439854860E+02  0.11915074495E+02  0.49129621501E+02  0.10747174242E+03  0.90154210410E+02 0.  0.
          5    1    3    3  502    0  0.14301562794E+02 -0.65753374459E+02  0.95843820355E+02  0.11718170186E+03  0.41800000000E+01 0.  1.
         -5    1    3    3    0  502  0.15138292067E+02  0.53838299965E+02  0.32421859893E+02  0.64779470735E+02  0.41800000000E+01 0.  1.
        -11    1    4    4    0    0 -0.42425626041E+02  0.39614826178E+02  0.50371262185E+02  0.76853967055E+02  0.00000000000E+00 0. -1.
         11    1    4    4    0    0  0.12985771180E+02 -0.27699751683E+02 -0.12416406841E+01  0.30617775361E+02  0.00000000000E+00 0.  1.
</event>
<event>
 8    1  0.7026811E-009  0.6687465E+02  0.7561462E-02  0.1371055E+00
          1   -1    0    0  501    0  0.00000000000E+00  0.00000000000E+00  0.23394171093E+03  0.23394171093E+03  0.00000000000E+00 0. -1.
         -1   -1    0    0    0  501 -0.00000000000E+00 -0.00000000000E+00 -0.61947193789E+02  0.61947193789E+02  0.00000000000E+00 0.  1.
         25    2    1    2    0    0 -0.13920541213E+02  0.53346446826E+00  0.34204009283E+02  0.13042543945E+03  0.12508722937E+03 0.  0.
         23    2    1    2    0    0  0.13920541213E+02 -0.53346446826E+00  0.13779050786E+03  0.16546346527E+03  0.90542079894E+02 0.  0.
          5    1    3    3  502    0 -0.44844345986E+02 -0.15338439053E+02 -0.30740458132E+02  0.56645663962E+02  0.41800000000E+01 0.  1.
         -5    1    3    3    0  502  0.30923804773E+02  0.15871903521E+02  0.64944467415E+02  0.73779775487E+02  0.41800000000E+01 0.  1.
        -11    1    4    4    0    0  0.31876691610E+02 -0.59036849046E+01  0.14249811266E+03  0.14613927971E+03  0.00000000000E+00 0. -1.
         11    1    4    4    0    0 -0.17956150397E+02  0.53702204364E+01 -0.47076047989E+01  0.19324185560E+02  0.00000000000E+00 0.  1.
</event>
<event>
 8    1  0.7026811E-009  0.7640794E+02  0.7561462E-02  0.1339566E+00
          1   -1    0    0  501    0  0.00000000000E+00  0.00000000000E+00  0.37191373714E+02  0.37191373714E+02  0.00000000000E+00 0. -1.
         -1   -1    0    0    0  501 -0.00000000000E+00 -0.00000000000E+00 -0.43095781314E+03  0.43095781314E+03  0.00000000000E+00 0.  1.
         25    2    1    2    0    0  0.94619910735E+01 -0.58222608630E+02 -0.16587682129E+03  0.21596652987E+03  0.12508805199E+03 0.  0.
         23    2    1    2    0    0 -0.94619910735E+01  0.58222608630E+02 -0.22788961814E+03  0.25218265699E+03  0.90460007749E+02 0.  0.
          5    1    3    3  502    0  0.25630737093E+02 -0.42920204583E+02 -0.18159468323E+03  0.18839633760E+03  0.41800000000E+01 0. -1.
         -5    1    3    3    0  502 -0.16168746020E+02 -0.15302404047E+02  0.15717861938E+02  0.27570192262E+02  0.41800000000E+01 0. -1.
        -11    1    4    4    0    0  0.74857879644E+01  0.62152977173E+02 -0.22620035361E+03  0.23470327983E+03  0.00000000000E+00 0.  1.
         11    1    4    4    0    0 -0.16947779038E+02 -0.39303685424E+01 -0.16892645308E+01  0.17479377159E+02  0.00000000000E+00 0. -1.
</event>
<event>
 8    1  0.7026811E-009  0.7663643E+02  0.7561462E-02  0.1338877E+00
          1   -1    0    0  501    0  0.00000000000E+00  0.00000000000E+00  0.11840728226E+03  0.11840728226E+03  0.00000000000E+00 0. -1.
         -1   -1    0    0    0  501 -0.00000000000E+00 -0.00000000000E+00 -0.11111758689E+03  0.11111758689E+03  0.00000000000E+00 0.  1.
         25    2    1    2    0    0  0.39028074966E+01 -0.30801755205E+02 -0.11985072305E+01  0.12888826990E+03  0.12508704836E+03 0.  0.
         23    2    1    2    0    0 -0.39028074966E+01  0.30801755205E+02  0.84882026054E+01  0.10063659925E+03  0.95350382773E+02 0.  0.
          5    1    3    3  502    0  0.24373129164E+02 -0.11184612998E+02  0.57490885190E+02  0.63575303955E+02  0.41800000000E+01 0. -1.
         -5    1    3    3    0  502 -0.20470321667E+02 -0.19617142207E+02 -0.58689392420E+02  0.65312965942E+02  0.41800000000E+01 0. -1.
        -11    1    4    4    0    0  0.11434641230E+02 -0.31395371236E+02  0.14235535186E+02  0.36319014540E+02  0.00000000000E+00 0. -1.
         11    1    4    4    0    0 -0.15337448727E+02  0.62197126442E+02 -0.57473325804E+01  0.64317584709E+02  0.00000000000E+00 0.  1.
</event>
<event>
 8    1  0.7026811E-009  0.1815807E+03  0.7561462E-02  0.1166282E+00
         -2   -1    0    0    0  501 -0.00000000000E+00  0.00000000000E+00  0.74371664378E+03  0.74371664378E+03  0.00000000000E+00 0.  1.
          2   -1    0    0  501    0  0.00000000000E+00 -0.00000000000E+00 -0.47864121804E+02  0.47864121804E+02  0.00000000000E+00 0. -1.
         25    2    1    2    0    0 -0.14814577379E+03  0.14071695924E+02  0.28128806623E+03  0.34193068278E+03  0.12509369570E+03 0.  0.
         23    2    1    2    0    0  0.14814577379E+03 -0.14071695924E+02  0.41456445574E+03  0.44965008280E+03  0.90423039557E+02 0.  0.
          5    1    3    3  502    0 -0.48829810194E+02  0.65029970243E+02  0.13817287727E+03  0.16038224281E+03  0.41800000000E+01 0. -1.
         -5    1    3    3    0  502 -0.99315963593E+02 -0.50958274319E+02  0.14311518896E+03  0.18154843997E+03  0.41800000000E+01 0. -1.
        -11    1    4    4    0    0  0.97698959064E+02  0.30875835054E+02  0.20030920953E+03  0.22499374039E+03  0.00000000000E+00 0. -1.
         11    1    4    4    0    0  0.50446814724E+02 -0.44947530979E+02  0.21425524621E+03  0.22465634241E+03  0.00000000000E+00 0.  1.
</event>
<event>
 8    1  0.7026811E-009  0.1250313E+03  0.7561462E-02  0.1235020E+00
          1   -1    0    0  501    0  0.00000000000E+00  0.00000000000E+00  0.62928887667E+02  0.62928887667E+02  0.00000000000E+00 0. -1.
         -1   -1    0    0    0  501 -0.00000000000E+00 -0.00000000000E+00 -0.33265101033E+03  0.33265101033E+03  0.00000000000E+00 0.  1.
         25    2    1    2    0    0 -0.61404565438E+02  0.66499154154E+02 -0.18617720713E+03  0.24186928440E+03  0.12508453190E+03 0.  0.
         23    2    1    2    0    0  0.61404565438E+02 -0.66499154154E+02 -0.83544915526E+02  0.15371061359E+03  0.91948581615E+02 0.  0.
          5    1    3    3  502    0 -0.79260882415E+02  0.65754487217E+02 -0.70806856571E+02  0.12504808438E+03  0.41800000000E+01 0. -1.
         -5    1    3    3    0  502  0.17856316976E+02  0.74466693689E+00 -0.11537035056E+03  0.11682120002E+03  0.41800000000E+01 0. -1.
        -11    1    4    4    0    0 -0.18418261585E+02  0.74101222118E+01 -0.17367712565E+02  0.26377636565E+02  0.00000000000E+00 0.  1.
         11    1    4    4    0    0  0.79822827024E+02 -0.73909276366E+02 -0.66177202961E+02  0.12733297703E+03  0.00000000000E+00 0. -1.
</event>
<event>
 8    1  0.7026811E-009  0.1204357E+03  0.7561462E-02  0.1242380E+00
          2   -1    0    0  501    0  0.00000000000E+00  0.00000000000E+00  0.73773327001E+03  0.73773327001E+03  0.00000000000E+00 0. -1.
         -2   -1    0    0    0  501 -0.00000000000E+00 -0.00000000000E+00 -0.25354916436E+02  0.25354916436E+02  0.00000000000E+00 0.  1.
         25    2    1    2    0    0  0.31749804679E+02  0.70926516121E+02  0.49265239620E+03  0.51419175297E+03  0.12509258396E+03 0.  0.
         23    2    1    2    0    0 -0.31749804679E+02 -0.70926516121E+02  0.21972595738E+03  0.24889643347E+03  0.87357412185E+02 0.  0.
          5    1    3    3  502    0 -0.25542650720E+02  0.82548511835E+02  0.33524397793E+03  0.34622634353E+03  0.41800000000E+01 0. -1.
         -5    1    3    3    0  502  0.57292455400E+02 -0.11621995714E+02  0.15740841827E+03  0.16796540945E+03  0.41800000000E+01 0. -1.
        -11    1    4    4    0    0 -0.13956905685E+02  0.71441610594E+01  0.70227459148E+00  0.15694822176E+02  0.00000000000E+00 0.  1.
         11    1    4    4    0    0 -0.17792898994E+02 -0.78070677180E+02  0.21902368279E+03  0.23320161130E+03  0.00000000000E+00 0. -1.
</event>
<event>
 8    1  0.7026811E-009  0.9367410E+02  0.7561462E-02  0.1294191E+00
         -2   -1    0    0    0  501 -0.00000000000E+00  0.00000000000E+00  0.55235046686E+02  0.55235046686E+02  0.00000000000E+00 0.  1.
          2   -1    0    0  501    0  0.00000000000E+00 -0.00000000000E+00 -0.40858588824E+03  0.40858588824E+03  0.00000000000E+00 0. -1.
         25    2    1    2    0    0  0.50295592303E+02 -0.57772260859E+02 -0.29818210818E+03  0.33230658798E+03  0.12509123888E+03 0.  0.
         23    2    1    2    0    0 -0.50295592303E+02  0.57772260859E+02 -0.55168733377E+02  0.13151434695E+03  0.91570484229E+02 0.  0.
          5    1    3    3  502    0 -0.83697461482E+01 -0.34854408008E+02 -0.25079236479E+03  0.25337554152E+03  0.41800000000E+01 0.  1.
         -5    1    3    3    0  502  0.58665338451E+02 -0.22917852851E+02 -0.47389743395E+02  0.78931046451E+02  0.41800000000E+01 0.  1.
        -11    1    4    4    0    0 -0.28656592883E+02  0.59893319400E+02  0.59319972492E+01  0.66660322649E+02  0.00000000000E+00 0.  1.
         11    1    4    4    0    0 -0.21638999420E+02 -0.21210585405E+01 -0.61100730626E+02  0.64854024303E+02  0.00000000000E+00 0. -1.
</event>
<event>
 8    1  0.7026811E-009  0.9625294E+02  0.7561462E-02  0.1288379E+00
          2   -1    0    0  501    0  0.00000000000E+00  0.00000000000E+00  0.46542287393E+03  0.46542287393E+03  0.00000000000E+00 0.  1.
         -2   -1    0    0    0  501 -0.00000000000E+00 -0.00000000000E+00 -0.29411924499E+02  0.29411924499E+02  0.00000000000E+00 0. -1.
         25    2    1    2    0    0 -0.14911466188E+02  0.31602120183E+02  0.31276007190E+03  0.33865438705E+03  0.12508751125E+03 0.  0.
         23    2    1    2    0    0  0.14911466188E+02 -0.31602120183E+02  0.12325087753E+03  0.15618041138E+03  0.89333623358E+02 0.  0.
          5    1    3    3  502    0 -0.28278880777E+02 -0.40199930314E+02  0.18468430378E+03  0.19115829555E+03  0.41800000000E+01 0.  1.
         -5    1    3    3    0  502  0.13367414589E+02  0.71802050497E+02  0.12807576812E+03  0.14749609150E+03  0.41800000000E+01 0.  1.
        -11    1    4    4    0    0 -0.12726516060E+02 -0.39319561142E+02  0.12045703997E+03  0.12734948205E+03  0.00000000000E+00 0.  1.
         11    1    4    4    0    0  0.27637982248E+02  0.77174409592E+01  0.27938375590E+01  0.28830929329E+02  0.00000000000E+00 0. -1.
</event>
<event>
 8    1  0.7026811E-009  0.1058743E+03  0.7561462E-02  0.1268406E+00
         -1   -1    0    0    0  501 -0.00000000000E+00  0.00000000000E+00  0.34714596131E+02  0.34714596131E+02  0.00000000000E+00 0.  1.
          1   -1    0    0  501    0  0.00000000000E+00 -0.00000000000E+00 -0.43075516315E+03  0.43075516315E+03  0.00000000000E+00 0. -1.
         25    2    1    2    0    0 -0.19342118626E+01  0.53500384032E+02 -0.24674100152E+03  0.28177006266E+03  0.12508882488E+03 0.  0.
         23    2    1    2    0    0  0.19342118626E+01 -0.53500384032E+02 -0.14929956549E+03  0.18369969662E+03  0.92677861517E+02 0.  0.
          5    1    3    3  502    0  0.48331491282E+02  0.13233535348E+02 -0.37295351792E+02  0.62605711981E+02  0.41800000000E+01 0. -1.
         -5    1    3    3    0  502 -0.50265703145E+02  0.40266848684E+02 -0.20944564973E+03  0.21916435068E+03  0.41800000000E+01 0. -1.
        -11    1    4    4    0    0 -0.28326838612E+02  0.70862484615E+01 -0.13968137146E+02  0.32368712646E+02  0.00000000000E+00 0.  1.
         11    1    4    4    0    0  0.30261050475E+02 -0.60586632494E+02 -0.13533142835E+03  0.15133098398E+03  0.00000000000E+00 0. -1.
</event>
<event>
 8    1  0.7026811E-009  0.1314798E+03  0.7561462E-02  0.1225276E+00
          4   -1    0    0  501    0  0.00000000000E+00  0.00000000000E+00  0.60538227847E+03  0.60538227847E+03  0.00000000000E+00 0. -1.
         -4   -1    0    0    0  501 -0.00000000000E+00 -0.00000000000E+00 -0.38969832326E+02  0.38969832326E+02  0.00000000000E+00 0.  1.
         25    2    1    2    0    0  0.12970771465E+02 -0.97885536747E+02  0.39912819656E+03  0.42976826524E+03  0.12509046849E+03 0.  0.
         23    2    1    2    0    0 -0.12970771465E+02  0.97885536747E+02  0.16728424959E+03  0.21458384555E+03  0.91172295111E+02 0.  0.
          5    1    3    3  502    0 -0.36746946635E+02 -0.98944985893E+02  0.22379740394E+03  0.24747363239E+03  0.41800000000E+01 0.  1.
         -5    1    3    3    0  502  0.49717718100E+02  0.10594491458E+01  0.17533079262E+03  0.18229463285E+03  0.41800000000E+01 0.  1.
        -11    1    4    4    0    0 -0.28028445046E+02  0.51192756783E+02  0.23951060634E+02  0.63086808322E+02  0.00000000000E+00 0.  1.
         11    1    4    4    0    0  0.15057673581E+02  0.46692779964E+02  0.14333318895E+03  0.15149703723E+03  0.00000000000E+00 0. -1.
</event>
<event>
 8    1  0.7026811E-009  0.1196977E+03  0.7561462E-02  0.1243597E+00
         -3   -1    0    0    0  501 -0.00000000000E+00  0.00000000000E+00  0.25999642111E+02  0.25999642111E+02  0.00000000000E+00 0.  1.
          3   -1    0    0  501    0  0.00000000000E+00 -0.00000000000E+00 -0.60475564022E+03  0.60475564022E+03  0.00000000000E+00 0. -1.
         25    2    1    2    0    0 -0.10971932217E+02 -0.61681841840E+02 -0.32731545683E+03  0.35596304591E+03  0.12509695786E+03 0.  0.
         23    2    1    2    0    0  0.10971932217E+02  0.61681841840E+02 -0.25144054128E+03  0.27479223642E+03  0.91451596420E+02 0.  0.
          5    1    3    3  502    0 -0.57381930801E+02 -0.61385830681E+01 -0.21196342016E+03  0.21971875676E+03  0.41800000000E+01 0. -1.
         -5    1    3    3    0  502  0.46409998584E+02 -0.55543258772E+02 -0.11535203667E+03  0.13624428916E+03  0.41800000000E+01 0. -1.
        -11    1    4    4    0    0  0.49816543087E+02  0.43537557499E+02 -0.17593491479E+03  0.18796356328E+03  0.00000000000E+00 0.  1.
         11    1    4    4    0    0 -0.38844610870E+02  0.18144284341E+02 -0.75505626495E+02  0.86828673145E+02  0.00000000000E+00 0. -1.
</event>
<event>
 8    1  0.7026811E-009  0.1094535E+03  0.7561462E-02  0.1261585E+00
         -2   -1    0    0    0  501 -0.00000000000E+00  0.00000000000E+00  0.10680894210E+02  0.10680894210E+02  0.00000000000E+00 0.  1.
          2   -1    0    0  501    0  0.00000000000E+00 -0.00000000000E+00 -0.16880395710E+04  0.16880395710E+04  0.00000000000E+00 0. -1.
         25    2    1    2    0    0 -0.21649057224E+02 -0.28354987508E+02 -0.13638721130E+04  0.13700611094E+04  0.12509043124E+03 0.  0.
         23    2    1    2    0    0  0.21649057224E+02  0.28354987508E+02 -0.31348656380E+03  0.32865935578E+03  0.92035099082E+02 0.  0.
          5    1    3    3  502    0 -0.64051430651E+01 -0.74287923623E+02 -0.10260715064E+04  0.10287856580E+04  0.41800000000E+01 0.  1.
         -5    1    3    3    0  502 -0.15243914159E+02  0.45932936114E+02 -0.33780060660E+03  0.34127545145E+03  0.41800000000E+01 0.  1.
        -11    1    4    4    0    0  0.42867704891E+02 -0.16575653351E+02 -0.11045094380E+03  0.11963194972E+03  0.00000000000E+00 0.  1.
         11    1    4    4    0    0 -0.21218647667E+02  0.44930640859E+02 -0.20303561999E+03  0.20902740606E+03  0.00000000000E+00 0. -1.
</event>
<event>
 8    1  0.7026811E-009  0.1044749E+03  0.7561462E-02  0.1271158E+00
          2   -1    0    0  501    0  0.00000000000E+00  0.00000000000E+00  0.69808709401E+03  0.69808709401E+03  0.00000000000E+00 0. -1.
         -2   -1    0    0    0  501 -0.00000000000E+00 -0.00000000000E+00 -0.24973490656E+02  0.24973490656E+02  0.00000000000E+00 0.  1.
         25    2    1    2    0    0  0.50881843707E+02 -0.28509382796E+02  0.50049435151E+03  0.51917658115E+03  0.12509188461E+03 0.  0.
         23    2    1    2    0    0 -0.50881843707E+02  0.28509382796E+02  0.17261925184E+03  0.20388400351E+03  0.91485156479E+02 0.  0.
          5    1    3    3  502    0  0.32732200801E+02 -0.57893061024E+02  0.46398708323E+03  0.46874778857E+03  0.41800000000E+01 0.  1.
         -5    1    3    3    0  502  0.18149642906E+02  0.29383678228E+02  0.36507268276E+02  0.50428792577E+02  0.41800000000E+01 0.  1.
        -11    1    4    4    0    0  0.25307180517E+02  0.16959115047E+02  0.37280026008E+02  0.48144213651E+02  0.00000000000E+00 0.  1.
         11    1    4    4    0    0 -0.76189024224E+02  0.11550267749E+02  0.13533922583E+03  0.15573978986E+03  0.00000000000E+00 0. -1.
</event>
<event>
 8    1  0.7026811E-009  0.7777093E+02  0.7561462E-02  0.1335499E+00
          2   -1    0    0  501    0  0.00000000000E+00  0.00000000000E+00  0.33241736306E+03  0.33241736306E+03  0.00000000000E+00 0. -1.
         -2   -1    0    0    0  501 -0.00000000000E+00 -0.00000000000E+00 -0.43641434842E+02  0.43641434842E+02  0.00000000000E+00 0.  1.
         25    2    1    2    0    0  0.11573418413E+02 -0.42042730638E+01  0.88580294698E+02  0.15377208562E+03  0.12509102998E+03 0.  0.
         23    2    1    2    0    0 -0.11573418413E+02  0.42042730638E+01  0.20019563352E+03  0.22228671228E+03  0.95819991912E+02 0.  0.
          5    1    3    3  502    0  0.42297406040E+02  0.15562391432E+02  0.10436355112E+03  0.11375623846E+03  0.41800000000E+01 0. -1.
         -5    1    3    3    0  502 -0.30723987627E+02 -0.19766664496E+02 -0.15783256425E+02  0.40015847166E+02  0.41800000000E+01 0. -1.
        -11    1    4    4    0    0 -0.37860301635E+01 -0.34155667841E+02  0.24299803212E+02  0.42088289419E+02  0.00000000000E+00 0.  1.
         11    1    4    4    0    0 -0.77873882495E+01  0.38359940905E+02  0.17589583031E+03  0.18019842286E+03  0.00000000000E+00 0. -1.
</event>
<event>
 8    1  0.7026811E-009  0.1129843E+03  0.7561462E-02  0.1255141E+00
         -2   -1    0    0    0  501 -0.00000000000E+00  0.00000000000E+00  0.17502458073E+02  0.17502458073E+02  0.00000000000E+00 0.  1.
          2   -1    0    0  501    0  0.00000000000E+00 -0.00000000000E+00 -0.17677887090E+04  0.17677887090E+04  0.00000000000E+00 0. -1.
         25    2    1    2    0    0  0.17195992873E+01  0.85791035451E+02 -0.14799666147E+04  0.14877203021E+04  0.12508979975E+03 0.  0.
         23    2    1    2    0    0 -0.17195992873E+01 -0.85791035451E+02 -0.27031963627E+03  0.29757086497E+03  0.90070278898E+02 0.  0.
          5    1    3    3  502    0  0.26811164058E+02  0.31061760042E+02 -0.12255337731E+04  0.12262276187E+04  0.41800000000E+01 0.  1.
         -5    1    3    3    0  502 -0.25091564771E+02  0.54729275409E+02 -0.25443284155E+03  0.26149268339E+03  0.41800000000E+01 0.  1.
        -11    1    4    4    0    0 -0.33314974613E+02 -0.39397827552E+00 -0.69569505557E+02  0.77135976404E+02  0.00000000000E+00 0. -1.
         11    1    4    4    0    0  0.31595375325E+02 -0.85397057176E+02 -0.20075013072E+03  0.22043488857E+03  0.00000000000E+00 0.  1.
</event>
<event>
 8    1  0.7026811E-009  0.8763826E+02  0.7561462E-02  0.1308674E+00
         -2   -1    0    0    0  501 -0.00000000000E+00  0.00000000000E+00  0.35963446994E+02  0.35963446994E+02  0.00000000000E+00 0.  1.
          2   -1    0    0  501    0  0.00000000000E+00 -0.00000000000E+00 -0.34714091514E+03  0.34714091514E+03  0.00000000000E+00 0. -1.
         25    2    1    2    0    0 -0.38208439663E+02 -0.12385972122E+02 -0.19858720231E+03  0.23811149496E+03  0.12508760907E+03 0.  0.
         23    2    1    2    0    0  0.38208439663E+02  0.12385972122E+02 -0.11259026584E+03  0.14499286718E+03  0.82055264327E+02 0.  0.
          5    1    3    3  502    0 -0.33884181557E+02 -0.67636772849E+02 -0.11729628131E+03  0.13963796336E+03  0.41800000000E+01 0.  1.
         -5    1    3    3    0  502 -0.43242581064E+01  0.55250800728E+02 -0.81290921002E+02  0.98473531604E+02  0.41800000000E+01 0.  1.
        -11    1    4    4    0    0  0.16054683994E+02 -0.37991335251E+01  0.10052039676E+02  0.19319156175E+02  0.00000000000E+00 0.  1.
         11    1    4    4    0    0  0.22153755670E+02  0.16185105647E+02 -0.12264230552E+03  0.12567371100E+03  0.00000000000E+00 0. -1.
</event>
<event>
 8    1  0.7026811E-009  0.2304742E+03  0.7561462E-02  0.1126306E+00
         -1   -1    0    0    0  501 -0.00000000000E+00  0.00000000000E+00  0.44389435295E+02  0.44389435295E+02  0.00000000000E+00 0.  1.
          1   -1    0    0  501    0  0.00000000000E+00 -0.00000000000E+00 -0.13901310876E+04  0.13901310876E+04  0.00000000000E+00 0. -1.
         25    2    1    2    0    0  0.42300138801E+02 -0.20924314408E+03 -0.51275761611E+03  0.56933237592E+03  0.12508791430E+03 0.  0.
         23    2    1    2    0    0 -0.42300138801E+02  0.20924314408E+03 -0.83298403616E+03  0.86518814694E+03  0.95478427014E+02 0.  0.
          5    1    3    3  502    0 -0.43539047059E+02 -0.49721428358E+02 -0.13866854617E+03  0.15366947372E+03  0.41800000000E+01 0.  1.
         -5    1    3    3    0  502  0.85839185860E+02 -0.15952171572E+03 -0.37408906994E+03  0.41566290220E+03  0.41800000000E+01 0.  1.
        -11    1    4    4    0    0 -0.37019937948E+02  0.17430767903E+03 -0.78847390374E+03  0.80835928872E+03  0.00000000000E+00 0. -1.
         11    1    4    4    0    0 -0.52802008535E+01  0.34935465049E+02 -0.44510132422E+02  0.56828858228E+02  0.00000000000E+00 0.  1.
</event>
<event>
 8    1  0.7026811E-009  0.9228438E+02  0.7561462E-02  0.1297412E+00
         -4   -1    0    0    0  501 -0.00000000000E+00  0.00000000000E+00  0.48650057504E+02  0.48650057504E+02  0.00000000000E+00 0.  1.
          4   -1    0    0  501    0  0.00000000000E+00 -0.00000000000E+00 -0.29754695065E+03  0.29754695065E+03  0.00000000000E+00 0. -1.
         25    2    1    2    0    0 -0.49350848213E+02  0.14050529686E+02 -0.14656234055E+03  0.19940140915E+03  0.12508988248E+03 0.  0.
         23    2    1    2    0    0  0.49350848213E+02 -0.14050529686E+02 -0.10233455260E+03  0.14679559901E+03  0.91889409771E+02 0.  0.
          5    1    3    3  502    0 -0.28887073539E+01  0.41484165713E+02  0.14358400023E+01  0.41818831543E+02  0.41800000000E+01 0. -1.
         -5    1    3    3    0  502 -0.46462140859E+02 -0.27433636028E+02 -0.14799818055E+03  0.15758257760E+03  0.41800000000E+01 0. -1.
        -11    1    4    4    0    0 -0.12442310583E+02 -0.23066891102E+02  0.80864316633E+00  0.26221107176E+02  0.00000000000E+00 0.  1.
         11    1    4    4    0    0  0.61793158796E+02  0.90163614165E+01 -0.10314319577E+03  0.12057449183E+03  0.00000000000E+00 0. -1.
</event>
<event>
 8    1  0.7026811E-009  0.1250338E+03  0.7561462E-02  0.1235016E+00
         -1   -1    0    0    0  501 -0.00000000000E+00  0.00000000000E+00  0.29820101278E+02  0.29820101278E+02  0.00000000000E+00 0.  1.
          1   -1    0    0  501    0  0.00000000000E+00 -0.00000000000E+00 -0.71982773854E+03  0.71982773854E+03  0.00000000000E+00 0. -1.
         25    2    1    2    0    0 -0.56613310237E+02 -0.71455230371E+02 -0.27752602515E+03  0.31776981270E+03  0.12508414122E+03 0.  0.
         23    2    1    2    0    0  0.56613310237E+02  0.71455230371E+02 -0.41248161211E+03  0.43187802711E+03  0.89814437213E+02 0.  0.
          5    1    3    3  502    0 -0.53402306046E+02  0.24338223253E+02 -0.10690384441E+03  0.12202483252E+03  0.41800000000E+01 0.  1.
         -5    1    3    3    0  502 -0.32110041910E+01 -0.95793453624E+02 -0.17062218074E+03  0.19574498018E+03  0.41800000000E+01 0.  1.
        -11    1    4    4    0    0  0.31074346447E+02  0.59433308633E+02 -0.39018569751E+03  0.39590757978E+03  0.00000000000E+00 0. -1.
         11    1    4    4    0    0  0.25538963790E+02  0.12021921738E+02 -0.22295914593E+02  0.35970447333E+02  0.00000000000E+00 0.  1.
</event>
<event>
 8    1  0.7026811E-009  0.1078603E+03  0.7561462E-02  0.1264584E+00
         -1   -1    0    0    0  501 -0.00000000000E+00  0.00000000000E+00  0.29573205520E+02  0.29573205520E+02  0.00000000000E+00 0.  1.
          1   -1    0    0  501    0  0.00000000000E+00 -0.00000000000E+00 -0.42799179358E+03  0.42799179358E+03  0.00000000000E+00 0. -1.
         25    2    1    2    0    0  0.18103550559E+00 -0.27906084736E+02 -0.19765851997E+03  0.23557322285E+03  0.12508825072E+03 0.  0.
         23    2    1    2    0    0 -0.18103550559E+00  0.27906084736E+02 -0.20076006809E+03  0.22199177625E+03  0.90537072204E+02 0.  0.
          5    1    3    3  502    0  0.17126632325E+02  0.47519380808E+02 -0.81768444721E+02  0.96202723658E+02  0.41800000000E+01 0.  1.
         -5    1    3    3    0  502 -0.16945596819E+02 -0.75425465544E+02 -0.11589007525E+03  0.13937049919E+03  0.41800000000E+01 0.  1.
        -11    1    4    4    0    0  0.40037721699E+02  0.25200318330E+02 -0.65130210967E+02  0.80498568828E+02  0.00000000000E+00 0.  1.
         11    1    4    4    0    0 -0.40218757205E+02  0.27057664068E+01 -0.13562985712E+03  0.14149320742E+03  0.00000000000E+00 0. -1.
</event>
<event>
 8    1  0.7026811E-009  0.2257993E+03  0.7561462E-02  0.1129632E+00
          2   -1    0    0  501    0  0.00000000000E+00  0.00000000000E+00  0.44085841033E+03  0.44085841033E+03  0.00000000000E+00 0. -1.
         -2   -1    0    0    0  501 -0.00000000000E+00 -0.00000000000E+00 -0.22112736720E+03  0.22112736720E+03  0.00000000000E+00 0.  1.
         25    2    1    2    0    0  0.85436525546E+02  0.18543216206E+03 -0.11018163415E+03  0.26357400068E+03  0.12508706850E+03 0.  0.
         23    2    1    2    0    0 -0.85436525546E+02 -0.18543216206E+03  0.32991267728E+03  0.39841177685E+03  0.90581911464E+02 0.  0.
          5    1    3    3  502    0 -0.19360565460E+01 -0.16450631812E+02 -0.18604475460E+02  0.25258078096E+02  0.41800000000E+01 0.  1.
         -5    1    3    3    0  502  0.87372582092E+02  0.20188279387E+03 -0.91577158688E+02  0.23831592258E+03  0.41800000000E+01 0.  1.
        -11    1    4    4    0    0 -0.29035548015E+02 -0.13733974581E+03  0.26500369880E+03  0.29988702741E+03  0.00000000000E+00 0. -1.
         11    1    4    4    0    0 -0.56400977531E+02 -0.48092416247E+02  0.64908978476E+02  0.98524749448E+02  0.00000000000E+00 0.  1.
</event>
<event>
 8    1  0.7026811E-009  0.8739430E+02  0.7561462E-02  0.1309287E+00
          1   -1    0    0  501    0  0.00000000000E+00  0.00000000000E+00  0.16472597627E+03  0.16472597627E+03  0.00000000000E+00 0. -1.
         -1   -1    0    0    0  501 -0.00000000000E+00 -0.00000000000E+00 -0.74640542967E+02  0.74640542967E+02  0.00000000000E+00 0.  1.
         25    2    1    2    0    0 -0.18421929466E+01  0.13683504757E+02  0.52916735962E+02  0.13652340300E+03  0.12509127325E+03 0.  0.
         23    2    1    2    0    0  0.18421929466E+01 -0.13683504757E+02  0.37168697337E+02  0.10284311624E+03  0.94892373341E+02 0.  0.
          5    1    3    3  502    0  0.16283318140E+02 -0.29634837817E+02 -0.27178901168E+02  0.43583656693E+02  0.41800000000E+01 0. -1.
         -5    1    3    3    0  502 -0.18125511087E+02  0.43318342573E+02  0.80095637131E+02  0.92939746303E+02  0.41800000000E+01 0. -1.
        -11    1    4    4    0    0 -0.44947926183E+02 -0.12957966882E+02  0.73446741725E+01  0.47351549210E+02  0.00000000000E+00 0. -1.
         11    1    4    4    0    0  0.46790119130E+02 -0.72553787453E+00  0.29824023164E+02  0.55491567027E+02  0.00000000000E+00 0.  1.
</event>
<event>
 8    1  0.7026811E-009  0.1868217E+03  0.7561462E-02  0.1161360E+00
         -2   -1    0    0    0  501 -0.00000000000E+00  0.00000000000E+00  0.60730065071E+02  0.60730065071E+02  0.00000000000E+00 0.  1.
          2   -1    0    0  501    0  0.00000000000E+00 -0.00000000000E+00 -0.63621354683E+03  0.63621354683E+03  0.00000000000E+00 0. -1.
         25    2    1    2    0    0  0.90261182644E+02  0.12607584392E+03 -0.39430270876E+03  0.44177301861E+03  0.12508626753E+03 0.  0.
         23    2    1    2    0    0 -0.90261182644E+02 -0.12607584392E+03 -0.18118077300E+03  0.25517059329E+03  0.90792949422E+02 0.  0.
          5    1    3    3  502    0  0.76050183594E+01  0.10918893183E+03 -0.17147288007E+03  0.20347107937E+03  0.41800000000E+01 0. -1.
         -5    1    3    3    0  502  0.82656164285E+02  0.16886912084E+02 -0.22282982868E+03  0.23830193924E+03  0.41800000000E+01 0. -1.
        -11    1    4    4    0    0 -0.16032739721E+02 -0.99526383242E+02 -0.99037545202E+02  0.14131873571E+03  0.00000000000E+00 0. -1.
         11    1    4    4    0    0 -0.74228442923E+02 -0.26549460673E+02 -0.82143227801E+02  0.11385185758E+03  0.00000000000E+00 0.  1.
</event>
<event>
 8    1  0.7026811E-009  0.1252850E+03  0.7561462E-02  0.1234625E+00
          2   -1    0    0  501    0  0.00000000000E+00  0.00000000000E+00  0.33666591809E+03  0.33666591809E+03  0.00000000000E+00 0. -1.
         -2   -1    0    0    0  501 -0.00000000000E+00 -0.00000000000E+00 -0.11789928092E+03  0.11789928092E+03  0.00000000000E+00 0.  1.
         25    2    1    2    0    0 -0.32981581219E+02  0.93933539253E+02  0.26790933290E+03  0.31198370147E+03  0.12508846803E+03 0.  0.
         23    2    1    2    0    0  0.32981581219E+02 -0.93933539253E+02 -0.49142695730E+02  0.14258149753E+03  0.89460518660E+02 0.  0.
          5    1    3    3  502    0  0.12932566008E+02  0.67249989700E+02  0.43269404536E+02  0.81114278318E+02  0.41800000000E+01 0. -1.
         -5    1    3    3    0  502 -0.45914147227E+02  0.26683549553E+02  0.22463992836E+03  0.23086942315E+03  0.41800000000E+01 0. -1.
        -11    1    4    4    0    0  0.18258781600E+02 -0.10727808176E+03 -0.54911809085E+02  0.12189042911E+03  0.00000000000E+00 0.  1.
         11    1    4    4    0    0  0.14722799619E+02  0.13344542511E+02  0.57691133542E+01  0.20691068420E+02  0.00000000000E+00 0. -1.
</event>
<event>
 8    1  0.7026811E-009  0.8743261E+02  0.7561462E-02  0.1309191E+00
         -1   -1    0    0    0  501 -0.00000000000E+00  0.00000000000E+00  0.43557359970E+02  0.43557359970E+02  0.00000000000E+00 0.  1.
          1   -1    0    0  501    0  0.00000000000E+00 -0.00000000000E+00 -0.27915918377E+03  0.27915918377E+03  0.00000000000E+00 0. -1.
         25    2    1    2    0    0  0.92085002815E+01 -0.11785098053E+02 -0.13726186219E+03  0.18630960615E+03  0.12508703178E+03 0.  0.
         23    2    1    2    0    0 -0.92085002815E+01  0.11785098053E+02 -0.98339961608E+02  0.13640693759E+03  0.93340342611E+02 0.  0.
          5    1    3    3  502    0  0.39373602545E+02 -0.56848632207E+02 -0.94229619017E+02  0.11695615016E+03  0.41800000000E+01 0. -1.
         -5    1    3    3    0  502 -0.30165102263E+02  0.45063534154E+02 -0.43032243173E+02  0.69353455988E+02  0.41800000000E+01 0. -1.
        -11    1    4    4    0    0  0.19394480318E+02 -0.19045581951E+01 -0.10257983379E+03  0.10441453687E+03  0.00000000000E+00 0. -1.
         11    1    4    4    0    0 -0.28602980599E+02  0.13689656249E+02  0.42398721855E+01  0.31992400715E+02  0.00000000000E+00 0.  1.
</event>
<event>
 8    1  0.7026811E-009  0.9811982E+02  0.7561462E-02  0.1284300E+00
         -2   -1    0    0    0  501 -0.00000000000E+00  0.00000000000E+00  0.41090326731E+02  0.41090326731E+02  0.00000000000E+00 0.  1.
          2   -1    0    0  501    0  0.00000000000E+00 -0.00000000000E+00 -0.49439707181E+03  0.49439707181E+03  0.00000000000E+00 0. -1.
         25    2    1    2    0    0 -0.84409606449E+02 -0.90091760999E+01 -0.18560826114E+03  0.23938294559E+03  0.12509045177E+03 0.  0.
         23    2    1    2    0    0  0.84409606449E+02  0.90091760999E+01 -0.26769848394E+03  0.29610445295E+03  0.93857454877E+02 0.  0.
          5    1    3    3  502    0 -0.31884350164E+02 -0.37996244819E+01 -0.18356097959E+03  0.18639515702E+03  0.41800000000E+01 0. -1.
         -5    1    3    3    0  502 -0.52525256286E+02 -0.52095516180E+01 -0.20472815433E+01  0.52987788571E+02  0.41800000000E+01 0. -1.
        -11    1    4    4    0    0  0.14516710356E+02 -0.28209564445E+02 -0.23762349451E+02  0.39637906821E+02  0.00000000000E+00 0.  1.
         11    1    4    4    0    0  0.69892896093E+02  0.37218740545E+02 -0.24393613449E+03  0.25646654613E+03  0.00000000000E+00 0. -1.
</event>
<event>
 8    1  0.7026811E-009  0.1182503E+03  0.7561462E-02  0.1246012E+00
          2   -1    0    0  501    0  0.00000000000E+00  0.00000000000E+00  0.26535723667E+03  0.26535723667E+03  0.00000000000E+00 0. -1.
         -2   -1    0    0    0  501 -0.00000000000E+00 -0.00000000000E+00 -0.65312018388E+02  0.65312018388E+02  0.00000000000E+00 0.  1.
         25    2    1    2    0    0 -0.55550124322E+02 -0.36526758832E+02  0.67150894229E+02  0.15677099671E+03  0.12509149608E+03 0.  0.
         23    2    1    2    0    0  0.55550124322E+02  0.36526758832E+02  0.13289432405E+03  0.17389825834E+03  0.90330960730E+02 0.  0.
          5    1    3    3  502    0 -0.76547213911E+02  0.10143248590E+02  0.69409907557E+01  0.77640267916E+02  0.41800000000E+01 0. -1.
         -5    1    3    3    0  502  0.20997089588E+02 -0.46670007422E+02  0.60209903473E+02  0.79130728798E+02  0.41800000000E+01 0. -1.
        -11    1    4    4    0    0  0.16938889457E+02  0.60197633141E+02  0.52616128422E+02  0.81725993306E+02  0.00000000000E+00 0.  1.
         11    1    4    4    0    0  0.38611234865E+02 -0.23670874309E+02  0.80278195629E+02  0.92172265036E+02  0.00000000000E+00 0. -1.
</event>
<event>
 8    1  0.7026811E-009  0.1884259E+03  0.7561462E-02  0.1159889E+00
          1   -1    0    0  501    0  0.00000000000E+00  0.00000000000E+00  0.11553150962E+04  0.11553150962E+04  0.00000000000E+00 0. -1.
         -1   -1    0    0    0  501 -0.00000000000E+00 -0.00000000000E+00 -0.48038827828E+02  0.48038827828E+02  0.00000000000E+00 0.  1.
         25    2    1    2    0    0  0.17559814201E+03 -0.17905764412E+01  0.28344927011E+03  0.35613036822E+03  0.12508971502E+03 0.  0.
         23    2    1    2    0    0 -0.17559814201E+03  0.17905764412E+01  0.82382699822E+03  0.84722355576E+03  0.90878582783E+02 0.  0.
          5    1    3    3  502    0  0.92992138839E+02 -0.26120329785E+02  0.53382847644E+02  0.11044007577E+03  0.41800000000E+01 0.  1.
         -5    1    3    3    0  502  0.82606003168E+02  0.24329753344E+02  0.23006642247E+03  0.24569029245E+03  0.41800000000E+01 0.  1.
        -11    1    4    4    0    0 -0.90058321466E+02  0.42076589257E+02  0.33947595038E+03  0.35372992737E+03  0.00000000000E+00 0.  1.
         11    1    4    4    0    0 -0.85539820541E+02 -0.40286012816E+02  0.48435104784E+03  0.49349362840E+03  0.00000000000E+00 0. -1.
</event>
<event>
 8    1  0.7026811E-009  0.1062015E+03  0.7561462E-02  0.1267770E+00
          1   -1    0    0  501    0  0.00000000000E+00  0.00000000000E+00  0.20768214110E+04  0.20768214110E+04  0.00000000000E+00 0. -1.
         -1   -1    0    0    0  501 -0.00000000000E+00 -0.00000000000E+00 -0.13071558802E+02  0.13071558802E+02  0.00000000000E+00 0.  1.
         25    2    1    2    0    0 -0.49057012403E+02 -0.31185930688E+02  0.17921824007E+04  0.17974821942E+04  0.12508128691E+03 0.  0.
         23    2    1    2    0    0  0.49057012403E+02  0.31185930688E+02  0.27156745151E+03  0.29241077562E+03  0.91520643788E+02 0.  0.
          5    1    3    3  502    0  0.22049873450E+02 -0.35508811541E+02  0.12395396132E+04  0.12402511833E+04  0.41800000000E+01 0.  1.
         -5    1    3    3    0  502 -0.71106885853E+02  0.43228808521E+01  0.55264278750E+03  0.55723101088E+03  0.41800000000E+01 0.  1.
        -11    1    4    4    0    0  0.11854712246E+01 -0.25109917972E+02  0.26857860249E+02  0.36786654913E+02  0.00000000000E+00 0.  1.
         11    1    4    4    0    0  0.47871541178E+02  0.56295848660E+02  0.24470959126E+03  0.25562412071E+03  0.00000000000E+00 0. -1.
</event>
<event>
 8    1  0.7026811E-009  0.1213412E+03  0.7561462E-02  0.1240901E+00
         -1   -1    0    0    0  501 -0.00000000000E+00  0.00000000000E+00  0.47076127524E+02  0.47076127524E+02  0.00000000000E+00 0.  1.
          1   -1    0    0  501    0  0.00000000000E+00 -0.00000000000E+00 -0.57055139785E+03  0.57055139785E+03  0.00000000000E+00 0. -1.
         25    2    1    2    0    0 -0.11316346845E+03 -0.37754222876E+02 -0.22336640959E+03  0.28243839562E+03  0.12509013731E+03 0.  0.
         23    2    1    2    0    0  0.11316346845E+03  0.37754222876E+02 -0.30010886073E+03  0.33518912975E+03  0.89750055568E+02 0.  0.
          5    1    3    3  502    0 -0.72214023384E+02 -0.84605854532E+01 -0.22007193338E+03  0.23180935042E+03  0.41800000000E+01 0. -1.
         -5    1    3    3    0  502 -0.40949445065E+02 -0.29293637423E+02 -0.32944762083E+01  0.50629045202E+02  0.41800000000E+01 0. -1.
        -11    1    4    4    0    0  0.60843284651E+02  0.18728326925E+02 -0.55916033765E+02  0.84730504239E+02  0.00000000000E+00 0.  1.
         11    1    4    4    0    0  0.52320183798E+02  0.19025895951E+02 -0.24419282697E+03  0.25045862551E+03  0.00000000000E+00 0. -1.
</event>
<event>
 8    1  0.7026811E-009  0.1134415E+03  0.7561462E-02  0.1254326E+00
          1   -1    0    0  501    0  0.00000000000E+00  0.00000000000E+00  0.42470030701E+02  0.42470030701E+02  0.00000000000E+00 0. -1.
         -1   -1    0    0    0  501 -0.00000000000E+00 -0.00000000000E+00 -0.48049828810E+03  0.48049828810E+03  0.00000000000E+00 0.  1.
         25    2    1    2    0    0  0.66442980670E+02 -0.50397141020E+02 -0.31254534780E+03  0.34682293294E+03  0.12508801253E+03 0.  0.
         23    2    1    2    0    0 -0.66442980670E+02  0.50397141020E+02 -0.12548290959E+03  0.17614538585E+03  0.91250725230E+02 0.  0.
          5    1    3    3  502    0  0.51358836107E+02  0.27492312981E+01 -0.31691724526E+02  0.60556800794E+02  0.41800000000E+01 0. -1.
         -5    1    3    3    0  502  0.15084144563E+02 -0.53146372318E+02 -0.28085362328E+03  0.28626613215E+03  0.41800000000E+01 0. -1.
        -11    1    4    4    0    0  0.16108483656E+02  0.31215790568E+02 -0.58008004910E+02  0.67814728932E+02  0.00000000000E+00 0. -1.
         11    1    4    4    0    0 -0.82551464326E+02  0.19181350452E+02 -0.67474904683E+02  0.10833065692E+03  0.00000000000E+00 0.  1.
</event>
<event>
 8    1  0.7026811E-009  0.1227203E+03  0.7561462E-02  0.1238676E+00
          1   -1    0    0  501    0  0.00000000000E+00  0.00000000000E+00  0.82708975550E+03  0.82708975550E+03  0.00000000000E+00 0. -1.
         -1   -1    0    0    0  501 -0.00000000000E+00 -0.00000000000E+00 -0.21736853857E+02  0.21736853857E+02  0.00000000000E+00 0.  1.
         25    2    1    2    0    0 -0.44695962856E+02  0.43896112490E+02  0.29129716689E+03  0.32314970000E+03  0.12508833435E+03 0.  0.
         23    2    1    2    0    0  0.44695962856E+02 -0.43896112490E+02  0.51405573476E+03  0.52567690935E+03  0.90323401195E+02 0.  0.
          5    1    3    3  502    0  0.88270545583E+01  0.74633490443E+02  0.12750463712E+03  0.14806410664E+03  0.41800000000E+01 0.  1.
         -5    1    3    3    0  502 -0.53523017414E+02 -0.30737377953E+02  0.16379252977E+03  0.17508559336E+03  0.41800000000E+01 0.  1.
        -11    1    4    4    0    0 -0.23470795669E+02 -0.31080695566E+02  0.23008216341E+03  0.23335528665E+03  0.00000000000E+00 0. -1.
         11    1    4    4    0    0  0.68166758525E+02 -0.12815416923E+02  0.28397357134E+03  0.29232162270E+03  0.00000000000E+00 0.  1.
</event>
<event>
 8    1  0.7026811E-009  0.3782218E+03  0.7561462E-02  0.1051593E+00
          1   -1    0    0  501    0  0.00000000000E+00  0.00000000000E+00  0.14067582698E+04  0.14067582698E+04  0.00000000000E+00 0. -1.
         -1   -1    0    0    0  501 -0.00000000000E+00 -0.00000000000E+00 -0.10602351864E+03  0.10602351864E+03  0.00000000000E+00 0.  1.
         25    2    1    2    0    0  0.24812948872E+03  0.26812899568E+03  0.77590751955E+03  0.86668451484E+03  0.12509263718E+03 0.  0.
         23    2    1    2    0    0 -0.24812948872E+03 -0.26812899568E+03  0.52482723164E+03  0.64609727363E+03  0.92394060533E+02 0.  0.
          5    1    3    3  502    0  0.24942149852E+03  0.27828481622E+03  0.73854009471E+03  0.82771520873E+03  0.41800000000E+01 0.  1.
         -5    1    3    3    0  502 -0.12920097960E+01 -0.10155820538E+02  0.37367424833E+02  0.38969306111E+02  0.41800000000E+01 0.  1.
        -11    1    4    4    0    0 -0.15799009025E+03 -0.21573428648E+03  0.42251845922E+03  0.50002399879E+03  0.00000000000E+00 0. -1.
         11    1    4    4    0    0 -0.90139398475E+02 -0.52394709198E+02  0.10230877242E+03  0.14607327485E+03  0.00000000000E+00 0.  1.
</event>
<event>
 8    1  0.7026811E-009  0.1521124E+03  0.7561462E-02  0.1197901E+00
         -1   -1    0    0    0  501 -0.00000000000E+00  0.00000000000E+00  0.19819925856E+03  0.19819925856E+03  0.00000000000E+00 0.  1.
          1   -1    0    0  501    0  0.00000000000E+00 -0.00000000000E+00 -0.22578307615E+03  0.22578307615E+03  0.00000000000E+00 0. -1.
         25    2    1    2    0    0 -0.95774303800E+02 -0.73950686719E+02  0.12084036594E+03  0.21187608492E+03  0.12509060711E+03 0.  0.
         23    2    1    2    0    0  0.95774303800E+02  0.73950686719E+02 -0.14842418353E+03  0.21210624979E+03  0.91202530722E+02 0.  0.
          5    1    3    3  502    0 -0.53868176143E+02 -0.10740049013E+03  0.81650874840E+02  0.14533060051E+03  0.41800000000E+01 0. -1.
         -5    1    3    3    0  502 -0.41906127658E+02  0.33449803414E+02  0.39189491097E+02  0.66545484416E+02  0.41800000000E+01 0. -1.
        -11    1    4    4    0    0  0.20514386850E+02 -0.50292115738E+01 -0.81334690458E+02  0.84032522923E+02  0.00000000000E+00 0. -1.
         11    1    4    4    0    0  0.75259916950E+02  0.78979898293E+02 -0.67089493070E+02  0.12807372687E+03  0.00000000000E+00 0.  1.
</event>
<event>
 8    1  0.7026811E-009  0.1025514E+03  0.7561462E-02  0.1275020E+00
         -1   -1    0    0    0  501 -0.00000000000E+00  0.00000000000E+00  0.61506379745E+02  0.61506379745E+02  0.00000000000E+00 0.  1.
          1   -1    0    0  501    0  0.00000000000E+00 -0.00000000000E+00 -0.30958762999E+03  0.30958762999E+03  0.00000000000E+00 0. -1.
         25    2    1    2    0    0 -0.30653626614E+00 -0.40527739400E+02 -0.36159886809E+02  0.13637303793E+03  0.12508987343E+03 0.  0.
         23    2    1    2    0    0  0.30653626614E+00  0.40527739400E+02 -0.21192136344E+03  0.23472097180E+03  0.92415792466E+02 0.  0.
          5    1    3    3  502    0 -0.44642813701E+02 -0.39618088931E+02  0.21440988169E+02  0.63559123337E+02  0.41800000000E+01 0. -1.
         -5    1    3    3    0  502  0.44336277434E+02 -0.90965046874E+00 -0.57600874978E+02  0.72813914597E+02  0.41800000000E+01 0. -1.
        -11    1    4    4    0    0  0.34894793575E+02  0.53426108555E+02 -0.14099838386E+03  0.15476608138E+03  0.00000000000E+00 0.  1.
         11    1    4    4    0    0 -0.34588257309E+02 -0.12898369155E+02 -0.70922979581E+02  0.79954890427E+02  0.00000000000E+00 0. -1.
</event>
<event>
 8    1  0.7026811E-009  0.1058842E+03  0.7561462E-02  0.1268387E+00
          1   -1    0    0  501    0  0.00000000000E+00  0.00000000000E+00  0.21040585132E+03  0.21040585132E+03  0.00000000000E+00 0. -1.
         -1   -1    0    0    0  501 -0.00000000000E+00 -0.00000000000E+00 -0.88998753485E+02  0.88998753485E+02  0.00000000000E+00 0.  1.
         25    2    1    2    0    0  0.25975415553E+02  0.76840965485E+02  0.38219848717E+02  0.15391738991E+03  0.12510215782E+03 0.  0.
         23    2    1    2    0    0 -0.25975415553E+02 -0.76840965485E+02  0.83187249120E+02  0.14548721489E+03  0.87562292637E+02 0.  0.
          5    1    3    3  502    0  0.45127373854E+01 -0.52821084813E+01 -0.38549510659E+02  0.39392926278E+02  0.41800000000E+01 0.  1.
         -5    1    3    3    0  502  0.21462678168E+02  0.82123073966E+02  0.76769359376E+02  0.11452446363E+03  0.41800000000E+01 0.  1.
        -11    1    4    4    0    0  0.31977063489E+02 -0.33483312212E+02  0.40135869644E+02  0.61274405898E+02  0.00000000000E+00 0.  1.
         11    1    4    4    0    0 -0.57952479042E+02 -0.43357653273E+02  0.43051379476E+02  0.84212808997E+02  0.00000000000E+00 0. -1.
</event>
<event>
 8    1  0.7026811E-009  0.1465924E+03  0.7561462E-02  0.1204724E+00
          1   -1    0    0  501    0  0.00000000000E+00  0.00000000000E+00  0.58842844245E+02  0.58842844245E+02  0.00000000000E+00 0.  1.
         -1   -1    0    0    0  501 -0.00000000000E+00 -0.00000000000E+00 -0.48470696656E+03  0.48470696656E+03  0.00000000000E+00 0. -1.
         25    2    1    2    0    0 -0.39263088894E+02 -0.12258573257E+03 -0.23351409697E+03  0.29452569291E+03  0.12509076033E+03 0.  0.
         23    2    1    2    0    0  0.39263088894E+02  0.12258573257E+03 -0.19235002535E+03  0.24902411790E+03  0.91900092851E+02 0.  0.
          5    1    3    3  502    0  0.25285678801E+02 -0.58529858434E+02 -0.17502077444E+03  0.18631922544E+03  0.41800000000E+01 0.  1.
         -5    1    3    3    0  502 -0.64548767696E+02 -0.64055874134E+02 -0.58493322525E+02  0.10820646747E+03  0.41800000000E+01 0.  1.
        -11    1    4    4    0    0  0.50938048104E+02  0.10918549386E+03 -0.10478863719E+03  0.15967722222E+03  0.00000000000E+00 0.  1.
         11    1    4    4    0    0 -0.11674959210E+02  0.13400238709E+02 -0.87561388165E+02  0.89346895678E+02  0.00000000000E+00 0. -1.
</event>
<event>
 8    1  0.7026811E-009  0.1373802E+03  0.7561462E-02  0.1216898E+00
          1   -1    0    0  501    0  0.00000000000E+00  0.00000000000E+00  0.73545531344E+03  0.73545531344E+03  0.00000000000E+00 0. -1.
         -1   -1    0    0    0  501 -0.00000000000E+00 -0.00000000000E+00 -0.30981149529E+02  0.30981149529E+02  0.00000000000E+00 0.  1.
         25    2    1    2    0    0  0.95695839177E+02  0.30939222519E+02  0.33014417468E+03  0.36709421292E+03  0.12509218982E+03 0.  0.
         23    2    1    2    0    0 -0.95695839177E+02 -0.30939222519E+02  0.37432998923E+03  0.39934225005E+03  0.96105997284E+02 0.  0.
          5    1    3    3  502    0  0.77968481596E+02  0.69862987276E+02  0.28976744687E+03  0.30812751708E+03  0.41800000000E+01 0.  1.
         -5    1    3    3    0  502  0.17727357581E+02 -0.38923764756E+02  0.40376727809E+02  0.58966695839E+02  0.41800000000E+01 0.  1.
        -11    1    4    4    0    0 -0.62066591287E+02  0.20666519696E+02  0.27326475487E+03  0.28098575239E+03  0.00000000000E+00 0.  1.
         11    1    4    4    0    0 -0.33629247890E+02 -0.51605742215E+02  0.10106523436E+03  0.11835649766E+03  0.00000000000E+00 0. -1.
</event>
<event>
 8    1  0.7026811E-009  0.1090248E+03  0.7561462E-02  0.1262386E+00
          1   -1    0    0  501    0  0.00000000000E+00  0.00000000000E+00  0.76314187104E+03  0.76314187104E+03  0.00000000000E+00 0. -1.
         -1   -1    0    0    0  501 -0.00000000000E+00 -0.00000000000E+00 -0.24215862061E+02  0.24215862061E+02  0.00000000000E+00 0.  1.
         25    2    1    2    0    0 -0.90966562064E+01  0.37144282058E+02  0.61270495843E+03  0.62651286266E+03  0.12509418115E+03 0.  0.
         23    2    1    2    0    0  0.90966562064E+01 -0.37144282058E+02  0.12622105055E+03  0.16084487044E+03  0.92069929402E+02 0.  0.
          5    1    3    3  502    0 -0.63165403640E+02  0.41329963533E+02  0.32122765245E+03  0.33000410786E+03  0.41800000000E+01 0.  1.
         -5    1    3    3    0  502  0.54068747433E+02 -0.41856814750E+01  0.29147730597E+03  0.29650875480E+03  0.41800000000E+01 0.  1.
        -11    1    4    4    0    0 -0.20859311921E+02 -0.50963724213E+02  0.11222759176E+03  0.12500977735E+03  0.00000000000E+00 0. -1.
         11    1    4    4    0    0  0.29955968128E+02  0.13819442155E+02  0.13993458789E+02  0.35835093091E+02  0.00000000000E+00 0.  1.
</event>
<event>
 8    1  0.7026811E-009  0.1013942E+03  0.7561462E-02  0.1277391E+00
          1   -1    0    0  501    0  0.00000000000E+00  0.00000000000E+00  0.19793029974E+03  0.19793029974E+03  0.00000000000E+00 0. -1.
         -1   -1    0    0    0  501 -0.00000000000E+00 -0.00000000000E+00 -0.94098972414E+02  0.94098972414E+02  0.00000000000E+00 0.  1.
         25    2    1    2    0    0 -0.30411369416E+02 -0.66907781805E+02  0.92005188644E+02  0.17179615644E+03  0.12508981563E+03 0.  0.
         23    2    1    2    0    0  0.30411369416E+02  0.66907781805E+02  0.11826138685E+02  0.12023311572E+03  0.94417381361E+02 0.  0.
          5    1    3    3  502    0  0.19836395198E+02 -0.71176074393E+02  0.89575684877E+01  0.74546807938E+02  0.41800000000E+01 0. -1.
         -5    1    3    3    0  502 -0.50247764614E+02  0.42682925886E+01  0.83047620156E+02  0.97249348501E+02  0.41800000000E+01 0. -1.
        -11    1    4    4    0    0  0.89292824461E+01  0.50139234258E+02  0.51286462944E+02  0.72277079204E+02  0.00000000000E+00 0. -1.
         11    1    4    4    0    0  0.21482086970E+02  0.16768547547E+02 -0.39460324259E+02  0.47956036513E+02  0.00000000000E+00 0.  1.
</event>
<event>
 8    1  0.7026811E-009  0.1157267E+03  0.7561462E-02  0.1250318E+00
          4   -1    0    0  501    0  0.00000000000E+00  0.00000000000E+00  0.12921311603E+02  0.12921311603E+02  0.00000000000E+00 0.  1.
         -4   -1    0    0    0  501 -0.00000000000E+00 -0.00000000000E+00 -0.11680825973E+04  0.11680825973E+04  0.00000000000E+00 0. -1.
         25    2    1    2    0    0  0.43505994101E+02 -0.33991906664E+02 -0.69996456059E+03  0.71319437538E+03  0.12509040633E+03 0.  0.
         23    2    1    2    0    0 -0.43505994101E+02  0.33991906664E+02 -0.45519672513E+03  0.46780953354E+03  0.92701024067E+02 0.  0.
          5    1    3    3  502    0  0.61001942701E+02 -0.70204699650E+02 -0.41085697829E+03  0.42127291139E+03  0.41800000000E+01 0.  1.
         -5    1    3    3    0  502 -0.17495948600E+02  0.36212792986E+02 -0.28910758230E+03  0.29192146399E+03  0.41800000000E+01 0.  1.
        -11    1    4    4    0    0 -0.61895107276E+02  0.31044819151E+01 -0.37275537243E+03  0.37787194893E+03  0.00000000000E+00 0. -1.
         11    1    4    4    0    0  0.18389113175E+02  0.30887424749E+02 -0.82441352700E+02  0.89937584613E+02  0.00000000000E+00 0.  1.
</event>
<event>
 8    1  0.7026811E-009  0.1257062E+03  0.7561462E-02  0.1233970E+00
         -2   -1    0    0    0  501 -0.00000000000E+00  0.00000000000E+00  0.53561445442E+02  0.53561445442E+02  0.00000000000E+00 0.  1.
          2   -1    0    0  501    0  0.00000000000E+00 -0.00000000000E+00 -0.45807094635E+03  0.45807094635E+03  0.00000000000E+00 0. -1.
         25    2    1    2    0    0 -0.10614823596E+03  0.10390310404E+01 -0.15286513188E+03  0.22424082205E+03  0.12509064770E+03 0.  0.
         23    2    1    2    0    0  0.10614823596E+03 -0.10390310404E+01 -0.25164436902E+03  0.28739156974E+03  0.89445504727E+02 0.  0.
          5    1    3    3  502    0 -0.12125602452E+03  0.37456801197E+01 -0.70541828260E+02  0.14039471335E+03  0.41800000000E+01 0.  1.
         -5    1    3    3    0  502  0.15107788556E+02 -0.27066490793E+01 -0.82323303624E+02  0.83846108699E+02  0.41800000000E+01 0.  1.
        -11    1    4    4    0    0  0.53686534471E+02  0.20419206186E+02 -0.44577560347E+02  0.72707268215E+02  0.00000000000E+00 0.  1.
         11    1    4    4    0    0  0.52461701492E+02 -0.21458237227E+02 -0.20706680867E+03  0.21468430153E+03  0.00000000000E+00 0. -1.
</event>
<event>
 8    1  0.7026811E-009  0.2737071E+03  0.7561462E-02  0.1099177E+00
          1   -1    0    0  501    0  0.00000000000E+00  0.00000000000E+00  0.15321167371E+03  0.15321167371E+03  0.00000000000E+00 0. -1.
         -1   -1    0    0    0  501 -0.00000000000E+00 -0.00000000000E+00 -0.54799426700E+03  0.54799426700E+03  0.00000000000E+00 0.  1.
         25    2    1    2    0    0  0.36103264370E+02 -0.26343091245E+03 -0.15564045480E+03  0.33252171347E+03  0.12508975748E+03 0.  0.
         23    2    1    2    0    0 -0.36103264370E+02  0.26343091245E+03 -0.23914213848E+03  0.36868422724E+03  0.89664963546E+02 0.  0.
          5    1    3    3  502    0 -0.60769936755E+01 -0.99804633046E+02 -0.12601204230E+03  0.16091737580E+03  0.41800000000E+01 0. -1.
         -5    1    3    3    0  502  0.42180258045E+02 -0.16362627940E+03 -0.29628412500E+02  0.17160433767E+03  0.41800000000E+01 0. -1.
        -11    1    4    4    0    0 -0.62585497901E+02  0.16822945991E+03 -0.17620213004E+03  0.25152591588E+03  0.00000000000E+00 0.  1.
         11    1    4    4    0    0  0.26482233531E+02  0.95201452541E+02 -0.62940008443E+02  0.11715831136E+03  0.00000000000E+00 0. -1.
</event>
<event>
 8    1  0.7026811E-009  0.9218292E+02  0.7561462E-02  0.1297650E+00
         -2   -1    0    0    0  501 -0.00000000000E+00  0.00000000000E+00  0.20131596259E+02  0.20131596259E+02  0.00000000000E+00 0.  1.
          2   -1    0    0  501    0  0.00000000000E+00 -0.00000000000E+00 -0.71940622080E+03  0.71940622080E+03  0.00000000000E+00 0. -1.
         25    2    1    2    0    0 -0.19503838522E+02  0.32036862040E+02 -0.50892443621E+03  0.52541144954E+03  0.12508536801E+03 0.  0.
         23    2    1    2    0    0  0.19503838522E+02 -0.32036862040E+02 -0.19035018833E+03  0.21412636752E+03  0.90609860518E+02 0.  0.
          5    1    3    3  502    0  0.23049045856E+02  0.60263723981E+02 -0.15723544616E+03  0.17001009639E+03  0.41800000000E+01 0. -1.
         -5    1    3    3    0  502 -0.42552884378E+02 -0.28226861941E+02 -0.35168899004E+03  0.35540135315E+03  0.41800000000E+01 0. -1.
        -11    1    4    4    0    0 -0.15610653559E+02 -0.29368001870E+02 -0.17223305016E+02  0.37454162306E+02  0.00000000000E+00 0.  1.
         11    1    4    4    0    0  0.35114492081E+02 -0.26688601701E+01 -0.17312688332E+03  0.17667220522E+03  0.00000000000E+00 0. -1.
</event>
<event>
 8    1  0.7026811E-009  0.1137602E+03  0.7561462E-02  0.1253761E+00
         -2   -1    0    0    0  501 -0.00000000000E+00  0.00000000000E+00  0.17970665273E+02  0.17970665273E+02  0.00000000000E+00 0.  1.
          2   -1    0    0  501    0  0.00000000000E+00 -0.00000000000E+00 -0.86951293569E+03  0.86951293569E+03  0.00000000000E+00 0. -1.
         25    2    1    2    0    0 -0.34878735381E+02 -0.38062572907E+02 -0.41439511947E+03  0.43593118424E+03  0.12508955479E+03 0.  0.
         23    2    1    2    0    0  0.34878735381E+02  0.38062572907E+02 -0.43714715095E+03  0.45155241672E+03  0.10068102019E+03 0.  0.
          5    1    3    3  502    0 -0.25095402034E+02 -0.83472114769E+02 -0.29880668804E+03  0.31128810187E+03  0.41800000000E+01 0. -1.
         -5    1    3    3    0  502 -0.97833333478E+01  0.45409541862E+02 -0.11558843143E+03  0.12464308237E+03  0.41800000000E+01 0. -1.
        -11    1    4    4    0    0  0.32582241805E+02  0.61750460236E+02 -0.40796461294E+03  0.41389593768E+03  0.00000000000E+00 0. -1.
         11    1    4    4    0    0  0.22964935763E+01 -0.23687887329E+02 -0.29182538012E+02  0.37656479040E+02  0.00000000000E+00 0.  1.
</event>
<event>
 8    1  0.7026811E-009  0.1258877E+03  0.7561462E-02  0.1233689E+00
         -1   -1    0    0    0  501 -0.00000000000E+00  0.00000000000E+00  0.87675664121E+02  0.87675664121E+02  0.00000000000E+00 0.  1.
          1   -1    0    0  501    0  0.00000000000E+00 -0.00000000000E+00 -0.21327621057E+03  0.21327621057E+03  0.00000000000E+00 0. -1.
         25    2    1    2    0    0  0.31336819865E+02  0.73374299898E+02 -0.10501600743E+03  0.18177225925E+03  0.12508800203E+03 0.  0.
         23    2    1    2    0    0 -0.31336819865E+02 -0.73374299898E+02 -0.20584539020E+02  0.11917961544E+03  0.86106174718E+02 0.  0.
          5    1    3    3  502    0  0.68511727727E+02  0.67954810919E+02 -0.10671426948E+03  0.14393443255E+03  0.41800000000E+01 0.  1.
         -5    1    3    3    0  502 -0.37174907862E+02  0.54194889783E+01  0.16982620544E+01  0.37837826700E+02  0.41800000000E+01 0.  1.
        -11    1    4    4    0    0  0.25561078710E+02 -0.49448157863E+02 -0.99491199364E+01  0.56546211618E+02  0.00000000000E+00 0.  1.
         11    1    4    4    0    0 -0.56897898575E+02 -0.23926142035E+02 -0.10635419084E+02  0.62633403820E+02  0.00000000000E+00 0. -1.
</event>
<event>
 8    1  0.7026811E-009  0.1262879E+03  0.7561462E-02  0.1233070E+00
          4   -1    0    0  501    0  0.00000000000E+00  0.00000000000E+00  0.20667476653E+03  0.20667476653E+03  0.00000000000E+00 0. -1.
         -4   -1    0    0    0  501 -0.00000000000E+00 -0.00000000000E+00 -0.12137593499E+03  0.12137593499E+03  0.00000000000E+00 0.  1.
         25    2    1    2    0    0  0.38552664436E+02  0.85320687412E+02 -0.23333566627E+02  0.15798023931E+03  0.12508946017E+03 0.  0.
         23    2    1    2    0    0 -0.38552664436E+02 -0.85320687412E+02  0.10863239817E+03  0.17007046221E+03  0.91416828583E+02 0.  0.
          5    1    3    3  502    0 -0.10262976539E+02  0.10337626843E+03 -0.17657281527E+02  0.10545725937E+03  0.41800000000E+01 0.  1.
         -5    1    3    3    0  502  0.48815640975E+02 -0.18055581021E+02 -0.56762850999E+01  0.52522979945E+02  0.41800000000E+01 0.  1.
        -11    1    4    4    0    0 -0.26337820249E+02 -0.30827464579E+02  0.10675259497E+03  0.11419338808E+03  0.00000000000E+00 0. -1.
         11    1    4    4    0    0 -0.12214844187E+02 -0.54493222833E+02  0.18798031983E+01  0.55877074130E+02  0.00000000000E+00 0.  1.
</event>
<event>
 8    1  0.7026811E-009  0.1248031E+03  0.7561462E-02  0.1235377E+00
         -1   -1    0    0    0  501 -0.00000000000E+00  0.00000000000E+00  0.37158487596E+02  0.37158487596E+02  0.00000000000E+00 0.  1.
          1   -1    0    0  501    0  0.00000000000E+00 -0.00000000000E+00 -0.63943766155E+03  0.63943766155E+03  0.00000000000E+00 0. -1.
         25    2    1    2    0    0  0.98591638731E+02 -0.70526762302E+01 -0.42484692276E+03  0.45377534258E+03  0.12508837789E+03 0.  0.
         23    2    1    2    0    0 -0.98591638731E+02  0.70526762302E+01 -0.17743225120E+03  0.22282080657E+03  0.91634363677E+02 0.  0.
          5    1    3    3  502    0  0.11397005076E+03  0.23371197529E+02 -0.25257617934E+03  0.27811433641E+03  0.41800000000E+01 0. -1.
         -5    1    3    3    0  502 -0.15378412032E+02 -0.30423873759E+02 -0.17227074341E+03  0.17566100617E+03  0.41800000000E+01 0. -1.
        -11    1    4    4    0    0 -0.75027125948E+02  0.51923287336E+01 -0.43628676851E+02  0.86945335410E+02  0.00000000000E+00 0.  1.
         11    1    4    4    0    0 -0.23564512783E+02  0.18603474966E+01 -0.13380357435E+03  0.13587547116E+03  0.00000000000E+00 0. -1.
</event>
<event>
 8    1  0.7026811E-009  0.9726079E+02  0.7561462E-02  0.1286164E+00
         -2   -1    0    0    0  501 -0.00000000000E+00  0.00000000000E+00  0.51471537102E+02  0.51471537102E+02  0.00000000000E+00 0.  1.
          2   -1    0    0  501    0  0.00000000000E+00 -0.00000000000E+00 -0.35466907175E+03  0.35466907175E+03  0.00000000000E+00 0. -1.
         25    2    1    2    0    0 -0.56628071981E+02 -0.22792641912E+02 -0.24064509499E+03  0.27799967396E+03  0.12509002326E+03 0.  0.
         23    2    1    2    0    0  0.56628071981E+02  0.22792641912E+02 -0.62552439657E+02  0.12814093489E+03  0.93707248523E+02 0.  0.
          5    1    3    3  502    0 -0.76703621662E+02  0.22483272097E+02 -0.19389141860E+03  0.20976247926E+03  0.41800000000E+01 0. -1.
         -5    1    3    3    0  502  0.20075549680E+02 -0.45275914009E+02 -0.46753676396E+02  0.68237194703E+02  0.41800000000E+01 0. -1.
        -11    1    4    4    0    0  0.40693185972E+02  0.51712257637E+01  0.17529663690E+02  0.44609035739E+02  0.00000000000E+00 0.  1.
         11    1    4    4    0    0  0.15934886009E+02  0.17621416148E+02 -0.80082103347E+02  0.83531899151E+02  0.00000000000E+00 0. -1.
</event>
<event>
 8    1  0.7026811E-009  0.1484933E+03  0.7561462E-02  0.1202337E+00
         -1   -1    0    0    0  501 -0.00000000000E+00  0.00000000000E+00  0.18426264024E+03  0.18426264024E+03  0.00000000000E+00 0.  1.
          1   -1    0    0  501    0  0.00000000000E+00 -0.00000000000E+00 -0.49462124556E+03  0.49462124556E+03  0.00000000000E+00 0. -1.
         25    2    1    2    0    0 -0.12781649966E+03  0.62659436179E+02  0.11442465770E+03  0.22137105471E+03  0.12509547973E+03 0.  0.
         23    2    1    2    0    0  0.12781649966E+03 -0.62659436179E+02 -0.42478326302E+03  0.45751283109E+03  0.92811139101E+02 0.  0.
          5    1    3    3  502    0 -0.11241557900E+03  0.29772692980E+02  0.13594907608E+03  0.17895054997E+03  0.41800000000E+01 0. -1.
         -5    1    3    3    0  502 -0.15400920658E+02  0.32886743199E+02 -0.21524418384E+02  0.42420504737E+02  0.41800000000E+01 0. -1.
        -11    1    4    4    0    0  0.56683844689E+02 -0.40128922327E+02 -0.85655443278E+02  0.11027349463E+03  0.00000000000E+00 0.  1.
         11    1    4    4    0    0  0.71132654969E+02 -0.22530513852E+02 -0.33912781974E+03  0.34723933645E+03  0.00000000000E+00 0. -1.
</event>
<event>
 8    1  0.7026811E-009  0.1404961E+03  0.7561462E-02  0.1212663E+00
          2   -1    0    0  501    0  0.00000000000E+00  0.00000000000E+00  0.15695754373E+03  0.15695754373E+03  0.00000000000E+00 0. -1.
         -2   -1    0    0    0  501 -0.00000000000E+00 -0.00000000000E+00 -0.23716233755E+03  0.23716233755E+03  0.00000000000E+00 0.  1.
         25    2    1    2    0    0 -0.94266921539E+02 -0.73859702812E+02  0.65458652422E+02  0.18513209270E+03  0.12509016099E+03 0.  0.
         23    2    1    2    0    0  0.94266921539E+02  0.73859702812E+02 -0.14566344624E+03  0.20898778858E+03  0.90091886472E+02 0.  0.
          5    1    3    3  502    0  0.55481937926E+01 -0.28637096568E+02 -0.28298032476E+02  0.40854825862E+02  0.41800000000E+01 0. -1.
         -5    1    3    3    0  502 -0.99815115332E+02 -0.45222606244E+02  0.93756684899E+02  0.14427726684E+03  0.41800000000E+01 0. -1.
        -11    1    4    4    0    0 -0.86036357377E+01  0.27893168195E+02 -0.62392633826E+02  0.68883177450E+02  0.00000000000E+00 0.  1.
         11    1    4    4    0    0  0.10287055728E+03  0.45966534616E+02 -0.83270812413E+02  0.14010461113E+03  0.00000000000E+00 0. -1.
</event>
<event>
 8    1  0.7026811E-009  0.8829919E+02  0.7561462E-02  0.1307023E+00
         -1   -1    0    0    0  501 -0.00000000000E+00  0.00000000000E+00  0.18459477613E+03  0.18459477613E+03  0.00000000000E+00 0.  1.
          1   -1    0    0  501    0  0.00000000000E+00 -0.00000000000E+00 -0.64484791887E+02  0.64484791887E+02  0.00000000000E+00 0. -1.
         25    2    1    2    0    0  0.10379322532E+02  0.73382978427E+01  0.74713423267E+02  0.14625731601E+03  0.12509007123E+03 0.  0.
         23    2    1    2    0    0 -0.10379322532E+02 -0.73382978427E+01  0.45396560981E+02  0.10282225201E+03  0.91378262230E+02 0.  0.
          5    1    3    3  502    0  0.67774944895E+02  0.59164124749E+01  0.41331417693E+02  0.79713271045E+02  0.41800000000E+01 0.  1.
         -5    1    3    3    0  502 -0.57395622363E+02  0.14218853678E+01  0.33382005573E+02  0.66544044967E+02  0.41800000000E+01 0.  1.
        -11    1    4    4    0    0 -0.12100327368E+02 -0.27809925745E+02 -0.18621305540E+02  0.35588803189E+02  0.00000000000E+00 0. -1.
         11    1    4    4    0    0  0.17210048367E+01  0.20471627903E+02  0.64017866521E+02  0.67233448822E+02  0.00000000000E+00 0.  1.
</event>
<event>
 8    1  0.7026811E-009  0.1494678E+03  0.7561462E-02  0.1201129E+00
          2   -1    0    0  501    0  0.00000000000E+00  0.00000000000E+00  0.19002023422E+03  0.19002023422E+03  0.00000000000E+00 0. -1.
         -2   -1    0    0    0  501 -0.00000000000E+00 -0.00000000000E+00 -0.14846131540E+03  0.14846131540E+03  0.00000000000E+00 0.  1.
         25    2    1    2    0    0  0.10739541970E+03  0.68041017309E+02  0.14058878057E+02  0.17890780699E+03  0.12508794962E+03 0.  0.
         23    2    1    2    0    0 -0.10739541970E+03 -0.68041017309E+02  0.27500040766E+02  0.15957374263E+03  0.92434684433E+02 0.  0.
          5    1    3    3  502    0  0.28049256910E+02  0.84942929671E+02  0.33097891401E+02  0.95472534948E+02  0.41800000000E+01 0. -1.
         -5    1    3    3    0  502  0.79346162789E+02 -0.16901912362E+02 -0.19039013344E+02  0.83435272037E+02  0.41800000000E+01 0. -1.
        -11    1    4    4    0    0 -0.85457687671E+02 -0.61401906369E+02  0.58982012830E+02  0.12063203689E+03  0.00000000000E+00 0. -1.
         11    1    4    4    0    0 -0.21937732028E+02 -0.66391109404E+01 -0.31481972064E+02  0.38941705736E+02  0.00000000000E+00 0.  1.
</event>
<event>
 8    1  0.7026811E-009  0.1795672E+03  0.7561462E-02  0.1168223E+00
          2   -1    0    0  501    0  0.00000000000E+00  0.00000000000E+00  0.13694295175E+03  0.13694295175E+03  0.00000000000E+00 0. -1.
         -2   -1    0    0    0  501 -0.00000000000E+00 -0.00000000000E+00 -0.25759431106E+03  0.25759431106E+03  0.00000000000E+00 0.  1.
         25    2    1    2    0    0  0.12494985373E+03  0.87161875354E+02 -0.51758606747E+02  0.20380329942E+03  0.12508866064E+03 0.  0.
         23    2    1    2    0    0 -0.12494985373E+03 -0.87161875354E+02 -0.68892752563E+02  0.19073396338E+03  0.91780035789E+02 0.  0.
          5    1    3    3  502    0  0.11397115491E+03  0.11447494198E+03 -0.24443574081E+02  0.16342856913E+03  0.41800000000E+01 0.  1.
         -5    1    3    3    0  502  0.10978698824E+02 -0.27313066630E+02 -0.27315032666E+02  0.40374730292E+02  0.41800000000E+01 0.  1.
        -11    1    4    4    0    0 -0.10430139599E+03 -0.32292856632E+02 -0.73978786446E+02  0.13188809893E+03  0.00000000000E+00 0.  1.
         11    1    4    4    0    0 -0.20648457739E+02 -0.54869018723E+02  0.50860338835E+01  0.58845864454E+02  0.00000000000E+00 0. -1.
</event>
<event>
 8    1  0.7026811E-009  0.2145603E+03  0.7561462E-02  0.1138005E+00
         -1   -1    0    0    0  501 -0.00000000000E+00  0.00000000000E+00  0.16067540413E+03  0.16067540413E+03  0.00000000000E+00 0.  1.
          1   -1    0    0  501    0  0.00000000000E+00 -0.00000000000E+00 -0.41717690529E+03  0.41717690529E+03  0.00000000000E+00 0. -1.
         25    2    1    2    0    0 -0.63310172833E+02 -0.18325612376E+03 -0.27970018580E+03  0.36258873018E+03  0.12508960164E+03 0.  0.
         23    2    1    2    0    0  0.63310172833E+02  0.18325612376E+03  0.23198684638E+02  0.21526357923E+03  0.90604882295E+02 0.  0.
          5    1    3    3  502    0  0.37260550314E+02 -0.37425803412E+02 -0.54086819336E+02  0.75709284746E+02  0.41800000000E+01 0. -1.
         -5    1    3    3    0  502 -0.10057072315E+03 -0.14583032035E+03 -0.22561336647E+03  0.28687944544E+03  0.41800000000E+01 0. -1.
        -11    1    4    4    0    0 -0.28761993138E+00  0.62219236594E+02 -0.29337400817E+02  0.68789528377E+02  0.00000000000E+00 0. -1.
         11    1    4    4    0    0  0.63597792764E+02  0.12103688717E+03  0.52536085455E+02  0.14647405086E+03  0.00000000000E+00 0.  1.
</event>
<event>
 8    1  0.7026811E-009  0.1457197E+03  0.7561462E-02  0.1205834E+00
         -1   -1    0    0    0  501 -0.00000000000E+00  0.00000000000E+00  0.60319551416E+02  0.60319551416E+02  0.00000000000E+00 0.  1.
          1   -1    0    0  501    0  0.00000000000E+00 -0.00000000000E+00 -0.45896778232E+03  0.45896778232E+03  0.00000000000E+00 0. -1.
         25    2    1    2    0    0 -0.11335926251E+03 -0.10011990307E+02 -0.29677015835E+03  0.34157045121E+03  0.12508910386E+03 0.  0.
         23    2    1    2    0    0  0.11335926251E+03  0.10011990307E+02 -0.10187807255E+03  0.17771688253E+03  0.90849250522E+02 0.  0.
          5    1    3    3  502    0  0.12101569412E+02 -0.32886462488E+02 -0.10882482268E+03  0.11440402890E+03  0.41800000000E+01 0. -1.
         -5    1    3    3    0  502 -0.12546083192E+03  0.22874472180E+02 -0.18794533567E+03  0.22716642231E+03  0.41800000000E+01 0. -1.
        -11    1    4    4    0    0  0.12701289425E+02 -0.19842100005E+02  0.88122847646E+01  0.25153291006E+02  0.00000000000E+00 0.  1.
         11    1    4    4    0    0  0.10065797309E+03  0.29854090312E+02 -0.11069035732E+03  0.15256359152E+03  0.00000000000E+00 0. -1.
</event>
<event>
 8    1  0.7026811E-009  0.9662619E+02  0.7561462E-02  0.1287555E+00
          3   -1    0    0  501    0  0.00000000000E+00  0.00000000000E+00  0.28060011601E+03  0.28060011601E+03  0.00000000000E+00 0. -1.
         -3   -1    0    0    0  501 -0.00000000000E+00 -0.00000000000E+00 -0.62664739690E+02  0.62664739690E+02  0.00000000000E+00 0.  1.
         25    2    1    2    0    0 -0.37186855987E+02  0.48246284847E+02  0.56642404229E+02  0.15021941713E+03  0.12508774947E+03 0.  0.
         23    2    1    2    0    0  0.37186855987E+02 -0.48246284847E+02  0.16129297209E+03  0.19304543857E+03  0.86836353254E+02 0.  0.
          5    1    3    3  502    0 -0.36316087292E+02  0.84930676885E+02  0.13525860203E+02  0.93447843028E+02  0.41800000000E+01 0.  1.
         -5    1    3    3    0  502 -0.87076869476E+00 -0.36684392038E+02  0.43116544026E+02  0.56771574103E+02  0.41800000000E+01 0.  1.
        -11    1    4    4    0    0  0.22990829636E+02 -0.14334873555E+02  0.15297171709E+03  0.15535254448E+03  0.00000000000E+00 0. -1.
         11    1    4    4    0    0  0.14196026350E+02 -0.33911411292E+02  0.83212550014E+01  0.37692894088E+02  0.00000000000E+00 0.  1.
</event>
<event>
 8    1  0.7026811E-009  0.1250540E+03  0.7561462E-02  0.1234985E+00
          2   -1    0    0  501    0  0.00000000000E+00  0.00000000000E+00  0.18768067018E+03  0.18768067018E+03  0.00000000000E+00 0. -1.
         -2   -1    0    0    0  501 -0.00000000000E+00 -0.00000000000E+00 -0.92965569392E+02  0.92965569392E+02  0.00000000000E+00 0.  1.
         25    2    1    2    0    0  0.45863678967E+02 -0.50554681956E+02  0.20500181216E+02  0.14395328020E+03  0.12507212533E+03 0.  0.
         23    2    1    2    0    0 -0.45863678967E+02  0.50554681956E+02  0.74214919572E+02  0.13669295937E+03  0.92292242027E+02 0.  0.
          5    1    3    3  502    0  0.80115399263E+02 -0.81321646534E+01 -0.10139766144E+02  0.81270514693E+02  0.41800000000E+01 0. -1.
         -5    1    3    3    0  502 -0.34251720296E+02 -0.42422517302E+02  0.30639947360E+02  0.62682765508E+02  0.41800000000E+01 0. -1.
        -11    1    4    4    0    0 -0.74310614623E+02  0.40406149753E+02  0.54251573199E+02  0.10048859427E+03  0.00000000000E+00 0.  1.
         11    1    4    4    0    0  0.28446935655E+02  0.10148532203E+02  0.19963346372E+02  0.36204365102E+02  0.00000000000E+00 0. -1.
</event>
<event>
 8    1  0.7026811E-009  0.9918918E+02  0.7561462E-02  0.1282010E+00
         -2   -1    0    0    0  501 -0.00000000000E+00  0.00000000000E+00  0.78094514113E+02  0.78094514113E+02  0.00000000000E+00 0.  1.
          2   -1    0    0  501    0  0.00000000000E+00 -0.00000000000E+00 -0.19576861243E+03  0.19576861243E+03  0.00000000000E+00 0. -1.
         25    2    1    2    0    0 -0.43568244162E+01 -0.46839210314E+02 -0.25793317570E+02  0.13610732062E+03  0.12508802482E+03 0.  0.
         23    2    1    2    0    0  0.43568244162E+01  0.46839210314E+02 -0.91880780746E+02  0.13775580592E+03  0.91223301043E+02 0.  0.
          5    1    3    3  502    0 -0.23215478777E+02 -0.67967773634E+02 -0.58438269567E+02  0.92688081529E+02  0.41800000000E+01 0.  1.
         -5    1    3    3    0  502  0.18858654361E+02  0.21128563320E+02  0.32644951997E+02  0.43419239090E+02  0.41800000000E+01 0.  1.
        -11    1    4    4    0    0 -0.15110745337E+02  0.67645317815E+02 -0.82513036710E+02  0.10776188971E+03  0.00000000000E+00 0. -1.
         11    1    4    4    0    0  0.19467569754E+02 -0.20806107501E+02 -0.93677440361E+01  0.29993916213E+02  0.00000000000E+00 0.  1.
</event>
<event>
 8    1  0.7026811E-009  0.9078647E+02  0.7561462E-02  0.1300958E+00
         -1   -1    0    0    0  501 -0.00000000000E+00  0.00000000000E+00  0.17457489977E+02  0.17457489977E+02  0.00000000000E+00 0. -1.
          1   -1    0    0  501    0  0.00000000000E+00 -0.00000000000E+00 -0.88042481115E+03  0.88042481115E+03  0.00000000000E+00 0.  1.
         25    2    1    2    0    0  0.39933954622E+02 -0.16947935530E+02 -0.62682712115E+03  0.64065736114E+03  0.12509061245E+03 0.  0.
         23    2    1    2    0    0 -0.39933954622E+02  0.16947935530E+02 -0.23614020003E+03  0.25722493999E+03  0.92306675998E+02 0.  0.
          5    1    3    3  502    0 -0.93135533937E+01  0.26249094326E+02 -0.33746042387E+02  0.43954806410E+02  0.41800000000E+01 0. -1.
         -5    1    3    3    0  502  0.49247508015E+02 -0.43197029857E+02 -0.59308107876E+03  0.59670255473E+03  0.41800000000E+01 0. -1.
        -11    1    4    4    0    0  0.17161203114E+02  0.24775071538E+02 -0.15377518888E+03  0.15670073318E+03  0.00000000000E+00 0.  1.
         11    1    4    4    0    0 -0.57095157735E+02 -0.78271360076E+01 -0.82365011147E+02  0.10052420682E+03  0.00000000000E+00 0. -1.
</event>
<event>
 8    1  0.7026811E-009  0.7833331E+02  0.7561462E-02  0.1333849E+00
          2   -1    0    0  501    0  0.00000000000E+00  0.00000000000E+00  0.90339202788E+02  0.90339202788E+02  0.00000000000E+00 0.  1.
         -2   -1    0    0    0  501 -0.00000000000E+00 -0.00000000000E+00 -0.19861057472E+03  0.19861057472E+03  0.00000000000E+00 0. -1.
         25    2    1    2    0    0 -0.50321742936E+02  0.45582176479E+02 -0.10459902819E+03  0.17663004682E+03  0.12508878493E+03 0.  0.
         23    2    1    2    0    0  0.50321742936E+02 -0.45582176479E+02 -0.36723437439E+01  0.11231973069E+03  0.89399234727E+02 0.  0.
          5    1    3    3  502    0 -0.55540442813E+02  0.43134267791E+02  0.13323970821E+01  0.70459587905E+02  0.41800000000E+01 0. -1.
         -5    1    3    3    0  502  0.52186998766E+01  0.24479086884E+01 -0.10593142527E+03  0.10617045891E+03  0.41800000000E+01 0. -1.
        -11    1    4    4    0    0  0.55363402022E+02 -0.30525952273E+02  0.33751707434E+02  0.71666713336E+02  0.00000000000E+00 0.  1.
         11    1    4    4    0    0 -0.50416590854E+01 -0.15056224206E+02 -0.37424051178E+02  0.40653017358E+02  0.00000000000E+00 0. -1.
</event>
<event>
 8    1  0.7026811E-009  0.1210939E+03  0.7561462E-02  0.1241303E+00
         -1   -1    0    0    0  501 -0.00000000000E+00  0.00000000000E+00  0.59363827545E+03  0.59363827545E+03  0.00000000000E+00 0.  1.
          1   -1    0    0  501    0  0.00000000000E+00 -0.00000000000E+00 -0.33757008817E+02  0.33757008817E+02  0.00000000000E+00 0. -1.
         25    2    1    2    0    0 -0.72686991537E+02  0.53917952536E+02  0.30756225208E+03  0.34413860257E+03  0.12508514911E+03 0.  0.
         23    2    1    2    0    0  0.72686991537E+02 -0.53917952536E+02  0.25231901455E+03  0.28325668170E+03  0.91536431424E+02 0.  0.
          5    1    3    3  502    0 -0.76754404261E+02 -0.15813128182E+02  0.11472918149E+03  0.13900198230E+03  0.41800000000E+01 0.  1.
         -5    1    3    3    0  502  0.40674127248E+01  0.69731080718E+02  0.19283307059E+03  0.20513662027E+03  0.41800000000E+01 0.  1.
        -11    1    4    4    0    0  0.42130496090E+02 -0.45565380278E+02  0.24216712825E+03  0.24999220105E+03  0.00000000000E+00 0.  1.
         11    1    4    4    0    0  0.30556495447E+02 -0.83525722577E+01  0.10151886301E+02  0.33264480648E+02  0.00000000000E+00 0. -1.
</event>
<event>
 8    1  0.7026811E-009  0.9293528E+02  0.7561462E-02  0.1295895E+00
          2   -1    0    0  501    0  0.00000000000E+00  0.00000000000E+00  0.23875825450E+03  0.23875825450E+03  0.00000000000E+00 0. -1.
         -2   -1    0    0    0  501 -0.00000000000E+00 -0.00000000000E+00 -0.70203106975E+02  0.70203106975E+02  0.00000000000E+00 0.  1.
         25    2    1    2    0    0 -0.20491534290E+02 -0.65452178056E+02  0.77690786390E+02  0.16244387627E+03  0.12509302163E+03 0.  0.
         23    2    1    2    0    0  0.20491534290E+02  0.65452178056E+02  0.90864361132E+02  0.14651748520E+03  0.92234216835E+02 0.  0.
          5    1    3    3  502    0  0.26900109356E+01 -0.84148235530E+02  0.57739808765E+01  0.84492443193E+02  0.41800000000E+01 0.  1.
         -5    1    3    3    0  502 -0.23181545225E+02  0.18696057474E+02  0.71916805514E+02  0.77951433081E+02  0.41800000000E+01 0.  1.
        -11    1    4    4    0    0 -0.39526173996E+01  0.13856582087E+02 -0.18319505082E+02  0.23307344720E+02  0.00000000000E+00 0.  1.
         11    1    4    4    0    0  0.24444151689E+02  0.51595595969E+02  0.10918386621E+03  0.12321014048E+03  0.00000000000E+00 0. -1.
</event>
<event>
 8    1  0.7026811E-009  0.1027074E+03  0.7561462E-02  0.1274704E+00
          2   -1    0    0  501    0  0.00000000000E+00  0.00000000000E+00  0.36143301322E+03  0.36143301322E+03  0.00000000000E+00 0. -1.
         -2   -1    0    0    0  501 -0.00000000000E+00 -0.00000000000E+00 -0.36780363784E+02  0.36780363784E+02  0.00000000000E+00 0.  1.
         25    2    1    2    0    0 -0.19748207613E+02  0.23947560595E+02  0.13542622775E+03  0.18695421708E+03  0.12509252079E+03 0.  0.
         23    2    1    2    0    0  0.19748207613E+02 -0.23947560595E+02  0.18922642168E+03  0.21125915992E+03  0.88658426711E+02 0.  0.
          5    1    3    3  502    0 -0.12869998570E+02 -0.42780844576E+02  0.10295840285E+03  0.11231091952E+03  0.41800000000E+01 0.  1.
         -5    1    3    3    0  502 -0.68782090434E+01  0.66728405171E+02  0.32467824901E+02  0.74643297557E+02  0.41800000000E+01 0.  1.
        -11    1    4    4    0    0 -0.29723622468E+02 -0.31474842115E+02  0.99769947609E+02  0.10875753705E+03  0.00000000000E+00 0.  1.
         11    1    4    4    0    0  0.49471830081E+02  0.75272815199E+01  0.89456474074E+02  0.10250162288E+03  0.00000000000E+00 0. -1.
</event>
<event>
 8    1  0.7026811E-009  0.1164271E+03  0.7561462E-02  0.1249110E+00
         -1   -1    0    0    0  501 -0.00000000000E+00  0.00000000000E+00  0.41512627093E+02  0.41512627093E+02  0.00000000000E+00 0.  1.
          1   -1    0    0  501    0  0.00000000000E+00 -0.00000000000E+00 -0.40424535641E+03  0.40424535641E+03  0.00000000000E+00 0. -1.
         25    2    1    2    0    0  0.69263036520E+02  0.11026150368E+01 -0.22392918768E+03  0.26568861545E+03  0.12509026861E+03 0.  0.
         23    2    1    2    0    0 -0.69263036520E+02 -0.11026150368E+01 -0.13880354164E+03  0.18006936805E+03  0.91432872368E+02 0.  0.
          5    1    3    3  502    0  0.70277111652E+02 -0.38518953312E+02 -0.69379229186E+02  0.10608266601E+03  0.41800000000E+01 0. -1.
         -5    1    3    3    0  502 -0.10140751319E+01  0.39621568349E+02 -0.15454995849E+03  0.15960594944E+03  0.41800000000E+01 0. -1.
        -11    1    4    4    0    0 -0.19000870878E+02 -0.43195651103E+02 -0.42115879759E+02  0.63250649770E+02  0.00000000000E+00 0. -1.
         11    1    4    4    0    0 -0.50262165641E+02  0.42093036067E+02 -0.96687661878E+02  0.11681871828E+03  0.00000000000E+00 0.  1.
</event>
<event>
 8    1  0.7026811E-009  0.1363076E+03  0.7561462E-02  0.1218386E+00
          1   -1    0    0  501    0  0.00000000000E+00  0.00000000000E+00  0.23515997894E+03  0.23515997894E+03  0.00000000000E+00 0. -1.
         -1   -1    0    0    0  501 -0.00000000000E+00 -0.00000000000E+00 -0.86870170428E+02  0.86870170428E+02  0.00000000000E+00 0.  1.
         25    2    1    2    0    0  0.89581380323E+02  0.16595733290E+02  0.73336281882E+02  0.17125900190E+03  0.12510472984E+03 0.  0.
         23    2    1    2    0    0 -0.89581380323E+02 -0.16595733290E+02  0.74953526634E+02  0.15077114747E+03  0.93881125317E+02 0.  0.
          5    1    3    3  502    0 -0.24519966898E+02 -0.20960389544E+02  0.47531681564E+01  0.32872963268E+02  0.41800000000E+01 0.  1.
         -5    1    3    3    0  502  0.11410134722E+03  0.37556122834E+02  0.68583113725E+02  0.13838603863E+03  0.41800000000E+01 0.  1.
        -11    1    4    4    0    0 -0.11503356609E+02  0.27791790134E+02 -0.50414877125E+01  0.30497990270E+02  0.00000000000E+00 0.  1.
         11    1    4    4    0    0 -0.78078023714E+02 -0.44387523425E+02  0.79995014346E+02  0.12027315720E+03  0.00000000000E+00 0. -1.
</event>
<event>
 8    1  0.7026811E-009  0.1525319E+03  0.7561462E-02  0.1197396E+00
         -2   -1    0    0    0  501 -0.00000000000E+00  0.00000000000E+00  0.28588734101E+03  0.28588734101E+03  0.00000000000E+00 0.  1.
          2   -1    0    0  501    0  0.00000000000E+00 -0.00000000000E+00 -0.89770819365E+02  0.89770819365E+02  0.00000000000E+00 0. -1.
         25    2    1    2    0    0  0.10998360955E+03  0.10985222584E+02  0.57738508669E+02  0.17663107543E+03  0.12509089471E+03 0.  0.
         23    2    1    2    0    0 -0.10998360955E+03 -0.10985222584E+02  0.13837801297E+03  0.19902708494E+03  0.90808791317E+02 0.  0.
          5    1    3    3  502    0  0.89191458793E+02  0.61368203203E+02  0.19923928857E+02  0.11016173577E+03  0.41800000000E+01 0. -1.
         -5    1    3    3    0  502  0.20792150758E+02 -0.50382980619E+02  0.37814579812E+02  0.66469339666E+02  0.41800000000E+01 0. -1.
        -11    1    4    4    0    0 -0.12427414452E+03 -0.18923697523E+02  0.12927109141E+03  0.18031412701E+03  0.00000000000E+00 0.  1.
         11    1    4    4    0    0  0.14290534973E+02  0.79384749387E+01  0.91069215652E+01  0.18712957932E+02  0.00000000000E+00 0. -1.
</event>
<event>
 8    1  0.7026811E-009  0.2668163E+03  0.7561462E-02  0.1103116E+00
         -1   -1    0    0    0  501 -0.00000000000E+00  0.00000000000E+00  0.84475517874E+03  0.84475517874E+03  0.00000000000E+00 0.  1.
          1   -1    0    0  501    0  0.00000000000E+00 -0.00000000000E+00 -0.10044437957E+03  0.10044437957E+03  0.00000000000E+00 0. -1.
         25    2    1    2    0    0 -0.93364072609E+02 -0.24343895034E+03  0.25942254605E+03  0.38849348651E+03  0.12509100313E+03 0.  0.
         23    2    1    2    0    0  0.93364072609E+02  0.24343895034E+03  0.48488825311E+03  0.55670607180E+03  0.82617551241E+02 0.  0.
          5    1    3    3  502    0 -0.65618403869E+02 -0.15622742396E+03  0.24165320542E+03  0.29517202953E+03  0.41800000000E+01 0.  1.
         -5    1    3    3    0  502 -0.27745668740E+02 -0.87211526380E+02  0.17769340631E+02  0.93321456985E+02  0.41800000000E+01 0.  1.
        -11    1    4    4    0    0  0.75640207263E+02  0.87865415449E+02  0.22990689772E+03  0.25748583224E+03  0.00000000000E+00 0. -1.
         11    1    4    4    0    0  0.17723865345E+02  0.15557353489E+03  0.25498135540E+03  0.29922023956E+03  0.00000000000E+00 0.  1.
</event>
<event>
 8    1  0.7026811E-009  0.1581741E+03  0.7561462E-02  0.1190774E+00
         -2   -1    0    0    0  501 -0.00000000000E+00  0.00000000000E+00  0.14457473370E+03  0.14457473370E+03  0.00000000000E+00 0. -1.
          2   -1    0    0  501    0  0.00000000000E+00 -0.00000000000E+00 -0.25182178375E+03  0.25182178375E+03  0.00000000000E+00 0.  1.
         25    2    1    2    0    0  0.88422790876E+02  0.93444775144E+02 -0.14769184787E+03  0.23240195455E+03  0.12508905070E+03 0.  0.
         23    2    1    2    0    0 -0.88422790876E+02 -0.93444775144E+02  0.40444797822E+02  0.16399456290E+03  0.93316231393E+02 0.  0.
          5    1    3    3  502    0 -0.24217067028E+02  0.36854485812E+02 -0.94947937373E+01  0.45302792056E+02  0.41800000000E+01 0.  1.
         -5    1    3    3    0  502  0.11263985790E+03  0.56590289331E+02 -0.13819705414E+03  0.18709916250E+03  0.41800000000E+01 0.  1.
        -11    1    4    4    0    0 -0.86431619956E+02 -0.10397562955E+03  0.54959596797E+02  0.14595175144E+03  0.00000000000E+00 0. -1.
         11    1    4    4    0    0 -0.19911709205E+01  0.10530854404E+02 -0.14514798974E+02  0.18042811460E+02  0.00000000000E+00 0.  1.
</event>
<event>
 8    1  0.7026811E-009  0.1193105E+03  0.7561462E-02  0.1244239E+00
          2   -1    0    0  501    0  0.00000000000E+00  0.00000000000E+00  0.41582588244E+02  0.41582588244E+02  0.00000000000E+00 0. -1.
         -2   -1    0    0    0  501 -0.00000000000E+00 -0.00000000000E+00 -0.38778976948E+03  0.38778976948E+03  0.00000000000E+00 0.  1.
         25    2    1    2    0    0  0.48376921570E+02  0.17698969935E+02 -0.26127793389E+03  0.29422102486E+03  0.12508506168E+03 0.  0.
         23    2    1    2    0    0 -0.48376921570E+02 -0.17698969935E+02 -0.84929247348E+02  0.13515133287E+03  0.91647834906E+02 0.  0.
          5    1    3    3  502    0  0.16337198311E+02  0.70004777364E+02 -0.11689851868E+03  0.13729642738E+03  0.41800000000E+01 0.  1.
         -5    1    3    3    0  502  0.32039723259E+02 -0.52305807429E+02 -0.14437941521E+03  0.15692459748E+03  0.41800000000E+01 0.  1.
        -11    1    4    4    0    0  0.27627023943E+02 -0.44841985430E+01 -0.22632568850E+02  0.35994355964E+02  0.00000000000E+00 0. -1.
         11    1    4    4    0    0 -0.76003945513E+02 -0.13214771392E+02 -0.62296678498E+02  0.99156976902E+02  0.00000000000E+00 0.  1.
</event>
<event>
 8    1  0.7026811E-009  0.1434103E+03  0.7561462E-02  0.1208812E+00
         -2   -1    0    0    0  501 -0.00000000000E+00  0.00000000000E+00  0.29743822394E+02  0.29743822394E+02  0.00000000000E+00 0.  1.
          2   -1    0    0  501    0  0.00000000000E+00 -0.00000000000E+00 -0.84644372335E+03  0.84644372335E+03  0.00000000000E+00 0. -1.
         25    2    1    2    0    0 -0.23017792626E+02 -0.96512611651E+02 -0.59733408752E+03  0.61830430457E+03  0.12509075885E+03 0.  0.
         23    2    1    2    0    0  0.23017792626E+02  0.96512611651E+02 -0.21936581343E+03  0.25788324117E+03  0.92400773750E+02 0.  0.
          5    1    3    3  502    0  0.37556934378E+02 -0.87354917676E+02 -0.41967928677E+03  0.43033659048E+03  0.41800000000E+01 0. -1.
         -5    1    3    3    0  502 -0.60574727004E+02 -0.91576939752E+01 -0.17765480075E+03  0.18796771409E+03  0.41800000000E+01 0. -1.
        -11    1    4    4    0    0  0.51419732052E+02  0.34193902863E+02 -0.14025222054E+03  0.15324456664E+03  0.00000000000E+00 0.  1.
         11    1    4    4    0    0 -0.28401939426E+02  0.62318708787E+02 -0.79113592891E+02  0.10463867453E+03  0.00000000000E+00 0. -1.
</event>
<event>
 8    1  0.7026811E-009  0.1409186E+03  0.7561462E-02  0.1212098E+00
          2   -1    0    0  501    0  0.00000000000E+00  0.00000000000E+00  0.15739545233E+04  0.15739545233E+04  0.00000000000E+00 0. -1.
         -2   -1    0    0    0  501 -0.00000000000E+00 -0.00000000000E+00 -0.21119466978E+02  0.21119466978E+02  0.00000000000E+00 0.  1.
         25    2    1    2    0    0  0.10380074344E+03  0.46853332945E+02  0.12217279564E+04  0.12333840192E+04  0.12508840995E+03 0.  0.
         23    2    1    2    0    0 -0.10380074344E+03 -0.46853332945E+02  0.33110709991E+03  0.36168997103E+03  0.90652602770E+02 0.  0.
          5    1    3    3  502    0 -0.67038048252E+01  0.42914093856E+02  0.62232721707E+03  0.62385510974E+03  0.41800000000E+01 0.  1.
         -5    1    3    3    0  502  0.11050454826E+03  0.39392390892E+01  0.59940073934E+03  0.60952890949E+03  0.41800000000E+01 0.  1.
        -11    1    4    4    0    0 -0.39620096380E+02  0.11024131423E+02  0.20322028674E+03  0.20733974162E+03  0.00000000000E+00 0. -1.
         11    1    4    4    0    0 -0.64180647057E+02 -0.57877464368E+02  0.12788681317E+03  0.15435022942E+03  0.00000000000E+00 0.  1.
</event>
<event>
 8    1  0.7026811E-009  0.1137721E+03  0.7561462E-02  0.1253740E+00
          1   -1    0    0  501    0  0.00000000000E+00  0.00000000000E+00  0.25822971765E+03  0.25822971765E+03  0.00000000000E+00 0. -1.
         -1   -1    0    0    0  501 -0.00000000000E+00 -0.00000000000E+00 -0.64465376512E+02  0.64465376512E+02  0.00000000000E+00 0.  1.
         25    2    1    2    0    0  0.33779687745E+02  0.27770382079E+02  0.42598003224E+02  0.13919061601E+03  0.12508867367E+03 0.  0.
         23    2    1    2    0    0 -0.33779687745E+02 -0.27770382079E+02  0.15116633791E+03  0.18350447815E+03  0.94394758116E+02 0.  0.
          5    1    3    3  502    0 -0.32779849831E+02 -0.22751778517E+02  0.38217078267E+02  0.55409200065E+02  0.41800000000E+01 0.  1.
         -5    1    3    3    0  502  0.66559537576E+02  0.50522160597E+02  0.43809249572E+01  0.83781415941E+02  0.41800000000E+01 0.  1.
        -11    1    4    4    0    0  0.29409130791E+01 -0.56844301457E+02  0.89521182982E+02  0.10608471040E+03  0.00000000000E+00 0. -1.
         11    1    4    4    0    0 -0.36720600824E+02  0.29073919378E+02  0.61645154929E+02  0.77419767754E+02  0.00000000000E+00 0.  1.
</event>
<event>
 8    1  0.7026811E-009  0.9612586E+02  0.7561462E-02  0.1288660E+00
          2   -1    0    0  501    0  0.00000000000E+00  0.00000000000E+00  0.15111309709E+04  0.15111309709E+04  0.00000000000E+00 0. -1.
         -2   -1    0    0    0  501 -0.00000000000E+00 -0.00000000000E+00 -0.13957679489E+02  0.13957679489E+02  0.00000000000E+00 0.  1.
         25    2    1    2    0    0 -0.71521383195E+02 -0.76179757754E+01  0.11549888199E+04  0.11639674358E+04  0.12509067013E+03 0.  0.
         23    2    1    2    0    0  0.71521383195E+02  0.76179757754E+01  0.34218447153E+03  0.36112121458E+03  0.90249527744E+02 0.  0.
          5    1    3    3  502    0 -0.66981648861E+02 -0.42188776255E+02  0.37984367402E+03  0.38802721969E+03  0.41800000000E+01 0. -1.
         -5    1    3    3    0  502 -0.45397343344E+01  0.34570800479E+02  0.77514514587E+03  0.77594021612E+03  0.41800000000E+01 0. -1.
        -11    1    4    4    0    0  0.55921796153E+02 -0.71563546348E+01  0.33302730125E+03  0.33776566444E+03  0.00000000000E+00 0. -1.
         11    1    4    4    0    0  0.15599587042E+02  0.14774330410E+02  0.91571702766E+01  0.23355550142E+02  0.00000000000E+00 0.  1.
</event>
<event>
 8    1  0.7026811E-009  0.1399697E+03  0.7561462E-02  0.1213370E+00
         -2   -1    0    0    0  501 -0.00000000000E+00  0.00000000000E+00  0.25140285512E+02  0.25140285512E+02  0.00000000000E+00 0.  1.
          2   -1    0    0  501    0  0.00000000000E+00 -0.00000000000E+00 -0.10808871463E+04  0.10808871463E+04  0.00000000000E+00 0. -1.
         25    2    1    2    0    0  0.24703825558E+02 -0.12051207419E+03 -0.56432639396E+03  0.59096979020E+03  0.12509026733E+03 0.  0.
         23    2    1    2    0    0 -0.24703825558E+02  0.12051207419E+03 -0.49142046685E+03  0.51505764164E+03  0.93042248183E+02 0.  0.
          5    1    3    3  502    0  0.19982510557E+02 -0.38073157293E+02 -0.43715372192E+03  0.43928318317E+03  0.41800000000E+01 0.  1.
         -5    1    3    3    0  502  0.47213150007E+01 -0.82438916901E+02 -0.12717267205E+03  0.15168660702E+03  0.41800000000E+01 0.  1.
        -11    1    4    4    0    0 -0.59828939430E+02  0.86420073706E+02 -0.34673472248E+03  0.36231602077E+03  0.00000000000E+00 0.  1.
         11    1    4    4    0    0  0.35125113872E+02  0.34092000488E+02 -0.14468574437E+03  0.15274162087E+03  0.00000000000E+00 0. -1.
</event>
<event>
 8    1  0.7026811E-009  0.1104555E+03  0.7561462E-02  0.1259729E+00
          3   -1    0    0  501    0  0.00000000000E+00  0.00000000000E+00  0.45865171768E+03  0.45865171768E+03  0.00000000000E+00 0. -1.
         -3   -1    0    0    0  501 -0.00000000000E+00 -0.00000000000E+00 -0.32671815744E+02  0.32671815744E+02  0.00000000000E+00 0.  1.
         25    2    1    2    0    0 -0.51996640784E+02 -0.24294007986E+02  0.21075155501E+03  0.25171071214E+03  0.12509282629E+03 0.  0.
         23    2    1    2    0    0  0.51996640784E+02  0.24294007986E+02  0.21522834693E+03  0.23961282128E+03  0.88301830821E+02 0.  0.
          5    1    3    3  502    0 -0.35118182631E+02  0.37425563245E+02  0.29260155350E+02  0.59224898705E+02  0.41800000000E+01 0.  1.
         -5    1    3    3    0  502 -0.16878458154E+02 -0.61719571232E+02  0.18149139966E+03  0.19248581343E+03  0.41800000000E+01 0.  1.
        -11    1    4    4    0    0 -0.14960057996E+02  0.34465106015E+02  0.78894938391E+02  0.87384541949E+02  0.00000000000E+00 0.  1.
         11    1    4    4    0    0  0.66956698780E+02 -0.10171098029E+02  0.13633340854E+03  0.15222827934E+03  0.00000000000E+00 0. -1.
</event>
<event>
 8    1  0.7026811E-009  0.1472480E+03  0.7561462E-02  0.1203896E+00
         -1   -1    0    0    0  501 -0.00000000000E+00  0.00000000000E+00  0.94526841645E+02  0.94526841645E+02  0.00000000000E+00 0.  1.
          1   -1    0    0  501    0  0.00000000000E+00 -0.00000000000E+00 -0.37594567736E+03  0.37594567736E+03  0.00000000000E+00 0. -1.
         25    2    1    2    0    0 -0.51646859795E+02 -0.97336896785E+02 -0.14706604004E+02  0.16734697263E+03  0.12508739122E+03 0.  0.
         23    2    1    2    0    0  0.51646859795E+02  0.97336896785E+02 -0.26671223171E+03  0.30312554638E+03  0.92778298758E+02 0.  0.
          5    1    3    3  502    0 -0.13738983736E+02 -0.12097892779E+03 -0.10768358959E+02  0.12230327305E+03  0.41800000000E+01 0.  1.
         -5    1    3    3    0  502 -0.37907876059E+02  0.23642031008E+02 -0.39382450449E+01  0.45043699576E+02  0.41800000000E+01 0.  1.
        -11    1    4    4    0    0  0.67172654724E+02  0.81570789971E+02 -0.14500063693E+03  0.17941890655E+03  0.00000000000E+00 0.  1.
         11    1    4    4    0    0 -0.15525794929E+02  0.15766106815E+02 -0.12171159478E+03  0.12370663983E+03  0.00000000000E+00 0. -1.
</event>
<event>
 8    1  0.7026811E-009  0.9314622E+02  0.7561462E-02  0.1295407E+00
          3   -1    0    0  501    0  0.00000000000E+00  0.00000000000E+00  0.56024999261E+02  0.56024999261E+02  0.00000000000E+00 0. -1.
         -3   -1    0    0    0  501 -0.00000000000E+00 -0.00000000000E+00 -0.37775990822E+03  0.37775990822E+03  0.00000000000E+00 0.  1.
         25    2    1    2    0    0 -0.30191320320E+02 -0.78173770158E+02 -0.10562431781E+03  0.18392047677E+03  0.12509033175E+03 0.  0.
         23    2    1    2    0    0  0.30191320320E+02  0.78173770158E+02 -0.21611059114E+03  0.24986443071E+03  0.93304833567E+02 0.  0.
          5    1    3    3  502    0 -0.28540537687E+02 -0.23177428689E+02 -0.12108742119E+03  0.12661513126E+03  0.41800000000E+01 0. -1.
         -5    1    3    3    0  502 -0.16507826330E+01 -0.54996341469E+02  0.15463103378E+02  0.57305345513E+02  0.41800000000E+01 0. -1.
        -11    1    4    4    0    0  0.41280020263E+02  0.62870824018E+02 -0.21824967440E+03  0.23084562149E+03  0.00000000000E+00 0.  1.
         11    1    4    4    0    0 -0.11088699944E+02  0.15302946140E+02  0.21390832563E+01  0.19018809221E+02  0.00000000000E+00 0. -1.
</event>
<event>
 8    1  0.7026811E-009  0.4646471E+03  0.7561462E-02  0.1023442E+00
          1   -1    0    0  501    0  0.00000000000E+00  0.00000000000E+00  0.95288460912E+03  0.95288460912E+03  0.00000000000E+00 0. -1.
         -1   -1    0    0    0  501 -0.00000000000E+00 -0.00000000000E+00 -0.24188106846E+03  0.24188106846E+03  0.00000000000E+00 0.  1.
         25    2    1    2    0    0 -0.34359585169E+03  0.30362916190E+03  0.24638003381E+03  0.53534960593E+03  0.12508917720E+03 0.  0.
         23    2    1    2    0    0  0.34359585169E+03 -0.30362916190E+03  0.46462350686E+03  0.65941607165E+03  0.93304743588E+02 0.  0.
          5    1    3    3  502    0 -0.17437886205E+03  0.20034324045E+03  0.82651178100E+02  0.27819793522E+03  0.41800000000E+01 0. -1.
         -5    1    3    3    0  502 -0.16921698965E+03  0.10328592145E+03  0.16372885571E+03  0.25715167071E+03  0.41800000000E+01 0. -1.
        -11    1    4    4    0    0  0.30251482010E+02 -0.64354244154E+02  0.97670100948E+02  0.12081419421E+03  0.00000000000E+00 0. -1.
         11    1    4    4    0    0  0.31334436968E+03 -0.23927491775E+03  0.36695340591E+03  0.53860187744E+03  0.00000000000E+00 0.  1.
</event>
<event>
 8    1  0.7026811E-009  0.1022451E+03  0.7561462E-02  0.1275644E+00
         -2   -1    0    0    0  501 -0.00000000000E+00  0.00000000000E+00  0.81230314058E+02  0.81230314058E+02  0.00000000000E+00 0.  1.
          2   -1    0    0  501    0  0.00000000000E+00 -0.00000000000E+00 -0.18902423974E+03  0.18902423974E+03  0.00000000000E+00 0. -1.
         25    2    1    2    0    0 -0.29273891202E+02 -0.29080761480E+02 -0.10097308418E+03  0.16596843736E+03  0.12508919648E+03 0.  0.
         23    2    1    2    0    0  0.29273891202E+02  0.29080761480E+02 -0.68208415049E+01  0.10428611644E+03  0.95532291973E+02 0.  0.
          5    1    3    3  502    0  0.27649407527E+02 -0.41856635663E+02 -0.94566507403E+02  0.10712966166E+03  0.41800000000E+01 0. -1.
         -5    1    3    3    0  502 -0.56923298729E+02  0.12775874183E+02 -0.64065767786E+01  0.58838775696E+02  0.41800000000E+01 0. -1.
        -11    1    4    4    0    0  0.32246147783E+02 -0.25432661701E+02 -0.23352345778E+02  0.47243691446E+02  0.00000000000E+00 0. -1.
         11    1    4    4    0    0 -0.29722565808E+01  0.54513423181E+02  0.16531504273E+02  0.57042424998E+02  0.00000000000E+00 0.  1.
</event>
<event>
 8    1  0.7026811E-009  0.9154321E+02  0.7561462E-02  0.1299157E+00
          2   -1    0    0  501    0  0.00000000000E+00  0.00000000000E+00  0.68915480116E+02  0.68915480116E+02  0.00000000000E+00 0. -1.
         -2   -1    0    0    0  501 -0.00000000000E+00 -0.00000000000E+00 -0.19003111303E+03  0.19003111303E+03  0.00000000000E+00 0.  1.
         25    2    1    2    0    0  0.20201653549E+02  0.11554029292E+02 -0.95384963267E+02  0.15902179065E+03  0.12509211121E+03 0.  0.
         23    2    1    2    0    0 -0.20201653549E+02 -0.11554029292E+02 -0.25730669645E+02  0.99924802490E+02  0.93708571611E+02 0.  0.
          5    1    3    3  502    0  0.41656440099E+02 -0.26154679175E+02 -0.10351622590E+03  0.11468394686E+03  0.41800000000E+01 0. -1.
         -5    1    3    3    0  502 -0.21454786550E+02  0.37708708467E+02  0.81312626279E+01  0.44337843791E+02  0.41800000000E+01 0. -1.
        -11    1    4    4    0    0  0.11677677297E+02  0.33197364227E+02  0.71250889106E+01  0.35905431771E+02  0.00000000000E+00 0. -1.
         11    1    4    4    0    0 -0.31879330846E+02 -0.44751393518E+02 -0.32855758555E+02  0.64019370719E+02  0.00000000000E+00 0.  1.
</event>
<event>
 8    1  0.7026811E-009  0.2435466E+03  0.7561462E-02  0.1117453E+00
          4   -1    0    0  501    0  0.00000000000E+00  0.00000000000E+00  0.15657660212E+03  0.15657660212E+03  0.00000000000E+00 0. -1.
         -4   -1    0    0    0  501 -0.00000000000E+00 -0.00000000000E+00 -0.46445763908E+03  0.46445763908E+03  0.00000000000E+00 0.  1.
         25    2    1    2    0    0  0.17573482059E+03  0.14443199517E+03 -0.26866352633E+03  0.37359126267E+03  0.12508802008E+03 0.  0.
         23    2    1    2    0    0 -0.17573482059E+03 -0.14443199517E+03 -0.39217510631E+02  0.24744297853E+03  0.89144187067E+02 0.  0.
          5    1    3    3  502    0  0.18668620085E+03  0.14379877646E+03 -0.21619081202E+03  0.31982145847E+03  0.41800000000E+01 0. -1.
         -5    1    3    3    0  502 -0.10951380267E+02  0.63321871402E+00 -0.52472714318E+02  0.53769804199E+02  0.41800000000E+01 0. -1.
        -11    1    4    4    0    0 -0.13001843641E+03 -0.14391599096E+03 -0.50368181230E+02  0.20038353211E+03  0.00000000000E+00 0.  1.
         11    1    4    4    0    0 -0.45716384177E+02 -0.51600421198E+00  0.11150670599E+02  0.47059446421E+02  0.00000000000E+00 0. -1.
</event>
<event>
 8    1  0.7026811E-009  0.6871240E+02  0.7561462E-02  0.1364527E+00
          1   -1    0    0  501    0  0.00000000000E+00  0.00000000000E+00  0.83531732775E+02  0.83531732775E+02  0.00000000000E+00 0. -1.
         -1   -1    0    0    0  501 -0.00000000000E+00 -0.00000000000E+00 -0.21499457398E+03  0.21499457398E+03  0.00000000000E+00 0.  1.
         25    2    1    2    0    0  0.28324290591E+02  0.25185297559E+02  0.45183840671E+01  0.13078505248E+03  0.12509096493E+03 0.  0.
         23    2    1    2    0    0 -0.28324290591E+02 -0.25185297559E+02 -0.13598122527E+03  0.16774125428E+03  0.90607229894E+02 0.  0.
          5    1    3    3  502    0  0.40101664226E+01  0.34649792706E+00 -0.58450887039E+02  0.58738233641E+02  0.41800000000E+01 0. -1.
         -5    1    3    3    0  502  0.24314124168E+02  0.24838799632E+02  0.62969271106E+02  0.72046818839E+02  0.41800000000E+01 0. -1.
        -11    1    4    4    0    0 -0.55348188916E+02 -0.37561395357E+02 -0.79335000409E+02  0.10377052918E+03  0.00000000000E+00 0.  1.
         11    1    4    4    0    0  0.27023898326E+02  0.12376097798E+02 -0.56646224864E+02  0.63970725092E+02  0.00000000000E+00 0. -1.
</event>
<event>
 8    1  0.7026811E-009  0.1353177E+03  0.7561462E-02  0.1219772E+00
         -2   -1    0    0    0  501 -0.00000000000E+00  0.00000000000E+00  0.95706038498E+02  0.95706038498E+02  0.00000000000E+00 0.  1.
          2   -1    0    0  501    0  0.00000000000E+00 -0.00000000000E+00 -0.25025457343E+03  0.25025457343E+03  0.00000000000E+00 0. -1.
         25    2    1    2    0    0  0.89050500970E+02 -0.33130003956E+02 -0.20938686512E+02  0.15847097733E+03  0.12508810167E+03 0.  0.
         23    2    1    2    0    0 -0.89050500970E+02  0.33130003956E+02 -0.13360984842E+03  0.18748963459E+03  0.90957037117E+02 0.  0.
          5    1    3    3  502    0  0.10873615582E+03 -0.91376720972E+01 -0.45871179563E+02  0.11844275473E+03  0.41800000000E+01 0.  1.
         -5    1    3    3    0  502 -0.19685654849E+02 -0.23992331859E+02  0.24932493051E+02  0.40028222601E+02  0.41800000000E+01 0.  1.
        -11    1    4    4    0    0 -0.29182225050E+01  0.43292886602E+02 -0.57961464814E+02  0.72403877357E+02  0.00000000000E+00 0.  1.
         11    1    4    4    0    0 -0.86132278465E+02 -0.10162882646E+02 -0.75648383603E+02  0.11508575724E+03  0.00000000000E+00 0. -1.
</event>
<event>
 8    1  0.7026811E-009  0.2503523E+03  0.7561462E-02  0.1113082E+00
         -1   -1    0    0    0  501 -0.00000000000E+00  0.00000000000E+00  0.67259167034E+02  0.67259167034E+02  0.00000000000E+00 0.  1.
          1   -1    0    0  501    0  0.00000000000E+00 -0.00000000000E+00 -0.95498020999E+03  0.95498020999E+03  0.00000000000E+00 0. -1.
         25    2    1    2    0    0 -0.20975789491E+03  0.86709813810E+02 -0.48376433803E+03  0.54880592903E+03  0.12507216596E+03 0.  0.
         23    2    1    2    0    0  0.20975789491E+03 -0.86709813810E+02 -0.40395670493E+03  0.47343344800E+03  0.97166063745E+02 0.  0.
          5    1    3    3  502    0 -0.12231824892E+02  0.54603105064E+02 -0.14282681363E+03  0.15345386184E+03  0.41800000000E+01 0. -1.
         -5    1    3    3    0  502 -0.19752607001E+03  0.32106708745E+02 -0.34093752440E+03  0.39535206718E+03  0.41800000000E+01 0. -1.
        -11    1    4    4    0    0  0.72389385229E+02 -0.78550760909E+02 -0.14392267464E+03  0.17923219970E+03  0.00000000000E+00 0. -1.
         11    1    4    4    0    0  0.13736850968E+03 -0.81590529002E+01 -0.26003403029E+03  0.29420124830E+03  0.00000000000E+00 0.  1.
</event>
<event>
 8    1  0.7026811E-009  0.1597168E+03  0.7561462E-02  0.1189017E+00
          2   -1    0    0  501    0  0.00000000000E+00  0.00000000000E+00  0.22428070865E+03  0.22428070865E+03  0.00000000000E+00 0.  1.
         -2   -1    0    0    0  501 -0.00000000000E+00 -0.00000000000E+00 -0.31703644352E+03  0.31703644352E+03  0.00000000000E+00 0. -1.
         25    2    1    2    0    0  0.11532325074E+03  0.82440590859E+02 -0.24987440927E+03  0.31333838425E+03  0.12509124452E+03 0.  0.
         23    2    1    2    0    0 -0.11532325074E+03 -0.82440590859E+02  0.15711867441E+03  0.22797876792E+03  0.84806471407E+02 0.  0.
          5    1    3    3  502    0  0.60386706949E+01 -0.22507864524E+02 -0.89878382175E+02  0.92944421519E+02  0.41800000000E+01 0. -1.
         -5    1    3    3    0  502  0.10928458004E+03  0.10494845538E+03 -0.15999602710E+03  0.22039396273E+03  0.41800000000E+01 0. -1.
        -11    1    4    4    0    0 -0.24525427157E+02 -0.31994618187E+02  0.83007506536E+00  0.40321721128E+02  0.00000000000E+00 0. -1.
         11    1    4    4    0    0 -0.90797823580E+02 -0.50445972673E+02  0.15628859934E+03  0.18765704679E+03  0.00000000000E+00 0.  1.
</event>
<event>
 8    1  0.7026811E-009  0.8560626E+02  0.7561462E-02  0.1313855E+00
         -1   -1    0    0    0  501 -0.00000000000E+00  0.00000000000E+00  0.48271036900E+02  0.48271036900E+02  0.00000000000E+00 0.  1.
          1   -1    0    0  501    0  0.00000000000E+00 -0.00000000000E+00 -0.28241549443E+03  0.28241549443E+03  0.00000000000E+00 0. -1.
         25    2    1    2    0    0 -0.30918000828E+01 -0.20620561098E+02 -0.77946057111E+02  0.14885614047E+03  0.12509115064E+03 0.  0.
         23    2    1    2    0    0  0.30918000828E+01  0.20620561098E+02 -0.15619840042E+03  0.18183039086E+03  0.90717054507E+02 0.  0.
          5    1    3    3  502    0 -0.17356612181E+02  0.29059728517E+02 -0.89456643127E+02  0.95737574689E+02  0.41800000000E+01 0.  1.
         -5    1    3    3    0  502  0.14264812098E+02 -0.49680289615E+02  0.11510586016E+02  0.53118565783E+02  0.41800000000E+01 0.  1.
        -11    1    4    4    0    0 -0.52407823659E+01  0.52265141759E+02 -0.57650669024E+02  0.77991733420E+02  0.00000000000E+00 0.  1.
         11    1    4    4    0    0  0.83325824487E+01 -0.31644580661E+02 -0.98547731392E+02  0.10383865744E+03  0.00000000000E+00 0. -1.
</event>
<event>
 8    1  0.7026811E-009  0.1433794E+03  0.7561462E-02  0.1208853E+00
         -2   -1    0    0    0  501 -0.00000000000E+00  0.00000000000E+00  0.98829989274E+02  0.98829989274E+02  0.00000000000E+00 0.  1.
          2   -1    0    0  501    0  0.00000000000E+00 -0.00000000000E+00 -0.62328013830E+03  0.62328013830E+03  0.00000000000E+00 0. -1.
         25    2    1    2    0    0 -0.96496907323E+02 -0.25975834455E+02  0.19676812984E+02  0.16131082708E+03  0.12509040277E+03 0.  0.
         23    2    1    2    0    0  0.96496907323E+02  0.25975834455E+02 -0.54412696201E+03  0.56079930050E+03  0.91843930395E+02 0.  0.
          5    1    3    3  502    0 -0.11225293320E+03  0.87989623046E+01  0.37796373039E+02  0.11884519748E+03  0.41800000000E+01 0. -1.
         -5    1    3    3    0  502  0.15756025872E+02 -0.34774796759E+02 -0.18119560056E+02  0.42465629603E+02  0.41800000000E+01 0. -1.
        -11    1    4    4    0    0  0.11270040700E+03  0.33834129120E+02 -0.47685045769E+03  0.49115424159E+03  0.00000000000E+00 0.  1.
         11    1    4    4    0    0 -0.16203499672E+02 -0.78582946655E+01 -0.67276504318E+02  0.69645058905E+02  0.00000000000E+00 0. -1.
</event>
<event>
 8    1  0.7026811E-009  0.3373205E+03  0.7561462E-02  0.1067943E+00
         -2   -1    0    0    0  501 -0.00000000000E+00  0.00000000000E+00  0.19984107879E+03  0.19984107879E+03  0.00000000000E+00 0.  1.
          2   -1    0    0  501    0  0.00000000000E+00 -0.00000000000E+00 -0.62736502564E+03  0.62736502564E+03  0.00000000000E+00 0. -1.
         25    2    1    2    0    0  0.24626283381E+03 -0.22940766547E+03 -0.20165974229E+03  0.41181267465E+03  0.12509902897E+03 0.  0.
         23    2    1    2    0    0 -0.24626283381E+03  0.22940766547E+03 -0.22586420456E+03  0.41539342978E+03  0.90905458084E+02 0.  0.
          5    1    3    3  502    0  0.18235022965E+03 -0.18654460135E+03 -0.20914807473E+03  0.33438134534E+03  0.41800000000E+01 0.  1.
         -5    1    3    3    0  502  0.63912604154E+02 -0.42863064115E+02  0.74883324448E+01  0.77431329304E+02  0.41800000000E+01 0.  1.
        -11    1    4    4    0    0 -0.15828772646E+03  0.14169652781E+03 -0.19268290243E+03  0.28680936392E+03  0.00000000000E+00 0. -1.
         11    1    4    4    0    0 -0.87975107344E+02  0.87711137658E+02 -0.33181302130E+02  0.12858406586E+03  0.00000000000E+00 0.  1.
</event>
<event>
 8    1  0.7026811E-009  0.1010930E+03  0.7561462E-02  0.1278014E+00
         -2   -1    0    0    0  501 -0.00000000000E+00  0.00000000000E+00  0.18858217969E+02  0.18858217969E+02  0.00000000000E+00 0.  1.
          2   -1    0    0  501    0  0.00000000000E+00 -0.00000000000E+00 -0.77872338439E+03  0.77872338439E+03  0.00000000000E+00 0. -1.
         25    2    1    2    0    0  0.92158758467E+01 -0.52291014947E+02 -0.43248243214E+03  0.45332996567E+03  0.12509085120E+03 0.  0.
         23    2    1    2    0    0 -0.92158758467E+01  0.52291014947E+02 -0.32738273427E+03  0.34425163668E+03  0.92252111331E+02 0.  0.
          5    1    3    3  502    0  0.31455978957E+02  0.82757463022E+01 -0.33345640890E+03  0.33506509163E+03  0.41800000000E+01 0.  1.
         -5    1    3    3    0  502 -0.22240103110E+02 -0.60566761249E+02 -0.99026023240E+02  0.11826487405E+03  0.41800000000E+01 0.  1.
        -11    1    4    4    0    0  0.39588133108E+02  0.35353906502E+02 -0.13515148647E+03  0.14520001131E+03  0.00000000000E+00 0.  1.
         11    1    4    4    0    0 -0.48804008955E+02  0.16937108445E+02 -0.19223124780E+03  0.19905162537E+03  0.00000000000E+00 0. -1.
</event>
<event>
 8    1  0.7026811E-009  0.1964726E+03  0.7561462E-02  0.1152750E+00
         -2   -1    0    0    0  501 -0.00000000000E+00  0.00000000000E+00  0.48563649346E+02  0.48563649346E+02  0.00000000000E+00 0.  1.
          2   -1    0    0  501    0  0.00000000000E+00 -0.00000000000E+00 -0.10093873921E+04  0.10093873921E+04  0.00000000000E+00 0. -1.
         25    2    1    2    0    0  0.10736641141E+03  0.14645823858E+03 -0.34445118151E+03  0.40898721282E+03  0.12508541825E+03 0.  0.
         23    2    1    2    0    0 -0.10736641141E+03 -0.14645823858E+03 -0.61637256121E+03  0.64896382859E+03  0.90891994467E+02 0.  0.
          5    1    3    3  502    0  0.62949907049E+02  0.37466764004E+02 -0.24204268570E+03  0.25292011249E+03  0.41800000000E+01 0.  1.
         -5    1    3    3    0  502  0.44416504365E+02  0.10899147458E+03 -0.10240849581E+03  0.15606710033E+03  0.41800000000E+01 0.  1.
        -11    1    4    4    0    0 -0.10024954450E+03 -0.63782374655E+02 -0.32653944310E+03  0.34748549666E+03  0.00000000000E+00 0.  1.
         11    1    4    4    0    0 -0.71168669171E+01 -0.82675863929E+02 -0.28983311811E+03  0.30147833193E+03  0.00000000000E+00 0. -1.
</event>
<event>
 8    1  0.7026811E-009  0.1416663E+03  0.7561462E-02  0.1211104E+00
          2   -1    0    0  501    0  0.00000000000E+00  0.00000000000E+00  0.19672200759E+03  0.19672200759E+03  0.00000000000E+00 0. -1.
         -2   -1    0    0    0  501 -0.00000000000E+00 -0.00000000000E+00 -0.13025671680E+03  0.13025671680E+03  0.00000000000E+00 0.  1.
         25    2    1    2    0    0  0.69688301413E+02 -0.65696411124E+02 -0.34164223244E+02  0.16120366827E+03  0.12508777209E+03 0.  0.
         23    2    1    2    0    0 -0.69688301413E+02  0.65696411124E+02  0.10062951403E+03  0.16577505612E+03  0.90457682638E+02 0.  0.
          5    1    3    3  502    0  0.30753161801E+02  0.33490195499E+02  0.83270445063E+01  0.46412953209E+02  0.41800000000E+01 0.  1.
         -5    1    3    3    0  502  0.38935139612E+02 -0.99186606624E+02 -0.42491267750E+02  0.11479071507E+03  0.41800000000E+01 0.  1.
        -11    1    4    4    0    0 -0.35484576517E+02  0.84753164743E+02  0.62510644518E+02  0.11112981050E+03  0.00000000000E+00 0.  1.
         11    1    4    4    0    0 -0.34203724896E+02 -0.19056753619E+02  0.38118869513E+02  0.54645245614E+02  0.00000000000E+00 0. -1.
</event>
<event>
 8    1  0.7026811E-009  0.1157465E+03  0.7561462E-02  0.1250284E+00
          1   -1    0    0  501    0  0.00000000000E+00  0.00000000000E+00  0.23673785739E+02  0.23673785739E+02  0.00000000000E+00 0. -1.
         -1   -1    0    0    0  501 -0.00000000000E+00 -0.00000000000E+00 -0.14239644456E+04  0.14239644456E+04  0.00000000000E+00 0.  1.
         25    2    1    2    0    0  0.25859912920E+02 -0.11059215749E+03 -0.11150959562E+04  0.11278236238E+04  0.12509106515E+03 0.  0.
         23    2    1    2    0    0 -0.25859912920E+02  0.11059215749E+03 -0.28519470366E+03  0.31981460749E+03  0.89699519360E+02 0.  0.
          5    1    3    3  502    0  0.19360630957E+02 -0.30604778517E+02 -0.63953703879E+02  0.73614096061E+02  0.41800000000E+01 0. -1.
         -5    1    3    3    0  502  0.64992819637E+01 -0.79987378973E+02 -0.10511422523E+04  0.10542095278E+04  0.41800000000E+01 0. -1.
        -11    1    4    4    0    0 -0.16541767709E+01  0.40324739333E+02 -0.21090520022E+03  0.21473198267E+03  0.00000000000E+00 0.  1.
         11    1    4    4    0    0 -0.24205736149E+02  0.70267418156E+02 -0.74289503441E+02  0.10508262482E+03  0.00000000000E+00 0. -1.
</event>
<event>
 8    1  0.7026811E-009  0.2642716E+03  0.7561462E-02  0.1104604E+00
         -1   -1    0    0    0  501 -0.00000000000E+00  0.00000000000E+00  0.17627989162E+03  0.17627989162E+03  0.00000000000E+00 0.  1.
          1   -1    0    0  501    0  0.00000000000E+00 -0.00000000000E+00 -0.45697353386E+03  0.45697353386E+03  0.00000000000E+00 0. -1.
         25    2    1    2    0    0 -0.14318678967E+03 -0.21392321933E+03 -0.89423919184E+02  0.29985053064E+03  0.12509237747E+03 0.  0.
         23    2    1    2    0    0  0.14318678967E+03  0.21392321933E+03 -0.19126972305E+03  0.33340289483E+03  0.91147039563E+02 0.  0.
          5    1    3    3  502    0 -0.12132508986E+02 -0.20167052872E+02  0.29041439867E+02  0.37613633504E+02  0.41800000000E+01 0. -1.
         -5    1    3    3    0  502 -0.13105428069E+03 -0.19375616646E+03 -0.11846535905E+03  0.26223689714E+03  0.41800000000E+01 0. -1.
        -11    1    4    4    0    0  0.76117436052E+02  0.18019848892E+03 -0.15724694133E+03  0.25098199146E+03  0.00000000000E+00 0.  1.
         11    1    4    4    0    0  0.67069353622E+02  0.33724730412E+02 -0.34022781718E+02  0.82420903371E+02  0.00000000000E+00 0. -1.
</event>
<event>
 8    1  0.7026811E-009  0.1021799E+03  0.7561462E-02  0.1275778E+00
          1   -1    0    0  501    0  0.00000000000E+00  0.00000000000E+00  0.50652170719E+03  0.50652170719E+03  0.00000000000E+00 0. -1.
         -1   -1    0    0    0  501 -0.00000000000E+00 -0.00000000000E+00 -0.29592121734E+02  0.29592121734E+02  0.00000000000E+00 0.  1.
         25    2    1    2    0    0 -0.14232390363E+02  0.43387894089E+02  0.33554464064E+03  0.36100239344E+03  0.12508977543E+03 0.  0.
         23    2    1    2    0    0  0.14232390363E+02 -0.43387894089E+02  0.14138494482E+03  0.17511143549E+03  0.92678163171E+02 0.  0.
          5    1    3    3  502    0  0.14284055725E+02  0.68165523955E+02  0.97215407760E+02  0.11966152602E+03  0.41800000000E+01 0. -1.
         -5    1    3    3    0  502 -0.28516446088E+02 -0.24777629867E+02  0.23832923288E+03  0.24134086742E+03  0.41800000000E+01 0. -1.
        -11    1    4    4    0    0  0.42858518936E+02  0.20161277654E+01  0.32877089142E+02  0.54053865791E+02  0.00000000000E+00 0.  1.
         11    1    4    4    0    0 -0.28626128573E+02 -0.45404021854E+02  0.10850785568E+03  0.12105756970E+03  0.00000000000E+00 0. -1.
</event>
<event>
 8    1  0.7026811E-009  0.1268245E+03  0.7561462E-02  0.1232245E+00
         -1   -1    0    0    0  501 -0.00000000000E+00  0.00000000000E+00  0.61719196674E+02  0.61719196674E+02  0.00000000000E+00 0.  1.
          1   -1    0    0  501    0  0.00000000000E+00 -0.00000000000E+00 -0.28882726095E+03  0.28882726095E+03  0.00000000000E+00 0. -1.
         25    2    1    2    0    0 -0.73379720954E+02 -0.20466514775E+00 -0.92853470886E+02  0.17220731063E+03  0.12509582505E+03 0.  0.
         23    2    1    2    0    0  0.73379720954E+02  0.20466514775E+00 -0.13425459339E+03  0.17833914699E+03  0.91629308458E+02 0.  0.
          5    1    3    3  502    0  0.17821268430E+02 -0.36035382507E+02 -0.53512810699E+01  0.40770761704E+02  0.41800000000E+01 0.  1.
         -5    1    3    3    0  502 -0.91200989384E+02  0.35830717359E+02 -0.87502189816E+02  0.13143654893E+03  0.41800000000E+01 0.  1.
        -11    1    4    4    0    0  0.93283568489E+02 -0.80005773002E+01 -0.12123803321E+03  0.15318124586E+03  0.00000000000E+00 0.  1.
         11    1    4    4    0    0 -0.19903847535E+02  0.82052424479E+01 -0.13016560176E+02  0.25157901128E+02  0.00000000000E+00 0. -1.
</event>
<event>
 8    1  0.7026811E-009  0.1106700E+03  0.7561462E-02  0.1259334E+00
          3   -1    0    0  501    0  0.00000000000E+00  0.00000000000E+00  0.12049490367E+03  0.12049490367E+03  0.00000000000E+00 0. -1.
         -3   -1    0    0    0  501 -0.00000000000E+00 -0.00000000000E+00 -0.14523133200E+03  0.14523133200E+03  0.00000000000E+00 0.  1.
         25    2    1    2    0    0 -0.63138118462E+02 -0.18949567052E+02 -0.50804951474E+02  0.15024859856E+03  0.12509192692E+03 0.  0.
         23    2    1    2    0    0  0.63138118462E+02  0.18949567052E+02  0.26068523148E+02  0.11547763711E+03  0.91159249001E+02 0.  0.
          5    1    3    3  502    0 -0.72341359899E+02 -0.62970691582E+02 -0.30511103267E+02  0.10073222013E+03  0.41800000000E+01 0. -1.
         -5    1    3    3    0  502  0.92032414367E+01  0.44021124530E+02 -0.20293848207E+02  0.49516378431E+02  0.41800000000E+01 0. -1.
        -11    1    4    4    0    0  0.18647443841E+02 -0.15223930961E+02 -0.28437929170E+02  0.37258704368E+02  0.00000000000E+00 0.  1.
         11    1    4    4    0    0  0.44490674621E+02  0.34173498012E+02  0.54506452318E+02  0.78218932740E+02  0.00000000000E+00 0. -1.
</event>
<event>
 8    1  0.7026811E-009  0.1229952E+03  0.7561462E-02  0.1238236E+00
         -2   -1    0    0    0  501 -0.00000000000E+00  0.00000000000E+00  0.14884522756E+03  0.14884522756E+03  0.00000000000E+00 0.  1.
          2   -1    0    0  501    0  0.00000000000E+00 -0.00000000000E+00 -0.10481178978E+03  0.10481178978E+03  0.00000000000E+00 0. -1.
         25    2    1    2    0    0  0.12422244853E+02  0.55061412023E+02  0.29917161986E+01  0.13726681349E+03  0.12508859444E+03 0.  0.
         23    2    1    2    0    0 -0.12422244853E+02 -0.55061412023E+02  0.41041721582E+02  0.11639020385E+03  0.93146043287E+02 0.  0.
          5    1    3    3  502    0  0.67385586676E+02  0.45148831598E+02  0.10495423991E+01  0.81226893487E+02  0.41800000000E+01 0.  1.
         -5    1    3    3    0  502 -0.54963341823E+02  0.99125804250E+01  0.19421737996E+01  0.56039920004E+02  0.41800000000E+01 0.  1.
        -11    1    4    4    0    0  0.16532735038E+02  0.21377684354E+02  0.75872978582E+01  0.28069624240E+02  0.00000000000E+00 0.  1.
         11    1    4    4    0    0 -0.28954979892E+02 -0.76439096377E+02  0.33454423724E+02  0.88320579607E+02  0.00000000000E+00 0. -1.
</event>
<event>
 8    1  0.7026811E-009  0.1609086E+03  0.7561462E-02  0.1187675E+00
          2   -1    0    0  501    0  0.00000000000E+00  0.00000000000E+00  0.89361283963E+02  0.89361283963E+02  0.00000000000E+00 0. -1.
         -2   -1    0    0    0  501 -0.00000000000E+00 -0.00000000000E+00 -0.39962539009E+03  0.39962539009E+03  0.00000000000E+00 0.  1.
         25    2    1    2    0    0 -0.68580866585E+02  0.11242218166E+03 -0.58506811765E+02  0.19082040493E+03  0.12508915911E+03 0.  0.
         23    2    1    2    0    0  0.68580866585E+02 -0.11242218166E+03 -0.25175729437E+03  0.29816626912E+03  0.90439518940E+02 0.  0.
          5    1    3    3  502    0  0.19230613729E+02  0.86984790942E+02 -0.19240373403E+02  0.91235052081E+02  0.41800000000E+01 0. -1.
         -5    1    3    3    0  502 -0.87811480314E+02  0.25437390714E+02 -0.39266438362E+02  0.99585352854E+02  0.41800000000E+01 0. -1.
        -11    1    4    4    0    0  0.71317322462E+02 -0.74634350830E+02 -0.10759149035E+03  0.14910525009E+03  0.00000000000E+00 0. -1.
         11    1    4    4    0    0 -0.27364558766E+01 -0.37787830825E+02 -0.14416580401E+03  0.14906101904E+03  0.00000000000E+00 0.  1.
</event>
<event>
 8    1  0.7026811E-009  0.1793544E+03  0.7561462E-02  0.1168429E+00
         -1   -1    0    0    0  501 -0.00000000000E+00  0.00000000000E+00  0.33378584970E+03  0.33378584970E+03  0.00000000000E+00 0.  1.
          1   -1    0    0  501    0  0.00000000000E+00 -0.00000000000E+00 -0.13025474085E+03  0.13025474085E+03  0.00000000000E+00 0. -1.
         25    2    1    2    0    0  0.15292461542E+03 -0.39984918230E+02  0.15381771180E+02  0.20216079021E+03  0.12509058528E+03 0.  0.
         23    2    1    2    0    0 -0.15292461542E+03  0.39984918230E+02  0.18814933767E+03  0.26187980034E+03  0.90532452039E+02 0.  0.
          5    1    3    3  502    0  0.15860276353E+03 -0.61645609638E+02  0.32975930869E+02  0.17337791729E+03  0.41800000000E+01 0.  1.
         -5    1    3    3    0  502 -0.56781481085E+01  0.21660691408E+02 -0.17594159688E+02  0.28782872917E+02  0.41800000000E+01 0.  1.
        -11    1    4    4    0    0 -0.83392665884E+02 -0.39169466247E+01  0.40303782475E+02  0.92704229008E+02  0.00000000000E+00 0. -1.
         11    1    4    4    0    0 -0.69531949538E+02  0.43901864855E+02  0.14784555520E+03  0.16917557133E+03  0.00000000000E+00 0.  1.
</event>
<event>
 8    1  0.7026811E-009  0.1047519E+03  0.7561462E-02  0.1270609E+00
         -1   -1    0    0    0  501 -0.00000000000E+00  0.00000000000E+00  0.52169159424E+02  0.52169159424E+02  0.00000000000E+00 0.  1.
          1   -1    0    0  501    0  0.00000000000E+00 -0.00000000000E+00 -0.23709825266E+03  0.23709825266E+03  0.00000000000E+00 0. -1.
         25    2    1    2    0    0 -0.10700008147E+02 -0.21476671517E+02 -0.11588205023E+03  0.17219446994E+03  0.12508616357E+03 0.  0.
         23    2    1    2    0    0  0.10700008147E+02  0.21476671517E+02 -0.69047043006E+02  0.11707294215E+03  0.91448575940E+02 0.  0.
          5    1    3    3  502    0 -0.60451839593E+02  0.16663189094E+02 -0.43956981167E+02  0.76692733517E+02  0.41800000000E+01 0. -1.
         -5    1    3    3    0  502  0.49751831446E+02 -0.38139860611E+02 -0.71925069066E+02  0.95501736423E+02  0.41800000000E+01 0. -1.
        -11    1    4    4    0    0  0.28342282600E+02 -0.22667047234E+02 -0.57756264521E+02  0.68211920547E+02  0.00000000000E+00 0. -1.
         11    1    4    4    0    0 -0.17642274453E+02  0.44143718751E+02 -0.11290778485E+02  0.48861021601E+02  0.00000000000E+00 0.  1.
</event>
<event>
 8    1  0.7026811E-009  0.9194258E+02  0.7561462E-02  0.1298214E+00
         -2   -1    0    0    0  501 -0.00000000000E+00  0.00000000000E+00  0.40412212692E+02  0.40412212692E+02  0.00000000000E+00 0. -1.
          2   -1    0    0  501    0  0.00000000000E+00 -0.00000000000E+00 -0.50993612716E+03  0.50993612716E+03  0.00000000000E+00 0.  1.
         25    2    1    2    0    0 -0.46544131622E+02 -0.60138212322E+02 -0.35893380750E+03  0.38763672974E+03  0.12508315359E+03 0.  0.
         23    2    1    2    0    0  0.46544131622E+02  0.60138212322E+02 -0.11059010698E+03  0.16271161011E+03  0.91988779396E+02 0.  0.
          5    1    3    3  502    0 -0.28298499066E+01 -0.24851521192E+02 -0.10864340210E+01  0.25382255513E+02  0.41800000000E+01 0. -1.
         -5    1    3    3    0  502 -0.43714281715E+02 -0.35286691130E+02 -0.35784737348E+03  0.36225447423E+03  0.41800000000E+01 0. -1.
        -11    1    4    4    0    0  0.23110369763E+02  0.72219496840E+02 -0.11316587286E+03  0.13622136284E+03  0.00000000000E+00 0.  1.
         11    1    4    4    0    0  0.23433761859E+02 -0.12081284518E+02  0.25757658855E+01  0.26490247269E+02  0.00000000000E+00 0. -1.
</event>
<event>
 8    1  0.7026811E-009  0.1144485E+03  0.7561462E-02  0.1252547E+00
         -1   -1    0    0    0  501 -0.00000000000E+00  0.00000000000E+00  0.63828457117E+02  0.63828457117E+02  0.00000000000E+00 0.  1.
          1   -1    0    0  501    0  0.00000000000E+00 -0.00000000000E+00 -0.25536405918E+03  0.25536405918E+03  0.00000000000E+00 0. -1.
         25    2    1    2    0    0 -0.28975852623E+02  0.59501858879E+02 -0.12060480753E+03  0.18593770016E+03  0.12508891836E+03 0.  0.
         23    2    1    2    0    0  0.28975852623E+02 -0.59501858879E+02 -0.70930794535E+02  0.13325481614E+03  0.91354240001E+02 0.  0.
          5    1    3    3  502    0  0.48150247793E+02  0.31100681928E+02 -0.64202426736E+02  0.86169152124E+02  0.41800000000E+01 0.  1.
         -5    1    3    3    0  502 -0.77126100417E+02  0.28401176951E+02 -0.56402380797E+02  0.99768548037E+02  0.41800000000E+01 0.  1.
        -11    1    4    4    0    0  0.37244256414E+02 -0.67836510224E+02 -0.84985928748E+02  0.11494144092E+03  0.00000000000E+00 0. -1.
         11    1    4    4    0    0 -0.82684037910E+01  0.83346513451E+01  0.14055134213E+02  0.18313375223E+02  0.00000000000E+00 0.  1.
</event>
<event>
 8    1  0.7026811E-009  0.1566376E+03  0.7561462E-02  0.1192546E+00
          1   -1    0    0  501    0  0.00000000000E+00  0.00000000000E+00  0.14413852105E+04  0.14413852105E+04  0.00000000000E+00 0. -1.
         -1   -1    0    0    0  501 -0.00000000000E+00 -0.00000000000E+00 -0.17363618776E+02  0.17363618776E+02  0.00000000000E+00 0.  1.
         25    2    1    2    0    0 -0.10223020675E+03 -0.40976194061E+02  0.84193564930E+03  0.85827343578E+03  0.12509032479E+03 0.  0.
         23    2    1    2    0    0  0.10223020675E+03  0.40976194061E+02  0.58208594242E+03  0.60047539349E+03  0.98064214528E+02 0.  0.
          5    1    3    3  502    0 -0.13157877614E+03 -0.30500047194E+02  0.69393274052E+03  0.70696771353E+03  0.41800000000E+01 0. -1.
         -5    1    3    3    0  502  0.29348569395E+02 -0.10476146867E+02  0.14800290879E+03  0.15130572226E+03  0.41800000000E+01 0. -1.
        -11    1    4    4    0    0  0.51487158492E+02  0.71028831322E+02  0.31752304255E+03  0.32941904152E+03  0.00000000000E+00 0. -1.
         11    1    4    4    0    0  0.50743048258E+02 -0.30052637261E+02  0.26456289987E+03  0.27105635197E+03  0.00000000000E+00 0.  1.
</event>
<event>
 8    1  0.7026811E-009  0.8926776E+02  0.7561462E-02  0.1304635E+00
          1   -1    0    0  501    0  0.00000000000E+00  0.00000000000E+00  0.27467101947E+03  0.27467101947E+03  0.00000000000E+00 0. -1.
         -1   -1    0    0    0  501 -0.00000000000E+00 -0.00000000000E+00 -0.63306897382E+02  0.63306897382E+02  0.00000000000E+00 0.  1.
         25    2    1    2    0    0 -0.15377373567E+02  0.68689299479E+02  0.14586263132E+03  0.20464111355E+03  0.12508954656E+03 0.  0.
         23    2    1    2    0    0  0.15377373567E+02 -0.68689299479E+02  0.65501490771E+02  0.13333680331E+03  0.92377347561E+02 0.  0.
          5    1    3    3  502    0 -0.47435329194E+02  0.52879492053E+02  0.15227915259E+03  0.16808558489E+03  0.41800000000E+01 0. -1.
         -5    1    3    3    0  502  0.32057955627E+02  0.15809807426E+02 -0.64165212708E+01  0.36555528653E+02  0.41800000000E+01 0. -1.
        -11    1    4    4    0    0  0.32329801144E+00 -0.28004469516E+02  0.82210105006E+02  0.86849618304E+02  0.00000000000E+00 0. -1.
         11    1    4    4    0    0  0.15054075556E+02 -0.40684829963E+02 -0.16708614235E+02  0.46487185004E+02  0.00000000000E+00 0.  1.
</event>
<event>
 8    1  0.7026811E-009  0.1511810E+03  0.7561462E-02  0.1199029E+00
          2   -1    0    0  501    0  0.00000000000E+00  0.00000000000E+00  0.18894037025E+04  0.18894037025E+04  0.00000000000E+00 0. -1.
         -2   -1    0    0    0  501 -0.00000000000E+00 -0.00000000000E+00 -0.12924224331E+02  0.12924224331E+02  0.00000000000E+00 0.  1.
         25    2    1    2    0    0  0.29535502885E+02 -0.10267502770E+03  0.12063293543E+04  0.12174943269E+04  0.12508963946E+03 0.  0.
         23    2    1    2    0    0 -0.29535502885E+02  0.10267502770E+03  0.67015012396E+03  0.68483359995E+03  0.92094319820E+02 0.  0.
          5    1    3    3  502    0  0.21252564071E+01  0.28584473689E+02  0.16017382558E+03  0.16277197441E+03  0.41800000000E+01 0. -1.
         -5    1    3    3    0  502  0.27410246478E+02 -0.13125950139E+03  0.10461555287E+04  0.10547223525E+04  0.41800000000E+01 0. -1.
        -11    1    4    4    0    0  0.13333504096E+02 -0.11294388966E+02  0.53664763061E+02  0.56438039902E+02  0.00000000000E+00 0.  1.
         11    1    4    4    0    0 -0.42869006981E+02  0.11396941667E+03  0.61648536089E+03  0.62839556005E+03  0.00000000000E+00 0. -1.
</event>
<event>
 8    1  0.7026811E-009  0.9777196E+02  0.7561462E-02  0.1285052E+00
         -1   -1    0    0    0  501 -0.00000000000E+00  0.00000000000E+00  0.74914276431E+02  0.74914276431E+02  0.00000000000E+00 0.  1.
          1   -1    0    0  501    0  0.00000000000E+00 -0.00000000000E+00 -0.18296790084E+03  0.18296790084E+03  0.00000000000E+00 0. -1.
         25    2    1    2    0    0 -0.25592554410E+01  0.45718740237E+02 -0.53564203483E+02  0.14357769428E+03  0.12509467376E+03 0.  0.
         23    2    1    2    0    0  0.25592554410E+01 -0.45718740237E+02 -0.54489420924E+02  0.11430448298E+03  0.89440845480E+02 0.  0.
          5    1    3    3  502    0 -0.22130135890E+02  0.68527450093E+02 -0.76797000783E+02  0.10536131197E+03  0.41800000000E+01 0. -1.
         -5    1    3    3    0  502  0.19570880449E+02 -0.22808709857E+02  0.23232797300E+02  0.38216382315E+02  0.41800000000E+01 0. -1.
        -11    1    4    4    0    0  0.35313988744E+02  0.17922157281E+01 -0.42638668689E+02  0.55392652092E+02  0.00000000000E+00 0. -1.
         11    1    4    4    0    0 -0.32754733303E+02 -0.47510955965E+02 -0.11850752235E+02  0.58911830891E+02  0.00000000000E+00 0.  1.
</event>
<event>
 8    1  0.7026811E-009  0.1226786E+03  0.7561462E-02  0.1238743E+00
         -2   -1    0    0    0  501 -0.00000000000E+00  0.00000000000E+00  0.55844796052E+02  0.55844796052E+02  0.00000000000E+00 0.  1.
          2   -1    0    0  501    0  0.00000000000E+00 -0.00000000000E+00 -0.39435635220E+03  0.39435635220E+03  0.00000000000E+00 0. -1.
         25    2    1    2    0    0  0.38316468451E+02  0.53096734017E+02 -0.29608837622E+03  0.32803142387E+03  0.12509545792E+03 0.  0.
         23    2    1    2    0    0 -0.38316468451E+02 -0.53096734017E+02 -0.42423179925E+02  0.12216972438E+03  0.94012235605E+02 0.  0.
          5    1    3    3  502    0  0.79393088541E+02  0.54395945793E+02 -0.23796707383E+03  0.25672549942E+03  0.41800000000E+01 0.  1.
         -5    1    3    3    0  502 -0.41076620090E+02 -0.12992117758E+01 -0.58121302399E+02  0.71305924451E+02  0.41800000000E+01 0.  1.
        -11    1    4    4    0    0 -0.69134512020E+01  0.23731850323E+02 -0.28979255496E+02  0.38089286897E+02  0.00000000000E+00 0. -1.
         11    1    4    4    0    0 -0.31403017249E+02 -0.76828584340E+02 -0.13443924430E+02  0.84080437487E+02  0.00000000000E+00 0.  1.
</event>
<event>
 8    1  0.7026811E-009  0.2385523E+03  0.7561462E-02  0.1120761E+00
          4   -1    0    0  501    0  0.00000000000E+00  0.00000000000E+00  0.22909967429E+03  0.22909967429E+03  0.00000000000E+00 0.  1.
         -4   -1    0    0    0  501 -0.00000000000E+00 -0.00000000000E+00 -0.53534898198E+03  0.53534898198E+03  0.00000000000E+00 0. -1.
         25    2    1    2    0    0  0.16159633529E+03  0.16311113423E+03 -0.41828250782E+03  0.49328429008E+03  0.12510202556E+03 0.  0.
         23    2    1    2    0    0 -0.16159633529E+03 -0.16311113423E+03  0.11203320013E+03  0.27116436619E+03  0.90884860503E+02 0.  0.
          5    1    3    3  502    0  0.19505674232E+01  0.29165905180E+01  0.85935715433E+01  0.10180033664E+02  0.41800000000E+01 0. -1.
         -5    1    3    3    0  502  0.15964576786E+03  0.16019454372E+03 -0.42687607937E+03  0.48310425642E+03  0.41800000000E+01 0. -1.
        -11    1    4    4    0    0 -0.88502939058E+02 -0.29751291249E+02  0.57232616062E+02  0.10951475651E+03  0.00000000000E+00 0.  1.
         11    1    4    4    0    0 -0.73093396229E+02 -0.13335984298E+03  0.54800584072E+02  0.16164960967E+03  0.00000000000E+00 0. -1.
</event>
<event>
 8    1  0.7026811E-009  0.1008251E+03  0.7561462E-02  0.1278570E+00
         -2   -1    0    0    0  501 -0.00000000000E+00  0.00000000000E+00  0.21359965729E+03  0.21359965729E+03  0.00000000000E+00 0. -1.
          2   -1    0    0  501    0  0.00000000000E+00 -0.00000000000E+00 -0.67488370421E+02  0.67488370421E+02  0.00000000000E+00 0.  1.
         25    2    1    2    0    0  0.23436677917E+02  0.41339947826E+02  0.99750615853E+02  0.16690032177E+03  0.12508901985E+03 0.  0.
         23    2    1    2    0    0 -0.23436677917E+02 -0.41339947826E+02  0.46360671017E+02  0.11418770594E+03  0.92904527410E+02 0.  0.
          5    1    3    3  502    0  0.27543063691E+02  0.66568126618E+02  0.92334657482E+01  0.72750705348E+02  0.41800000000E+01 0. -1.
         -5    1    3    3    0  502 -0.41063857747E+01 -0.25228178792E+02  0.90517150104E+02  0.94149616421E+02  0.41800000000E+01 0. -1.
        -11    1    4    4    0    0 -0.58751465215E+02 -0.18769293820E+02  0.34312968519E+02  0.70579039835E+02  0.00000000000E+00 0.  1.
         11    1    4    4    0    0  0.35314787298E+02 -0.22570654007E+02  0.12047702499E+02  0.43608666108E+02  0.00000000000E+00 0. -1.
</event>
<event>
 8    1  0.7026811E-009  0.1037541E+03  0.7561462E-02  0.1272594E+00
          1   -1    0    0  501    0  0.00000000000E+00  0.00000000000E+00  0.62141034268E+03  0.62141034268E+03  0.00000000000E+00 0. -1.
         -1   -1    0    0    0  501 -0.00000000000E+00 -0.00000000000E+00 -0.26105459688E+02  0.26105459688E+02  0.00000000000E+00 0.  1.
         25    2    1    2    0    0  0.16641525117E+02  0.17109400344E+02  0.17218226943E+03  0.21415679492E+03  0.12508687767E+03 0.  0.
         23    2    1    2    0    0 -0.16641525117E+02 -0.17109400344E+02  0.42312261356E+03  0.43335900745E+03  0.90540660997E+02 0.  0.
          5    1    3    3  502    0 -0.16625696850E+02 -0.43528527162E+02  0.28872118981E+02  0.54974704430E+02  0.41800000000E+01 0.  1.
         -5    1    3    3    0  502  0.33267221967E+02  0.60637927506E+02  0.14331015045E+03  0.15918209049E+03  0.41800000000E+01 0.  1.
        -11    1    4    4    0    0  0.34512742742E+02  0.64603680880E+01  0.11929683954E+03  0.12435675169E+03  0.00000000000E+00 0.  1.
         11    1    4    4    0    0 -0.51154267858E+02 -0.23569768431E+02  0.30382577402E+03  0.30900225576E+03  0.00000000000E+00 0. -1.
</event>
<event>
 8    1  0.7026811E-009  0.1250074E+03  0.7561462E-02  0.1235058E+00
         -1   -1    0    0    0  501 -0.00000000000E+00  0.00000000000E+00  0.26539882423E+02  0.26539882423E+02  0.00000000000E+00 0.  1.
          1   -1    0    0  501    0  0.00000000000E+00 -0.00000000000E+00 -0.59942921934E+03  0.59942921934E+03  0.00000000000E+00 0. -1.
         25    2    1    2    0    0 -0.52316840681E+02 -0.34401203016E+02 -0.27912168548E+03  0.31221363167E+03  0.12509173397E+03 0.  0.
         23    2    1    2    0    0  0.52316840681E+02  0.34401203016E+02 -0.29376765143E+03  0.31375547009E+03  0.90678373352E+02 0.  0.
          5    1    3    3  502    0 -0.14583264112E+01 -0.74679265370E+02 -0.15412392136E+03  0.17132067863E+03  0.41800000000E+01 0.  1.
         -5    1    3    3    0  502 -0.50858514270E+02  0.40278062354E+02 -0.12499776413E+03  0.14089295304E+03  0.41800000000E+01 0.  1.
        -11    1    4    4    0    0  0.16277168345E+02  0.62443107844E+02 -0.17290315720E+03  0.18455240366E+03  0.00000000000E+00 0.  1.
         11    1    4    4    0    0  0.36039672336E+02 -0.28041904828E+02 -0.12086449423E+03  0.12920306642E+03  0.00000000000E+00 0. -1.
</event>
<event>
 8    1  0.7026811E-009  0.1254103E+03  0.7561462E-02  0.1234429E+00
          2   -1    0    0  501    0  0.00000000000E+00  0.00000000000E+00  0.12384586329E+04  0.12384586329E+04  0.00000000000E+00 0. -1.
         -2   -1    0    0    0  501 -0.00000000000E+00 -0.00000000000E+00 -0.14733775030E+02  0.14733775030E+02  0.00000000000E+00 0.  1.
         25    2    1    2    0    0  0.52981813291E+01 -0.70326852519E+02  0.85004388695E+03  0.86208812600E+03  0.12508952929E+03 0.  0.
         23    2    1    2    0    0 -0.52981813291E+01  0.70326852519E+02  0.37368097088E+03  0.39110428189E+03  0.91384650813E+02 0.  0.
          5    1    3    3  502    0  0.45184899742E+02 -0.82892248886E+02  0.69705472701E+03  0.70343127947E+03  0.41800000000E+01 0.  1.
         -5    1    3    3    0  502 -0.39886718413E+02  0.12565396367E+02  0.15298915994E+03  0.15865684653E+03  0.41800000000E+01 0.  1.
        -11    1    4    4    0    0  0.41657062868E+02  0.22824226698E+02  0.12887656447E+03  0.13735146552E+03  0.00000000000E+00 0.  1.
         11    1    4    4    0    0 -0.46955244197E+02  0.47502625822E+02  0.24480440641E+03  0.25375281637E+03  0.00000000000E+00 0. -1.
</event>
<event>
 8    1  0.7026811E-009  0.1145515E+03  0.7561462E-02  0.1252366E+00
         -1   -1    0    0    0  501 -0.00000000000E+00  0.00000000000E+00  0.15494199667E+02  0.15494199667E+02  0.00000000000E+00 0.  1.
          1   -1    0    0  501    0  0.00000000000E+00 -0.00000000000E+00 -0.12952050875E+04  0.12952050875E+04  0.00000000000E+00 0. -1.
         25    2    1    2    0    0 -0.52376296273E+02  0.70883344882E+02 -0.80124688180E+03  0.81572764406E+03  0.12508916302E+03 0.  0.
         23    2    1    2    0    0  0.52376296273E+02 -0.70883344882E+02 -0.47846400602E+03  0.49497164309E+03  0.91112004771E+02 0.  0.
          5    1    3    3  502    0 -0.51082379601E+02  0.17424083454E+02 -0.11199629292E+03  0.12439312770E+03  0.41800000000E+01 0. -1.
         -5    1    3    3    0  502 -0.12939166719E+01  0.53459261428E+02 -0.68925058887E+03  0.69133451636E+03  0.41800000000E+01 0. -1.
        -11    1    4    4    0    0 -0.22561497610E+02 -0.95732036866E+01 -0.49738006659E+02  0.55448505026E+02  0.00000000000E+00 0.  1.
         11    1    4    4    0    0  0.74937793883E+02 -0.61310141196E+02 -0.42872599936E+03  0.43952313806E+03  0.00000000000E+00 0. -1.
</event>
<event>
 8    1  0.7026811E-009  0.9570387E+02  0.7561462E-02  0.1289599E+00
          1   -1    0    0  501    0  0.00000000000E+00  0.00000000000E+00  0.69844615363E+02  0.69844615363E+02  0.00000000000E+00 0. -1.
         -1   -1    0    0    0  501 -0.00000000000E+00 -0.00000000000E+00 -0.23636640741E+03  0.23636640741E+03  0.00000000000E+00 0.  1.
         25    2    1    2    0    0  0.18075638990E+02  0.44422592931E+01 -0.10849159477E+02  0.12693402842E+03  0.12509228960E+03 0.  0.
         23    2    1    2    0    0 -0.18075638990E+02 -0.44422592931E+01 -0.15567263257E+03  0.17927699434E+03  0.86947166593E+02 0.  0.
          5    1    3    3  502    0  0.53366705074E+02  0.46299300442E+02 -0.13110051446E+02  0.71978998887E+02  0.41800000000E+01 0. -1.
         -5    1    3    3    0  502 -0.35291066084E+02 -0.41857041148E+02  0.22608919696E+01  0.54955029538E+02  0.41800000000E+01 0. -1.
        -11    1    4    4    0    0 -0.41814096090E+02 -0.36397623499E+01 -0.14871854352E+03  0.15452789939E+03  0.00000000000E+00 0.  1.
         11    1    4    4    0    0  0.23738457100E+02 -0.80249694324E+00 -0.69540890468E+01  0.24749094959E+02  0.00000000000E+00 0. -1.
</event>
<event>
 8    1  0.7026811E-009  0.1079064E+03  0.7561462E-02  0.1264497E+00
          2   -1    0    0  501    0  0.00000000000E+00  0.00000000000E+00  0.12469096876E+03  0.12469096876E+03  0.00000000000E+00 0. -1.
         -2   -1    0    0    0  501 -0.00000000000E+00 -0.00000000000E+00 -0.10127968674E+03  0.10127968674E+03  0.00000000000E+00 0.  1.
         25    2    1    2    0    0  0.34332997661E+02 -0.13752023093E+02  0.65260456772E+01  0.13060679769E+03  0.12509066097E+03 0.  0.
         23    2    1    2    0    0 -0.34332997661E+02  0.13752023093E+02  0.16885236337E+02  0.95363857815E+02  0.86262861671E+02 0.  0.
          5    1    3    3  502    0  0.77890408726E+02 -0.11706767951E+02 -0.17285722810E+02  0.80747958491E+02  0.41800000000E+01 0.  1.
         -5    1    3    3    0  502 -0.43557411066E+02 -0.20452551414E+01  0.23811768487E+02  0.49858839194E+02  0.41800000000E+01 0.  1.
        -11    1    4    4    0    0  0.17236870791E+02  0.33688399507E+02  0.10703270194E+01  0.37857146960E+02  0.00000000000E+00 0. -1.
         11    1    4    4    0    0 -0.51569868451E+02 -0.19936376414E+02  0.15814909318E+02  0.57506710855E+02  0.00000000000E+00 0.  1.
</event>
<event>
 8    1  0.7026811E-009  0.1420031E+03  0.7561462E-02  0.1210659E+00
         -1   -1    0    0    0  501 -0.00000000000E+00  0.00000000000E+00  0.42924232616E+02  0.42924232616E+02  0.00000000000E+00 0.  1.
          1   -1    0    0  501    0  0.00000000000E+00 -0.00000000000E+00 -0.79087753275E+03  0.79087753275E+03  0.00000000000E+00 0. -1.
         25    2    1    2    0    0  0.97568308964E+02  0.25441999996E+02 -0.63748084142E+03  0.65741934660E+03  0.12510597040E+03 0.  0.
         23    2    1    2    0    0 -0.97568308964E+02 -0.25441999996E+02 -0.11047245871E+03  0.17638241876E+03  0.93486486923E+02 0.  0.
          5    1    3    3  502    0  0.90815499323E+02 -0.25989700242E+02 -0.52547088196E+03  0.53391014190E+03  0.41800000000E+01 0. -1.
         -5    1    3    3    0  502  0.67528096408E+01  0.51431700238E+02 -0.11200995946E+03  0.12350920470E+03  0.41800000000E+01 0. -1.
        -11    1    4    4    0    0 -0.40250979584E+02  0.35558066844E+02 -0.40080947202E+02  0.67014922246E+02  0.00000000000E+00 0.  1.
         11    1    4    4    0    0 -0.57317329381E+02 -0.61000066840E+02 -0.70391511508E+02  0.10936749652E+03  0.00000000000E+00 0. -1.
</event>
<event>
 8    1  0.7026811E-009  0.1038704E+03  0.7561462E-02  0.1272361E+00
          2   -1    0    0  501    0  0.00000000000E+00  0.00000000000E+00  0.56316052029E+03  0.56316052029E+03  0.00000000000E+00 0. -1.
         -2   -1    0    0    0  501 -0.00000000000E+00 -0.00000000000E+00 -0.26449711820E+02  0.26449711820E+02  0.00000000000E+00 0.  1.
         25    2    1    2    0    0 -0.39888395518E+02 -0.24428741908E+02  0.36389855927E+03  0.38763066161E+03  0.12509005096E+03 0.  0.
         23    2    1    2    0    0  0.39888395518E+02  0.24428741908E+02  0.17281224919E+03  0.20197957050E+03  0.93508426890E+02 0.  0.
          5    1    3    3  502    0 -0.55134066684E+02 -0.50471386663E+02  0.34203496805E+03  0.35013214355E+03  0.41800000000E+01 0. -1.
         -5    1    3    3    0  502  0.15245671166E+02  0.26042644755E+02  0.21863591226E+02  0.37498518056E+02  0.41800000000E+01 0. -1.
        -11    1    4    4    0    0  0.68744584339E+02  0.80049780119E+01  0.96455579767E+02  0.11871636963E+03  0.00000000000E+00 0.  1.
         11    1    4    4    0    0 -0.28856188821E+02  0.16423763896E+02  0.76356669427E+02  0.83263200873E+02  0.00000000000E+00 0. -1.
</event>
<event>
 8    1  0.7026811E-009  0.1866542E+03  0.7561462E-02  0.1161514E+00
          2   -1    0    0  501    0  0.00000000000E+00  0.00000000000E+00  0.57945087052E+03  0.57945087052E+03  0.00000000000E+00 0. -1.
         -2   -1    0    0    0  501 -0.00000000000E+00 -0.00000000000E+00 -0.73647894125E+02  0.73647894125E+02  0.00000000000E+00 0.  1.
         25    2    1    2    0    0  0.11023888615E+03 -0.13630661209E+03  0.26110764951E+03  0.33846545514E+03  0.12509818212E+03 0.  0.
         23    2    1    2    0    0 -0.11023888615E+03  0.13630661209E+03  0.24469532688E+03  0.31463330951E+03  0.91576262946E+02 0.  0.
          5    1    3    3  502    0  0.35703570290E+02 -0.11480798244E+03  0.89030450543E+02  0.14966466279E+03  0.41800000000E+01 0.  1.
         -5    1    3    3    0  502  0.74535315861E+02 -0.21498629644E+02  0.17207719897E+03  0.18880079235E+03  0.41800000000E+01 0.  1.
        -11    1    4    4    0    0 -0.50064957765E+02  0.60272233225E+02  0.18464054499E+03  0.20057759832E+03  0.00000000000E+00 0.  1.
         11    1    4    4    0    0 -0.60173928386E+02  0.76034378860E+02  0.60054781894E+02  0.11405571119E+03  0.00000000000E+00 0. -1.
</event>
<event>
 8    1  0.7026811E-009  0.1470986E+03  0.7561462E-02  0.1204084E+00
         -1   -1    0    0    0  501 -0.00000000000E+00  0.00000000000E+00  0.12402829366E+03  0.12402829366E+03  0.00000000000E+00 0.  1.
          1   -1    0    0  501    0  0.00000000000E+00 -0.00000000000E+00 -0.25696470494E+03  0.25696470494E+03  0.00000000000E+00 0. -1.
         25    2    1    2    0    0  0.85345534306E+02 -0.77006999856E+02 -0.15716181394E+03  0.23143357868E+03  0.12509087627E+03 0.  0.
         23    2    1    2    0    0 -0.85345534306E+02  0.77006999856E+02  0.24225402669E+02  0.14955941992E+03  0.92559233465E+02 0.  0.
          5    1    3    3  502    0  0.12017224561E+02  0.23621782827E+02 -0.81204128971E+02  0.85521840906E+02  0.41800000000E+01 0.  1.
         -5    1    3    3    0  502  0.73328309745E+02 -0.10062878268E+03 -0.75957684971E+02  0.14591173777E+03  0.41800000000E+01 0.  1.
        -11    1    4    4    0    0 -0.57038560763E+02 -0.37982516333E+01  0.28413914278E+02  0.63837094655E+02  0.00000000000E+00 0.  1.
         11    1    4    4    0    0 -0.28306973543E+02  0.80805251489E+02 -0.41885116090E+01  0.85722325265E+02  0.00000000000E+00 0. -1.
</event>
<event>
 8    1  0.7026811E-009  0.9682402E+02  0.7561462E-02  0.1287120E+00
         -1   -1    0    0    0  501 -0.00000000000E+00  0.00000000000E+00  0.11549778770E+02  0.11549778770E+02  0.00000000000E+00 0.  1.
          1   -1    0    0  501    0  0.00000000000E+00 -0.00000000000E+00 -0.11534938881E+04  0.11534938881E+04  0.00000000000E+00 0. -1.
         25    2    1    2    0    0 -0.18710877693E+02 -0.34362593195E+02 -0.61880105581E+03  0.63252858218E+03  0.12508707303E+03 0.  0.
         23    2    1    2    0    0  0.18710877693E+02  0.34362593195E+02 -0.52314305348E+03  0.53251508465E+03  0.91448216099E+02 0.  0.
          5    1    3    3  502    0  0.13468729438E+02  0.23851077738E+02 -0.33629953155E+02  0.43574381592E+02  0.41800000000E+01 0.  1.
         -5    1    3    3    0  502 -0.32179607130E+02 -0.58213670933E+02 -0.58517110266E+03  0.58895420058E+03  0.41800000000E+01 0.  1.
        -11    1    4    4    0    0  0.12853008568E+00  0.64168491040E+02 -0.35288489471E+03  0.35867166138E+03  0.00000000000E+00 0. -1.
         11    1    4    4    0    0  0.18582347607E+02 -0.29805897846E+02 -0.17025815876E+03  0.17384342327E+03  0.00000000000E+00 0.  1.
</event>
<event>
 8    1  0.7026811E-009  0.6713572E+02  0.7561462E-02  0.1370113E+00
         -2   -1    0    0    0  501 -0.00000000000E+00  0.00000000000E+00  0.93648622206E+02  0.93648622206E+02  0.00000000000E+00 0.  1.
          2   -1    0    0  501    0  0.00000000000E+00 -0.00000000000E+00 -0.15074805681E+03  0.15074805681E+03  0.00000000000E+00 0. -1.
         25    2    1    2    0    0  0.26539927432E+02  0.24076295580E+02 -0.70801089071E+02  0.14813087826E+03  0.12508368048E+03 0.  0.
         23    2    1    2    0    0 -0.26539927432E+02 -0.24076295580E+02  0.13701654469E+02  0.96265800757E+02  0.88291184742E+02 0.  0.
          5    1    3    3  502    0 -0.18541368590E+02  0.36064350997E+02  0.20415952485E+02  0.45592798531E+02  0.41800000000E+01 0. -1.
         -5    1    3    3    0  502  0.45081296022E+02 -0.11988055417E+02 -0.91217041556E+02  0.10253807973E+03  0.41800000000E+01 0. -1.
        -11    1    4    4    0    0 -0.30883076719E+02 -0.10824946668E+02  0.48653170558E+02  0.58635099585E+02  0.00000000000E+00 0.  1.
         11    1    4    4    0    0  0.43431492870E+01 -0.13251348912E+02 -0.34951516089E+02  0.37630701172E+02  0.00000000000E+00 0. -1.
</event>
<event>
 8    1  0.7026811E-009  0.1082220E+03  0.7561462E-02  0.1263898E+00
          1   -1    0    0  501    0  0.00000000000E+00  0.00000000000E+00  0.47393565334E+02  0.47393565334E+02  0.00000000000E+00 0. -1.
         -1   -1    0    0    0  501 -0.00000000000E+00 -0.00000000000E+00 -0.45865644430E+03  0.45865644430E+03  0.00000000000E+00 0.  1.
         25    2    1    2    0    0  0.85502745008E+02  0.70251276165E+01 -0.13664244331E+03  0.20415414705E+03  0.12509071356E+03 0.  0.
         23    2    1    2    0    0 -0.85502745008E+02 -0.70251276165E+01 -0.27462043565E+03  0.30189586258E+03  0.91458495214E+02 0.  0.
          5    1    3    3  502    0  0.80990897534E+02  0.17759158323E+02 -0.18103388898E+02  0.84971279132E+02  0.41800000000E+01 0. -1.
         -5    1    3    3    0  502  0.45118474740E+01 -0.10734030707E+02 -0.11853905441E+03  0.11918286791E+03  0.41800000000E+01 0. -1.
        -11    1    4    4    0    0  0.16122495004E+02  0.85358514360E+01 -0.77007508239E+02  0.79138814308E+02  0.00000000000E+00 0.  1.
         11    1    4    4    0    0 -0.10162524001E+03 -0.15560979052E+02 -0.19761292741E+03  0.22275704828E+03  0.00000000000E+00 0. -1.
</event>
<event>
 8    1  0.7026811E-009  0.1027391E+03  0.7561462E-02  0.1274639E+00
          2   -1    0    0  501    0  0.00000000000E+00  0.00000000000E+00  0.41495588995E+02  0.41495588995E+02  0.00000000000E+00 0. -1.
         -2   -1    0    0    0  501 -0.00000000000E+00 -0.00000000000E+00 -0.43874935610E+03  0.43874935610E+03  0.00000000000E+00 0.  1.
         25    2    1    2    0    0 -0.52094714276E+02 -0.46263137138E+02 -0.16028852760E+03  0.21492982382E+03  0.12509308523E+03 0.  0.
         23    2    1    2    0    0  0.52094714276E+02  0.46263137138E+02 -0.23696523950E+03  0.26531512128E+03  0.96878541127E+02 0.  0.
          5    1    3    3  502    0 -0.68375836700E+02 -0.36662250775E+02 -0.17443318477E+03  0.19095492668E+03  0.41800000000E+01 0.  1.
         -5    1    3    3    0  502  0.16281122423E+02 -0.96008863629E+01  0.14144657167E+02  0.23974897136E+02  0.41800000000E+01 0.  1.
        -11    1    4    4    0    0  0.66293174564E+02  0.59450124873E+02 -0.22631681740E+03  0.24320444934E+03  0.00000000000E+00 0.  1.
         11    1    4    4    0    0 -0.14198460288E+02 -0.13186987735E+02 -0.10648422102E+02  0.22110671933E+02  0.00000000000E+00 0. -1.
</event>
<event>
 8    1  0.7026811E-009  0.1450083E+03  0.7561462E-02  0.1206744E+00
         -2   -1    0    0    0  501 -0.00000000000E+00  0.00000000000E+00  0.64433962708E+02  0.64433962708E+02  0.00000000000E+00 0.  1.
          2   -1    0    0  501    0  0.00000000000E+00 -0.00000000000E+00 -0.35803382250E+03  0.35803382250E+03  0.00000000000E+00 0. -1.
         25    2    1    2    0    0 -0.73801459143E+02  0.76951481274E+02 -0.14258056793E+03  0.21759311119E+03  0.12509739342E+03 0.  0.
         23    2    1    2    0    0  0.73801459143E+02 -0.76951481274E+02 -0.15101929186E+03  0.20487467402E+03  0.88309793911E+02 0.  0.
          5    1    3    3  502    0 -0.10913662935E+03  0.52923738420E+02 -0.10246900331E+03  0.15883669284E+03  0.41800000000E+01 0. -1.
         -5    1    3    3    0  502  0.35335170204E+02  0.24027742854E+02 -0.40111564627E+02  0.58756418346E+02  0.41800000000E+01 0. -1.
        -11    1    4    4    0    0 -0.46017145976E+01 -0.37807435711E+02 -0.91030484817E+02  0.98676882492E+02  0.00000000000E+00 0. -1.
         11    1    4    4    0    0  0.78403173741E+02 -0.39144045563E+02 -0.59988807038E+02  0.10619779153E+03  0.00000000000E+00 0.  1.
</event>
<event>
 8    1  0.7026811E-009  0.2077970E+03  0.7561462E-02  0.1143322E+00
          1   -1    0    0  501    0  0.00000000000E+00  0.00000000000E+00  0.49080451427E+03  0.49080451427E+03  0.00000000000E+00 0. -1.
         -1   -1    0    0    0  501 -0.00000000000E+00 -0.00000000000E+00 -0.10043685077E+03  0.10043685077E+03  0.00000000000E+00 0.  1.
         25    2    1    2    0    0 -0.51407457193E+02  0.17102665541E+03  0.10366741434E+03  0.24143420470E+03  0.12510275332E+03 0.  0.
         23    2    1    2    0    0  0.51407457193E+02 -0.17102665541E+03  0.28670024916E+03  0.34980716034E+03  0.90967978139E+02 0.  0.
          5    1    3    3  502    0  0.41533627768E+02  0.44763863310E+02  0.28815537116E+02  0.67650966537E+02  0.41800000000E+01 0. -1.
         -5    1    3    3    0  502 -0.92941084962E+02  0.12626279210E+03  0.74851877221E+02  0.17378323816E+03  0.41800000000E+01 0. -1.
        -11    1    4    4    0    0 -0.22861954961E+02 -0.26068453079E+02  0.30296984637E+02  0.46044983534E+02  0.00000000000E+00 0.  1.
         11    1    4    4    0    0  0.74269412154E+02 -0.14495820233E+03  0.25640326452E+03  0.30376217681E+03  0.00000000000E+00 0. -1.
</event>
<event>
 8    1  0.7026811E-009  0.1163678E+03  0.7561462E-02  0.1249212E+00
          3   -1    0    0  501    0  0.00000000000E+00  0.00000000000E+00  0.75964252721E+02  0.75964252721E+02  0.00000000000E+00 0. -1.
         -3   -1    0    0    0  501 -0.00000000000E+00 -0.00000000000E+00 -0.29523651711E+03  0.29523651711E+03  0.00000000000E+00 0.  1.
         25    2    1    2    0    0  0.57067031034E+02  0.44880467091E+02 -0.20892557597E+03  0.25409818509E+03  0.12508033026E+03 0.  0.
         23    2    1    2    0    0 -0.57067031034E+02 -0.44880467091E+02 -0.10346688415E+02  0.11710258473E+03  0.91296544472E+02 0.  0.
          5    1    3    3  502    0  0.37846616981E+02  0.87245096753E+02 -0.11570476175E+03  0.14983036280E+03  0.41800000000E+01 0. -1.
         -5    1    3    3    0  502  0.19220414052E+02 -0.42364629663E+02 -0.93220814222E+02  0.10426782230E+03  0.41800000000E+01 0. -1.
        -11    1    4    4    0    0 -0.39333365714E+02  0.33226665319E+01 -0.41303843568E+02  0.57132838760E+02  0.00000000000E+00 0.  1.
         11    1    4    4    0    0 -0.17733665319E+02 -0.48203133622E+02  0.30957155154E+02  0.59969745972E+02  0.00000000000E+00 0. -1.
</event>
<event>
 8    1  0.7026811E-009  0.2195973E+03  0.7561462E-02  0.1134184E+00
         -1   -1    0    0    0  501 -0.00000000000E+00  0.00000000000E+00  0.68626659251E+02  0.68626659251E+02  0.00000000000E+00 0.  1.
          1   -1    0    0  501    0  0.00000000000E+00 -0.00000000000E+00 -0.85973877339E+03  0.85973877339E+03  0.00000000000E+00 0. -1.
         25    2    1    2    0    0  0.21283142476E+03  0.22919001990E+02 -0.34255793297E+03  0.42286696345E+03  0.12509210734E+03 0.  0.
         23    2    1    2    0    0 -0.21283142476E+03 -0.22919001990E+02 -0.44855418116E+03  0.50549846918E+03  0.92224470132E+02 0.  0.
          5    1    3    3  502    0  0.91033389652E+02  0.17168686887E+02 -0.48818860178E+02  0.10479787856E+03  0.41800000000E+01 0. -1.
         -5    1    3    3    0  502  0.12179803511E+03  0.57503151035E+01 -0.29373907279E+03  0.31806908490E+03  0.41800000000E+01 0. -1.
        -11    1    4    4    0    0 -0.50321791690E+02  0.23369254332E+02 -0.17862177306E+03  0.18704048380E+03  0.00000000000E+00 0. -1.
         11    1    4    4    0    0 -0.16250963307E+03 -0.46288256323E+02 -0.26993240810E+03  0.31845798539E+03  0.00000000000E+00 0.  1.
</event>
<event>
 8    1  0.7026811E-009  0.1141247E+03  0.7561462E-02  0.1253117E+00
         -1   -1    0    0    0  501 -0.00000000000E+00  0.00000000000E+00  0.84084981255E+01  0.84084981255E+01  0.00000000000E+00 0.  1.
          1   -1    0    0  501    0  0.00000000000E+00 -0.00000000000E+00 -0.16785780581E+04  0.16785780581E+04  0.00000000000E+00 0. -1.
         25    2    1    2    0    0 -0.26188430977E+02  0.27820815211E+02 -0.11479525920E+04  0.11553795696E+04  0.12508782799E+03 0.  0.
         23    2    1    2    0    0  0.26188430977E+02 -0.27820815211E+02 -0.52221696794E+03  0.53160698659E+03  0.91845494741E+02 0.  0.
          5    1    3    3  502    0  0.34385227915E+02  0.53196021921E+02 -0.47646035843E+03  0.48067047569E+03  0.41800000000E+01 0.  1.
         -5    1    3    3    0  502 -0.60573658892E+02 -0.25375206710E+02 -0.67149223359E+03  0.67470909393E+03  0.41800000000E+01 0.  1.
        -11    1    4    4    0    0 -0.26775470498E+02  0.15146055131E+02 -0.13837614030E+03  0.14175431214E+03  0.00000000000E+00 0.  1.
         11    1    4    4    0    0  0.52963901474E+02 -0.42966870341E+02 -0.38384082765E+03  0.38985267445E+03  0.00000000000E+00 0. -1.
</event>
<event>
 8    1  0.7026811E-009  0.8871316E+02  0.7561462E-02  0.1305998E+00
          2   -1    0    0  501    0  0.00000000000E+00  0.00000000000E+00  0.49502755477E+02  0.49502755477E+02  0.00000000000E+00 0. -1.
         -2   -1    0    0    0  501 -0.00000000000E+00 -0.00000000000E+00 -0.26167810311E+03  0.26167810311E+03  0.00000000000E+00 0.  1.
         25    2    1    2    0    0  0.18182121819E+02 -0.27486210876E+02 -0.14672367828E+03  0.19560574596E+03  0.12509072205E+03 0.  0.
         23    2    1    2    0    0 -0.18182121819E+02  0.27486210876E+02 -0.65451669347E+02  0.11557511262E+03  0.89373398141E+02 0.  0.
          5    1    3    3  502    0 -0.14272680351E+02 -0.61664223980E+02 -0.13133145019E+03  0.14584789382E+03  0.41800000000E+01 0.  1.
         -5    1    3    3    0  502  0.32454802170E+02  0.34178013103E+02 -0.15392228090E+02  0.49757852136E+02  0.41800000000E+01 0.  1.
        -11    1    4    4    0    0  0.13400630509E+02 -0.10681195548E+02  0.13875356571E+02  0.22049724632E+02  0.00000000000E+00 0. -1.
         11    1    4    4    0    0 -0.31582752328E+02  0.38167406424E+02 -0.79327025918E+02  0.93525387990E+02  0.00000000000E+00 0.  1.
</event>
<event>
 8    1  0.7026811E-009  0.1337154E+03  0.7561462E-02  0.1222045E+00
         -1   -1    0    0    0  501 -0.00000000000E+00  0.00000000000E+00  0.11731679439E+03  0.11731679439E+03  0.00000000000E+00 0.  1.
          1   -1    0    0  501    0  0.00000000000E+00 -0.00000000000E+00 -0.25080528641E+03  0.25080528641E+03  0.00000000000E+00 0. -1.
         25    2    1    2    0    0 -0.57781077655E+02 -0.63790981786E+02 -0.17952317791E+03  0.23512281354E+03  0.12508486617E+03 0.  0.
         23    2    1    2    0    0  0.57781077655E+02  0.63790981786E+02  0.46034685886E+02  0.13299926726E+03  0.90341964201E+02 0.  0.
          5    1    3    3  502    0  0.25631437649E+02 -0.52272006819E+02 -0.11497627835E+03  0.12894320562E+03  0.41800000000E+01 0.  1.
         -5    1    3    3    0  502 -0.83412515305E+02 -0.11518974967E+02 -0.64546899565E+02  0.10617960792E+03  0.41800000000E+01 0.  1.
        -11    1    4    4    0    0  0.82246233514E+02  0.54079518312E+02  0.35270770661E+02  0.10456129538E+03  0.00000000000E+00 0. -1.
         11    1    4    4    0    0 -0.24465155859E+02  0.97114634738E+01  0.10763915226E+02  0.28437971886E+02  0.00000000000E+00 0.  1.
</event>
<event>
 8    1  0.7026811E-009  0.1295851E+03  0.7561462E-02  0.1228073E+00
         -2   -1    0    0    0  501 -0.00000000000E+00  0.00000000000E+00  0.41731385574E+02  0.41731385574E+02  0.00000000000E+00 0.  1.
          2   -1    0    0  501    0  0.00000000000E+00 -0.00000000000E+00 -0.49377418888E+03  0.49377418888E+03  0.00000000000E+00 0. -1.
         25    2    1    2    0    0  0.58231174133E+02 -0.72860505184E+02 -0.23605344900E+03  0.28296185416E+03  0.12508659907E+03 0.  0.
         23    2    1    2    0    0 -0.58231174133E+02  0.72860505184E+02 -0.21598935430E+03  0.25254372029E+03  0.91800907571E+02 0.  0.
          5    1    3    3  502    0  0.48562855874E+01  0.33970153768E+02 -0.35805183124E+02  0.49769854282E+02  0.41800000000E+01 0.  1.
         -5    1    3    3    0  502  0.53374888546E+02 -0.10683065895E+03 -0.20024826588E+03  0.23319199988E+03  0.41800000000E+01 0.  1.
        -11    1    4    4    0    0 -0.20809133584E+02  0.63084163191E+02 -0.19990814963E+03  0.21065588047E+03  0.00000000000E+00 0. -1.
         11    1    4    4    0    0 -0.37422040549E+02  0.97763419928E+01 -0.16081204670E+02  0.41887839826E+02  0.00000000000E+00 0.  1.
</event>
<event>
 8    1  0.7026811E-009  0.1082726E+03  0.7561462E-02  0.1263803E+00
         -1   -1    0    0    0  501 -0.00000000000E+00  0.00000000000E+00  0.15784204381E+02  0.15784204381E+02  0.00000000000E+00 0.  1.
          1   -1    0    0  501    0  0.00000000000E+00 -0.00000000000E+00 -0.77110470746E+03  0.77110470746E+03  0.00000000000E+00 0. -1.
         25    2    1    2    0    0 -0.30040864848E+01 -0.21160441198E+02 -0.43829300419E+03  0.45629540647E+03  0.12509177285E+03 0.  0.
         23    2    1    2    0    0  0.30040864848E+01  0.21160441198E+02 -0.31702749888E+03  0.33059350537E+03  0.91262489204E+02 0.  0.
          5    1    3    3  502    0  0.45743410204E+02 -0.50821655205E+02 -0.20747042517E+03  0.21848741367E+03  0.41800000000E+01 0. -1.
         -5    1    3    3    0  502 -0.48747496688E+02  0.29661214007E+02 -0.23082257903E+03  0.23780799280E+03  0.41800000000E+01 0. -1.
        -11    1    4    4    0    0 -0.23605627776E+02 -0.26962744046E+02 -0.16710124990E+03  0.17090068153E+03  0.00000000000E+00 0. -1.
         11    1    4    4    0    0  0.26609714260E+02  0.48123185244E+02 -0.14992624898E+03  0.15969282384E+03  0.00000000000E+00 0.  1.
</event>
<event>
 8    1  0.7026811E-009  0.1088849E+03  0.7561462E-02  0.1262649E+00
         -1   -1    0    0    0  501 -0.00000000000E+00  0.00000000000E+00  0.76708271570E+02  0.76708271570E+02  0.00000000000E+00 0.  1.
          1   -1    0    0  501    0  0.00000000000E+00 -0.00000000000E+00 -0.22920024253E+03  0.22920024253E+03  0.00000000000E+00 0. -1.
         25    2    1    2    0    0  0.57859335865E+02 -0.34899690633E+02 -0.43019080096E+02  0.14853650433E+03  0.12508701256E+03 0.  0.
         23    2    1    2    0    0 -0.57859335865E+02  0.34899690633E+02 -0.10947289087E+03  0.15737200978E+03  0.90641847255E+02 0.  0.
          5    1    3    3  502    0 -0.11914931713E+02 -0.63718031917E+02 -0.31018155466E+02  0.71982994920E+02  0.41800000000E+01 0. -1.
         -5    1    3    3    0  502  0.69774267577E+02  0.28818341285E+02 -0.12000924630E+02  0.76553509406E+02  0.41800000000E+01 0. -1.
        -11    1    4    4    0    0 -0.90099854014E+01  0.26046261550E+02  0.89390886242E+01  0.28974038087E+02  0.00000000000E+00 0.  1.
         11    1    4    4    0    0 -0.48849350463E+02  0.88534290826E+01 -0.11841197949E+03  0.12839797169E+03  0.00000000000E+00 0. -1.
</event>
<event>
 8    1  0.7026811E-009  0.9042979E+02  0.7561462E-02  0.1301814E+00
          2   -1    0    0  501    0  0.00000000000E+00  0.00000000000E+00  0.87246802420E+03  0.87246802420E+03  0.00000000000E+00 0. -1.
         -2   -1    0    0    0  501 -0.00000000000E+00 -0.00000000000E+00 -0.21928555742E+02  0.21928555742E+02  0.00000000000E+00 0.  1.
         25    2    1    2    0    0 -0.46450607092E+02  0.22570807384E+02  0.69341395255E+03  0.70649677868E+03  0.12509072084E+03 0.  0.
         23    2    1    2    0    0  0.46450607092E+02 -0.22570807384E+02  0.15712551590E+03  0.18789980126E+03  0.89167299621E+02 0.  0.
          5    1    3    3  502    0  0.33208681738E+02  0.24382723786E+01  0.41033861465E+03  0.41170865037E+03  0.41800000000E+01 0. -1.
         -5    1    3    3    0  502 -0.79659288830E+02  0.20132535006E+02  0.28307533790E+03  0.29478812831E+03  0.41800000000E+01 0. -1.
        -11    1    4    4    0    0  0.22068842165E+02  0.10094972660E+02  0.14256455397E+03  0.14461533223E+03  0.00000000000E+00 0. -1.
         11    1    4    4    0    0  0.24381764927E+02 -0.32665780044E+02  0.14560961930E+02  0.43284469030E+02  0.00000000000E+00 0.  1.
</event>
<event>
 8    1  0.7026811E-009  0.1129675E+03  0.7561462E-02  0.1255171E+00
          2   -1    0    0  501    0  0.00000000000E+00  0.00000000000E+00  0.81084180265E+03  0.81084180265E+03  0.00000000000E+00 0.  1.
         -2   -1    0    0    0  501 -0.00000000000E+00 -0.00000000000E+00 -0.16233842654E+02  0.16233842654E+02  0.00000000000E+00 0. -1.
         25    2    1    2    0    0 -0.53540159254E+01  0.36368954736E+02  0.45016188015E+03  0.46866184964E+03  0.12508734795E+03 0.  0.
         23    2    1    2    0    0  0.53540159254E+01 -0.36368954736E+02  0.34444607985E+03  0.35841379566E+03  0.92010763733E+02 0.  0.
          5    1    3    3  502    0  0.58949746882E+02  0.25600494743E+02  0.20030135625E+03  0.21040095937E+03  0.41800000000E+01 0. -1.
         -5    1    3    3    0  502 -0.64303762807E+02  0.10768459993E+02  0.24986052390E+03  0.25826089028E+03  0.41800000000E+01 0. -1.
        -11    1    4    4    0    0  0.31195143350E+02 -0.55757931777E+02  0.18483405394E+03  0.19556510788E+03  0.00000000000E+00 0. -1.
         11    1    4    4    0    0 -0.25841127425E+02  0.19388977041E+02  0.15961202591E+03  0.16284868778E+03  0.00000000000E+00 0.  1.
</event>
<event>
 8    1  0.7026811E-009  0.1015376E+03  0.7561462E-02  0.1277095E+00
         -1   -1    0    0    0  501 -0.00000000000E+00  0.00000000000E+00  0.84472309315E+02  0.84472309315E+02  0.00000000000E+00 0.  1.
          1   -1    0    0  501    0  0.00000000000E+00 -0.00000000000E+00 -0.16084764459E+03  0.16084764459E+03  0.00000000000E+00 0. -1.
         25    2    1    2    0    0 -0.19222299396E+02 -0.40336821852E+02 -0.66674905945E+02  0.14862631062E+03  0.12509069164E+03 0.  0.
         23    2    1    2    0    0  0.19222299396E+02  0.40336821852E+02 -0.97004293282E+01  0.96693643280E+02  0.85199802409E+02 0.  0.
          5    1    3    3  502    0  0.20636022648E+02 -0.74616305317E+02 -0.25164229131E+02  0.81511651178E+02  0.41800000000E+01 0. -1.
         -5    1    3    3    0  502 -0.39858322044E+02  0.34279483466E+02 -0.41510676814E+02  0.67114659445E+02  0.41800000000E+01 0. -1.
        -11    1    4    4    0    0 -0.19337889770E+02  0.24275300179E+02 -0.35845491894E+02  0.47414591306E+02  0.00000000000E+00 0. -1.
         11    1    4    4    0    0  0.38560189166E+02  0.16061521672E+02  0.26145062566E+02  0.49279051975E+02  0.00000000000E+00 0.  1.
</event>
<event>
 8    1  0.7026811E-009  0.8798714E+02  0.7561462E-02  0.1307801E+00
          1   -1    0    0  501    0  0.00000000000E+00  0.00000000000E+00  0.22876249634E+03  0.22876249634E+03  0.00000000000E+00 0. -1.
         -1   -1    0    0    0  501 -0.00000000000E+00 -0.00000000000E+00 -0.55665400440E+02  0.55665400440E+02  0.00000000000E+00 0.  1.
         25    2    1    2    0    0 -0.41040737751E+02  0.10583302920E+02  0.87797123354E+02  0.15859492978E+03  0.12509064084E+03 0.  0.
         23    2    1    2    0    0  0.41040737751E+02 -0.10583302920E+02  0.85299972544E+02  0.12583296700E+03  0.82228351637E+02 0.  0.
          5    1    3    3  502    0  0.23508646424E+02  0.43167407929E+02  0.67072251670E+02  0.83260079919E+02  0.41800000000E+01 0.  1.
         -5    1    3    3    0  502 -0.64549384175E+02 -0.32584105009E+02  0.20724871684E+02  0.75334849857E+02  0.41800000000E+01 0.  1.
        -11    1    4    4    0    0  0.29298492937E+01 -0.15512588469E+02 -0.12896530417E+02  0.20384918805E+02  0.00000000000E+00 0.  1.
         11    1    4    4    0    0  0.38110888457E+02  0.49292855484E+01  0.98196502962E+02  0.10544804820E+03  0.00000000000E+00 0. -1.
</event>
<event>
 8    1  0.7026811E-009  0.1058548E+03  0.7561462E-02  0.1268444E+00
          3   -1    0    0  501    0  0.00000000000E+00  0.00000000000E+00  0.19008455372E+03  0.19008455372E+03  0.00000000000E+00 0. -1.
         -3   -1    0    0    0  501 -0.00000000000E+00 -0.00000000000E+00 -0.76274179768E+02  0.76274179768E+02  0.00000000000E+00 0.  1.
         25    2    1    2    0    0  0.14396415650E+02 -0.41920011655E+02  0.43586550246E+02  0.13968328747E+03  0.12508832589E+03 0.  0.
         23    2    1    2    0    0 -0.14396415650E+02  0.41920011655E+02  0.70223823707E+02  0.12667544602E+03  0.95659495338E+02 0.  0.
          5    1    3    3  502    0 -0.38571393345E+02 -0.63277522864E+02  0.15181760754E+02  0.75761174383E+02  0.41800000000E+01 0. -1.
         -5    1    3    3    0  502  0.52967808996E+02  0.21357511208E+02  0.28404789493E+02  0.63922113083E+02  0.41800000000E+01 0. -1.
        -11    1    4    4    0    0  0.19919924704E+02  0.41352069135E+02 -0.28032460454E+01  0.45985380398E+02  0.00000000000E+00 0.  1.
         11    1    4    4    0    0 -0.34316340354E+02  0.56794252038E+00  0.73027069752E+02  0.80690065625E+02  0.00000000000E+00 0. -1.
</event>
<event>
 8    1  0.7026811E-009  0.2252736E+03  0.7561462E-02  0.1130011E+00
         -1   -1    0    0    0  501 -0.00000000000E+00  0.00000000000E+00  0.22437628469E+03  0.22437628469E+03  0.00000000000E+00 0.  1.
          1   -1    0    0  501    0  0.00000000000E+00 -0.00000000000E+00 -0.26531499621E+03  0.26531499621E+03  0.00000000000E+00 0. -1.
         25    2    1    2    0    0  0.17907970777E+03  0.10926083518E+03  0.38664487326E+02  0.24728516913E+03  0.12509012931E+03 0.  0.
         23    2    1    2    0    0 -0.17907970777E+03 -0.10926083518E+03 -0.79603198846E+02  0.24240611177E+03  0.91741931089E+02 0.  0.
          5    1    3    3  502    0  0.18846858671E+03  0.71562735940E+02  0.47642833858E+02  0.20719301477E+03  0.41800000000E+01 0. -1.
         -5    1    3    3    0  502 -0.93888789419E+01  0.37698099244E+02 -0.89783465316E+01  0.40092154355E+02  0.41800000000E+01 0. -1.
        -11    1    4    4    0    0 -0.36265503860E+02 -0.24360961254E+02 -0.61274101960E+02  0.75253961853E+02  0.00000000000E+00 0. -1.
         11    1    4    4    0    0 -0.14281420391E+03 -0.84899873930E+02 -0.18329096886E+02  0.16715214992E+03  0.00000000000E+00 0.  1.
</event>
<event>
 8    1  0.7026811E-009  0.1302213E+03  0.7561462E-02  0.1227128E+00
          1   -1    0    0  501    0  0.00000000000E+00  0.00000000000E+00  0.63970165149E+02  0.63970165149E+02  0.00000000000E+00 0. -1.
         -1   -1    0    0    0  501 -0.00000000000E+00 -0.00000000000E+00 -0.39523018324E+03  0.39523018324E+03  0.00000000000E+00 0.  1.
         25    2    1    2    0    0  0.93607168769E+02 -0.41908383967E+02 -0.99515254327E+02  0.18992057580E+03  0.12509166469E+03 0.  0.
         23    2    1    2    0    0 -0.93607168769E+02  0.41908383967E+02 -0.23174476377E+03  0.26927977260E+03  0.91034859827E+02 0.  0.
          5    1    3    3  502    0  0.10905087603E+03 -0.53160619803E+02 -0.40848431660E+02  0.12807892812E+03  0.41800000000E+01 0. -1.
         -5    1    3    3    0  502 -0.15443707258E+02  0.11252235835E+02 -0.58666822667E+02  0.61841647674E+02  0.41800000000E+01 0. -1.
        -11    1    4    4    0    0 -0.69591151264E+02 -0.18067858071E+01 -0.19577874441E+03  0.20778717374E+03  0.00000000000E+00 0.  1.
         11    1    4    4    0    0 -0.24016017504E+02  0.43715169775E+02 -0.35966019357E+02  0.61492598852E+02  0.00000000000E+00 0. -1.
</event>
<event>
 8    1  0.7026811E-009  0.1319799E+03  0.7561462E-02  0.1224547E+00
         -2   -1    0    0    0  501 -0.00000000000E+00  0.00000000000E+00  0.19205581453E+02  0.19205581453E+02  0.00000000000E+00 0.  1.
          2   -1    0    0  501    0  0.00000000000E+00 -0.00000000000E+00 -0.13313332748E+04  0.13313332748E+04  0.00000000000E+00 0. -1.
         25    2    1    2    0    0 -0.10932948687E+03 -0.32319677102E+02 -0.67133692119E+03  0.69234276201E+03  0.12509092746E+03 0.  0.
         23    2    1    2    0    0  0.10932948687E+03  0.32319677102E+02 -0.64079077214E+03  0.65819609422E+03  0.98039719306E+02 0.  0.
          5    1    3    3  502    0 -0.60948806782E+02 -0.31124097386E+02 -0.11498956705E+03  0.13387882363E+03  0.41800000000E+01 0. -1.
         -5    1    3    3    0  502 -0.48380680093E+02 -0.11955797160E+01 -0.55634735414E+03  0.55846393838E+03  0.41800000000E+01 0. -1.
        -11    1    4    4    0    0  0.44312422239E+02  0.61298505972E+02 -0.40065453992E+03  0.40773172302E+03  0.00000000000E+00 0.  1.
         11    1    4    4    0    0  0.65017064636E+02 -0.28978828870E+02 -0.24013623221E+03  0.25046437120E+03  0.00000000000E+00 0. -1.
</event>
<event>
 8    1  0.7026811E-009  0.1344556E+03  0.7561462E-02  0.1220990E+00
         -2   -1    0    0    0  501 -0.00000000000E+00  0.00000000000E+00  0.15277112709E+03  0.15277112709E+03  0.00000000000E+00 0.  1.
          2   -1    0    0  501    0  0.00000000000E+00 -0.00000000000E+00 -0.17479789757E+03  0.17479789757E+03  0.00000000000E+00 0. -1.
         25    2    1    2    0    0  0.78525355147E+02  0.25364203929E+02 -0.10101927684E+03  0.18072520083E+03  0.12508848739E+03 0.  0.
         23    2    1    2    0    0 -0.78525355147E+02 -0.25364203929E+02  0.78992506366E+02  0.14684382383E+03  0.92269812472E+02 0.  0.
          5    1    3    3  502    0 -0.10198497782E+02  0.52131880468E+02 -0.18024933761E+02  0.56250448489E+02  0.41800000000E+01 0.  1.
         -5    1    3    3    0  502  0.88723852929E+02 -0.26767676539E+02 -0.82994343082E+02  0.12447475234E+03  0.41800000000E+01 0.  1.
        -11    1    4    4    0    0 -0.38100468174E+02  0.33981623466E+02  0.41772834011E+02  0.65964885126E+02  0.00000000000E+00 0.  1.
         11    1    4    4    0    0 -0.40424886973E+02 -0.59345827394E+02  0.37219672355E+02  0.80878938705E+02  0.00000000000E+00 0. -1.
</event>
<event>
 8    1  0.7026811E-009  0.1361020E+03  0.7561462E-02  0.1218672E+00
          2   -1    0    0  501    0  0.00000000000E+00  0.00000000000E+00  0.46798900636E+03  0.46798900636E+03  0.00000000000E+00 0. -1.
         -2   -1    0    0    0  501 -0.00000000000E+00 -0.00000000000E+00 -0.51123805348E+02  0.51123805348E+02  0.00000000000E+00 0.  1.
         25    2    1    2    0    0 -0.34564188379E+02 -0.98110262147E+02  0.28054078601E+03  0.32430275872E+03  0.12509532383E+03 0.  0.
         23    2    1    2    0    0  0.34564188379E+02  0.98110262147E+02  0.13632441500E+03  0.19481005298E+03  0.92446221994E+02 0.  0.
          5    1    3    3  502    0  0.21689856277E+02 -0.23674833372E+01  0.15525251243E+03  0.15683389257E+03  0.41800000000E+01 0. -1.
         -5    1    3    3    0  502 -0.56254044656E+02 -0.95742778810E+02  0.12528827358E+03  0.16746886616E+03  0.41800000000E+01 0. -1.
        -11    1    4    4    0    0  0.16235163086E+02  0.11366856517E+03  0.11737462217E+03  0.16419782324E+03  0.00000000000E+00 0.  1.
         11    1    4    4    0    0  0.18329025293E+02 -0.15558303025E+02  0.18949792828E+02  0.30612229736E+02  0.00000000000E+00 0. -1.
</event>
<event>
 8    1  0.7026811E-009  0.7686572E+02  0.7561462E-02  0.1338189E+00
         -2   -1    0    0    0  501 -0.00000000000E+00  0.00000000000E+00  0.27732274334E+03  0.27732274334E+03  0.00000000000E+00 0.  1.
          2   -1    0    0  501    0  0.00000000000E+00 -0.00000000000E+00 -0.60023695540E+02  0.60023695540E+02  0.00000000000E+00 0. -1.
         25    2    1    2    0    0  0.18854346939E+02  0.28481560605E+02  0.40847072972E+02  0.13594849166E+03  0.12508726283E+03 0.  0.
         23    2    1    2    0    0 -0.18854346939E+02 -0.28481560605E+02  0.17645197482E+03  0.20139794721E+03  0.90879854919E+02 0.  0.
          5    1    3    3  502    0  0.33513944587E+02 -0.43661966294E+01 -0.36880961727E+02  0.50198863460E+02  0.41800000000E+01 0. -1.
         -5    1    3    3    0  502 -0.14659597649E+02  0.32847757234E+02  0.77728034699E+02  0.85749628201E+02  0.41800000000E+01 0. -1.
        -11    1    4    4    0    0 -0.30931885414E+02  0.17762398869E+02  0.12978924029E+03  0.13460137906E+03  0.00000000000E+00 0.  1.
         11    1    4    4    0    0  0.12077538476E+02 -0.46243959473E+02  0.46662734530E+02  0.66796568154E+02  0.00000000000E+00 0. -1.
</event>
<event>
 8    1  0.7026811E-009  0.1004538E+03  0.7561462E-02  0.1279345E+00
          1   -1    0    0  501    0  0.00000000000E+00  0.00000000000E+00  0.10943298862E+04  0.10943298862E+04  0.00000000000E+00 0. -1.
         -1   -1    0    0    0  501 -0.00000000000E+00 -0.00000000000E+00 -0.19000717265E+02  0.19000717265E+02  0.00000000000E+00 0.  1.
         25    2    1    2    0    0 -0.27329422142E+02 -0.16780786963E+02  0.93748099305E+03  0.94633254105E+03  0.12508466656E+03 0.  0.
         23    2    1    2    0    0  0.27329422142E+02  0.16780786963E+02  0.13784817593E+03  0.16699806245E+03  0.88643900693E+02 0.  0.
          5    1    3    3  502    0 -0.64915630537E+02 -0.28230143143E+02  0.80413187969E+03  0.80725245891E+03  0.41800000000E+01 0.  1.
         -5    1    3    3    0  502  0.37586208395E+02  0.11449356180E+02  0.13334911335E+03  0.13908008215E+03  0.41800000000E+01 0.  1.
        -11    1    4    4    0    0 -0.27291160614E+02 -0.10730702204E+02  0.68627569682E+02  0.74630414296E+02  0.00000000000E+00 0.  1.
         11    1    4    4    0    0  0.54620582756E+02  0.27511489168E+02  0.69220606249E+02  0.92367648158E+02  0.00000000000E+00 0. -1.
</event>
<event>
 8    1  0.7026811E-009  0.1155856E+03  0.7561462E-02  0.1250562E+00
          1   -1    0    0  501    0  0.00000000000E+00  0.00000000000E+00  0.43482126421E+02  0.43482126421E+02  0.00000000000E+00 0. -1.
         -1   -1    0    0    0  501 -0.00000000000E+00 -0.00000000000E+00 -0.43603952209E+03  0.43603952209E+03  0.00000000000E+00 0.  1.
         25    2    1    2    0    0  0.46730428615E+02 -0.11437650073E+02 -0.33708501920E+03  0.36275108424E+03  0.12508991226E+03 0.  0.
         23    2    1    2    0    0 -0.46730428615E+02  0.11437650073E+02 -0.55472376463E+02  0.11677056427E+03  0.90794423459E+02 0.  0.
          5    1    3    3  502    0 -0.41472929279E+02  0.23028230645E+01 -0.74816284026E+02  0.85675291727E+02  0.41800000000E+01 0.  1.
         -5    1    3    3    0  502  0.88203357894E+02 -0.13740473138E+02 -0.26226873518E+03  0.27707579251E+03  0.41800000000E+01 0.  1.
        -11    1    4    4    0    0 -0.18353533853E+02  0.49379382531E+02 -0.15866577756E+02  0.55017487345E+02  0.00000000000E+00 0.  1.
         11    1    4    4    0    0 -0.28376894762E+02 -0.37941732458E+02 -0.39605798707E+02  0.61753076923E+02  0.00000000000E+00 0. -1.
</event>
<event>
 8    1  0.7026811E-009  0.3024125E+03  0.7561462E-02  0.1084041E+00
          2   -1    0    0  501    0  0.00000000000E+00  0.00000000000E+00  0.35784343344E+03  0.35784343344E+03  0.00000000000E+00 0.  1.
         -2   -1    0    0    0  501 -0.00000000000E+00 -0.00000000000E+00 -0.26968912109E+03  0.26968912109E+03  0.00000000000E+00 0. -1.
         25    2    1    2    0    0 -0.26287457758E+03  0.12282426082E+03  0.28004797795E+02  0.31720471399E+03  0.12508284972E+03 0.  0.
         23    2    1    2    0    0  0.26287457758E+03 -0.12282426082E+03  0.60149514561E+02  0.31032784053E+03  0.92176797088E+02 0.  0.
          5    1    3    3  502    0 -0.25092007144E+03  0.14075900136E+03  0.85374699564E+01  0.28786166732E+03  0.41800000000E+01 0.  1.
         -5    1    3    3    0  502 -0.11954506143E+02 -0.17934740538E+02  0.19467327838E+02  0.29343046680E+02  0.41800000000E+01 0.  1.
        -11    1    4    4    0    0  0.11342050456E+03 -0.82757626381E+02  0.66735242713E+02  0.15545619383E+03  0.00000000000E+00 0. -1.
         11    1    4    4    0    0  0.14945407302E+03 -0.40066634443E+02 -0.65857281523E+01  0.15487164670E+03  0.00000000000E+00 0.  1.
</event>
<event>
 8    1  0.7026811E-009  0.2202386E+03  0.7561462E-02  0.1133705E+00
          1   -1    0    0  501    0  0.00000000000E+00  0.00000000000E+00  0.87268448775E+03  0.87268448775E+03  0.00000000000E+00 0. -1.
         -1   -1    0    0    0  501 -0.00000000000E+00 -0.00000000000E+00 -0.60132109022E+02  0.60132109022E+02  0.00000000000E+00 0.  1.
         25    2    1    2    0    0 -0.19942670632E+03 -0.30342331123E+02  0.41990905470E+03  0.48235110133E+03  0.12508917810E+03 0.  0.
         23    2    1    2    0    0  0.19942670632E+03  0.30342331123E+02  0.39264332403E+03  0.45046549545E+03  0.89770342719E+02 0.  0.
          5    1    3    3  502    0 -0.10409343534E+03 -0.68000309345E+02  0.29860601018E+03  0.32348494102E+03  0.41800000000E+01 0.  1.
         -5    1    3    3    0  502 -0.95333270983E+02  0.37657978222E+02  0.12130304453E+03  0.15886616031E+03  0.41800000000E+01 0.  1.
        -11    1    4    4    0    0  0.82907803439E+02  0.47744799936E+02  0.23447839496E+03  0.25324570578E+03  0.00000000000E+00 0.  1.
         11    1    4    4    0    0  0.11651890289E+03 -0.17402468813E+02  0.15816492907E+03  0.19721978967E+03  0.00000000000E+00 0. -1.
</event>
<event>
 8    1  0.7026811E-009  0.4800748E+02  0.7561462E-02  0.1456395E+00
         -1   -1    0    0    0  501 -0.00000000000E+00  0.00000000000E+00  0.60792383928E+02  0.60792383928E+02  0.00000000000E+00 0.  1.
          1   -1    0    0  501    0  0.00000000000E+00 -0.00000000000E+00 -0.33227096651E+03  0.33227096651E+03  0.00000000000E+00 0. -1.
         25    2    1    2    0    0 -0.12562988147E+02 -0.32016870970E+02 -0.25962382095E+03  0.29023227614E+03  0.12508931613E+03 0.  0.
         23    2    1    2    0    0  0.12562988147E+02  0.32016870970E+02 -0.11854761636E+02  0.10283107430E+03  0.96181005252E+02 0.  0.
          5    1    3    3  502    0  0.19682314094E+02 -0.11598955140E+02  0.42236287281E+01  0.23605946032E+02  0.41800000000E+01 0.  1.
         -5    1    3    3    0  502 -0.32245302242E+02 -0.20417915830E+02 -0.26384744968E+03  0.26662633010E+03  0.41800000000E+01 0.  1.
        -11    1    4    4    0    0  0.60233604871E+01  0.14820631999E+02  0.42519049098E+02  0.45429082542E+02  0.00000000000E+00 0.  1.
         11    1    4    4    0    0  0.65396276604E+01  0.17196238971E+02 -0.54373810734E+02  0.57401991763E+02  0.00000000000E+00 0. -1.
</event>
<event>
 8    1  0.7026811E-009  0.1025474E+03  0.7561462E-02  0.1275028E+00
         -3   -1    0    0    0  501 -0.00000000000E+00  0.00000000000E+00  0.24884798292E+03  0.24884798292E+03  0.00000000000E+00 0.  1.
          3   -1    0    0  501    0  0.00000000000E+00 -0.00000000000E+00 -0.63540334746E+02  0.63540334746E+02  0.00000000000E+00 0. -1.
         25    2    1    2    0    0 -0.52773243589E+02 -0.10655510931E+02  0.62532658047E+02  0.14984753345E+03  0.12508155262E+03 0.  0.
         23    2    1    2    0    0  0.52773243589E+02  0.10655510931E+02  0.12277499012E+03  0.16254078421E+03  0.91908939612E+02 0.  0.
          5    1    3    3  502    0 -0.58644226346E+02 -0.41435840347E+02  0.84787673405E+02  0.11118676230E+03  0.41800000000E+01 0. -1.
         -5    1    3    3    0  502  0.58709827570E+01  0.30780329416E+02 -0.22255015358E+02  0.38660771152E+02  0.41800000000E+01 0. -1.
        -11    1    4    4    0    0  0.30394610562E+02  0.48705714687E+02  0.93003129025E+02  0.10929620763E+03  0.00000000000E+00 0.  1.
         11    1    4    4    0    0  0.22378633028E+02 -0.38050203755E+02  0.29771861100E+02  0.53244576582E+02  0.00000000000E+00 0. -1.
</event>
<event>
 8    1  0.7026811E-009  0.2232110E+03  0.7561462E-02  0.1131512E+00
          2   -1    0    0  501    0  0.00000000000E+00  0.00000000000E+00  0.35134391842E+03  0.35134391842E+03  0.00000000000E+00 0.  1.
         -2   -1    0    0    0  501 -0.00000000000E+00 -0.00000000000E+00 -0.15247601266E+03  0.15247601266E+03  0.00000000000E+00 0. -1.
         25    2    1    2    0    0  0.19203130000E+03  0.68569160236E+02  0.10365270673E+03  0.26070896930E+03  0.12509010011E+03 0.  0.
         23    2    1    2    0    0 -0.19203130000E+03 -0.68569160236E+02  0.95215199027E+02  0.24311096178E+03  0.91974212127E+02 0.  0.
          5    1    3    3  502    0  0.15941468402E+03  0.10404939628E+03  0.88834213589E+02  0.21011498817E+03  0.41800000000E+01 0.  1.
         -5    1    3    3    0  502  0.32616615982E+02 -0.35480236049E+02  0.14818493138E+02  0.50593981134E+02  0.41800000000E+01 0.  1.
        -11    1    4    4    0    0 -0.13309942835E+03 -0.27790693284E+02  0.10362287863E+03  0.17095461806E+03  0.00000000000E+00 0.  1.
         11    1    4    4    0    0 -0.58931871651E+02 -0.40778466952E+02 -0.84076795990E+01  0.72156343723E+02  0.00000000000E+00 0. -1.
</event>
<event>
 8    1  0.7026811E-009  0.1431614E+03  0.7561462E-02  0.1209137E+00
          1   -1    0    0  501    0  0.00000000000E+00  0.00000000000E+00  0.16315668561E+03  0.16315668561E+03  0.00000000000E+00 0. -1.
         -1   -1    0    0    0  501 -0.00000000000E+00 -0.00000000000E+00 -0.18157653860E+03  0.18157653860E+03  0.00000000000E+00 0.  1.
         25    2    1    2    0    0 -0.11486869551E+03  0.66922699635E+02 -0.15713497850E+02  0.18321651958E+03  0.12509162281E+03 0.  0.
         23    2    1    2    0    0  0.11486869551E+03 -0.66922699635E+02 -0.27063551415E+01  0.16151670462E+03  0.91688911969E+02 0.  0.
          5    1    3    3  502    0 -0.61616318094E+02  0.74602215312E+02 -0.59548998536E+02  0.11369088271E+03  0.41800000000E+01 0.  1.
         -5    1    3    3    0  502 -0.53252377420E+02 -0.76795156775E+01  0.43835500686E+02  0.69525636870E+02  0.41800000000E+01 0.  1.
        -11    1    4    4    0    0  0.10941581920E+03 -0.55136443871E+02 -0.34404367169E+02  0.12726157871E+03  0.00000000000E+00 0.  1.
         11    1    4    4    0    0  0.54528763119E+01 -0.11786255764E+02  0.31698012027E+02  0.34255125916E+02  0.00000000000E+00 0. -1.
</event>
<event>
 8    1  0.7026811E-009  0.1394041E+03  0.7561462E-02  0.1214133E+00
         -2   -1    0    0    0  501 -0.00000000000E+00  0.00000000000E+00  0.31699545751E+03  0.31699545751E+03  0.00000000000E+00 0.  1.
          2   -1    0    0  501    0  0.00000000000E+00 -0.00000000000E+00 -0.94025753412E+02  0.94025753412E+02  0.00000000000E+00 0. -1.
         25    2    1    2    0    0 -0.35350551180E+02 -0.86764116328E+02  0.23269195805E+03  0.28030434313E+03  0.12508918453E+03 0.  0.
         23    2    1    2    0    0  0.35350551180E+02  0.86764116328E+02 -0.97222539445E+01  0.13071686780E+03  0.90635004019E+02 0.  0.
          5    1    3    3  502    0 -0.51587066965E+02  0.84881272221E+01  0.44781296818E+02  0.68964561381E+02  0.41800000000E+01 0. -1.
         -5    1    3    3    0  502  0.16236515785E+02 -0.95252243550E+02  0.18791066123E+03  0.21133978175E+03  0.41800000000E+01 0. -1.
        -11    1    4    4    0    0  0.65227345196E+02  0.49508084237E+02 -0.12705037658E+02  0.82867816117E+02  0.00000000000E+00 0. -1.
         11    1    4    4    0    0 -0.29876794016E+02  0.37256032091E+02  0.29827837131E+01  0.47849051678E+02  0.00000000000E+00 0.  1.
</event>
<event>
 8    1  0.7026811E-009  0.2600296E+03  0.7561462E-02  0.1107125E+00
          1   -1    0    0  501    0  0.00000000000E+00  0.00000000000E+00  0.64891554931E+03  0.64891554931E+03  0.00000000000E+00 0. -1.
         -1   -1    0    0    0  501 -0.00000000000E+00 -0.00000000000E+00 -0.11625429884E+03  0.11625429884E+03  0.00000000000E+00 0.  1.
         25    2    1    2    0    0 -0.24381800744E+03  0.36801532598E+01  0.18352077412E+03  0.32983027978E+03  0.12508946655E+03 0.  0.
         23    2    1    2    0    0  0.24381800744E+03 -0.36801532598E+01  0.34914047635E+03  0.43533956837E+03  0.90336610962E+02 0.  0.
          5    1    3    3  502    0 -0.19948338624E+03 -0.42989188833E+02  0.16572494957E+03  0.26291428841E+03  0.41800000000E+01 0. -1.
         -5    1    3    3    0  502 -0.44334621203E+02  0.46669342093E+02  0.17795824548E+02  0.66915991362E+02  0.41800000000E+01 0. -1.
        -11    1    4    4    0    0  0.76711723167E+02  0.27432662683E+02  0.64932634190E+02  0.10418006736E+03  0.00000000000E+00 0.  1.
         11    1    4    4    0    0  0.16710628427E+03 -0.31112815942E+02  0.28420784216E+03  0.33115950100E+03  0.00000000000E+00 0. -1.
</event>
<event>
 8    1  0.7026811E-009  0.9380590E+02  0.7561462E-02  0.1293888E+00
         -2   -1    0    0    0  501 -0.00000000000E+00  0.00000000000E+00  0.23239556786E+02  0.23239556786E+02  0.00000000000E+00 0.  1.
          2   -1    0    0  501    0  0.00000000000E+00 -0.00000000000E+00 -0.61243355086E+03  0.61243355086E+03  0.00000000000E+00 0. -1.
         25    2    1    2    0    0  0.25980339029E+02 -0.11809583955E+02 -0.22725951432E+03  0.26097635650E+03  0.12508927818E+03 0.  0.
         23    2    1    2    0    0 -0.25980339029E+02  0.11809583955E+02 -0.36193447975E+03  0.37469675114E+03  0.92664142981E+02 0.  0.
          5    1    3    3  502    0  0.47294720084E+02 -0.40553556875E+02 -0.21344545486E+03  0.22239113319E+03  0.41800000000E+01 0. -1.
         -5    1    3    3    0  502 -0.21314381055E+02  0.28743972920E+02 -0.13814059462E+02  0.38585223309E+02  0.41800000000E+01 0. -1.
        -11    1    4    4    0    0 -0.30079276533E+02  0.45861509533E+02 -0.28824587973E+03  0.29341732756E+03  0.00000000000E+00 0. -1.
         11    1    4    4    0    0  0.40989375039E+01 -0.34051925578E+02 -0.73688600028E+02  0.81279423585E+02  0.00000000000E+00 0.  1.
</event>
<event>
 8    1  0.7026811E-009  0.1582880E+03  0.7561462E-02  0.1190643E+00
          2   -1    0    0  501    0  0.00000000000E+00  0.00000000000E+00  0.94310821832E+02  0.94310821832E+02  0.00000000000E+00 0.  1.
         -2   -1    0    0    0  501 -0.00000000000E+00 -0.00000000000E+00 -0.31660961274E+03  0.31660961274E+03  0.00000000000E+00 0. -1.
         25    2    1    2    0    0  0.12245248701E+03  0.28815934994E+02 -0.17317045442E+03  0.24791353938E+03  0.12509255389E+03 0.  0.
         23    2    1    2    0    0 -0.12245248701E+03 -0.28815934994E+02 -0.49128336482E+02  0.16300689519E+03  0.91283540404E+02 0.  0.
          5    1    3    3  502    0  0.14008471510E+03  0.32095781144E+02 -0.17806052886E+03  0.22885998102E+03  0.41800000000E+01 0. -1.
         -5    1    3    3    0  502 -0.17632228093E+02 -0.32798461501E+01  0.48900744412E+01  0.19053558364E+02  0.41800000000E+01 0. -1.
        -11    1    4    4    0    0 -0.35081818921E+02 -0.53154652016E+02 -0.11045408578E+02  0.64638627000E+02  0.00000000000E+00 0.  1.
         11    1    4    4    0    0 -0.87370668087E+02  0.24338717022E+02 -0.38082927904E+02  0.98368268186E+02  0.00000000000E+00 0. -1.
</event>
<event>
 8    1  0.7026811E-009  0.1415252E+03  0.7561462E-02  0.1211291E+00
          1   -1    0    0  501    0  0.00000000000E+00  0.00000000000E+00  0.67186143228E+03  0.67186143228E+03  0.00000000000E+00 0. -1.
         -1   -1    0    0    0  501 -0.00000000000E+00 -0.00000000000E+00 -0.54620485418E+02  0.54620485418E+02  0.00000000000E+00 0.  1.
         25    2    1    2    0    0  0.26918056897E+02  0.11138671123E+03  0.52642836768E+03  0.55308744139E+03  0.12508920941E+03 0.  0.
         23    2    1    2    0    0 -0.26918056897E+02 -0.11138671123E+03  0.90812579184E+02  0.17339447630E+03  0.93204820952E+02 0.  0.
          5    1    3    3  502    0  0.27842393867E+02 -0.96366027006E+00  0.28915415715E+03  0.29052319449E+03  0.41800000000E+01 0.  1.
         -5    1    3    3    0  502 -0.92433697057E+00  0.11235037150E+03  0.23727421053E+03  0.26256424691E+03  0.41800000000E+01 0.  1.
        -11    1    4    4    0    0  0.25655077574E+02 -0.72928511312E+02  0.71875206587E+02  0.10555944339E+03  0.00000000000E+00 0. -1.
         11    1    4    4    0    0 -0.52573134471E+02 -0.38458199914E+02  0.18937372596E+02  0.67835032908E+02  0.00000000000E+00 0.  1.
</event>
<event>
 8    1  0.7026811E-009  0.9566646E+02  0.7561462E-02  0.1289682E+00
         -1   -1    0    0    0  501 -0.00000000000E+00  0.00000000000E+00  0.10362003921E+03  0.10362003921E+03  0.00000000000E+00 0.  1.
          1   -1    0    0  501    0  0.00000000000E+00 -0.00000000000E+00 -0.19491571549E+03  0.19491571549E+03  0.00000000000E+00 0. -1.
         25    2    1    2    0    0 -0.16404459090E+02  0.50132775349E+02 -0.12890382624E+03  0.18720581864E+03  0.12508965053E+03 0.  0.
         23    2    1    2    0    0  0.16404459090E+02 -0.50132775349E+02  0.37608149957E+02  0.11132993607E+03  0.90540489724E+02 0.  0.
          5    1    3    3  502    0  0.52685569060E+02  0.57720809415E+01 -0.43869920801E+02  0.68928429959E+02  0.41800000000E+01 0. -1.
         -5    1    3    3    0  502 -0.69090028150E+02  0.44360694407E+02 -0.85033905440E+02  0.11827738868E+03  0.41800000000E+01 0. -1.
        -11    1    4    4    0    0 -0.26586478363E+01 -0.20822656178E+02  0.64108595125E+02  0.67457863793E+02  0.00000000000E+00 0.  1.
         11    1    4    4    0    0  0.19063106926E+02 -0.29310119171E+02 -0.26500445169E+02  0.43872072275E+02  0.00000000000E+00 0. -1.
</event>
<event>
 8    1  0.7026811E-009  0.2514719E+03  0.7561462E-02  0.1112378E+00
          3   -1    0    0  501    0  0.00000000000E+00  0.00000000000E+00  0.70054042893E+02  0.70054042893E+02  0.00000000000E+00 0. -1.
         -3   -1    0    0    0  501 -0.00000000000E+00 -0.00000000000E+00 -0.11568587943E+04  0.11568587943E+04  0.00000000000E+00 0.  1.
         25    2    1    2    0    0  0.21606908638E+03  0.10811417964E+03 -0.33113836302E+03  0.42856874498E+03  0.12507608797E+03 0.  0.
         23    2    1    2    0    0 -0.21606908638E+03 -0.10811417964E+03 -0.75566638841E+03  0.79834409224E+03  0.89146357753E+02 0.  0.
          5    1    3    3  502    0  0.18907111172E+02 -0.24783851428E+01  0.78956487322E+01  0.21057894355E+02  0.41800000000E+01 0.  1.
         -5    1    3    3    0  502  0.19716197521E+03  0.11059256478E+03 -0.33903401175E+03  0.40751085063E+03  0.41800000000E+01 0.  1.
        -11    1    4    4    0    0 -0.14355393835E+03 -0.11574987307E+03 -0.52684201701E+03  0.55818301409E+03  0.00000000000E+00 0.  1.
         11    1    4    4    0    0 -0.72515148033E+02  0.76356934262E+01 -0.22882437140E+03  0.24016107815E+03  0.00000000000E+00 0. -1.
</event>
<event>
 8    1  0.7026811E-009  0.1327477E+03  0.7561462E-02  0.1223435E+00
          2   -1    0    0  501    0  0.00000000000E+00  0.00000000000E+00  0.16314636902E+03  0.16314636902E+03  0.00000000000E+00 0. -1.
         -2   -1    0    0    0  501 -0.00000000000E+00 -0.00000000000E+00 -0.12754958408E+03  0.12754958408E+03  0.00000000000E+00 0.  1.
         25    2    1    2    0    0 -0.56704636689E+02  0.68566353483E+02 -0.13637584432E+02  0.15410781215E+03  0.12508586413E+03 0.  0.
         23    2    1    2    0    0  0.56704636689E+02 -0.68566353483E+02  0.49234369369E+02  0.13658814095E+03  0.91189563383E+02 0.  0.
          5    1    3    3  502    0 -0.92009540520E+02  0.26098285325E+02 -0.21645895644E+02  0.98147303793E+02  0.41800000000E+01 0.  1.
         -5    1    3    3    0  502  0.35304903830E+02  0.42468068158E+02  0.80083112118E+01  0.55960508361E+02  0.41800000000E+01 0.  1.
        -11    1    4    4    0    0  0.44989082743E+02 -0.17164588780E+00  0.49909788342E+02  0.67194002713E+02  0.00000000000E+00 0. -1.
         11    1    4    4    0    0  0.11715553947E+02 -0.68394707595E+02 -0.67541897266E+00  0.69394138240E+02  0.00000000000E+00 0.  1.
</event>
<event>
 8    1  0.7026811E-009  0.1506069E+03  0.7561462E-02  0.1199729E+00
         -1   -1    0    0    0  501 -0.00000000000E+00  0.00000000000E+00  0.15395927642E+02  0.15395927642E+02  0.00000000000E+00 0.  1.
          1   -1    0    0  501    0  0.00000000000E+00 -0.00000000000E+00 -0.14894809258E+04  0.14894809258E+04  0.00000000000E+00 0. -1.
         25    2    1    2    0    0 -0.54478988363E+02 -0.86812303779E+02 -0.81132907596E+03  0.82728819133E+03  0.12508615336E+03 0.  0.
         23    2    1    2    0    0  0.54478988363E+02  0.86812303779E+02 -0.66275592222E+03  0.67758866213E+03  0.96833084995E+02 0.  0.
          5    1    3    3  502    0 -0.83542311940E+02 -0.99244558420E+02 -0.64454338791E+03  0.65748190208E+03  0.41800000000E+01 0. -1.
         -5    1    3    3    0  502  0.29063323577E+02  0.12432254641E+02 -0.16678568804E+03  0.16980628925E+03  0.41800000000E+01 0. -1.
        -11    1    4    4    0    0  0.80681529461E+02  0.52092862678E+02 -0.49878221448E+03  0.50794376954E+03  0.00000000000E+00 0. -1.
         11    1    4    4    0    0 -0.26202541098E+02  0.34719441101E+02 -0.16397370774E+03  0.16964489258E+03  0.00000000000E+00 0.  1.
</event>
<event>
 8    1  0.7026811E-009  0.1225693E+03  0.7561462E-02  0.1238918E+00
          1   -1    0    0  501    0  0.00000000000E+00  0.00000000000E+00  0.32836195557E+03  0.32836195557E+03  0.00000000000E+00 0. -1.
         -1   -1    0    0    0  501 -0.00000000000E+00 -0.00000000000E+00 -0.69930535666E+02  0.69930535666E+02  0.00000000000E+00 0.  1.
         25    2    1    2    0    0  0.88324850518E+02  0.23149132987E+02  0.21092180996E+03  0.26167007992E+03  0.12508420856E+03 0.  0.
         23    2    1    2    0    0 -0.88324850518E+02 -0.23149132987E+02  0.47509609943E+02  0.13662241131E+03  0.89840740532E+02 0.  0.
          5    1    3    3  502    0  0.51360497323E+02  0.73933516540E+02  0.10419806917E+03  0.13776347692E+03  0.41800000000E+01 0. -1.
         -5    1    3    3    0  502  0.36964353195E+02 -0.50784383552E+02  0.10672374078E+03  0.12390660300E+03  0.41800000000E+01 0. -1.
        -11    1    4    4    0    0 -0.21894292649E+02 -0.11121430085E+02 -0.26715816906E+02  0.36287478979E+02  0.00000000000E+00 0.  1.
         11    1    4    4    0    0 -0.66430557870E+02 -0.12027702903E+02  0.74225426849E+02  0.10033493234E+03  0.00000000000E+00 0. -1.
</event>
<event>
 8    1  0.7026811E-009  0.1451998E+03  0.7561462E-02  0.1206499E+00
         -1   -1    0    0    0  501 -0.00000000000E+00  0.00000000000E+00  0.40924979341E+02  0.40924979341E+02  0.00000000000E+00 0.  1.
          1   -1    0    0  501    0  0.00000000000E+00 -0.00000000000E+00 -0.66923327578E+03  0.66923327578E+03  0.00000000000E+00 0. -1.
         25    2    1    2    0    0 -0.74161293992E+02  0.98803469995E+02 -0.34288289865E+03  0.38532869978E+03  0.12508997351E+03 0.  0.
         23    2    1    2    0    0  0.74161293992E+02 -0.98803469995E+02 -0.28542539779E+03  0.32482955535E+03  0.93725978866E+02 0.  0.
          5    1    3    3  502    0 -0.47782867230E+02 -0.13814844219E+02 -0.51123786309E+02  0.71450446101E+02  0.41800000000E+01 0. -1.
         -5    1    3    3    0  502 -0.26378426762E+02  0.11261831421E+03 -0.29175911234E+03  0.31387825367E+03  0.41800000000E+01 0. -1.
        -11    1    4    4    0    0  0.42604199838E+02 -0.42375968057E+02 -0.42894840823E+02  0.73829586765E+02  0.00000000000E+00 0. -1.
         11    1    4    4    0    0  0.31557094154E+02 -0.56427501938E+02 -0.24253055696E+03  0.25099996858E+03  0.00000000000E+00 0.  1.
</event>
<event>
 8    1  0.7026811E-009  0.1331293E+03  0.7561462E-02  0.1222885E+00
         -1   -1    0    0    0  501 -0.00000000000E+00  0.00000000000E+00  0.87053527252E+02  0.87053527252E+02  0.00000000000E+00 0.  1.
          1   -1    0    0  501    0  0.00000000000E+00 -0.00000000000E+00 -0.25685950174E+03  0.25685950174E+03  0.00000000000E+00 0. -1.
         25    2    1    2    0    0  0.90404209698E+02  0.49253084340E+02 -0.81671412072E+02  0.18142982222E+03  0.12509106041E+03 0.  0.
         23    2    1    2    0    0 -0.90404209698E+02 -0.49253084340E+02 -0.88134562416E+02  0.16248320677E+03  0.89634278830E+02 0.  0.
          5    1    3    3  502    0  0.21395405961E+02  0.57206091782E+02 -0.92578581939E+02  0.11098903805E+03  0.41800000000E+01 0.  1.
         -5    1    3    3    0  502  0.69008803737E+02 -0.79530074417E+01  0.10907169867E+02  0.70440784174E+02  0.41800000000E+01 0.  1.
        -11    1    4    4    0    0 -0.52957268135E+02 -0.73681287721E+02 -0.49322372344E+02  0.10327681648E+03  0.00000000000E+00 0.  1.
         11    1    4    4    0    0 -0.37446941563E+02  0.24428203381E+02 -0.38812190073E+02  0.59206390289E+02  0.00000000000E+00 0. -1.
</event>
<event>
 8    1  0.7026811E-009  0.8753960E+02  0.7561462E-02  0.1308922E+00
          1   -1    0    0  501    0  0.00000000000E+00  0.00000000000E+00  0.61484823337E+02  0.61484823337E+02  0.00000000000E+00 0. -1.
         -1   -1    0    0    0  501 -0.00000000000E+00 -0.00000000000E+00 -0.21018751366E+03  0.21018751366E+03  0.00000000000E+00 0.  1.
         25    2    1    2    0    0  0.10824460701E+02 -0.18681397979E+02 -0.12398452073E+03  0.17744555448E+03  0.12509436375E+03 0.  0.
         23    2    1    2    0    0 -0.10824460701E+02  0.18681397979E+02 -0.24718169592E+02  0.94226782520E+02  0.88326298780E+02 0.  0.
          5    1    3    3  502    0 -0.42484590140E+02  0.28895600016E+02 -0.73838171948E+02  0.90052452140E+02  0.41800000000E+01 0.  1.
         -5    1    3    3    0  502  0.53309050842E+02 -0.47576997995E+02 -0.50146348780E+02  0.87393102336E+02  0.41800000000E+01 0.  1.
        -11    1    4    4    0    0  0.18648861593E+02  0.10342625416E+02 -0.50098179688E+02  0.54447934279E+02  0.00000000000E+00 0.  1.
         11    1    4    4    0    0 -0.29473322295E+02  0.83387725630E+01  0.25380010095E+02  0.39778848241E+02  0.00000000000E+00 0. -1.
</event>
<event>
 8    1  0.7026811E-009  0.9500956E+02  0.7561462E-02  0.1291155E+00
          2   -1    0    0  501    0  0.00000000000E+00  0.00000000000E+00  0.98493927297E+02  0.98493927297E+02  0.00000000000E+00 0. -1.
         -2   -1    0    0    0  501 -0.00000000000E+00 -0.00000000000E+00 -0.29366867665E+03  0.29366867665E+03  0.00000000000E+00 0.  1.
         25    2    1    2    0    0 -0.46244984448E+02  0.66163845064E+02 -0.22211618914E+03  0.26739288705E+03  0.12508837510E+03 0.  0.
         23    2    1    2    0    0  0.46244984448E+02 -0.66163845064E+02  0.26941439790E+02  0.12476971690E+03  0.91243564683E+02 0.  0.
          5    1    3    3  502    0 -0.32402539847E+02  0.68031996531E+02 -0.41380937392E+02  0.86070503194E+02  0.41800000000E+01 0.  1.
         -5    1    3    3    0  502 -0.13842444601E+02 -0.18681514675E+01 -0.18073525175E+03  0.18132238386E+03  0.41800000000E+01 0.  1.
        -11    1    4    4    0    0  0.22524968505E+02 -0.72083957343E+02 -0.14264940218E+02  0.76856747471E+02  0.00000000000E+00 0.  1.
         11    1    4    4    0    0  0.23720015943E+02  0.59201122789E+01  0.41206380009E+02  0.47912969425E+02  0.00000000000E+00 0. -1.
</event>
<event>
 8    1  0.7026811E-009  0.1828490E+03  0.7561462E-02  0.1165074E+00
         -2   -1    0    0    0  501 -0.00000000000E+00  0.00000000000E+00  0.14953064679E+03  0.14953064679E+03  0.00000000000E+00 0.  1.
          2   -1    0    0  501    0  0.00000000000E+00 -0.00000000000E+00 -0.29711963060E+03  0.29711963060E+03  0.00000000000E+00 0. -1.
         25    2    1    2    0    0 -0.14368079957E+03 -0.93902633430E+02 -0.13605724817E+03  0.25223132184E+03  0.12508872134E+03 0.  0.
         23    2    1    2    0    0  0.14368079957E+03  0.93902633430E+02 -0.11531735637E+02  0.19441895555E+03  0.90575231827E+02 0.  0.
          5    1    3    3  502    0 -0.40940299805E+02 -0.64059421758E+02 -0.12260185014E+03  0.14432048961E+03  0.41800000000E+01 0. -1.
         -5    1    3    3    0  502 -0.10274049977E+03 -0.29843211671E+02 -0.13455398028E+02  0.10791083223E+03  0.41800000000E+01 0. -1.
        -11    1    4    4    0    0  0.24417537785E+02 -0.79232278137E+01  0.22285917915E+02  0.33994938268E+02  0.00000000000E+00 0.  1.
         11    1    4    4    0    0  0.11926326179E+03  0.10182586124E+03 -0.33817653552E+02  0.16042401729E+03  0.00000000000E+00 0. -1.
</event>
<event>
 8    1  0.7026811E-009  0.1001124E+03  0.7561462E-02  0.1280060E+00
          3   -1    0    0  501    0  0.00000000000E+00  0.00000000000E+00  0.35611251392E+02  0.35611251392E+02  0.00000000000E+00 0. -1.
         -3   -1    0    0    0  501 -0.00000000000E+00 -0.00000000000E+00 -0.33882884439E+03  0.33882884439E+03  0.00000000000E+00 0.  1.
         25    2    1    2    0    0 -0.12102662714E+02  0.12667414927E+02 -0.18574969229E+03  0.22462794334E+03  0.12509127427E+03 0.  0.
         23    2    1    2    0    0  0.12102662714E+02 -0.12667414927E+02 -0.11746790071E+03  0.14981215244E+03  0.91312843986E+02 0.  0.
          5    1    3    3  502    0  0.33683042591E+02 -0.38147789253E+02 -0.44908836229E+02  0.68000567310E+02  0.41800000000E+01 0.  1.
         -5    1    3    3    0  502 -0.45785705305E+02  0.50815204180E+02 -0.14084085606E+03  0.15662737603E+03  0.41800000000E+01 0.  1.
        -11    1    4    4    0    0  0.17261235559E+02 -0.44842564363E+02 -0.30432331669E+02  0.56876468267E+02  0.00000000000E+00 0. -1.
         11    1    4    4    0    0 -0.51585728446E+01  0.32175149436E+02 -0.87035569041E+02  0.92935684177E+02  0.00000000000E+00 0.  1.
</event>
<event>
 8    1  0.7026811E-009  0.1107778E+03  0.7561462E-02  0.1259136E+00
          2   -1    0    0  501    0  0.00000000000E+00  0.00000000000E+00  0.20694077022E+02  0.20694077022E+02  0.00000000000E+00 0. -1.
         -2   -1    0    0    0  501 -0.00000000000E+00 -0.00000000000E+00 -0.10082149789E+04  0.10082149789E+04  0.00000000000E+00 0.  1.
         25    2    1    2    0    0 -0.87804667654E+02 -0.31986917722E+02 -0.47028403705E+03  0.49552840758E+03  0.12509398324E+03 0.  0.
         23    2    1    2    0    0  0.87804667654E+02  0.31986917722E+02 -0.51723686480E+03  0.53338064832E+03  0.90708980396E+02 0.  0.
          5    1    3    3  502    0 -0.61116380103E+02 -0.15874874381E+01 -0.69383134981E+02  0.92570102372E+02  0.41800000000E+01 0. -1.
         -5    1    3    3    0  502 -0.26688287551E+02 -0.30399430284E+02 -0.40090090207E+03  0.40295830520E+03  0.41800000000E+01 0. -1.
        -11    1    4    4    0    0  0.37538481310E+02  0.53149164822E+02 -0.38298818812E+03  0.38847641310E+03  0.00000000000E+00 0.  1.
         11    1    4    4    0    0  0.50266186344E+02 -0.21162247100E+02 -0.13424867668E+03  0.14490423521E+03  0.00000000000E+00 0. -1.
</event>
<event>
 8    1  0.7026811E-009  0.1330644E+03  0.7561462E-02  0.1222978E+00
          2   -1    0    0  501    0  0.00000000000E+00  0.00000000000E+00  0.10206587555E+04  0.10206587555E+04  0.00000000000E+00 0. -1.
         -2   -1    0    0    0  501 -0.00000000000E+00 -0.00000000000E+00 -0.24489148286E+02  0.24489148286E+02  0.00000000000E+00 0.  1.
         25    2    1    2    0    0 -0.78795947362E+02  0.78511550169E+02  0.63701224824E+03  0.65863914481E+03  0.12509218140E+03 0.  0.
         23    2    1    2    0    0  0.78795947362E+02 -0.78511550169E+02  0.35915735896E+03  0.38650875896E+03  0.89566441393E+02 0.  0.
          5    1    3    3  502    0 -0.60414377849E+02  0.22271455657E+02  0.10437335933E+03  0.12270772317E+03  0.41800000000E+01 0.  1.
         -5    1    3    3    0  502 -0.18381569513E+02  0.56240094512E+02  0.53263888890E+03  0.53593142164E+03  0.41800000000E+01 0.  1.
        -11    1    4    4    0    0  0.72319892351E+02 -0.94616129051E+01  0.20057023060E+03  0.21342002332E+03  0.00000000000E+00 0.  1.
         11    1    4    4    0    0  0.64760550119E+01 -0.69049937264E+02  0.15858712836E+03  0.17308873564E+03  0.00000000000E+00 0. -1.
</event>
<event>
 8    1  0.7026811E-009  0.1116040E+03  0.7561462E-02  0.1257628E+00
         -2   -1    0    0    0  501 -0.00000000000E+00  0.00000000000E+00  0.53124667672E+02  0.53124667672E+02  0.00000000000E+00 0. -1.
          2   -1    0    0  501    0  0.00000000000E+00 -0.00000000000E+00 -0.41353348756E+03  0.41353348756E+03  0.00000000000E+00 0.  1.
         25    2    1    2    0    0 -0.53435320660E+00  0.75521643203E+02 -0.30014418550E+03  0.33382427390E+03  0.12509320377E+03 0.  0.
         23    2    1    2    0    0  0.53435320660E+00 -0.75521643203E+02 -0.60264634386E+02  0.13283388133E+03  0.91154866830E+02 0.  0.
          5    1    3    3  502    0  0.48989530890E+02 -0.66799823173E+01 -0.11488060888E+03  0.12513841536E+03  0.41800000000E+01 0. -1.
         -5    1    3    3    0  502 -0.49523884097E+02  0.82201625520E+02 -0.18526357662E+03  0.20868585855E+03  0.41800000000E+01 0. -1.
        -11    1    4    4    0    0  0.90344990749E+01 -0.38802850186E+02  0.19690341956E+02  0.44440892457E+02  0.00000000000E+00 0. -1.
         11    1    4    4    0    0 -0.85001458683E+01 -0.36718793017E+02 -0.79954976342E+02  0.88392988875E+02  0.00000000000E+00 0.  1.
</event>
<event>
 8    1  0.7026811E-009  0.1201958E+03  0.7561462E-02  0.1242774E+00
          1   -1    0    0  501    0  0.00000000000E+00  0.00000000000E+00  0.25047853688E+02  0.25047853688E+02  0.00000000000E+00 0. -1.
         -1   -1    0    0    0  501 -0.00000000000E+00 -0.00000000000E+00 -0.92174966912E+03  0.92174966912E+03  0.00000000000E+00 0.  1.
         25    2    1    2    0    0  0.50913691889E+02 -0.76828245107E+02 -0.65423281767E+03  0.67242931951E+03  0.12508327924E+03 0.  0.
         23    2    1    2    0    0 -0.50913691889E+02  0.76828245107E+02 -0.24246899776E+03  0.27436820330E+03  0.89397499072E+02 0.  0.
          5    1    3    3  502    0  0.19781618788E+01 -0.59980149467E+02 -0.57214080157E+03  0.57529479459E+03  0.41800000000E+01 0. -1.
         -5    1    3    3    0  502  0.48935530011E+02 -0.16848095640E+02 -0.82092016103E+02  0.97134524922E+02  0.41800000000E+01 0. -1.
        -11    1    4    4    0    0 -0.24931760573E+02 -0.17505570387E+02 -0.62037385788E+02  0.69113493004E+02  0.00000000000E+00 0. -1.
         11    1    4    4    0    0 -0.25981931317E+02  0.94333815494E+02 -0.18043161197E+03  0.20525471029E+03  0.00000000000E+00 0.  1.
</event>
<event>
 8    1  0.7026811E-009  0.1242002E+03  0.7561462E-02  0.1236325E+00
          2   -1    0    0  501    0  0.00000000000E+00  0.00000000000E+00  0.25103277488E+03  0.25103277488E+03  0.00000000000E+00 0. -1.
         -2   -1    0    0    0  501 -0.00000000000E+00 -0.00000000000E+00 -0.73889019935E+02  0.73889019935E+02  0.00000000000E+00 0.  1.
         25    2    1    2    0    0 -0.50390788841E+01  0.76842641662E+02  0.60037171021E+02  0.15868936306E+03  0.12509063973E+03 0.  0.
         23    2    1    2    0    0  0.50390788841E+01 -0.76842641662E+02  0.11710658392E+03  0.16623243176E+03  0.89381684235E+02 0.  0.
          5    1    3    3  502    0  0.48401881762E+02  0.17925055075E+01  0.42996056187E+02  0.64900604633E+02  0.41800000000E+01 0.  1.
         -5    1    3    3    0  502 -0.53440960646E+02  0.75050136154E+02  0.17041114834E+02  0.93788758422E+02  0.41800000000E+01 0.  1.
        -11    1    4    4    0    0  0.39034032881E+02 -0.53881891139E+02  0.10344454806E+03  0.12299466834E+03  0.00000000000E+00 0. -1.
         11    1    4    4    0    0 -0.33994953997E+02 -0.22960750523E+02  0.13662035862E+02  0.43237763422E+02  0.00000000000E+00 0.  1.
</event>
<event>
 8    1  0.7026811E-009  0.9105877E+02  0.7561462E-02  0.1300308E+00
         -1   -1    0    0    0  501 -0.00000000000E+00  0.00000000000E+00  0.10663046858E+02  0.10663046858E+02  0.00000000000E+00 0.  1.
          1   -1    0    0  501    0  0.00000000000E+00 -0.00000000000E+00 -0.14333995368E+04  0.14333995368E+04  0.00000000000E+00 0. -1.
         25    2    1    2    0    0  0.39051312456E+02  0.24187662527E+02 -0.10275037381E+04  0.10361089646E+04  0.12509119303E+03 0.  0.
         23    2    1    2    0    0 -0.39051312456E+02 -0.24187662527E+02 -0.39523275176E+03  0.40795361903E+03  0.90039875587E+02 0.  0.
          5    1    3    3  502    0  0.33891239509E+02 -0.19130630348E+02 -0.97361499409E+02  0.10493488981E+03  0.41800000000E+01 0. -1.
         -5    1    3    3    0  502  0.51600729474E+01  0.43318292875E+02 -0.93014223874E+03  0.93117407477E+03  0.41800000000E+01 0. -1.
        -11    1    4    4    0    0 -0.56962113168E+02  0.12506992860E+02 -0.27021007812E+03  0.27643189672E+03  0.00000000000E+00 0.  1.
         11    1    4    4    0    0  0.17910800711E+02 -0.36694655387E+02 -0.12502267364E+03  0.13152172231E+03  0.00000000000E+00 0. -1.
</event>
<event>
 8    1  0.7026811E-009  0.1325333E+03  0.7561462E-02  0.1223744E+00
          1   -1    0    0  501    0  0.00000000000E+00  0.00000000000E+00  0.12191863399E+03  0.12191863399E+03  0.00000000000E+00 0. -1.
         -1   -1    0    0    0  501 -0.00000000000E+00 -0.00000000000E+00 -0.14586714331E+03  0.14586714331E+03  0.00000000000E+00 0.  1.
         25    2    1    2    0    0 -0.27294403917E+02 -0.70768252245E+02 -0.57367367030E+01  0.14641221300E+03  0.12510194225E+03 0.  0.
         23    2    1    2    0    0  0.27294403917E+02  0.70768252245E+02 -0.18211772616E+02  0.12137356431E+03  0.92987867173E+02 0.  0.
          5    1    3    3  502    0 -0.16625352176E+02 -0.10677902316E+03 -0.87662755534E+01  0.10850106962E+03  0.41800000000E+01 0.  1.
         -5    1    3    3    0  502 -0.10669051742E+02  0.36010770910E+02  0.30295388504E+01  0.37911143378E+02  0.41800000000E+01 0.  1.
        -11    1    4    4    0    0  0.58255782702E+02  0.23919646185E+02 -0.16898381789E+02  0.65203075073E+02  0.00000000000E+00 0.  1.
         11    1    4    4    0    0 -0.30961378785E+02  0.46848606060E+02 -0.13133908266E+01  0.56170489240E+02  0.00000000000E+00 0. -1.
</event>
<event>
 8    1  0.7026811E-009  0.6200244E+02  0.7561462E-02  0.1389615E+00
          1   -1    0    0  501    0  0.00000000000E+00  0.00000000000E+00  0.86155443260E+02  0.86155443260E+02  0.00000000000E+00 0. -1.
         -1   -1    0    0    0  501 -0.00000000000E+00 -0.00000000000E+00 -0.26714740376E+03  0.26714740376E+03  0.00000000000E+00 0.  1.
         25    2    1    2    0    0  0.13071385749E+01 -0.20657605642E+02 -0.21113258941E+03  0.24627678139E+03  0.12508731933E+03 0.  0.
         23    2    1    2    0    0 -0.13071385749E+01  0.20657605642E+02  0.30140628911E+02  0.10702606563E+03  0.10058665881E+03 0.  0.
          5    1    3    3  502    0  0.11142906284E+02 -0.62792765795E+01  0.14588032026E+02  0.19846328457E+02  0.41800000000E+01 0. -1.
         -5    1    3    3    0  502 -0.98357677095E+01 -0.14378329063E+02 -0.22572062144E+03  0.22643045293E+03  0.41800000000E+01 0. -1.
        -11    1    4    4    0    0 -0.38424769208E+02 -0.14919149937E+02 -0.92648554432E+01  0.42247857578E+02  0.00000000000E+00 0.  1.
         11    1    4    4    0    0  0.37117630633E+02  0.35576755579E+02  0.39405484354E+02  0.64778208053E+02  0.00000000000E+00 0. -1.
</event>
<event>
 8    1  0.7026811E-009  0.7801865E+02  0.7561462E-02  0.1334770E+00
          4   -1    0    0  501    0  0.00000000000E+00  0.00000000000E+00  0.65325724558E+02  0.65325724558E+02  0.00000000000E+00 0. -1.
         -4   -1    0    0    0  501 -0.00000000000E+00 -0.00000000000E+00 -0.19538633777E+03  0.19538633777E+03  0.00000000000E+00 0.  1.
         25    2    1    2    0    0  0.30232105013E+00 -0.11863306747E+02 -0.10987772621E+03  0.16691781854E+03  0.12509042324E+03 0.  0.
         23    2    1    2    0    0 -0.30232105013E+00  0.11863306747E+02 -0.20182887010E+02  0.93794243790E+02  0.90825006442E+02 0.  0.
          5    1    3    3  502    0  0.42649238916E+02 -0.18307239601E+02  0.24122752433E+01  0.46662662523E+02  0.41800000000E+01 0.  1.
         -5    1    3    3    0  502 -0.42346917866E+02  0.64439328536E+01 -0.11229000145E+03  0.12025515602E+03  0.41800000000E+01 0.  1.
        -11    1    4    4    0    0  0.66892203742E+01 -0.26537241284E+02 -0.41201859575E+02  0.49462754438E+02  0.00000000000E+00 0.  1.
         11    1    4    4    0    0 -0.69915414243E+01  0.38400548031E+02  0.21018972564E+02  0.44331489353E+02  0.00000000000E+00 0. -1.
</event>
<event>
 8    1  0.7026811E-009  0.1335983E+03  0.7561462E-02  0.1222212E+00
          2   -1    0    0  501    0  0.00000000000E+00  0.00000000000E+00  0.28713671885E+02  0.28713671885E+02  0.00000000000E+00 0. -1.
         -2   -1    0    0    0  501 -0.00000000000E+00 -0.00000000000E+00 -0.85768148427E+03  0.85768148427E+03  0.00000000000E+00 0.  1.
         25    2    1    2    0    0  0.54934580503E+02 -0.10202041655E+03 -0.47302051942E+03  0.50281699738E+03  0.12510214838E+03 0.  0.
         23    2    1    2    0    0 -0.54934580503E+02  0.10202041655E+03 -0.35594729297E+03  0.38357815878E+03  0.83712334777E+02 0.  0.
          5    1    3    3  502    0  0.68805834420E+01 -0.59473446758E+02 -0.60162773394E+02  0.84979203340E+02  0.41800000000E+01 0.  1.
         -5    1    3    3    0  502  0.48053997061E+02 -0.42546969794E+02 -0.41285774603E+03  0.41783779404E+03  0.41800000000E+01 0.  1.
        -11    1    4    4    0    0 -0.64595097720E+01  0.93403957773E+02 -0.22693812709E+03  0.24549325473E+03  0.00000000000E+00 0.  1.
         11    1    4    4    0    0 -0.48475070731E+02  0.86164587794E+01 -0.12900916588E+03  0.13808490405E+03  0.00000000000E+00 0. -1.
</event>
<event>
 8    1  0.7026811E-009  0.1179429E+03  0.7561462E-02  0.1246530E+00
         -1   -1    0    0    0  501 -0.00000000000E+00  0.00000000000E+00  0.24732402595E+02  0.24732402595E+02  0.00000000000E+00 0.  1.
          1   -1    0    0  501    0  0.00000000000E+00 -0.00000000000E+00 -0.97303323768E+03  0.97303323768E+03  0.00000000000E+00 0. -1.
         25    2    1    2    0    0 -0.21483910056E+02 -0.10766789444E+03 -0.54721538066E+03  0.57196738379E+03  0.12509229156E+03 0.  0.
         23    2    1    2    0    0  0.21483910056E+02  0.10766789444E+03 -0.40108545442E+03  0.42579825648E+03  0.91546051741E+02 0.  0.
          5    1    3    3  502    0 -0.16802729790E+02  0.23994328642E+00 -0.31877739559E+03  0.31924738001E+03  0.41800000000E+01 0. -1.
         -5    1    3    3    0  502 -0.46811802662E+01 -0.10790783772E+03 -0.22843798507E+03  0.25272000379E+03  0.41800000000E+01 0. -1.
        -11    1    4    4    0    0 -0.14158589906E+01  0.13183885791E+02 -0.16704679237E+00  0.13260746806E+02  0.00000000000E+00 0.  1.
         11    1    4    4    0    0  0.22899769046E+02  0.94484008647E+02 -0.40091840763E+03  0.41253750967E+03  0.00000000000E+00 0. -1.
</event>
<event>
 8    1  0.7026811E-009  0.1403646E+03  0.7561462E-02  0.1212839E+00
          2   -1    0    0  501    0  0.00000000000E+00  0.00000000000E+00  0.19970311474E+03  0.19970311474E+03  0.00000000000E+00 0. -1.
         -2   -1    0    0    0  501 -0.00000000000E+00 -0.00000000000E+00 -0.10510308479E+03  0.10510308479E+03  0.00000000000E+00 0.  1.
         25    2    1    2    0    0 -0.17567857601E+02  0.92379670102E+02  0.23322900681E+02  0.15822058732E+03  0.12508862253E+03 0.  0.
         23    2    1    2    0    0  0.17567857601E+02 -0.92379670102E+02  0.71277129268E+02  0.14658561221E+03  0.86972866354E+02 0.  0.
          5    1    3    3  502    0 -0.83537105175E+01  0.12151102232E+03  0.32346307678E+02  0.12608913135E+03  0.41800000000E+01 0. -1.
         -5    1    3    3    0  502 -0.92141470834E+01 -0.29131352221E+02 -0.90234069971E+01  0.32131455967E+02  0.41800000000E+01 0. -1.
        -11    1    4    4    0    0 -0.23616486855E+02  0.33078370469E+01  0.11436507425E+02  0.26447569631E+02  0.00000000000E+00 0.  1.
         11    1    4    4    0    0  0.41184344456E+02 -0.95687507149E+02  0.59840621843E+02  0.12013804258E+03  0.00000000000E+00 0. -1.
</event>
<event>
 8    1  0.7026811E-009  0.2386413E+03  0.7561462E-02  0.1120701E+00
          1   -1    0    0  501    0  0.00000000000E+00  0.00000000000E+00  0.42418455301E+02  0.42418455301E+02  0.00000000000E+00 0. -1.
         -1   -1    0    0    0  501 -0.00000000000E+00 -0.00000000000E+00 -0.14065618602E+04  0.14065618602E+04  0.00000000000E+00 0.  1.
         25    2    1    2    0    0  0.10825344294E+03  0.18651995674E+03 -0.78731284506E+03  0.82584341458E+03  0.12508927708E+03 0.  0.
         23    2    1    2    0    0 -0.10825344294E+03 -0.18651995674E+03 -0.57683055988E+03  0.62313690096E+03  0.95171426155E+02 0.  0.
          5    1    3    3  502    0 -0.13679394277E+02  0.84218721204E+02 -0.35527834880E+03  0.36540401798E+03  0.41800000000E+01 0.  1.
         -5    1    3    3    0  502  0.12193283722E+03  0.10230123554E+03 -0.43203449626E+03  0.46043939660E+03  0.41800000000E+01 0.  1.
        -11    1    4    4    0    0 -0.88274408359E+02 -0.65346655922E+02 -0.22257118066E+03  0.24819445416E+03  0.00000000000E+00 0. -1.
         11    1    4    4    0    0 -0.19979034585E+02 -0.12117330082E+03 -0.35425937922E+03  0.37494244681E+03  0.00000000000E+00 0.  1.
</event>
<event>
 8    1  0.7026811E-009  0.9928736E+02  0.7561462E-02  0.1281802E+00
         -1   -1    0    0    0  501 -0.00000000000E+00  0.00000000000E+00  0.20492574039E+03  0.20492574039E+03  0.00000000000E+00 0.  1.
          1   -1    0    0  501    0  0.00000000000E+00 -0.00000000000E+00 -0.65744461676E+02  0.65744461676E+02  0.00000000000E+00 0. -1.
         25    2    1    2    0    0  0.13086969155E+02  0.11539625038E+02  0.11776315589E+03  0.17268379490E+03  0.12508837048E+03 0.  0.
         23    2    1    2    0    0 -0.13086969155E+02 -0.11539625038E+02  0.21418122823E+02  0.97986407159E+02  0.94011532777E+02 0.  0.
          5    1    3    3  502    0  0.17280259995E+02  0.67444981238E+02  0.71398042690E+02  0.99812753592E+02  0.41800000000E+01 0. -1.
         -5    1    3    3    0  502 -0.41932908398E+01 -0.55905356200E+02  0.46365113199E+02  0.72871041312E+02  0.41800000000E+01 0. -1.
        -11    1    4    4    0    0  0.16917223859E+02  0.21904828953E+02  0.40596703534E+02  0.49133556073E+02  0.00000000000E+00 0.  1.
         11    1    4    4    0    0 -0.30004193014E+02 -0.33444453992E+02 -0.19178580710E+02  0.48852851087E+02  0.00000000000E+00 0. -1.
</event>
<event>
 8    1  0.7026811E-009  0.1291200E+03  0.7561462E-02  0.1228767E+00
          2   -1    0    0  501    0  0.00000000000E+00  0.00000000000E+00  0.21987986570E+04  0.21987986570E+04  0.00000000000E+00 0. -1.
         -2   -1    0    0    0  501 -0.00000000000E+00 -0.00000000000E+00 -0.26782926868E+02  0.26782926868E+02  0.00000000000E+00 0.  1.
         25    2    1    2    0    0 -0.49491535049E+02 -0.60825981491E+02  0.20432653216E+04  0.20485921976E+04  0.12509038941E+03 0.  0.
         23    2    1    2    0    0  0.49491535049E+02  0.60825981491E+02  0.12875040853E+03  0.17698938627E+03  0.92732750908E+02 0.  0.
          5    1    3    3  502    0 -0.88288310483E+02 -0.63012028136E+02  0.15106546212E+04  0.15145495035E+04  0.41800000000E+01 0.  1.
         -5    1    3    3    0  502  0.38796775435E+02  0.21860466455E+01  0.53261070034E+03  0.53404269408E+03  0.41800000000E+01 0.  1.
        -11    1    4    4    0    0 -0.16774682680E+02  0.36230363443E+02  0.84872431513E+02  0.93794236737E+02  0.00000000000E+00 0. -1.
         11    1    4    4    0    0  0.66266217729E+02  0.24595618047E+02  0.43877977019E+02  0.83195149537E+02  0.00000000000E+00 0.  1.
</event>
<event>
 8    1  0.7026811E-009  0.1215371E+03  0.7561462E-02  0.1240583E+00
         -1   -1    0    0    0  501 -0.00000000000E+00  0.00000000000E+00  0.92559043060E+02  0.92559043060E+02  0.00000000000E+00 0.  1.
          1   -1    0    0  501    0  0.00000000000E+00 -0.00000000000E+00 -0.22385294149E+03  0.22385294149E+03  0.00000000000E+00 0. -1.
         25    2    1    2    0    0 -0.70312766959E+01  0.64391889327E+02  0.40329166040E+01  0.14092592648E+03  0.12509235818E+03 0.  0.
         23    2    1    2    0    0  0.70312766959E+01 -0.64391889327E+02 -0.13532681503E+03  0.17548605807E+03  0.91028871507E+02 0.  0.
          5    1    3    3  502    0  0.11770126403E+02 -0.34841609227E+02  0.13500658332E+02  0.39398144430E+02  0.41800000000E+01 0.  1.
         -5    1    3    3    0  502 -0.18801403099E+02  0.99233498555E+02 -0.94677417282E+01  0.10152778205E+03  0.41800000000E+01 0.  1.
        -11    1    4    4    0    0  0.55712267382E+01  0.19903282576E+02 -0.56130024615E+02  0.59814370246E+02  0.00000000000E+00 0. -1.
         11    1    4    4    0    0  0.14600499577E+01 -0.84295171904E+02 -0.79196790419E+02  0.11567168783E+03  0.00000000000E+00 0.  1.
</event>
<event>
 8    1  0.7026811E-009  0.1040688E+03  0.7561462E-02  0.1271965E+00
         -4   -1    0    0    0  501 -0.00000000000E+00  0.00000000000E+00  0.14248451990E+03  0.14248451990E+03  0.00000000000E+00 0.  1.
          4   -1    0    0  501    0  0.00000000000E+00 -0.00000000000E+00 -0.29927761178E+03  0.29927761178E+03  0.00000000000E+00 0. -1.
         25    2    1    2    0    0  0.97940707711E+01 -0.68966685441E+02  0.90607482177E+02  0.16943821920E+03  0.12508903539E+03 0.  0.
         23    2    1    2    0    0 -0.97940707711E+01  0.68966685441E+02 -0.24740057405E+03  0.27232391249E+03  0.90005231785E+02 0.  0.
          5    1    3    3  502    0  0.37396157828E+01 -0.81399834922E+02  0.40605613189E+01  0.81693808882E+02  0.41800000000E+01 0.  1.
         -5    1    3    3    0  502  0.60544549883E+01  0.12433149481E+02  0.86546920858E+02  0.87744410313E+02  0.41800000000E+01 0.  1.
        -11    1    4    4    0    0  0.32810479296E+02  0.60259263249E+02 -0.12763549054E+03  0.14490867746E+03  0.00000000000E+00 0.  1.
         11    1    4    4    0    0 -0.42604550067E+02  0.87074221919E+01 -0.11976508352E+03  0.12741523503E+03  0.00000000000E+00 0. -1.
</event>
<event>
 8    1  0.7026811E-009  0.2444545E+03  0.7561462E-02  0.1116860E+00
         -1   -1    0    0    0  501 -0.00000000000E+00  0.00000000000E+00  0.21849346782E+03  0.21849346782E+03  0.00000000000E+00 0.  1.
          1   -1    0    0  501    0  0.00000000000E+00 -0.00000000000E+00 -0.33579892224E+03  0.33579892224E+03  0.00000000000E+00 0. -1.
         25    2    1    2    0    0  0.20615639392E+03 -0.73666887158E+02  0.57878090609E+02  0.25869812008E+03  0.12509026717E+03 0.  0.
         23    2    1    2    0    0 -0.20615639392E+03  0.73666887158E+02 -0.17518354503E+03  0.29559426999E+03  0.93591821131E+02 0.  0.
          5    1    3    3  502    0  0.17147900902E+03 -0.22161221019E+01  0.28397524189E+02  0.17387884723E+03  0.41800000000E+01 0. -1.
         -5    1    3    3    0  502  0.34677384897E+02 -0.71450765056E+02  0.29480566420E+02  0.84819272851E+02  0.41800000000E+01 0. -1.
        -11    1    4    4    0    0 -0.17087294925E+03  0.17853753358E+02 -0.12032397714E+03  0.20974789813E+03  0.00000000000E+00 0.  1.
         11    1    4    4    0    0 -0.35283444670E+02  0.55813133800E+02 -0.54859567889E+02  0.85846371859E+02  0.00000000000E+00 0. -1.
</event>
<event>
 8    1  0.7026811E-009  0.7377442E+02  0.7561462E-02  0.1347709E+00
         -3   -1    0    0    0  501 -0.00000000000E+00  0.00000000000E+00  0.40691911819E+03  0.40691911819E+03  0.00000000000E+00 0.  1.
          3   -1    0    0  501    0  0.00000000000E+00 -0.00000000000E+00 -0.29368491517E+02  0.29368491517E+02  0.00000000000E+00 0. -1.
         25    2    1    2    0    0 -0.14439504153E+02  0.10678945457E+02  0.21716258861E+03  0.25125761563E+03  0.12509300687E+03 0.  0.
         23    2    1    2    0    0  0.14439504153E+02 -0.10678945457E+02  0.16038803807E+03  0.18502999407E+03  0.90494402010E+02 0.  0.
          5    1    3    3  502    0  0.27254755248E+02 -0.75765999310E+01  0.20062189555E+03  0.20264955940E+03  0.41800000000E+01 0. -1.
         -5    1    3    3    0  502 -0.41694259401E+02  0.18255545388E+02  0.16540693058E+02  0.48608056239E+02  0.41800000000E+01 0. -1.
        -11    1    4    4    0    0  0.16250593804E+02 -0.40360618898E+02  0.34077015811E+02  0.55265761222E+02  0.00000000000E+00 0. -1.
         11    1    4    4    0    0 -0.18110896502E+01  0.29681673441E+02  0.12631102226E+03  0.12976423285E+03  0.00000000000E+00 0.  1.
</event>
<event>
 8    1  0.7026811E-009  0.1035874E+03  0.7561462E-02  0.1272928E+00
         -2   -1    0    0    0  501 -0.00000000000E+00  0.00000000000E+00  0.16704639805E+02  0.16704639805E+02  0.00000000000E+00 0.  1.
          2   -1    0    0  501    0  0.00000000000E+00 -0.00000000000E+00 -0.76226046525E+03  0.76226046525E+03  0.00000000000E+00 0. -1.
         25    2    1    2    0    0  0.27523506654E+02  0.98639497317E+01 -0.51794656216E+03  0.53363698201E+03  0.12507976012E+03 0.  0.
         23    2    1    2    0    0 -0.27523506654E+02 -0.98639497317E+01 -0.22760926329E+03  0.24532812305E+03  0.86747163077E+02 0.  0.
          5    1    3    3  502    0  0.57563427743E+02  0.48438631823E+02 -0.37522371803E+03  0.38271420177E+03  0.41800000000E+01 0.  1.
         -5    1    3    3    0  502 -0.30039921089E+02 -0.38574682091E+02 -0.14272284413E+03  0.15092278024E+03  0.41800000000E+01 0.  1.
        -11    1    4    4    0    0  0.26672973488E+02 -0.10206882655E+02 -0.34653841751E+02  0.44905642366E+02  0.00000000000E+00 0.  1.
         11    1    4    4    0    0 -0.54196480143E+02  0.34293292325E+00 -0.19295542154E+03  0.20042248069E+03  0.00000000000E+00 0. -1.
</event>
<event>
 8    1  0.7026811E-009  0.1020047E+03  0.7561462E-02  0.1276136E+00
          2   -1    0    0  501    0  0.00000000000E+00  0.00000000000E+00  0.95142660294E+02  0.95142660294E+02  0.00000000000E+00 0. -1.
         -2   -1    0    0    0  501 -0.00000000000E+00 -0.00000000000E+00 -0.27413787289E+03  0.27413787289E+03  0.00000000000E+00 0.  1.
         25    2    1    2    0    0 -0.11723434757E+02  0.82453081244E+02  0.84378689944E+00  0.15028023321E+03  0.12508991561E+03 0.  0.
         23    2    1    2    0    0  0.11723434757E+02 -0.82453081244E+02 -0.17983899949E+03  0.21900029997E+03  0.93183239479E+02 0.  0.
          5    1    3    3  502    0 -0.22013183454E+02  0.98085977098E+02  0.38736068341E+02  0.10781184786E+03  0.41800000000E+01 0. -1.
         -5    1    3    3    0  502  0.10289748697E+02 -0.15632895854E+02 -0.37892281442E+02  0.42468385346E+02  0.41800000000E+01 0. -1.
        -11    1    4    4    0    0  0.93101057892E+01 -0.24383130440E+02 -0.15259619301E+03  0.15481218699E+03  0.00000000000E+00 0.  1.
         11    1    4    4    0    0  0.24133289677E+01 -0.58069950804E+02 -0.27242806485E+02  0.64188112983E+02  0.00000000000E+00 0. -1.
</event>
<event>
 8    1  0.7026811E-009  0.9669701E+02  0.7561462E-02  0.1287399E+00
         -3   -1    0    0    0  501 -0.00000000000E+00  0.00000000000E+00  0.44234629708E+02  0.44234629708E+02  0.00000000000E+00 0.  1.
          3   -1    0    0  501    0  0.00000000000E+00 -0.00000000000E+00 -0.36357360865E+03  0.36357360865E+03  0.00000000000E+00 0. -1.
         25    2    1    2    0    0  0.33790424086E+02 -0.50733023230E+02 -0.14607017576E+03  0.20173974918E+03  0.12508716059E+03 0.  0.
         23    2    1    2    0    0 -0.33790424086E+02  0.50733023230E+02 -0.17326880318E+03  0.20606848918E+03  0.93415799900E+02 0.  0.
          5    1    3    3  502    0  0.85302039428E+01 -0.55598400033E+02 -0.31814581756E+01  0.56493721259E+02  0.41800000000E+01 0.  1.
         -5    1    3    3    0  502  0.25260220144E+02  0.48653768039E+01 -0.14288871758E+03  0.14524602792E+03  0.41800000000E+01 0.  1.
        -11    1    4    4    0    0  0.15956224842E+02  0.58447846715E+02 -0.83777386739E+02  0.10338956633E+03  0.00000000000E+00 0.  1.
         11    1    4    4    0    0 -0.49746648928E+02 -0.77148234852E+01 -0.89491416443E+02  0.10267892285E+03  0.00000000000E+00 0. -1.
</event>
<event>
 8    1  0.7026811E-009  0.1102578E+03  0.7561462E-02  0.1260093E+00
          1   -1    0    0  501    0  0.00000000000E+00  0.00000000000E+00  0.84158911549E+02  0.84158911549E+02  0.00000000000E+00 0. -1.
         -1   -1    0    0    0  501 -0.00000000000E+00 -0.00000000000E+00 -0.36351018929E+03  0.36351018929E+03  0.00000000000E+00 0.  1.
         25    2    1    2    0    0  0.26683540138E+02 -0.63398966180E+02  0.24323853319E+01  0.14277597103E+03  0.12509045198E+03 0.  0.
         23    2    1    2    0    0 -0.26683540138E+02  0.63398966180E+02 -0.28178366307E+03  0.30489312981E+03  0.93948643439E+02 0.  0.
          5    1    3    3  502    0  0.76576302811E+01  0.22097542136E+02  0.40680591678E+02  0.47109697614E+02  0.41800000000E+01 0.  1.
         -5    1    3    3    0  502  0.19025909857E+02 -0.85496508317E+02 -0.38248206346E+02  0.95666273414E+02  0.41800000000E+01 0.  1.
        -11    1    4    4    0    0 -0.34171144093E+02 -0.97535727812E+01 -0.47378243360E+02  0.59224126963E+02  0.00000000000E+00 0. -1.
         11    1    4    4    0    0  0.74876039551E+01  0.73152538962E+02 -0.23440541971E+03  0.24566900285E+03  0.00000000000E+00 0.  1.
</event>
<event>
 8    1  0.7026811E-009  0.9746212E+02  0.7561462E-02  0.1285725E+00
         -1   -1    0    0    0  501 -0.00000000000E+00  0.00000000000E+00  0.42246589908E+02  0.42246589908E+02  0.00000000000E+00 0.  1.
          1   -1    0    0  501    0  0.00000000000E+00 -0.00000000000E+00 -0.38382566521E+03  0.38382566521E+03  0.00000000000E+00 0. -1.
         25    2    1    2    0    0 -0.60604434383E+02 -0.26397830684E+02 -0.17599613997E+03  0.22581273729E+03  0.12508800144E+03 0.  0.
         23    2    1    2    0    0  0.60604434383E+02  0.26397830684E+02 -0.16558293533E+03  0.20025951783E+03  0.91194424601E+02 0.  0.
          5    1    3    3  502    0  0.98225734365E+00 -0.21308279335E+02  0.14080857414E+02  0.25898852160E+02  0.41800000000E+01 0.  1.
         -5    1    3    3    0  502 -0.61586691727E+02 -0.50895513489E+01 -0.19007699739E+03  0.19991388513E+03  0.41800000000E+01 0.  1.
        -11    1    4    4    0    0 -0.19576826130E+02  0.24081617578E+02 -0.61159069443E+02  0.68582856470E+02  0.00000000000E+00 0.  1.
         11    1    4    4    0    0  0.80181260513E+02  0.23162131062E+01 -0.10442386589E+03  0.13167666136E+03  0.00000000000E+00 0. -1.
</event>
<event>
 8    1  0.7026811E-009  0.1255908E+03  0.7561462E-02  0.1234149E+00
         -1   -1    0    0    0  501 -0.00000000000E+00  0.00000000000E+00  0.49058808615E+02  0.49058808615E+02  0.00000000000E+00 0. -1.
          1   -1    0    0  501    0  0.00000000000E+00 -0.00000000000E+00 -0.43145121723E+03  0.43145121723E+03  0.00000000000E+00 0.  1.
         25    2    1    2    0    0 -0.27172781755E+02  0.74559404907E+02 -0.28984708892E+03  0.32551131328E+03  0.12509522448E+03 0.  0.
         23    2    1    2    0    0  0.27172781755E+02 -0.74559404907E+02 -0.92545319700E+02  0.15499871257E+03  0.95720947408E+02 0.  0.
          5    1    3    3  502    0  0.48156811297E+02  0.18878903056E+02 -0.13310122289E+03  0.14285971927E+03  0.41800000000E+01 0.  1.
         -5    1    3    3    0  502 -0.75329593052E+02  0.55680501851E+02 -0.15674586603E+03  0.18265159401E+03  0.41800000000E+01 0.  1.
        -11    1    4    4    0    0  0.49441778740E+02 -0.64004097142E+02 -0.10059351864E+03  0.12907389329E+03  0.00000000000E+00 0.  1.
         11    1    4    4    0    0 -0.22268996985E+02 -0.10555307765E+02  0.80481989419E+01  0.25924819285E+02  0.00000000000E+00 0. -1.
</event>
<event>
 8    1  0.7026811E-009  0.3966299E+03  0.7561462E-02  0.1044953E+00
          1   -1    0    0  501    0  0.00000000000E+00  0.00000000000E+00  0.81843937639E+03  0.81843937639E+03  0.00000000000E+00 0. -1.
         -1   -1    0    0    0  501 -0.00000000000E+00 -0.00000000000E+00 -0.19944651882E+03  0.19944651882E+03  0.00000000000E+00 0.  1.
         25    2    1    2    0    0  0.64486980957E+02  0.38224957788E+03  0.35512216354E+03  0.54040030847E+03  0.12508969527E+03 0.  0.
         23    2    1    2    0    0 -0.64486980957E+02 -0.38224957788E+03  0.26387069403E+03  0.47748558675E+03  0.89952386749E+02 0.  0.
          5    1    3    3  502    0 -0.24779056225E+02  0.21052190580E+03  0.21040653179E+03  0.29870027698E+03  0.41800000000E+01 0. -1.
         -5    1    3    3    0  502  0.89266037182E+02  0.17172767207E+03  0.14471563175E+03  0.24170003149E+03  0.41800000000E+01 0. -1.
        -11    1    4    4    0    0 -0.15443467252E+02 -0.96409157869E+02  0.11703486006E+03  0.15241517271E+03  0.00000000000E+00 0.  1.
         11    1    4    4    0    0 -0.49043513704E+02 -0.28584042001E+03  0.14683583398E+03  0.32507041404E+03  0.00000000000E+00 0. -1.
</event>
<event>
 8    1  0.7026811E-009  0.1184783E+03  0.7561462E-02  0.1245629E+00
         -3   -1    0    0    0  501 -0.00000000000E+00  0.00000000000E+00  0.72469964733E+02  0.72469964733E+02  0.00000000000E+00 0.  1.
          3   -1    0    0  501    0  0.00000000000E+00 -0.00000000000E+00 -0.29425953992E+03  0.29425953992E+03  0.00000000000E+00 0. -1.
         25    2    1    2    0    0 -0.35699290304E+02 -0.76718580555E+02 -0.60657192651E+02  0.16274753329E+03  0.12508910681E+03 0.  0.
         23    2    1    2    0    0  0.35699290304E+02  0.76718580555E+02 -0.16113238254E+03  0.20398197136E+03  0.92113082719E+02 0.  0.
          5    1    3    3  502    0 -0.66925263481E+02 -0.93113420107E+02 -0.53103717219E+02  0.12643803652E+03  0.41800000000E+01 0.  1.
         -5    1    3    3    0  502  0.31225973178E+02  0.16394839552E+02 -0.75534754313E+01  0.36309496773E+02  0.41800000000E+01 0.  1.
        -11    1    4    4    0    0  0.48825391940E+01  0.32102311317E+02  0.15421657858E+01  0.32508089088E+02  0.00000000000E+00 0.  1.
         11    1    4    4    0    0  0.30816751110E+02  0.44616269238E+02 -0.16267454832E+03  0.17147388227E+03  0.00000000000E+00 0. -1.
</event>
<event>
 8    1  0.7026811E-009  0.1380709E+03  0.7561462E-02  0.1215949E+00
          1   -1    0    0  501    0  0.00000000000E+00  0.00000000000E+00  0.10813624443E+03  0.10813624443E+03  0.00000000000E+00 0. -1.
         -1   -1    0    0    0  501 -0.00000000000E+00 -0.00000000000E+00 -0.20140199166E+03  0.20140199166E+03  0.00000000000E+00 0.  1.
         25    2    1    2    0    0  0.75476238396E+02  0.59266076228E+02 -0.23842192140E+02  0.15945377603E+03  0.12509167122E+03 0.  0.
         23    2    1    2    0    0 -0.75476238396E+02 -0.59266076228E+02 -0.69423555088E+02  0.15008446006E+03  0.92176921173E+02 0.  0.
          5    1    3    3  502    0 -0.30656802415E+02 -0.74772214403E+01 -0.93429946741E+01  0.33173970584E+02  0.41800000000E+01 0.  1.
         -5    1    3    3    0  502  0.10613304081E+03  0.66743297668E+02 -0.14499197466E+02  0.12627980544E+03  0.41800000000E+01 0.  1.
        -11    1    4    4    0    0 -0.83818275468E+02 -0.30955336982E+02 -0.18531187109E+02  0.91253170278E+02  0.00000000000E+00 0. -1.
         11    1    4    4    0    0  0.83420370714E+01 -0.28310739246E+02 -0.50892367979E+02  0.58831289784E+02  0.00000000000E+00 0.  1.
</event>
<event>
 8    1  0.7026811E-009  0.1046277E+03  0.7561462E-02  0.1270855E+00
         -1   -1    0    0    0  501 -0.00000000000E+00  0.00000000000E+00  0.44638479699E+03  0.44638479699E+03  0.00000000000E+00 0.  1.
          1   -1    0    0  501    0  0.00000000000E+00 -0.00000000000E+00 -0.33218439771E+02  0.33218439771E+02  0.00000000000E+00 0. -1.
         25    2    1    2    0    0 -0.36410756581E+02  0.24313574412E+02  0.19001372735E+03  0.23166399086E+03  0.12508435148E+03 0.  0.
         23    2    1    2    0    0  0.36410756581E+02 -0.24313574412E+02  0.22315262987E+03  0.24793924590E+03  0.98792106688E+02 0.  0.
          5    1    3    3  502    0 -0.67178052187E+02  0.37578080797E+02  0.60993815742E+02  0.98299139420E+02  0.41800000000E+01 0. -1.
         -5    1    3    3    0  502  0.30767295606E+02 -0.13264506385E+02  0.12901991161E+03  0.13336485144E+03  0.41800000000E+01 0. -1.
        -11    1    4    4    0    0  0.57532645942E+02 -0.41692148079E+02  0.19951363585E+03  0.21178746764E+03  0.00000000000E+00 0.  1.
         11    1    4    4    0    0 -0.21121889361E+02  0.17378573667E+02  0.23638994022E+02  0.36151778259E+02  0.00000000000E+00 0. -1.
</event>
<event>
 8    1  0.7026811E-009  0.1644745E+03  0.7561462E-02  0.1183736E+00
         -1   -1    0    0    0  501 -0.00000000000E+00  0.00000000000E+00  0.18691826638E+03  0.18691826638E+03  0.00000000000E+00 0.  1.
          1   -1    0    0  501    0  0.00000000000E+00 -0.00000000000E+00 -0.21422789684E+03  0.21422789684E+03  0.00000000000E+00 0. -1.
         25    2    1    2    0    0  0.89391222385E+02  0.97515142368E+02  0.89618076186E+02  0.20292675970E+03  0.12509147291E+03 0.  0.
         23    2    1    2    0    0 -0.89391222385E+02 -0.97515142368E+02 -0.11692770664E+03  0.19821940352E+03  0.90104659814E+02 0.  0.
          5    1    3    3  502    0  0.10497038367E+03  0.26534168132E+02  0.63519730705E+02  0.12559885396E+03  0.41800000000E+01 0. -1.
         -5    1    3    3    0  502 -0.15579161288E+02  0.70980974236E+02  0.26098345481E+02  0.77327905744E+02  0.41800000000E+01 0. -1.
        -11    1    4    4    0    0 -0.71926656339E+02 -0.29767506820E+02 -0.23136738637E+02  0.81208725080E+02  0.00000000000E+00 0.  1.
         11    1    4    4    0    0 -0.17464566047E+02 -0.67747635547E+02 -0.93790968004E+02  0.11701067844E+03  0.00000000000E+00 0. -1.
</event>
<event>
 8    1  0.7026811E-009  0.8600022E+02  0.7561462E-02  0.1312837E+00
          2   -1    0    0  501    0  0.00000000000E+00  0.00000000000E+00  0.93672673389E+03  0.93672673389E+03  0.00000000000E+00 0. -1.
         -2   -1    0    0    0  501 -0.00000000000E+00 -0.00000000000E+00 -0.20832091907E+02  0.20832091907E+02  0.00000000000E+00 0.  1.
         25    2    1    2    0    0 -0.47990004886E+02 -0.52844487685E+02  0.67869670029E+03  0.69380922050E+03  0.12508574269E+03 0.  0.
         23    2    1    2    0    0  0.47990004886E+02  0.52844487685E+02  0.23719794170E+03  0.26374960530E+03  0.90583719850E+02 0.  0.
          5    1    3    3  502    0 -0.53172841730E+02 -0.36782142870E+02  0.13406343420E+03  0.14889846850E+03  0.41800000000E+01 0.  1.
         -5    1    3    3    0  502  0.51828368440E+01 -0.16062344815E+02  0.54463326609E+03  0.54491075200E+03  0.41800000000E+01 0.  1.
        -11    1    4    4    0    0 -0.19346134132E+01  0.37561388173E+02  0.24854840600E+02  0.45081744773E+02  0.00000000000E+00 0.  1.
         11    1    4    4    0    0  0.49924618300E+02  0.15283099513E+02  0.21234310110E+03  0.21866786052E+03  0.00000000000E+00 0. -1.
</event>
<event>
 8    1  0.7026811E-009  0.1591478E+03  0.7561462E-02  0.1189662E+00
         -1   -1    0    0    0  501 -0.00000000000E+00  0.00000000000E+00  0.42985303423E+02  0.42985303423E+02  0.00000000000E+00 0.  1.
          1   -1    0    0  501    0  0.00000000000E+00 -0.00000000000E+00 -0.10526242491E+04  0.10526242491E+04  0.00000000000E+00 0. -1.
         25    2    1    2    0    0 -0.91960469590E+02 -0.11457041903E+03 -0.80431993733E+03  0.82713939589E+03  0.12508361107E+03 0.  0.
         23    2    1    2    0    0  0.91960469590E+02  0.11457041903E+03 -0.20531900838E+03  0.26847015667E+03  0.91308383706E+02 0.  0.
          5    1    3    3  502    0 -0.99878314700E+02 -0.10035579218E+03 -0.43591745882E+03  0.45835408374E+03  0.41800000000E+01 0.  1.
         -5    1    3    3    0  502  0.79178451095E+01 -0.14214626844E+02 -0.36840247850E+03  0.36878531215E+03  0.41800000000E+01 0.  1.
        -11    1    4    4    0    0  0.51075058107E+02  0.16627807154E+02 -0.25025930669E+02  0.59257427696E+02  0.00000000000E+00 0.  1.
         11    1    4    4    0    0  0.40885411484E+02  0.97942611875E+02 -0.18029307771E+03  0.20921272897E+03  0.00000000000E+00 0. -1.
</event>
<event>
 8    1  0.7026811E-009  0.8588651E+02  0.7561462E-02  0.1313130E+00
          1   -1    0    0  501    0  0.00000000000E+00  0.00000000000E+00  0.90424847370E+02  0.90424847370E+02  0.00000000000E+00 0. -1.
         -1   -1    0    0    0  501 -0.00000000000E+00 -0.00000000000E+00 -0.19862442085E+03  0.19862442085E+03  0.00000000000E+00 0.  1.
         25    2    1    2    0    0  0.28601578736E+02  0.65494305333E+02 -0.94643862534E+02  0.17237053947E+03  0.12508632149E+03 0.  0.
         23    2    1    2    0    0 -0.28601578736E+02 -0.65494305333E+02 -0.13555710943E+02  0.11667872875E+03  0.91228362403E+02 0.  0.
          5    1    3    3  502    0  0.15585658726E+02  0.43574066361E+02 -0.12450048391E+03  0.13288888182E+03  0.41800000000E+01 0. -1.
         -5    1    3    3    0  502  0.13015920010E+02  0.21920238972E+02  0.29856621378E+02  0.39481657645E+02  0.41800000000E+01 0. -1.
        -11    1    4    4    0    0 -0.35865994168E+02 -0.23827703899E+01  0.23678272400E+02  0.43043091388E+02  0.00000000000E+00 0. -1.
         11    1    4    4    0    0  0.72644154314E+01 -0.63111534943E+02 -0.37233983343E+02  0.73635637364E+02  0.00000000000E+00 0.  1.
</event>
<event>
 8    1  0.7026811E-009  0.8920270E+02  0.7561462E-02  0.1304794E+00
          3   -1    0    0  501    0  0.00000000000E+00  0.00000000000E+00  0.64128425491E+02  0.64128425491E+02  0.00000000000E+00 0. -1.
         -3   -1    0    0    0  501 -0.00000000000E+00 -0.00000000000E+00 -0.28969850324E+03  0.28969850324E+03  0.00000000000E+00 0.  1.
         25    2    1    2    0    0  0.74069320551E+02 -0.39458556638E+02 -0.14171106738E+03  0.20681744007E+03  0.12509270547E+03 0.  0.
         23    2    1    2    0    0 -0.74069320551E+02  0.39458556638E+02 -0.83859010365E+02  0.14700948865E+03  0.86811371353E+02 0.  0.
          5    1    3    3  502    0  0.20224505200E+02  0.40832628914E+01  0.21122641094E+02  0.29821837858E+02  0.41800000000E+01 0. -1.
         -5    1    3    3    0  502  0.53844815351E+02 -0.43541819529E+02 -0.16283370847E+03  0.17699560222E+03  0.41800000000E+01 0. -1.
        -11    1    4    4    0    0 -0.39762641882E+02  0.62816444949E+01  0.10206716759E+02  0.41529553501E+02  0.00000000000E+00 0. -1.
         11    1    4    4    0    0 -0.34306678669E+02  0.33176912143E+02 -0.94065727124E+02  0.10547993515E+03  0.00000000000E+00 0.  1.
</event>
<event>
 8    1  0.7026811E-009  0.1956041E+03  0.7561462E-02  0.1153502E+00
         -1   -1    0    0    0  501 -0.00000000000E+00  0.00000000000E+00  0.60247500350E+02  0.60247500350E+02  0.00000000000E+00 0.  1.
          1   -1    0    0  501    0  0.00000000000E+00 -0.00000000000E+00 -0.78670657703E+03  0.78670657703E+03  0.00000000000E+00 0. -1.
         25    2    1    2    0    0  0.93529988533E+02 -0.14969439938E+03 -0.48362079126E+03  0.52980412048E+03  0.12508822636E+03 0.  0.
         23    2    1    2    0    0 -0.93529988533E+02  0.14969439938E+03 -0.24283828541E+03  0.31714995690E+03  0.10226138243E+03 0.  0.
          5    1    3    3  502    0  0.15501069246E+02  0.99001909495E+01 -0.53753250753E+01  0.19612838863E+02  0.41800000000E+01 0.  1.
         -5    1    3    3    0  502  0.78028919287E+02 -0.15959459033E+03 -0.47824546619E+03  0.51019128161E+03  0.41800000000E+01 0.  1.
        -11    1    4    4    0    0 -0.78806474042E+02  0.48814534664E+02 -0.16356478382E+03  0.18800733403E+03  0.00000000000E+00 0. -1.
         11    1    4    4    0    0 -0.14723514491E+02  0.10087986472E+03 -0.79273501597E+02  0.12914262286E+03  0.00000000000E+00 0.  1.
</event>
<event>
 8    1  0.7026811E-009  0.8280596E+02  0.7561462E-02  0.1321272E+00
          2   -1    0    0  501    0  0.00000000000E+00  0.00000000000E+00  0.88098429614E+03  0.88098429614E+03  0.00000000000E+00 0. -1.
         -2   -1    0    0    0  501 -0.00000000000E+00 -0.00000000000E+00 -0.17305506325E+02  0.17305506325E+02  0.00000000000E+00 0.  1.
         25    2    1    2    0    0 -0.13692655733E+02  0.19087149109E+02  0.68080982107E+03  0.69260491509E+03  0.12509095835E+03 0.  0.
         23    2    1    2    0    0  0.13692655733E+02 -0.19087149109E+02  0.18286896875E+03  0.20568488738E+03  0.91177876055E+02 0.  0.
          5    1    3    3  502    0 -0.50416295128E+01 -0.35281667225E+02  0.54245629583E+03  0.54364190361E+03  0.41800000000E+01 0.  1.
         -5    1    3    3    0  502 -0.86510262202E+01  0.54368816334E+02  0.13835352523E+03  0.14896301148E+03  0.41800000000E+01 0.  1.
        -11    1    4    4    0    0 -0.23527837987E+02 -0.27668433997E+02  0.15284386073E+03  0.15709980001E+03  0.00000000000E+00 0.  1.
         11    1    4    4    0    0  0.37220493720E+02  0.85812848872E+01  0.30025108020E+02  0.48585087369E+02  0.00000000000E+00 0. -1.
</event>
<event>
 8    1  0.7026811E-009  0.1604384E+03  0.7561462E-02  0.1188203E+00
          2   -1    0    0  501    0  0.00000000000E+00  0.00000000000E+00  0.21269731617E+03  0.21269731617E+03  0.00000000000E+00 0. -1.
         -2   -1    0    0    0  501 -0.00000000000E+00 -0.00000000000E+00 -0.18815387255E+03  0.18815387255E+03  0.00000000000E+00 0.  1.
         25    2    1    2    0    0  0.97392739840E+02  0.82530946616E+02  0.11831299805E+03  0.21434344387E+03  0.12509373884E+03 0.  0.
         23    2    1    2    0    0 -0.97392739840E+02 -0.82530946616E+02 -0.93769554436E+02  0.18650774485E+03  0.98466779313E+02 0.  0.
          5    1    3    3  502    0 -0.17735098207E+02 -0.14056830070E+02  0.36603243124E+02  0.43236535328E+02  0.41800000000E+01 0. -1.
         -5    1    3    3    0  502  0.11512783805E+03  0.96587776686E+02  0.81709754928E+02  0.17110690854E+03  0.41800000000E+01 0. -1.
        -11    1    4    4    0    0 -0.67698200388E+02 -0.90843962199E+01 -0.81504525814E+02  0.10634171486E+03  0.00000000000E+00 0.  1.
         11    1    4    4    0    0 -0.29694539452E+02 -0.73446550396E+02 -0.12265028622E+02  0.80166029997E+02  0.00000000000E+00 0. -1.
</event>
<event>
 8    1  0.7026811E-009  0.1436774E+03  0.7561462E-02  0.1208465E+00
          2   -1    0    0  501    0  0.00000000000E+00  0.00000000000E+00  0.32390911413E+03  0.32390911413E+03  0.00000000000E+00 0. -1.
         -2   -1    0    0    0  501 -0.00000000000E+00 -0.00000000000E+00 -0.11808186109E+03  0.11808186109E+03  0.00000000000E+00 0.  1.
         25    2    1    2    0    0  0.56103730618E+02 -0.11922799108E+03  0.21324834390E+03  0.28015027661E+03  0.12508548622E+03 0.  0.
         23    2    1    2    0    0 -0.56103730618E+02  0.11922799108E+03 -0.74210908570E+01  0.16184069861E+03  0.93671749705E+02 0.  0.
          5    1    3    3  502    0  0.19584140411E+02 -0.91366106275E+01  0.14256774772E+03  0.14425689342E+03  0.41800000000E+01 0.  1.
         -5    1    3    3    0  502  0.36519590207E+02 -0.11009138045E+03  0.70680596179E+02  0.13589338319E+03  0.41800000000E+01 0.  1.
        -11    1    4    4    0    0  0.16225422882E+02  0.32676819080E+02 -0.29484949330E+02  0.46908433036E+02  0.00000000000E+00 0.  1.
         11    1    4    4    0    0 -0.72329153500E+02  0.86551171996E+02  0.22063858473E+02  0.11493226558E+03  0.00000000000E+00 0. -1.
</event>
<event>
 8    1  0.7026811E-009  0.6246362E+02  0.7561462E-02  0.1387775E+00
         -2   -1    0    0    0  501 -0.00000000000E+00  0.00000000000E+00  0.89341145961E+01  0.89341145961E+01  0.00000000000E+00 0. -1.
          2   -1    0    0  501    0  0.00000000000E+00 -0.00000000000E+00 -0.20097885663E+04  0.20097885663E+04  0.00000000000E+00 0.  1.
         25    2    1    2    0    0  0.24632763612E+02  0.12761536120E+02 -0.16487746813E+04  0.16537450410E+04  0.12508029950E+03 0.  0.
         23    2    1    2    0    0 -0.24632763612E+02 -0.12761536120E+02 -0.35207977044E+03  0.36497763986E+03  0.92080850336E+02 0.  0.
          5    1    3    3  502    0  0.47920612066E+01  0.17417410364E+02 -0.33124825450E+02  0.37961249920E+02  0.41800000000E+01 0. -1.
         -5    1    3    3    0  502  0.19840702405E+02 -0.46558742442E+01 -0.16156498558E+04  0.16157837911E+04  0.41800000000E+01 0. -1.
        -11    1    4    4    0    0  0.26011099861E+02  0.12645125511E+02 -0.51151501074E+02  0.58761829254E+02  0.00000000000E+00 0.  1.
         11    1    4    4    0    0 -0.50643863472E+02 -0.25406661630E+02 -0.30092826937E+03  0.30621581061E+03  0.00000000000E+00 0. -1.
</event>
<event>
 8    1  0.7026811E-009  0.1426867E+03  0.7561462E-02  0.1209759E+00
          1   -1    0    0  501    0  0.00000000000E+00  0.00000000000E+00  0.46993869303E+02  0.46993869303E+02  0.00000000000E+00 0. -1.
         -1   -1    0    0    0  501 -0.00000000000E+00 -0.00000000000E+00 -0.67231515973E+03  0.67231515973E+03  0.00000000000E+00 0.  1.
         25    2    1    2    0    0 -0.10192269265E+03  0.47604918408E+02 -0.16129460570E+03  0.23306347791E+03  0.12509265116E+03 0.  0.
         23    2    1    2    0    0  0.10192269265E+03 -0.47604918408E+02 -0.46402668473E+03  0.48624555113E+03  0.91975585430E+02 0.  0.
          5    1    3    3  502    0 -0.90632646279E+01  0.59747456301E+02 -0.11155810277E+03  0.12694323138E+03  0.41800000000E+01 0.  1.
         -5    1    3    3    0  502 -0.92859428021E+02 -0.12142537892E+02 -0.49736502925E+02  0.10612024652E+03  0.41800000000E+01 0.  1.
        -11    1    4    4    0    0  0.30307107700E+02 -0.51036637321E+02 -0.31886748448E+03  0.32434508133E+03  0.00000000000E+00 0.  1.
         11    1    4    4    0    0  0.71615584949E+02  0.34317189123E+01 -0.14515920025E+03  0.16190046980E+03  0.00000000000E+00 0. -1.
</event>
<event>
 8    1  0.7026811E-009  0.1150392E+03  0.7561462E-02  0.1251513E+00
         -3   -1    0    0    0  501 -0.00000000000E+00  0.00000000000E+00  0.11758513109E+02  0.11758513109E+02  0.00000000000E+00 0.  1.
          3   -1    0    0  501    0  0.00000000000E+00 -0.00000000000E+00 -0.13371267239E+04  0.13371267239E+04  0.00000000000E+00 0. -1.
         25    2    1    2    0    0  0.40907980923E+02 -0.34415426849E+02 -0.94725127087E+03  0.95696976524E+03  0.12509307299E+03 0.  0.
         23    2    1    2    0    0 -0.40907980923E+02  0.34415426849E+02 -0.37811693991E+03  0.39191547176E+03  0.88133037212E+02 0.  0.
          5    1    3    3  502    0  0.29698813379E+02 -0.77088070302E+02 -0.43425522857E+03  0.44206296615E+03  0.41800000000E+01 0. -1.
         -5    1    3    3    0  502  0.11209167545E+02  0.42672643453E+02 -0.51299604230E+03  0.51490679909E+03  0.41800000000E+01 0. -1.
        -11    1    4    4    0    0 -0.68506538257E+02  0.31139063751E+02 -0.28062797932E+03  0.29054233745E+03  0.00000000000E+00 0.  1.
         11    1    4    4    0    0  0.27598557333E+02  0.32763630974E+01 -0.97488960595E+02  0.10137313431E+03  0.00000000000E+00 0. -1.
</event>
<event>
 8    1  0.7026811E-009  0.8361358E+02  0.7561462E-02  0.1319099E+00
         -4   -1    0    0    0  501 -0.00000000000E+00  0.00000000000E+00  0.22291895212E+03  0.22291895212E+03  0.00000000000E+00 0.  1.
          4   -1    0    0  501    0  0.00000000000E+00 -0.00000000000E+00 -0.65541787047E+02  0.65541787047E+02  0.00000000000E+00 0. -1.
         25    2    1    2    0    0  0.10588038795E+02 -0.28881356261E+02  0.14989418337E+03  0.19764516205E+03  0.12509638112E+03 0.  0.
         23    2    1    2    0    0 -0.10588038795E+02  0.28881356261E+02  0.74829817023E+01  0.90815577116E+02  0.85118944582E+02 0.  0.
          5    1    3    3  502    0  0.21092745241E+02  0.42225944420E+02  0.25233324432E+02  0.53685448176E+02  0.41800000000E+01 0. -1.
         -5    1    3    3    0  502 -0.10504706446E+02 -0.71107300681E+02  0.12466085894E+03  0.14395971388E+03  0.41800000000E+01 0. -1.
        -11    1    4    4    0    0  0.13267954412E+02  0.15806301482E+02  0.42042019899E+02  0.46833846927E+02  0.00000000000E+00 0.  1.
         11    1    4    4    0    0 -0.23855993207E+02  0.13075054779E+02 -0.34559038197E+02  0.43981730189E+02  0.00000000000E+00 0. -1.
</event>
<event>
 8    1  0.7026811E-009  0.1117695E+03  0.7561462E-02  0.1257328E+00
         -1   -1    0    0    0  501 -0.00000000000E+00  0.00000000000E+00  0.82809633287E+02  0.82809633287E+02  0.00000000000E+00 0.  1.
          1   -1    0    0  501    0  0.00000000000E+00 -0.00000000000E+00 -0.15236705140E+03  0.15236705140E+03  0.00000000000E+00 0. -1.
         25    2    1    2    0    0 -0.27864878223E+02  0.30539769838E+01 -0.47753052482E+02  0.13679672074E+03  0.12508881073E+03 0.  0.
         23    2    1    2    0    0  0.27864878223E+02 -0.30539769838E+01 -0.21804365627E+02  0.98379963947E+02  0.91746437163E+02 0.  0.
          5    1    3    3  502    0 -0.30565482662E+01  0.62719059986E+02 -0.17465000510E+02  0.65310960915E+02  0.41800000000E+01 0. -1.
         -5    1    3    3    0  502 -0.24808329957E+02 -0.59665083002E+02 -0.30288051972E+02  0.71485759821E+02  0.41800000000E+01 0. -1.
        -11    1    4    4    0    0 -0.31605745988E+02  0.13124369173E+02 -0.97015849388E+01  0.35570957198E+02  0.00000000000E+00 0.  1.
         11    1    4    4    0    0  0.59470624211E+02 -0.16178346156E+02 -0.12102780688E+02  0.62809006749E+02  0.00000000000E+00 0. -1.
</event>
<event>
 8    1  0.7026811E-009  0.1625149E+03  0.7561462E-02  0.1185886E+00
          1   -1    0    0  501    0  0.00000000000E+00  0.00000000000E+00  0.23706798491E+03  0.23706798491E+03  0.00000000000E+00 0. -1.
         -1   -1    0    0    0  501 -0.00000000000E+00 -0.00000000000E+00 -0.15882244327E+03  0.15882244327E+03  0.00000000000E+00 0.  1.
         25    2    1    2    0    0 -0.10377047329E+03 -0.12084573513E+03  0.61835885185E+02  0.21176189498E+03  0.12508965041E+03 0.  0.
         23    2    1    2    0    0  0.10377047329E+03  0.12084573513E+03  0.16409656459E+02  0.18412853320E+03  0.90895748449E+02 0.  0.
          5    1    3    3  502    0 -0.68694108027E+02 -0.10253201042E+03 -0.15828756626E+02  0.12449785369E+03  0.41800000000E+01 0.  1.
         -5    1    3    3    0  502 -0.35076365267E+02 -0.18313724711E+02  0.77664641811E+02  0.87264041281E+02  0.41800000000E+01 0.  1.
        -11    1    4    4    0    0  0.37649781578E+02  0.65392576757E+02 -0.35534678762E+02  0.83405087030E+02  0.00000000000E+00 0.  1.
         11    1    4    4    0    0  0.66120691717E+02  0.55453158373E+02  0.51944335221E+02  0.10072344617E+03  0.00000000000E+00 0. -1.
</event>
<event>
 8    1  0.7026811E-009  0.1008043E+03  0.7561462E-02  0.1278614E+00
          2   -1    0    0  501    0  0.00000000000E+00  0.00000000000E+00  0.40121845938E+02  0.40121845938E+02  0.00000000000E+00 0. -1.
         -2   -1    0    0    0  501 -0.00000000000E+00 -0.00000000000E+00 -0.35881024510E+03  0.35881024510E+03  0.00000000000E+00 0.  1.
         25    2    1    2    0    0 -0.25608096896E+02 -0.37575019961E+02 -0.21462722637E+03  0.25254749610E+03  0.12509090589E+03 0.  0.
         23    2    1    2    0    0  0.25608096896E+02  0.37575019961E+02 -0.10406117279E+03  0.14638459494E+03  0.92369178848E+02 0.  0.
          5    1    3    3  502    0 -0.32246474848E+02 -0.65082722698E+02 -0.57211275293E+02  0.92553759268E+02  0.41800000000E+01 0.  1.
         -5    1    3    3    0  502  0.66383779524E+01  0.27507702738E+02 -0.15741595108E+03  0.15999373683E+03  0.41800000000E+01 0.  1.
        -11    1    4    4    0    0 -0.18857648954E+02 -0.20010296555E+02 -0.44727140162E+02  0.52502761445E+02  0.00000000000E+00 0.  1.
         11    1    4    4    0    0  0.44465745849E+02  0.57585316516E+02 -0.59334032632E+02  0.93881833496E+02  0.00000000000E+00 0. -1.
</event>
<event>
 8    1  0.7026811E-009  0.9738038E+02  0.7561462E-02  0.1285903E+00
          1   -1    0    0  501    0  0.00000000000E+00  0.00000000000E+00  0.11036665392E+03  0.11036665392E+03  0.00000000000E+00 0. -1.
         -1   -1    0    0    0  501 -0.00000000000E+00 -0.00000000000E+00 -0.11232849805E+03  0.11232849805E+03  0.00000000000E+00 0.  1.
         25    2    1    2    0    0  0.25579385610E+02  0.78017803737E+01 -0.17284745839E+00  0.12791386075E+03  0.12508698234E+03 0.  0.
         23    2    1    2    0    0 -0.25579385610E+02 -0.78017803737E+01 -0.17889966659E+01  0.94781291223E+02  0.90912704896E+02 0.  0.
          5    1    3    3  502    0 -0.21488918647E+02  0.38290153977E+02  0.39406791029E+02  0.59146234837E+02  0.41800000000E+01 0.  1.
         -5    1    3    3    0  502  0.47068304257E+02 -0.30488373603E+02 -0.39579638487E+02  0.68767625910E+02  0.41800000000E+01 0.  1.
        -11    1    4    4    0    0 -0.58432781521E+02 -0.15948765153E+02 -0.50259610706E+01  0.60778395428E+02  0.00000000000E+00 0.  1.
         11    1    4    4    0    0  0.32853395911E+02  0.81469847794E+01  0.32369644047E+01  0.34002895795E+02  0.00000000000E+00 0. -1.
</event>
<event>
 8    1  0.7026811E-009  0.9844517E+02  0.7561462E-02  0.1283600E+00
          1   -1    0    0  501    0  0.00000000000E+00  0.00000000000E+00  0.11660280132E+03  0.11660280132E+03  0.00000000000E+00 0. -1.
         -1   -1    0    0    0  501 -0.00000000000E+00 -0.00000000000E+00 -0.16404157488E+03  0.16404157488E+03  0.00000000000E+00 0.  1.
         25    2    1    2    0    0 -0.30934078796E+02  0.56203838846E+02  0.30946946090E+02  0.14394516831E+03  0.12508680696E+03 0.  0.
         23    2    1    2    0    0  0.30934078796E+02 -0.56203838846E+02 -0.78385719654E+02  0.13669920790E+03  0.91796316166E+02 0.  0.
          5    1    3    3  502    0 -0.43959679398E+02  0.60289555834E+02 -0.30607822044E+02  0.80756393714E+02  0.41800000000E+01 0.  1.
         -5    1    3    3    0  502  0.13025600603E+02 -0.40857169877E+01  0.61554768134E+02  0.63188774592E+02  0.41800000000E+01 0.  1.
        -11    1    4    4    0    0 -0.14749715446E+02 -0.60240908618E+02 -0.62795825015E+02  0.88260052210E+02  0.00000000000E+00 0.  1.
         11    1    4    4    0    0  0.45683794242E+02  0.40370697718E+01 -0.15589894640E+02  0.48439155686E+02  0.00000000000E+00 0. -1.
</event>
<event>
 8    1  0.7026811E-009  0.1169907E+03  0.7561462E-02  0.1248146E+00
         -2   -1    0    0    0  501 -0.00000000000E+00  0.00000000000E+00  0.35667246318E+02  0.35667246318E+02  0.00000000000E+00 0.  1.
          2   -1    0    0  501    0  0.00000000000E+00 -0.00000000000E+00 -0.45334315249E+03  0.45334315249E+03  0.00000000000E+00 0. -1.
         25    2    1    2    0    0 -0.93269205298E+01 -0.65087166667E+02 -0.24404967379E+03  0.28201322488E+03  0.12509150657E+03 0.  0.
         23    2    1    2    0    0  0.93269205298E+01  0.65087166667E+02 -0.17362623238E+03  0.20699717393E+03  0.91533768265E+02 0.  0.
          5    1    3    3  502    0 -0.41163490523E+02  0.23121385268E+02 -0.78328982052E+02  0.91552898578E+02  0.41800000000E+01 0. -1.
         -5    1    3    3    0  502  0.31836569993E+02 -0.88208551935E+02 -0.16572069174E+03  0.19046032630E+03  0.41800000000E+01 0. -1.
        -11    1    4    4    0    0 -0.27457752374E+02  0.38663215062E+02 -0.29327167740E+02  0.55757108354E+02  0.00000000000E+00 0.  1.
         11    1    4    4    0    0  0.36784672904E+02  0.26423951605E+02 -0.14429906464E+03  0.15124006557E+03  0.00000000000E+00 0. -1.
</event>
<event>
 8    1  0.7026811E-009  0.1043542E+03  0.7561462E-02  0.1271397E+00
          2   -1    0    0  501    0  0.00000000000E+00  0.00000000000E+00  0.66798781352E+03  0.66798781352E+03  0.00000000000E+00 0. -1.
         -2   -1    0    0    0  501 -0.00000000000E+00 -0.00000000000E+00 -0.32072985171E+02  0.32072985171E+02  0.00000000000E+00 0.  1.
         25    2    1    2    0    0 -0.27846721227E+02  0.51625673637E+02  0.53417822708E+03  0.55175554024E+03  0.12508855998E+03 0.  0.
         23    2    1    2    0    0  0.27846721227E+02 -0.51625673637E+02  0.10173660127E+03  0.14830525845E+03  0.90572973807E+02 0.  0.
          5    1    3    3  502    0  0.26210384571E+01  0.86421213822E+02  0.27029693327E+03  0.28381930973E+03  0.41800000000E+01 0.  1.
         -5    1    3    3    0  502 -0.30467759684E+02 -0.34795540185E+02  0.26388129381E+03  0.26793623051E+03  0.41800000000E+01 0.  1.
        -11    1    4    4    0    0  0.31392444487E+02 -0.86165414418E+01 -0.52211863342E+01  0.32969548738E+02  0.00000000000E+00 0.  1.
         11    1    4    4    0    0 -0.35457232599E+01 -0.43009132195E+02  0.10695778760E+03  0.11533570971E+03  0.00000000000E+00 0. -1.
</event>
<event>
 8    1  0.7026811E-009  0.1144257E+03  0.7561462E-02  0.1252587E+00
          3   -1    0    0  501    0  0.00000000000E+00  0.00000000000E+00  0.79250608637E+02  0.79250608637E+02  0.00000000000E+00 0. -1.
         -3   -1    0    0    0  501 -0.00000000000E+00 -0.00000000000E+00 -0.24350200015E+03  0.24350200015E+03  0.00000000000E+00 0.  1.
         25    2    1    2    0    0 -0.35468812529E+02  0.24088519028E+02 -0.17582803471E+03  0.22000535868E+03  0.12509423108E+03 0.  0.
         23    2    1    2    0    0  0.35468812529E+02 -0.24088519028E+02  0.11576643197E+02  0.10274725010E+03  0.92653576968E+02 0.  0.
          5    1    3    3  502    0 -0.56386381778E+02 -0.34613258981E+02 -0.11547849849E+03  0.13315501403E+03  0.41800000000E+01 0.  1.
         -5    1    3    3    0  502  0.20917569250E+02  0.58701778009E+02 -0.60349536212E+02  0.86850344649E+02  0.41800000000E+01 0.  1.
        -11    1    4    4    0    0  0.65159143688E+02 -0.26433360178E+02 -0.12307345199E+01  0.70327457255E+02  0.00000000000E+00 0.  1.
         11    1    4    4    0    0 -0.29690331159E+02  0.23448411494E+01  0.12807377716E+02  0.32419792849E+02  0.00000000000E+00 0. -1.
</event>
<event>
 8    1  0.7026811E-009  0.9501449E+02  0.7561462E-02  0.1291143E+00
         -1   -1    0    0    0  501 -0.00000000000E+00  0.00000000000E+00  0.83265825685E+03  0.83265825685E+03  0.00000000000E+00 0.  1.
          1   -1    0    0  501    0  0.00000000000E+00 -0.00000000000E+00 -0.21208829267E+02  0.21208829267E+02  0.00000000000E+00 0. -1.
         25    2    1    2    0    0  0.69737781197E+02 -0.12899791102E+02  0.53852716139E+03  0.55739453460E+03  0.12508957156E+03 0.  0.
         23    2    1    2    0    0 -0.69737781197E+02  0.12899791102E+02  0.27292226619E+03  0.29647255151E+03  0.91540415562E+02 0.  0.
          5    1    3    3  502    0  0.55244795783E+02 -0.11242074212E+01  0.53509082793E+03  0.53795252378E+03  0.41800000000E+01 0.  1.
         -5    1    3    3    0  502  0.14492985414E+02 -0.11775583680E+02  0.34363334586E+01  0.19442010824E+02  0.41800000000E+01 0.  1.
        -11    1    4    4    0    0 -0.27333863050E+02  0.51392649361E+02  0.14857894313E+03  0.15957458075E+03  0.00000000000E+00 0.  1.
         11    1    4    4    0    0 -0.42403918148E+02 -0.38492858259E+02  0.12434332306E+03  0.13689797077E+03  0.00000000000E+00 0. -1.
</event>
<event>
 8    1  0.7026811E-009  0.9756885E+02  0.7561462E-02  0.1285493E+00
         -2   -1    0    0    0  501 -0.00000000000E+00  0.00000000000E+00  0.55329794114E+03  0.55329794114E+03  0.00000000000E+00 0.  1.
          2   -1    0    0  501    0  0.00000000000E+00 -0.00000000000E+00 -0.34823270700E+02  0.34823270700E+02  0.00000000000E+00 0. -1.
         25    2    1    2    0    0 -0.58214372463E+02  0.60817801984E+02  0.34392869479E+03  0.37552906431E+03  0.12508961922E+03 0.  0.
         23    2    1    2    0    0  0.58214372463E+02 -0.60817801984E+02  0.17454597565E+03  0.21259214753E+03  0.87415132437E+02 0.  0.
          5    1    3    3  502    0 -0.36892565662E+02  0.51168773990E+02  0.34594097796E+03  0.35167021123E+03  0.41800000000E+01 0.  1.
         -5    1    3    3    0  502 -0.21321806801E+02  0.96490279941E+01 -0.20122831710E+01  0.23858853075E+02  0.41800000000E+01 0.  1.
        -11    1    4    4    0    0  0.73000508576E+02 -0.57656793073E+02  0.10019872637E+03  0.13672294908E+03  0.00000000000E+00 0. -1.
         11    1    4    4    0    0 -0.14786136114E+02 -0.31610089110E+01  0.74347249274E+02  0.75869198448E+02  0.00000000000E+00 0.  1.
</event>
<event>
 8    1  0.7026811E-009  0.1034862E+03  0.7561462E-02  0.1273131E+00
         -2   -1    0    0    0  501 -0.00000000000E+00  0.00000000000E+00  0.23487247533E+02  0.23487247533E+02  0.00000000000E+00 0.  1.
          2   -1    0    0  501    0  0.00000000000E+00 -0.00000000000E+00 -0.63423037058E+03  0.63423037058E+03  0.00000000000E+00 0. -1.
         25    2    1    2    0    0 -0.15712825452E+02 -0.35064924445E+02 -0.45386722459E+03  0.47235449620E+03  0.12508745226E+03 0.  0.
         23    2    1    2    0    0  0.15712825452E+02  0.35064924445E+02 -0.15687589845E+03  0.18536312190E+03  0.90956020355E+02 0.  0.
          5    1    3    3  502    0 -0.61539909298E+02 -0.30339984310E+02 -0.37221264090E+03  0.37850679985E+03  0.41800000000E+01 0.  1.
         -5    1    3    3    0  502  0.45827083846E+02 -0.47249401350E+01 -0.81654583692E+02  0.93847696354E+02  0.41800000000E+01 0.  1.
        -11    1    4    4    0    0  0.46046507553E+02  0.40299975998E+02 -0.13301820442E+03  0.14641793480E+03  0.00000000000E+00 0. -1.
         11    1    4    4    0    0 -0.30333682101E+02 -0.52350515531E+01 -0.23857694028E+02  0.38945187108E+02  0.00000000000E+00 0.  1.
</event>
<event>
 8    1  0.7026811E-009  0.1222948E+03  0.7561462E-02  0.1239359E+00
         -2   -1    0    0    0  501 -0.00000000000E+00  0.00000000000E+00  0.58715523534E+02  0.58715523534E+02  0.00000000000E+00 0.  1.
          2   -1    0    0  501    0  0.00000000000E+00 -0.00000000000E+00 -0.34610706744E+03  0.34610706744E+03  0.00000000000E+00 0. -1.
         25    2    1    2    0    0 -0.68852475711E+02  0.57526055591E+02 -0.19015653157E+03  0.24465737968E+03  0.12509123251E+03 0.  0.
         23    2    1    2    0    0  0.68852475711E+02 -0.57526055591E+02 -0.97235012332E+02  0.16016521129E+03  0.90268138346E+02 0.  0.
          5    1    3    3  502    0 -0.90784349186E+00  0.81616379977E+02 -0.10161466084E+03  0.13040348676E+03  0.41800000000E+01 0.  1.
         -5    1    3    3    0  502 -0.67944632219E+02 -0.24090324387E+02 -0.88541870730E+02  0.11425389293E+03  0.41800000000E+01 0.  1.
        -11    1    4    4    0    0  0.44246567206E+02 -0.28644858998E+02 -0.10846696525E+03  0.12059589216E+03  0.00000000000E+00 0. -1.
         11    1    4    4    0    0  0.24605908505E+02 -0.28881196592E+02  0.11231952913E+02  0.39569319127E+02  0.00000000000E+00 0.  1.
</event>
<event>
 8    1  0.7026811E-009  0.1063479E+03  0.7561462E-02  0.1267486E+00
          2   -1    0    0  501    0  0.00000000000E+00  0.00000000000E+00  0.13968610445E+03  0.13968610445E+03  0.00000000000E+00 0. -1.
         -2   -1    0    0    0  501 -0.00000000000E+00 -0.00000000000E+00 -0.87490693784E+02  0.87490693784E+02  0.00000000000E+00 0.  1.
         25    2    1    2    0    0  0.14333505480E+02 -0.17555274204E+02  0.26006838973E+02  0.12975157545E+03  0.12508188769E+03 0.  0.
         23    2    1    2    0    0 -0.14333505480E+02  0.17555274204E+02  0.26188571692E+02  0.97425222782E+02  0.91061494141E+02 0.  0.
          5    1    3    3  502    0 -0.26235741424E+02 -0.60596094165E+02  0.32622112997E+01  0.66244359599E+02  0.41800000000E+01 0.  1.
         -5    1    3    3    0  502  0.40569246905E+02  0.43040819961E+02  0.22744627673E+02  0.63507215853E+02  0.41800000000E+01 0.  1.
        -11    1    4    4    0    0 -0.27837479116E+02 -0.28143399446E+02 -0.58344078920E+01  0.40012704124E+02  0.00000000000E+00 0.  1.
         11    1    4    4    0    0  0.13503973635E+02  0.45698673649E+02  0.32022979584E+02  0.57412518658E+02  0.00000000000E+00 0. -1.
</event>
<event>
 8    1  0.7026811E-009  0.1292734E+03  0.7561462E-02  0.1228538E+00
         -3   -1    0    0    0  501 -0.00000000000E+00  0.00000000000E+00  0.33040196253E+02  0.33040196253E+02  0.00000000000E+00 0.  1.
          3   -1    0    0  501    0  0.00000000000E+00 -0.00000000000E+00 -0.66331581373E+03  0.66331581373E+03  0.00000000000E+00 0. -1.
         25    2    1    2    0    0 -0.54589934630E+02 -0.81613178926E+02 -0.38431226844E+03  0.41591164475E+03  0.12508319084E+03 0.  0.
         23    2    1    2    0    0  0.54589934630E+02  0.81613178926E+02 -0.24596334904E+03  0.28044436523E+03  0.92251292578E+02 0.  0.
          5    1    3    3  502    0 -0.80242294647E+02 -0.19700351044E+02 -0.27905682904E+03  0.29106204822E+03  0.41800000000E+01 0. -1.
         -5    1    3    3    0  502  0.25652360018E+02 -0.61912827882E+02 -0.10525543940E+03  0.12484959653E+03  0.41800000000E+01 0. -1.
        -11    1    4    4    0    0  0.55448502107E+02  0.43315599795E+02 -0.66076659500E+02  0.96524103219E+02  0.00000000000E+00 0.  1.
         11    1    4    4    0    0 -0.85856747741E+00  0.38297579131E+02 -0.17988668954E+03  0.18392026201E+03  0.00000000000E+00 0. -1.
</event>
<event>
 8    1  0.7026811E-009  0.2527480E+03  0.7561462E-02  0.1111580E+00
          3   -1    0    0  501    0  0.00000000000E+00  0.00000000000E+00  0.82906547311E+02  0.82906547311E+02  0.00000000000E+00 0. -1.
         -3   -1    0    0    0  501 -0.00000000000E+00 -0.00000000000E+00 -0.82074923045E+03  0.82074923045E+03  0.00000000000E+00 0.  1.
         25    2    1    2    0    0  0.21537169611E+03  0.89514393261E+02 -0.44942762000E+03  0.52156493947E+03  0.12508799454E+03 0.  0.
         23    2    1    2    0    0 -0.21537169611E+03 -0.89514393261E+02 -0.28841506314E+03  0.38209083829E+03  0.91718951027E+02 0.  0.
          5    1    3    3  502    0  0.80307807525E+02  0.10092940326E+03 -0.21833664323E+03  0.25362265390E+03  0.41800000000E+01 0. -1.
         -5    1    3    3    0  502  0.13506388858E+03 -0.11415010002E+02 -0.23109097677E+03  0.26794228557E+03  0.41800000000E+01 0. -1.
        -11    1    4    4    0    0 -0.13327381698E+03 -0.86103856106E+02 -0.13617615402E+03  0.20909263319E+03  0.00000000000E+00 0. -1.
         11    1    4    4    0    0 -0.82097879127E+02 -0.34105371548E+01 -0.15223890912E+03  0.17299820511E+03  0.00000000000E+00 0.  1.
</event>
<event>
 8    1  0.7026811E-009  0.9530874E+02  0.7561462E-02  0.1290482E+00
         -2   -1    0    0    0  501 -0.00000000000E+00  0.00000000000E+00  0.15389194746E+03  0.15389194746E+03  0.00000000000E+00 0.  1.
          2   -1    0    0  501    0  0.00000000000E+00 -0.00000000000E+00 -0.93828025086E+02  0.93828025086E+02  0.00000000000E+00 0. -1.
         25    2    1    2    0    0  0.10456872594E+01 -0.84477602208E+01  0.86803214112E+02  0.15249317973E+03  0.12508762436E+03 0.  0.
         23    2    1    2    0    0 -0.10456872594E+01  0.84477602208E+01 -0.26739291738E+02  0.95226792820E+02  0.90998319949E+02 0.  0.
          5    1    3    3  502    0 -0.60829008845E+02 -0.61326809211E+01  0.29445314917E+02  0.67987330164E+02  0.41800000000E+01 0.  1.
         -5    1    3    3    0  502  0.61874696104E+02 -0.23150792997E+01  0.57357899194E+02  0.84505849562E+02  0.41800000000E+01 0.  1.
        -11    1    4    4    0    0 -0.26903266639E+02 -0.16325233995E+02 -0.45092883134E+02  0.54987881666E+02  0.00000000000E+00 0. -1.
         11    1    4    4    0    0  0.25857579380E+02  0.24772994215E+02  0.18353591396E+02  0.40238911154E+02  0.00000000000E+00 0.  1.
</event>
<event>
 8    1  0.7026811E-009  0.3505897E+03  0.7561462E-02  0.1062373E+00
          1   -1    0    0  501    0  0.00000000000E+00  0.00000000000E+00  0.37750295174E+04  0.37750295174E+04  0.00000000000E+00 0.  1.
         -1   -1    0    0    0  501 -0.00000000000E+00 -0.00000000000E+00 -0.49884981232E+02  0.49884981232E+02  0.00000000000E+00 0. -1.
         25    2    1    2    0    0  0.13795584257E+03 -0.31573879498E+03  0.29353823596E+04  0.29581817865E+04  0.12508830290E+03 0.  0.
         23    2    1    2    0    0 -0.13795584257E+03  0.31573879498E+03  0.78976217653E+03  0.86673271214E+03  0.93693637217E+02 0.  0.
          5    1    3    3  502    0  0.72347005619E+02 -0.13309245024E+03  0.81792778369E+03  0.83184795561E+03  0.41800000000E+01 0. -1.
         -5    1    3    3    0  502  0.65608836948E+02 -0.18264634474E+03  0.21174545759E+04  0.21263338308E+04  0.41800000000E+01 0. -1.
        -11    1    4    4    0    0 -0.48983714449E+02  0.21763312448E+03  0.53374426435E+03  0.57848640510E+03  0.00000000000E+00 0.  1.
         11    1    4    4    0    0 -0.88972128119E+02  0.98105670504E+02  0.25601791218E+03  0.28824630704E+03  0.00000000000E+00 0. -1.
</event>
<event>
 8    1  0.7026811E-009  0.1142969E+03  0.7561462E-02  0.1252813E+00
         -1   -1    0    0    0  501 -0.00000000000E+00  0.00000000000E+00  0.34140624016E+02  0.34140624016E+02  0.00000000000E+00 0.  1.
          1   -1    0    0  501    0  0.00000000000E+00 -0.00000000000E+00 -0.76445114586E+03  0.76445114586E+03  0.00000000000E+00 0. -1.
         25    2    1    2    0    0  0.26368748768E+02  0.79217451490E+02 -0.60350627375E+03  0.62196370035E+03  0.12509319156E+03 0.  0.
         23    2    1    2    0    0 -0.26368748768E+02 -0.79217451490E+02 -0.12680424810E+03  0.17662806952E+03  0.90263182282E+02 0.  0.
          5    1    3    3  502    0  0.69123977186E+02  0.71244809587E+02 -0.49717837467E+03  0.50700863480E+03  0.41800000000E+01 0. -1.
         -5    1    3    3    0  502 -0.42755228418E+02  0.79726419032E+01 -0.10632789907E+03  0.11495506556E+03  0.41800000000E+01 0. -1.
        -11    1    4    4    0    0 -0.62863690334E+01 -0.48113818188E+02 -0.43708536896E+01  0.48719218983E+02  0.00000000000E+00 0.  1.
         11    1    4    4    0    0 -0.20082379735E+02 -0.31103633301E+02 -0.12243339441E+03  0.12790885054E+03  0.00000000000E+00 0. -1.
</event>
<event>
 8    1  0.7026811E-009  0.9839866E+02  0.7561462E-02  0.1283700E+00
         -1   -1    0    0    0  501 -0.00000000000E+00  0.00000000000E+00  0.12352387671E+03  0.12352387671E+03  0.00000000000E+00 0.  1.
          1   -1    0    0  501    0  0.00000000000E+00 -0.00000000000E+00 -0.12465145404E+03  0.12465145404E+03  0.00000000000E+00 0. -1.
         25    2    1    2    0    0 -0.37647256575E+02 -0.41273756760E+02 -0.24876026035E+02  0.13923752957E+03  0.12508970399E+03 0.  0.
         23    2    1    2    0    0  0.37647256575E+02  0.41273756760E+02  0.23748448703E+02  0.10893780118E+03  0.90457817707E+02 0.  0.
          5    1    3    3  502    0 -0.10163800584E+02 -0.73022538592E+02 -0.50873623530E+02  0.89672693479E+02  0.41800000000E+01 0.  1.
         -5    1    3    3    0  502 -0.27483455991E+02  0.31748781832E+02  0.25997597495E+02  0.49564836089E+02  0.41800000000E+01 0.  1.
        -11    1    4    4    0    0 -0.15478968063E+02  0.44276074387E+01 -0.23763855107E+02  0.28704058414E+02  0.00000000000E+00 0. -1.
         11    1    4    4    0    0  0.53126224637E+02  0.36846149322E+02  0.47512303810E+02  0.80233742761E+02  0.00000000000E+00 0.  1.
</event>
<event>
 8    1  0.7026811E-009  0.4395469E+03  0.7561462E-02  0.1030886E+00
         -1   -1    0    0    0  501 -0.00000000000E+00  0.00000000000E+00  0.26650040280E+03  0.26650040280E+03  0.00000000000E+00 0.  1.
          1   -1    0    0  501    0  0.00000000000E+00 -0.00000000000E+00 -0.79349452111E+03  0.79349452111E+03  0.00000000000E+00 0. -1.
         25    2    1    2    0    0  0.10530390477E+01 -0.43657159186E+03 -0.15761580072E+03  0.48071493063E+03  0.12509292618E+03 0.  0.
         23    2    1    2    0    0 -0.10530390477E+01  0.43657159186E+03 -0.36937831759E+03  0.57927999327E+03  0.92353155825E+02 0.  0.
          5    1    3    3  502    0 -0.81434276743E+01 -0.14973678265E+03 -0.11824382629E+03  0.19101438257E+03  0.41800000000E+01 0.  1.
         -5    1    3    3    0  502  0.91964667220E+01 -0.28683480921E+03 -0.39371974435E+02  0.28970054806E+03  0.41800000000E+01 0.  1.
        -11    1    4    4    0    0 -0.35166741824E+02  0.23807993643E+03 -0.16143948039E+03  0.28979555153E+03  0.00000000000E+00 0. -1.
         11    1    4    4    0    0  0.34113702777E+02  0.19849165544E+03 -0.20793883720E+03  0.28948444174E+03  0.00000000000E+00 0.  1.
</event>
<event>
 8    1  0.7026811E-009  0.1049629E+03  0.7561462E-02  0.1270193E+00
          2   -1    0    0  501    0  0.00000000000E+00  0.00000000000E+00  0.10543692858E+03  0.10543692858E+03  0.00000000000E+00 0.  1.
         -2   -1    0    0    0  501 -0.00000000000E+00 -0.00000000000E+00 -0.16090068066E+03  0.16090068066E+03  0.00000000000E+00 0. -1.
         25    2    1    2    0    0 -0.11253835382E+02 -0.38840916870E+01  0.41522827335E+02  0.13235062573E+03  0.12510318926E+03 0.  0.
         23    2    1    2    0    0  0.11253835382E+02  0.38840916870E+01 -0.96986579415E+02  0.13398698351E+03  0.91675406648E+02 0.  0.
          5    1    3    3  502    0  0.18570769696E+02  0.51255154153E+02 -0.39125325005E+01  0.54815550941E+02  0.41800000000E+01 0.  1.
         -5    1    3    3    0  502 -0.29824605078E+02 -0.55139245840E+02  0.45435359835E+02  0.77535074793E+02  0.41800000000E+01 0.  1.
        -11    1    4    4    0    0  0.42044850823E+02 -0.26064789720E+02 -0.50423315359E+02  0.70637479256E+02  0.00000000000E+00 0.  1.
         11    1    4    4    0    0 -0.30791015441E+02  0.29948881407E+02 -0.46563264056E+02  0.63349504252E+02  0.00000000000E+00 0. -1.
</event>
<event>
 8    1  0.7026811E-009  0.1416476E+03  0.7561462E-02  0.1211129E+00
         -1   -1    0    0    0  501 -0.00000000000E+00  0.00000000000E+00  0.45610425051E+02  0.45610425051E+02  0.00000000000E+00 0.  1.
          1   -1    0    0  501    0  0.00000000000E+00 -0.00000000000E+00 -0.72957797928E+03  0.72957797928E+03  0.00000000000E+00 0. -1.
         25    2    1    2    0    0 -0.40656431332E+02 -0.11832160253E+03 -0.52276190972E+03  0.55188832365E+03  0.12509100881E+03 0.  0.
         23    2    1    2    0    0  0.40656431332E+02  0.11832160253E+03 -0.16120564451E+03  0.22330008068E+03  0.90679210288E+02 0.  0.
          5    1    3    3  502    0 -0.46443203344E+02 -0.88028172934E+02 -0.50757419595E+03  0.51725715767E+03  0.41800000000E+01 0. -1.
         -5    1    3    3    0  502  0.57867720124E+01 -0.30293429600E+02 -0.15187713776E+02  0.34631165978E+02  0.41800000000E+01 0. -1.
        -11    1    4    4    0    0 -0.24305709845E+02  0.10072219262E+02 -0.15608036040E+02  0.30591304662E+02  0.00000000000E+00 0. -1.
         11    1    4    4    0    0  0.64962141176E+02  0.10824938327E+03 -0.14559760847E+03  0.19270877602E+03  0.00000000000E+00 0.  1.
</event>
<event>
 8    1  0.7026811E-009  0.1182237E+03  0.7561462E-02  0.1246056E+00
         -1   -1    0    0    0  501 -0.00000000000E+00  0.00000000000E+00  0.64141497786E+02  0.64141497786E+02  0.00000000000E+00 0.  1.
          1   -1    0    0  501    0  0.00000000000E+00 -0.00000000000E+00 -0.32294323506E+03  0.32294323506E+03  0.00000000000E+00 0. -1.
         25    2    1    2    0    0  0.42756402844E+02 -0.84496618167E+02 -0.11264164984E+03  0.19314403000E+03  0.12509471043E+03 0.  0.
         23    2    1    2    0    0 -0.42756402844E+02  0.84496618167E+02 -0.14616008743E+03  0.19394070284E+03  0.85337193514E+02 0.  0.
          5    1    3    3  502    0 -0.18195634461E+02 -0.14272646430E+02 -0.95688509034E+02  0.98531988262E+02  0.41800000000E+01 0. -1.
         -5    1    3    3    0  502  0.60952037305E+02 -0.70223971736E+02 -0.16953140807E+02  0.94612041735E+02  0.41800000000E+01 0. -1.
        -11    1    4    4    0    0  0.11385626183E+02  0.58878808584E+02 -0.10612202714E+03  0.12189434452E+03  0.00000000000E+00 0. -1.
         11    1    4    4    0    0 -0.54142029028E+02  0.25617809583E+02 -0.40038060294E+02  0.72046358320E+02  0.00000000000E+00 0.  1.
</event>
<event>
 8    1  0.7026811E-009  0.2023867E+03  0.7561462E-02  0.1147741E+00
          2   -1    0    0  501    0  0.00000000000E+00  0.00000000000E+00  0.11428656263E+04  0.11428656263E+04  0.00000000000E+00 0. -1.
         -2   -1    0    0    0  501 -0.00000000000E+00 -0.00000000000E+00 -0.49585274085E+02  0.49585274085E+02  0.00000000000E+00 0.  1.
         25    2    1    2    0    0  0.14241020894E+03  0.11796831862E+03  0.82064361472E+03  0.85047097191E+03  0.12509092637E+03 0.  0.
         23    2    1    2    0    0 -0.14241020894E+03 -0.11796831862E+03  0.27263673754E+03  0.34197992852E+03  0.91773030073E+02 0.  0.
          5    1    3    3  502    0  0.12675516549E+03  0.53080740163E+02  0.36667740920E+03  0.39160468814E+03  0.41800000000E+01 0.  1.
         -5    1    3    3    0  502  0.15655043459E+02  0.64887578456E+02  0.45396620552E+03  0.45886628377E+03  0.41800000000E+01 0.  1.
        -11    1    4    4    0    0 -0.42272772517E+02 -0.85090425196E+02  0.88669908577E+02  0.12996045723E+03  0.00000000000E+00 0.  1.
         11    1    4    4    0    0 -0.10013743643E+03 -0.32877893423E+02  0.18396682896E+03  0.21201947129E+03  0.00000000000E+00 0. -1.
</event>
<event>
 8    1  0.7026811E-009  0.9574835E+02  0.7561462E-02  0.1289499E+00
          1   -1    0    0  501    0  0.00000000000E+00  0.00000000000E+00  0.30764227814E+03  0.30764227814E+03  0.00000000000E+00 0. -1.
         -1   -1    0    0    0  501 -0.00000000000E+00 -0.00000000000E+00 -0.55971467057E+02  0.55971467057E+02  0.00000000000E+00 0.  1.
         25    2    1    2    0    0 -0.73190727792E+01  0.40415187424E+02  0.22389687041E+03  0.25974256571E+03  0.12509770444E+03 0.  0.
         23    2    1    2    0    0  0.73190727792E+01 -0.40415187424E+02  0.27773940667E+02  0.10387117949E+03  0.91273621312E+02 0.  0.
          5    1    3    3  502    0 -0.17474695523E+02  0.67694919368E+02  0.57077082822E+02  0.90350610818E+02  0.41800000000E+01 0.  1.
         -5    1    3    3    0  502  0.10155622744E+02 -0.27279731943E+02  0.16681978759E+03  0.16939195489E+03  0.41800000000E+01 0.  1.
        -11    1    4    4    0    0  0.44434960600E+02 -0.29599051963E+02 -0.44040604223E+01  0.53572057538E+02  0.00000000000E+00 0. -1.
         11    1    4    4    0    0 -0.37115887820E+02 -0.10816135461E+02  0.32178001090E+02  0.50299121952E+02  0.00000000000E+00 0.  1.
</event>
<event>
 8    1  0.7026811E-009  0.1256970E+03  0.7561462E-02  0.1233984E+00
          1   -1    0    0  501    0  0.00000000000E+00  0.00000000000E+00  0.83454991232E+02  0.83454991232E+02  0.00000000000E+00 0. -1.
         -1   -1    0    0    0  501 -0.00000000000E+00 -0.00000000000E+00 -0.21394175003E+03  0.21394175003E+03  0.00000000000E+00 0.  1.
         25    2    1    2    0    0 -0.61438321726E+02  0.46080982271E+02 -0.87862690794E+02  0.17106622406E+03  0.12508267776E+03 0.  0.
         23    2    1    2    0    0  0.61438321726E+02 -0.46080982271E+02 -0.42624068008E+02  0.12633051721E+03  0.90799031388E+02 0.  0.
          5    1    3    3  502    0 -0.66460586788E+02  0.76609050737E+02 -0.95016017752E+02  0.13903766497E+03  0.41800000000E+01 0. -1.
         -5    1    3    3    0  502  0.50222650618E+01 -0.30528068466E+02  0.71533269585E+01  0.32028559087E+02  0.41800000000E+01 0. -1.
        -11    1    4    4    0    0  0.54703841316E+02 -0.72829220357E+02 -0.29179924938E+02  0.95645562426E+02  0.00000000000E+00 0. -1.
         11    1    4    4    0    0  0.67344804104E+01  0.26748238086E+02 -0.13444143070E+02  0.30684954782E+02  0.00000000000E+00 0.  1.
</event>
<event>
 8    1  0.7026811E-009  0.1261827E+03  0.7561462E-02  0.1233232E+00
         -1   -1    0    0    0  501 -0.00000000000E+00  0.00000000000E+00  0.17223391979E+03  0.17223391979E+03  0.00000000000E+00 0.  1.
          1   -1    0    0  501    0  0.00000000000E+00 -0.00000000000E+00 -0.15022703577E+03  0.15022703577E+03  0.00000000000E+00 0. -1.
         25    2    1    2    0    0  0.18860738829E+02 -0.84162440842E+02  0.93317000929E+02  0.17830922000E+03  0.12508825427E+03 0.  0.
         23    2    1    2    0    0 -0.18860738829E+02  0.84162440842E+02 -0.71310116911E+02  0.14415173556E+03  0.90860036177E+02 0.  0.
          5    1    3    3  502    0  0.52456925886E+02 -0.96545913238E+02  0.46906400940E+02  0.11954298510E+03  0.41800000000E+01 0. -1.
         -5    1    3    3    0  502 -0.33596187057E+02  0.12383472396E+02  0.46410599988E+02  0.58766234902E+02  0.41800000000E+01 0. -1.
        -11    1    4    4    0    0 -0.34454198755E+02  0.83972383630E+02 -0.84285601939E+02  0.12386490915E+03  0.00000000000E+00 0. -1.
         11    1    4    4    0    0  0.15593459926E+02  0.19005721143E+00  0.12975485028E+02  0.20286826413E+02  0.00000000000E+00 0.  1.
</event>
<event>
 8    1  0.7026811E-009  0.1205251E+03  0.7561462E-02  0.1242233E+00
         -2   -1    0    0    0  501 -0.00000000000E+00  0.00000000000E+00  0.48640188628E+02  0.48640188628E+02  0.00000000000E+00 0.  1.
          2   -1    0    0  501    0  0.00000000000E+00 -0.00000000000E+00 -0.47832853732E+03  0.47832853732E+03  0.00000000000E+00 0. -1.
         25    2    1    2    0    0 -0.99167348685E+02 -0.35386012548E+02 -0.20650606701E+03  0.26340590333E+03  0.12510627988E+03 0.  0.
         23    2    1    2    0    0  0.99167348685E+02  0.35386012548E+02 -0.22318228167E+03  0.26356282261E+03  0.92567260309E+02 0.  0.
          5    1    3    3  502    0 -0.32004925076E+02 -0.77285521051E+01  0.10273904787E+02  0.34742931170E+02  0.41800000000E+01 0. -1.
         -5    1    3    3    0  502 -0.67162423610E+02 -0.27657460443E+02 -0.21677997180E+03  0.22866297216E+03  0.41800000000E+01 0. -1.
        -11    1    4    4    0    0 -0.54187368848E+01 -0.17208043255E+02 -0.60540000640E+02  0.63170967538E+02  0.00000000000E+00 0. -1.
         11    1    4    4    0    0  0.10458608557E+03  0.52594055803E+02 -0.16264228103E+03  0.20039185507E+03  0.00000000000E+00 0.  1.
</event>
<event>
 8    1  0.7026811E-009  0.1692809E+03  0.7561462E-02  0.1178600E+00
         -1   -1    0    0    0  501 -0.00000000000E+00  0.00000000000E+00  0.48788094521E+02  0.48788094521E+02  0.00000000000E+00 0.  1.
          1   -1    0    0  501    0  0.00000000000E+00 -0.00000000000E+00 -0.10831708238E+04  0.10831708238E+04  0.00000000000E+00 0. -1.
         25    2    1    2    0    0  0.38791373448E+02 -0.16303279341E+03 -0.81679793588E+03  0.84314367737E+03  0.12509168737E+03 0.  0.
         23    2    1    2    0    0 -0.38791373448E+02  0.16303279341E+03 -0.21758479342E+03  0.28881524097E+03  0.89367995996E+02 0.  0.
          5    1    3    3  502    0  0.43251365378E+02 -0.12481431550E+03 -0.34008924471E+03  0.36486636009E+03  0.41800000000E+01 0. -1.
         -5    1    3    3    0  502 -0.44599919298E+01 -0.38218477909E+02 -0.47670869118E+03  0.47827731728E+03  0.41800000000E+01 0. -1.
        -11    1    4    4    0    0 -0.17444271517E+02  0.60520496747E+02 -0.21552946698E+02  0.66569983076E+02  0.00000000000E+00 0.  1.
         11    1    4    4    0    0 -0.21347101931E+02  0.10251229667E+03 -0.19603184672E+03  0.22224525790E+03  0.00000000000E+00 0. -1.
</event>
<event>
 8    1  0.7026811E-009  0.1546065E+03  0.7561462E-02  0.1194924E+00
          1   -1    0    0  501    0  0.00000000000E+00  0.00000000000E+00  0.14096886041E+03  0.14096886041E+03  0.00000000000E+00 0. -1.
         -1   -1    0    0    0  501 -0.00000000000E+00 -0.00000000000E+00 -0.18958895647E+03  0.18958895647E+03  0.00000000000E+00 0.  1.
         25    2    1    2    0    0  0.10959673321E+03  0.52274144704E+02 -0.36703715715E+02  0.17815555072E+03  0.12509279503E+03 0.  0.
         23    2    1    2    0    0 -0.10959673321E+03 -0.52274144704E+02 -0.11916380346E+02  0.15240226616E+03  0.91325902544E+02 0.  0.
          5    1    3    3  502    0 -0.16236043355E+02  0.44937634126E+02 -0.14439458709E+02  0.50089624000E+02  0.41800000000E+01 0. -1.
         -5    1    3    3    0  502  0.12583277657E+03  0.73365105771E+01 -0.22264257006E+02  0.12806592672E+03  0.41800000000E+01 0. -1.
        -11    1    4    4    0    0 -0.24721982808E+02 -0.43202491039E+02  0.29145678911E+02  0.57681039044E+02  0.00000000000E+00 0.  1.
         11    1    4    4    0    0 -0.84874750405E+02 -0.90716536642E+01 -0.41062059257E+02  0.94721227119E+02  0.00000000000E+00 0. -1.
</event>
<event>
 8    1  0.7026811E-009  0.1701154E+03  0.7561462E-02  0.1177728E+00
         -1   -1    0    0    0  501 -0.00000000000E+00  0.00000000000E+00  0.15225715231E+03  0.15225715231E+03  0.00000000000E+00 0.  1.
          1   -1    0    0  501    0  0.00000000000E+00 -0.00000000000E+00 -0.26357388275E+03  0.26357388275E+03  0.00000000000E+00 0. -1.
         25    2    1    2    0    0 -0.13834084102E+03 -0.51098168119E+02 -0.14320201185E+03  0.24063177538E+03  0.12509046345E+03 0.  0.
         23    2    1    2    0    0  0.13834084102E+03  0.51098168119E+02  0.31885281406E+02  0.17519925968E+03  0.89044361660E+02 0.  0.
          5    1    3    3  502    0 -0.38108609053E+01 -0.37759947172E+02  0.66621613324E+01  0.38758135468E+02  0.41800000000E+01 0. -1.
         -5    1    3    3    0  502 -0.13452998011E+03 -0.13338220947E+02 -0.14986417319E+03  0.20187363991E+03  0.41800000000E+01 0. -1.
        -11    1    4    4    0    0  0.25905468758E+02  0.47732937068E+02  0.31357710496E+02  0.62712300230E+02  0.00000000000E+00 0.  1.
         11    1    4    4    0    0  0.11243537226E+03  0.33652310518E+01  0.52757091080E+00  0.11248695945E+03  0.00000000000E+00 0. -1.
</event>
<event>
 8    1  0.7026811E-009  0.1512357E+03  0.7561462E-02  0.1198963E+00
         -2   -1    0    0    0  501 -0.00000000000E+00  0.00000000000E+00  0.55755534899E+02  0.55755534899E+02  0.00000000000E+00 0.  1.
          2   -1    0    0  501    0  0.00000000000E+00 -0.00000000000E+00 -0.57840343200E+03  0.57840343200E+03  0.00000000000E+00 0. -1.
         25    2    1    2    0    0 -0.11819383184E+03  0.12376150319E+01 -0.41596237558E+03  0.45016156798E+03  0.12509766509E+03 0.  0.
         23    2    1    2    0    0  0.11819383184E+03 -0.12376150319E+01 -0.10668552152E+03  0.18399739892E+03  0.92205903982E+02 0.  0.
          5    1    3    3  502    0 -0.12125666826E+02  0.52136330426E+02 -0.11217919132E+03  0.12436588001E+03  0.41800000000E+01 0.  1.
         -5    1    3    3    0  502 -0.10606816502E+03 -0.50898715394E+02 -0.30378318426E+03  0.32579568797E+03  0.41800000000E+01 0.  1.
        -11    1    4    4    0    0  0.68613865868E+02 -0.28706869117E+02 -0.14495175586E+02  0.75776362008E+02  0.00000000000E+00 0.  1.
         11    1    4    4    0    0  0.49579965977E+02  0.27469254085E+02 -0.92190345934E+02  0.10822103691E+03  0.00000000000E+00 0. -1.
</event>
<event>
 8    1  0.7026811E-009  0.1942129E+03  0.7561462E-02  0.1154716E+00
          2   -1    0    0  501    0  0.00000000000E+00  0.00000000000E+00  0.11279510064E+04  0.11279510064E+04  0.00000000000E+00 0. -1.
         -2   -1    0    0    0  501 -0.00000000000E+00 -0.00000000000E+00 -0.42417690084E+02  0.42417690084E+02  0.00000000000E+00 0.  1.
         25    2    1    2    0    0 -0.28044757471E+02 -0.17773799435E+03  0.72328664154E+03  0.75575649352E+03  0.12508800344E+03 0.  0.
         23    2    1    2    0    0  0.28044757471E+02  0.17773799435E+03  0.36224667474E+03  0.41461220293E+03  0.91122568024E+02 0.  0.
          5    1    3    3  502    0  0.39773316880E+01 -0.12526235071E+03  0.26299917811E+03  0.29136320248E+03  0.41800000000E+01 0. -1.
         -5    1    3    3    0  502 -0.32022089159E+02 -0.52475643641E+02  0.46028746343E+03  0.46439329104E+03  0.41800000000E+01 0. -1.
        -11    1    4    4    0    0 -0.22722011538E+02  0.77498503113E+01  0.50651783984E+02  0.56053128449E+02  0.00000000000E+00 0. -1.
         11    1    4    4    0    0  0.50766769008E+02  0.16998814404E+03  0.31159489075E+03  0.35855907448E+03  0.00000000000E+00 0.  1.
</event>
<event>
 8    1  0.7026811E-009  0.1130064E+03  0.7561462E-02  0.1255102E+00
          2   -1    0    0  501    0  0.00000000000E+00  0.00000000000E+00  0.46887729294E+02  0.46887729294E+02  0.00000000000E+00 0.  1.
         -2   -1    0    0    0  501 -0.00000000000E+00 -0.00000000000E+00 -0.47875466513E+03  0.47875466513E+03  0.00000000000E+00 0. -1.
         25    2    1    2    0    0 -0.73971443377E+02  0.59961176250E+02 -0.16693199962E+03  0.22930559861E+03  0.12509055905E+03 0.  0.
         23    2    1    2    0    0  0.73971443377E+02 -0.59961176250E+02 -0.26493493621E+03  0.29633679581E+03  0.92508697075E+02 0.  0.
          5    1    3    3  502    0 -0.15112460860E+02 -0.10026395791E+02  0.16131411335E+02  0.24629452236E+02  0.41800000000E+01 0.  1.
         -5    1    3    3    0  502 -0.58858982517E+02  0.69987572040E+02 -0.18306341096E+03  0.20467614637E+03  0.41800000000E+01 0.  1.
        -11    1    4    4    0    0  0.43462990526E+02  0.53323132979E+01 -0.17852613124E+03  0.18381796606E+03  0.00000000000E+00 0. -1.
         11    1    4    4    0    0  0.30508452850E+02 -0.65293489548E+02 -0.86408804975E+02  0.11251882976E+03  0.00000000000E+00 0.  1.
</event>
<event>
 8    1  0.7026811E-009  0.1164596E+03  0.7561462E-02  0.1249055E+00
         -3   -1    0    0    0  501 -0.00000000000E+00  0.00000000000E+00  0.17997379735E+03  0.17997379735E+03  0.00000000000E+00 0.  1.
          3   -1    0    0  501    0  0.00000000000E+00 -0.00000000000E+00 -0.11502801670E+03  0.11502801670E+03  0.00000000000E+00 0. -1.
         25    2    1    2    0    0 -0.43419336093E+02 -0.16876126233E+02 -0.48769393804E+02  0.14211406509E+03  0.12509161180E+03 0.  0.
         23    2    1    2    0    0  0.43419336093E+02  0.16876126233E+02  0.11371517445E+03  0.15288774896E+03  0.90958674669E+02 0.  0.
          5    1    3    3  502    0 -0.54904509462E+02  0.44507578176E+02 -0.28536597516E+02  0.76336357472E+02  0.41800000000E+01 0.  1.
         -5    1    3    3    0  502  0.11485173370E+02 -0.61383704408E+02 -0.20232796289E+02  0.65777707621E+02  0.41800000000E+01 0.  1.
        -11    1    4    4    0    0  0.14426546020E+02 -0.36245012017E+02  0.62158497729E+02  0.73385999796E+02  0.00000000000E+00 0.  1.
         11    1    4    4    0    0  0.28992790073E+02  0.53121138250E+02  0.51556676725E+02  0.79501749164E+02  0.00000000000E+00 0. -1.
</event>
<event>
 8    1  0.7026811E-009  0.1134582E+03  0.7561462E-02  0.1254297E+00
         -2   -1    0    0    0  501 -0.00000000000E+00  0.00000000000E+00  0.36572241425E+03  0.36572241425E+03  0.00000000000E+00 0.  1.
          2   -1    0    0  501    0  0.00000000000E+00 -0.00000000000E+00 -0.57439859630E+02  0.57439859630E+02  0.00000000000E+00 0. -1.
         25    2    1    2    0    0 -0.45807066686E+02  0.78179840603E+02  0.22623730594E+03  0.27393820481E+03  0.12509375132E+03 0.  0.
         23    2    1    2    0    0  0.45807066686E+02 -0.78179840603E+02  0.82045248680E+02  0.14922406907E+03  0.85592202474E+02 0.  0.
          5    1    3    3  502    0  0.15313901383E+02  0.16007291989E+02 -0.80357537560E+01  0.23933129984E+02  0.41800000000E+01 0. -1.
         -5    1    3    3    0  502 -0.61120968069E+02  0.62172548614E+02  0.23427305969E+03  0.25000507482E+03  0.41800000000E+01 0. -1.
        -11    1    4    4    0    0 -0.20445557965E+02 -0.13518503239E+02  0.41412793887E+02  0.48122658570E+02  0.00000000000E+00 0.  1.
         11    1    4    4    0    0  0.66252624651E+02 -0.64661337365E+02  0.40632454793E+02  0.10110141050E+03  0.00000000000E+00 0. -1.
</event>
<event>
 8    1  0.7026811E-009  0.1257426E+03  0.7561462E-02  0.1233913E+00
          2   -1    0    0  501    0  0.00000000000E+00  0.00000000000E+00  0.97050367213E+02  0.97050367213E+02  0.00000000000E+00 0.  1.
         -2   -1    0    0    0  501 -0.00000000000E+00 -0.00000000000E+00 -0.19330106733E+03  0.19330106733E+03  0.00000000000E+00 0. -1.
         25    2    1    2    0    0 -0.69007952240E+02 -0.39489532748E+02 -0.25995438740E+02  0.15047882948E+03  0.12508634864E+03 0.  0.
         23    2    1    2    0    0  0.69007952240E+02  0.39489532748E+02 -0.70255261372E+02  0.13987260506E+03  0.91142872604E+02 0.  0.
          5    1    3    3  502    0 -0.21962194861E+02 -0.79622397009E+02  0.14040129097E+01  0.82713407383E+02  0.41800000000E+01 0.  1.
         -5    1    3    3    0  502 -0.47045757379E+02  0.40132864261E+02 -0.27399451650E+02  0.67765422097E+02  0.41800000000E+01 0.  1.
        -11    1    4    4    0    0  0.46588774273E+02  0.60309650201E+02 -0.16430565152E+02  0.77959805456E+02  0.00000000000E+00 0.  1.
         11    1    4    4    0    0  0.22419177967E+02 -0.20820117453E+02 -0.53824696220E+02  0.61912799603E+02  0.00000000000E+00 0. -1.
</event>
<event>
 8    1  0.7026811E-009  0.1189863E+03  0.7561462E-02  0.1244779E+00
          1   -1    0    0  501    0  0.00000000000E+00  0.00000000000E+00  0.25209597154E+03  0.25209597154E+03  0.00000000000E+00 0. -1.
         -1   -1    0    0    0  501 -0.00000000000E+00 -0.00000000000E+00 -0.70758277456E+02  0.70758277456E+02  0.00000000000E+00 0.  1.
         25    2    1    2    0    0 -0.32337807462E+02 -0.64914799131E+02  0.62678997475E+02  0.15759281848E+03  0.12508866765E+03 0.  0.
         23    2    1    2    0    0  0.32337807462E+02  0.64914799131E+02  0.11865869660E+03  0.16526143051E+03  0.89284876638E+02 0.  0.
          5    1    3    3  502    0 -0.74258538856E+02 -0.14359739638E+02  0.49470338667E+02  0.90472755697E+02  0.41800000000E+01 0. -1.
         -5    1    3    3    0  502  0.41920731394E+02 -0.50555059493E+02  0.13208658807E+02  0.67120062786E+02  0.41800000000E+01 0. -1.
        -11    1    4    4    0    0 -0.18684618470E+02  0.90625338711E+01  0.75207137838E+02  0.78021523116E+02  0.00000000000E+00 0. -1.
         11    1    4    4    0    0  0.51022425933E+02  0.55852265260E+02  0.43451558767E+02  0.87239907393E+02  0.00000000000E+00 0.  1.
</event>
<event>
 8    1  0.7026811E-009  0.1064334E+03  0.7561462E-02  0.1267321E+00
          2   -1    0    0  501    0  0.00000000000E+00  0.00000000000E+00  0.57780802030E+02  0.57780802030E+02  0.00000000000E+00 0.  1.
         -2   -1    0    0    0  501 -0.00000000000E+00 -0.00000000000E+00 -0.31242030684E+03  0.31242030684E+03  0.00000000000E+00 0. -1.
         25    2    1    2    0    0  0.61073801395E+02  0.16570445170E+01 -0.20605973378E+03  0.24868122445E+03  0.12509589320E+03 0.  0.
         23    2    1    2    0    0 -0.61073801395E+02 -0.16570445170E+01 -0.48579771025E+02  0.12151988442E+03  0.93136100102E+02 0.  0.
          5    1    3    3  502    0  0.66728280029E+02  0.34904809240E+02 -0.20053826784E+03  0.21425237065E+03  0.41800000000E+01 0. -1.
         -5    1    3    3    0  502 -0.56544786334E+01 -0.33247764723E+02 -0.55214659460E+01  0.34428853799E+02  0.41800000000E+01 0. -1.
        -11    1    4    4    0    0 -0.27630676701E+02  0.40886219508E+02 -0.45813031475E+02  0.67334768831E+02  0.00000000000E+00 0. -1.
         11    1    4    4    0    0 -0.33443124694E+02 -0.42543264025E+02 -0.27667395505E+01  0.54185115585E+02  0.00000000000E+00 0.  1.
</event>
<event>
 8    1  0.7026811E-009  0.1345237E+03  0.7561462E-02  0.1220894E+00
         -2   -1    0    0    0  501 -0.00000000000E+00  0.00000000000E+00  0.15821670558E+03  0.15821670558E+03  0.00000000000E+00 0. -1.
          2   -1    0    0  501    0  0.00000000000E+00 -0.00000000000E+00 -0.13984746935E+03  0.13984746935E+03  0.00000000000E+00 0.  1.
         25    2    1    2    0    0  0.89595746395E+02  0.24367601176E+02 -0.31531968015E+02  0.15894041349E+03  0.12508641922E+03 0.  0.
         23    2    1    2    0    0 -0.89595746395E+02 -0.24367601176E+02  0.49901204244E+02  0.13912376145E+03  0.90797098272E+02 0.  0.
          5    1    3    3  502    0  0.11412250884E+03  0.12568911348E+02 -0.50506046386E+02  0.12550003059E+03  0.41800000000E+01 0.  1.
         -5    1    3    3    0  502 -0.24526762450E+02  0.11798689827E+02  0.18974078371E+02  0.33440382891E+02  0.41800000000E+01 0.  1.
        -11    1    4    4    0    0 -0.53278470022E+02  0.30073142743E+02  0.87101094187E+01  0.61796887369E+02  0.00000000000E+00 0.  1.
         11    1    4    4    0    0 -0.36317276373E+02 -0.54440743919E+02  0.41191094825E+02  0.77326874077E+02  0.00000000000E+00 0. -1.
</event>
<event>
 8    1  0.7026811E-009  0.9610266E+02  0.7561462E-02  0.1288712E+00
          1   -1    0    0  501    0  0.00000000000E+00  0.00000000000E+00  0.41289861155E+02  0.41289861155E+02  0.00000000000E+00 0. -1.
         -1   -1    0    0    0  501 -0.00000000000E+00 -0.00000000000E+00 -0.47876217325E+03  0.47876217325E+03  0.00000000000E+00 0.  1.
         25    2    1    2    0    0  0.35968310460E+02 -0.17069184519E+02 -0.38744250390E+03  0.40907748056E+03  0.12509042672E+03 0.  0.
         23    2    1    2    0    0 -0.35968310460E+02  0.17069184519E+02 -0.50029808189E+02  0.11097455384E+03  0.90704429192E+02 0.  0.
          5    1    3    3  502    0  0.51742911471E+02  0.40665992695E+02 -0.14449228696E+03  0.15882866630E+03  0.41800000000E+01 0.  1.
         -5    1    3    3    0  502 -0.15774601011E+02 -0.57735177214E+02 -0.24295021695E+03  0.25024881426E+03  0.41800000000E+01 0.  1.
        -11    1    4    4    0    0 -0.38674516136E+02  0.32550029695E+02 -0.69509087051E+02  0.85946121577E+02  0.00000000000E+00 0.  1.
         11    1    4    4    0    0  0.27062056763E+01 -0.15480845176E+02  0.19479278862E+02  0.25028432262E+02  0.00000000000E+00 0. -1.
</event>
<event>
 8    1  0.7026811E-009  0.6011111E+02  0.7561462E-02  0.1397366E+00
          1   -1    0    0  501    0  0.00000000000E+00  0.00000000000E+00  0.35917454088E+03  0.35917454088E+03  0.00000000000E+00 0. -1.
         -1   -1    0    0    0  501 -0.00000000000E+00 -0.00000000000E+00 -0.33650322979E+02  0.33650322979E+02  0.00000000000E+00 0.  1.
         25    2    1    2    0    0 -0.18910502083E+02 -0.45505330232E+01  0.14870244784E+03  0.19529116592E+03  0.12509159465E+03 0.  0.
         23    2    1    2    0    0  0.18910502083E+02  0.45505330232E+01  0.17682177006E+03  0.19753369794E+03  0.85879619320E+02 0.  0.
          5    1    3    3  502    0 -0.16614428392E+02  0.19846124915E+02  0.16401351026E+03  0.16609579119E+03  0.41800000000E+01 0.  1.
         -5    1    3    3    0  502 -0.22960736906E+01 -0.24396657938E+02 -0.15311062419E+02  0.29195374725E+02  0.41800000000E+01 0.  1.
        -11    1    4    4    0    0  0.14267684378E+02 -0.30561649405E+02  0.25936860170E+02  0.42547643265E+02  0.00000000000E+00 0.  1.
         11    1    4    4    0    0  0.46428177044E+01  0.35112182429E+02  0.15088490989E+03  0.15498605467E+03  0.00000000000E+00 0. -1.
</event>
<event>
 8    1  0.7026811E-009  0.1446178E+03  0.7561462E-02  0.1207247E+00
         -2   -1    0    0    0  501 -0.00000000000E+00  0.00000000000E+00  0.32750510162E+03  0.32750510162E+03  0.00000000000E+00 0. -1.
          2   -1    0    0  501    0  0.00000000000E+00 -0.00000000000E+00 -0.87697202702E+02  0.87697202702E+02  0.00000000000E+00 0.  1.
         25    2    1    2    0    0  0.95767199904E+02  0.45294275616E+02  0.36852226736E+02  0.16801308921E+03  0.12508950215E+03 0.  0.
         23    2    1    2    0    0 -0.95767199904E+02 -0.45294275616E+02  0.20295567218E+03  0.24718921511E+03  0.93212527143E+02 0.  0.
          5    1    3    3  502    0  0.80177447421E+02  0.78767104796E+02 -0.43132136918E+01  0.11255556888E+03  0.41800000000E+01 0.  1.
         -5    1    3    3    0  502  0.15589752483E+02 -0.33472829180E+02  0.41165440428E+02  0.55457520332E+02  0.41800000000E+01 0.  1.
        -11    1    4    4    0    0 -0.98687312398E+00  0.22847329133E+02  0.21246970640E+02  0.31215511023E+02  0.00000000000E+00 0.  1.
         11    1    4    4    0    0 -0.94780326780E+02 -0.68141604749E+02  0.18170870154E+03  0.21597370409E+03  0.00000000000E+00 0. -1.
</event>
<event>
 8    1  0.7026811E-009  0.9896391E+02  0.7561462E-02  0.1282490E+00
          1   -1    0    0  501    0  0.00000000000E+00  0.00000000000E+00  0.12655033272E+04  0.12655033272E+04  0.00000000000E+00 0. -1.
         -1   -1    0    0    0  501 -0.00000000000E+00 -0.00000000000E+00 -0.12008249209E+02  0.12008249209E+02  0.00000000000E+00 0.  1.
         25    2    1    2    0    0  0.18876368477E+02  0.90312549755E+01  0.98528115438E+03  0.99341009292E+03  0.12508708442E+03 0.  0.
         23    2    1    2    0    0 -0.18876368477E+02 -0.90312549755E+01  0.26821392362E+03  0.28410148350E+03  0.91307520212E+02 0.  0.
          5    1    3    3  502    0 -0.46393167052E+02  0.20590656539E+02  0.24996601683E+03  0.25510151520E+03  0.41800000000E+01 0.  1.
         -5    1    3    3    0  502  0.65269535529E+02 -0.11559401563E+02  0.73531513755E+03  0.73830857773E+03  0.41800000000E+01 0.  1.
        -11    1    4    4    0    0  0.20823100520E+01  0.33290069912E+02  0.45389922042E+02  0.56327700050E+02  0.00000000000E+00 0.  1.
         11    1    4    4    0    0 -0.20958678529E+02 -0.42321324888E+02  0.22282400158E+03  0.22777378345E+03  0.00000000000E+00 0. -1.
</event>
<event>
 8    1  0.7026811E-009  0.1614043E+03  0.7561462E-02  0.1187120E+00
         -1   -1    0    0    0  501 -0.00000000000E+00  0.00000000000E+00  0.16097372633E+03  0.16097372633E+03  0.00000000000E+00 0.  1.
          1   -1    0    0  501    0  0.00000000000E+00 -0.00000000000E+00 -0.17971310615E+03  0.17971310615E+03  0.00000000000E+00 0. -1.
         25    2    1    2    0    0 -0.56840040354E+02  0.10692260098E+03  0.40564435132E+02  0.17875879856E+03  0.12508397931E+03 0.  0.
         23    2    1    2    0    0  0.56840040354E+02 -0.10692260098E+03 -0.59303814948E+02  0.16192803392E+03  0.89668907176E+02 0.  0.
          5    1    3    3  502    0 -0.23844558749E+02 -0.26907336839E+02  0.85471255499E+01  0.37189965217E+02  0.41800000000E+01 0. -1.
         -5    1    3    3    0  502 -0.32995481604E+02  0.13382993781E+03  0.32017309582E+02  0.14156883334E+03  0.41800000000E+01 0. -1.
        -11    1    4    4    0    0  0.34995781643E+02 -0.11880114074E+03 -0.39052599471E+02  0.12985962152E+03  0.00000000000E+00 0. -1.
         11    1    4    4    0    0  0.21844258710E+02  0.11878539769E+02 -0.20251215476E+02  0.32068412401E+02  0.00000000000E+00 0.  1.
</event>
<event>
 8    1  0.7026811E-009  0.1032275E+03  0.7561462E-02  0.1273652E+00
          1   -1    0    0  501    0  0.00000000000E+00  0.00000000000E+00  0.23292023493E+03  0.23292023493E+03  0.00000000000E+00 0. -1.
         -1   -1    0    0    0  501 -0.00000000000E+00 -0.00000000000E+00 -0.87526614157E+02  0.87526614157E+02  0.00000000000E+00 0.  1.
         25    2    1    2    0    0 -0.38837549297E+02  0.50435758670E+02  0.15082801787E+03  0.20602962436E+03  0.12508794568E+03 0.  0.
         23    2    1    2    0    0  0.38837549297E+02 -0.50435758670E+02 -0.54343970954E+01  0.11441722472E+03  0.94919163786E+02 0.  0.
          5    1    3    3  502    0 -0.77259241985E+01  0.76039955434E+02  0.14649734836E+03  0.16528977647E+03  0.41800000000E+01 0.  1.
         -5    1    3    3    0  502 -0.31111625098E+02 -0.25604196765E+02  0.43306695048E+01  0.40739847896E+02  0.41800000000E+01 0.  1.
        -11    1    4    4    0    0 -0.17278671351E+02 -0.16074397666E+02  0.31188887669E+02  0.39111193513E+02  0.00000000000E+00 0.  1.
         11    1    4    4    0    0  0.56116220647E+02 -0.34361361004E+02 -0.36623284765E+02  0.75306031211E+02  0.00000000000E+00 0. -1.
</event>
<event>
 8    1  0.7026811E-009  0.1464506E+03  0.7561462E-02  0.1204904E+00
          1   -1    0    0  501    0  0.00000000000E+00  0.00000000000E+00  0.21692365314E+03  0.21692365314E+03  0.00000000000E+00 0. -1.
         -1   -1    0    0    0  501 -0.00000000000E+00 -0.00000000000E+00 -0.12112492882E+03  0.12112492882E+03  0.00000000000E+00 0.  1.
         25    2    1    2    0    0  0.82135190962E+02  0.80596753319E+02  0.18759497856E+02  0.17100456852E+03  0.12509443415E+03 0.  0.
         23    2    1    2    0    0 -0.82135190962E+02 -0.80596753319E+02  0.77039226470E+02  0.16704401345E+03  0.93416453439E+02 0.  0.
          5    1    3    3  502    0  0.62216827021E+02  0.11370150681E+03  0.23716804917E+02  0.13182915251E+03  0.41800000000E+01 0.  1.
         -5    1    3    3    0  502  0.19918363941E+02 -0.33104753495E+02 -0.49573070617E+01  0.39175416007E+02  0.41800000000E+01 0.  1.
        -11    1    4    4    0    0 -0.18078415692E+01 -0.28638625983E+02 -0.16621348017E+02  0.33161851565E+02  0.00000000000E+00 0.  1.
         11    1    4    4    0    0 -0.80327349393E+02 -0.51958127336E+02  0.93660574487E+02  0.13388216188E+03  0.00000000000E+00 0. -1.
</event>
<event>
 8    1  0.7026811E-009  0.1017350E+03  0.7561462E-02  0.1276689E+00
          2   -1    0    0  501    0  0.00000000000E+00  0.00000000000E+00  0.73670118823E+03  0.73670118823E+03  0.00000000000E+00 0. -1.
         -2   -1    0    0    0  501 -0.00000000000E+00 -0.00000000000E+00 -0.23173953958E+02  0.23173953958E+02  0.00000000000E+00 0.  1.
         25    2    1    2    0    0 -0.46795751535E+02 -0.36081679370E+02  0.51875407425E+03  0.53688272066E+03  0.12508211800E+03 0.  0.
         23    2    1    2    0    0  0.46795751535E+02  0.36081679370E+02  0.19477316003E+03  0.22299242153E+03  0.91089550702E+02 0.  0.
          5    1    3    3  502    0 -0.23120354106E+02 -0.79654275180E+02  0.39218957637E+03  0.40088588219E+03  0.41800000000E+01 0.  1.
         -5    1    3    3    0  502 -0.23675397429E+02  0.43572595811E+02  0.12656449788E+03  0.13599683846E+03  0.41800000000E+01 0.  1.
        -11    1    4    4    0    0  0.39777614892E+02  0.65618865352E+01  0.18750685863E+03  0.19179191598E+03  0.00000000000E+00 0. -1.
         11    1    4    4    0    0  0.70181366429E+01  0.29519792835E+02  0.72663013965E+01  0.31200505556E+02  0.00000000000E+00 0.  1.
</event>
<event>
 8    1  0.7026811E-009  0.1297058E+03  0.7561462E-02  0.1227893E+00
         -1   -1    0    0    0  501 -0.00000000000E+00  0.00000000000E+00  0.84197747966E+02  0.84197747966E+02  0.00000000000E+00 0.  1.
          1   -1    0    0  501    0  0.00000000000E+00 -0.00000000000E+00 -0.31789543884E+03  0.31789543884E+03  0.00000000000E+00 0. -1.
         25    2    1    2    0    0  0.12362596053E+03 -0.16350753556E+02 -0.11067913027E+03  0.20843975294E+03  0.12508611221E+03 0.  0.
         23    2    1    2    0    0 -0.12362596053E+03  0.16350753556E+02 -0.12301856060E+03  0.19365343387E+03  0.82567311555E+02 0.  0.
          5    1    3    3  502    0  0.75024201442E+02 -0.33373114516E+02  0.43571677715E+01  0.82333789452E+02  0.41800000000E+01 0. -1.
         -5    1    3    3    0  502  0.48601759088E+02  0.17022360961E+02 -0.11503629804E+03  0.12610596349E+03  0.41800000000E+01 0. -1.
        -11    1    4    4    0    0 -0.70910341557E+02  0.16529690162E+02 -0.16283589368E+02  0.74610069557E+02  0.00000000000E+00 0.  1.
         11    1    4    4    0    0 -0.52715618972E+02 -0.17893660640E+00 -0.10673497123E+03  0.11904336431E+03  0.00000000000E+00 0. -1.
</event>
<event>
 8    1  0.7026811E-009  0.1027551E+03  0.7561462E-02  0.1274607E+00
          2   -1    0    0  501    0  0.00000000000E+00  0.00000000000E+00  0.63773987043E+02  0.63773987043E+02  0.00000000000E+00 0.  1.
         -2   -1    0    0    0  501 -0.00000000000E+00 -0.00000000000E+00 -0.29308085150E+03  0.29308085150E+03  0.00000000000E+00 0. -1.
         25    2    1    2    0    0  0.45781710544E+02 -0.32866661663E+02 -0.46485978083E+02  0.14485578607E+03  0.12508425213E+03 0.  0.
         23    2    1    2    0    0 -0.45781710544E+02  0.32866661663E+02 -0.18282088637E+03  0.21199905247E+03  0.91345165629E+02 0.  0.
          5    1    3    3  502    0 -0.97971917749E+01  0.39766200927E+02 -0.32046493598E+02  0.52170737533E+02  0.41800000000E+01 0.  1.
         -5    1    3    3    0  502  0.55578902319E+02 -0.72632862589E+02 -0.14439484485E+02  0.92685048541E+02  0.41800000000E+01 0.  1.
        -11    1    4    4    0    0 -0.41801902979E+02  0.21945147866E+01 -0.17521843044E+03  0.18014914197E+03  0.00000000000E+00 0. -1.
         11    1    4    4    0    0 -0.39798075648E+01  0.30672146876E+02 -0.76024559317E+01  0.31849910493E+02  0.00000000000E+00 0.  1.
</event>
<event>
 8    1  0.7026811E-009  0.1853524E+03  0.7561462E-02  0.1162721E+00
          2   -1    0    0  501    0  0.00000000000E+00  0.00000000000E+00  0.90528505028E+03  0.90528505028E+03  0.00000000000E+00 0.  1.
         -2   -1    0    0    0  501 -0.00000000000E+00 -0.00000000000E+00 -0.42137280247E+02  0.42137280247E+02  0.00000000000E+00 0. -1.
         25    2    1    2    0    0 -0.13909988579E+03  0.82987427357E+02  0.43982913847E+03  0.48511003166E+03  0.12508549253E+03 0.  0.
         23    2    1    2    0    0  0.13909988579E+03 -0.82987427357E+02  0.42331863156E+03  0.46231229887E+03  0.91095041213E+02 0.  0.
          5    1    3    3  502    0  0.14882094827E+02 -0.10187013002E+02  0.87671557705E+02  0.89604834751E+02  0.41800000000E+01 0. -1.
         -5    1    3    3    0  502 -0.15398198061E+03  0.93174440360E+02  0.35215758077E+03  0.39550519691E+03  0.41800000000E+01 0. -1.
        -11    1    4    4    0    0  0.30942128276E+02 -0.50515589514E+02  0.23830606760E+03  0.24555859167E+03  0.00000000000E+00 0.  1.
         11    1    4    4    0    0  0.10815775751E+03 -0.32471837843E+02  0.18501256396E+03  0.21675370720E+03  0.00000000000E+00 0. -1.
</event>
<event>
 8    1  0.7026811E-009  0.2496163E+03  0.7561462E-02  0.1113548E+00
          2   -1    0    0  501    0  0.00000000000E+00  0.00000000000E+00  0.56539697130E+03  0.56539697130E+03  0.00000000000E+00 0. -1.
         -2   -1    0    0    0  501 -0.00000000000E+00 -0.00000000000E+00 -0.29296040788E+03  0.29296040788E+03  0.00000000000E+00 0.  1.
         25    2    1    2    0    0 -0.44192171678E+02 -0.22896671939E+03 -0.19473648018E+03  0.32855551963E+03  0.12509087155E+03 0.  0.
         23    2    1    2    0    0  0.44192171678E+02  0.22896671939E+03  0.46717304359E+03  0.52980185955E+03  0.89781128848E+02 0.  0.
          5    1    3    3  502    0 -0.56457010143E+02 -0.23928956423E+03 -0.19151900421E+03  0.31167914739E+03  0.41800000000E+01 0. -1.
         -5    1    3    3    0  502  0.12264838466E+02  0.10322844847E+02 -0.32174759668E+01  0.16876372239E+02  0.41800000000E+01 0. -1.
        -11    1    4    4    0    0  0.46672168059E+02  0.13627224428E+03  0.19617448380E+03  0.24337798571E+03  0.00000000000E+00 0.  1.
         11    1    4    4    0    0 -0.24799963818E+01  0.92694475108E+02  0.27099855979E+03  0.28642387384E+03  0.00000000000E+00 0. -1.
</event>
<event>
 8    1  0.7026811E-009  0.1057937E+03  0.7561462E-02  0.1268564E+00
          1   -1    0    0  501    0  0.00000000000E+00  0.00000000000E+00  0.29886239643E+03  0.29886239643E+03  0.00000000000E+00 0. -1.
         -1   -1    0    0    0  501 -0.00000000000E+00 -0.00000000000E+00 -0.71028470409E+02  0.71028470409E+02  0.00000000000E+00 0.  1.
         25    2    1    2    0    0 -0.12189659696E+02 -0.93608976356E+02  0.14295704431E+03  0.21211941701E+03  0.12508677906E+03 0.  0.
         23    2    1    2    0    0  0.12189659696E+02  0.93608976356E+02  0.84876881715E+02  0.15777144983E+03  0.93683067171E+02 0.  0.
          5    1    3    3  502    0 -0.38103602177E+02 -0.77068862804E+02  0.24251725116E+02  0.89426577056E+02  0.41800000000E+01 0. -1.
         -5    1    3    3    0  502  0.25913942481E+02 -0.16540113551E+02  0.11870531919E+03  0.12269283995E+03  0.41800000000E+01 0. -1.
        -11    1    4    4    0    0  0.12944021174E+01  0.23548491949E+02  0.83594109084E+02  0.86857250839E+02  0.00000000000E+00 0. -1.
         11    1    4    4    0    0  0.10895257578E+02  0.70060484407E+02  0.12827726309E+01  0.70914198992E+02  0.00000000000E+00 0.  1.
</event>
<event>
 8    1  0.7026811E-009  0.1094000E+03  0.7561462E-02  0.1261685E+00
         -1   -1    0    0    0  501 -0.00000000000E+00  0.00000000000E+00  0.31456214507E+02  0.31456214507E+02  0.00000000000E+00 0.  1.
          1   -1    0    0  501    0  0.00000000000E+00 -0.00000000000E+00 -0.59107383763E+03  0.59107383763E+03  0.00000000000E+00 0. -1.
         25    2    1    2    0    0 -0.18842115127E+02  0.62547377398E+01 -0.48816800315E+03  0.50433074840E+03  0.12508939781E+03 0.  0.
         23    2    1    2    0    0  0.18842115127E+02 -0.62547377398E+01 -0.71449619975E+02  0.11819930373E+03  0.92042817000E+02 0.  0.
          5    1    3    3  502    0  0.59851488567E+01 -0.57568021118E+02 -0.21959319938E+03  0.22713111781E+03  0.41800000000E+01 0.  1.
         -5    1    3    3    0  502 -0.24827263984E+02  0.63822758858E+02 -0.26857480377E+03  0.27719963060E+03  0.41800000000E+01 0.  1.
        -11    1    4    4    0    0 -0.22632877559E+02 -0.35013556208E+02 -0.44521230488E+02  0.60994559012E+02  0.00000000000E+00 0. -1.
         11    1    4    4    0    0  0.41474992686E+02  0.28758818468E+02 -0.26928389488E+02  0.57204744719E+02  0.00000000000E+00 0.  1.
</event>
<event>
 8    1  0.7026811E-009  0.1195583E+03  0.7561462E-02  0.1243828E+00
         -1   -1    0    0    0  501 -0.00000000000E+00  0.00000000000E+00  0.38764932339E+03  0.38764932339E+03  0.00000000000E+00 0. -1.
          1   -1    0    0  501    0  0.00000000000E+00 -0.00000000000E+00 -0.47861854177E+02  0.47861854177E+02  0.00000000000E+00 0.  1.
         25    2    1    2    0    0  0.38190005841E+02 -0.59843580433E+02  0.12098847085E+03  0.18795206532E+03  0.12509211851E+03 0.  0.
         23    2    1    2    0    0 -0.38190005841E+02  0.59843580433E+02  0.21879899837E+03  0.24755911225E+03  0.91502905459E+02 0.  0.
          5    1    3    3  502    0  0.66255450190E+02 -0.80723189776E+02  0.69313029675E+02  0.12541047217E+03  0.41800000000E+01 0. -1.
         -5    1    3    3    0  502 -0.28065444350E+02  0.20879609343E+02  0.51675441172E+02  0.62541593145E+02  0.41800000000E+01 0. -1.
        -11    1    4    4    0    0 -0.30112503881E+02 -0.79134678061E+01  0.19107006084E+02  0.36530309939E+02  0.00000000000E+00 0.  1.
         11    1    4    4    0    0 -0.80775019593E+01  0.67757048239E+02  0.19969199228E+03  0.21102880231E+03  0.00000000000E+00 0. -1.
</event>
<event>
 8    1  0.7026811E-009  0.1080940E+03  0.7561462E-02  0.1264141E+00
          4   -1    0    0  501    0  0.00000000000E+00  0.00000000000E+00  0.15410970989E+03  0.15410970989E+03  0.00000000000E+00 0. -1.
         -4   -1    0    0    0  501 -0.00000000000E+00 -0.00000000000E+00 -0.78079169326E+02  0.78079169326E+02  0.00000000000E+00 0.  1.
         25    2    1    2    0    0  0.14015120285E+02 -0.14121220397E+02  0.33247775818E+02  0.13095338488E+03  0.12509013531E+03 0.  0.
         23    2    1    2    0    0 -0.14015120285E+02  0.14121220397E+02  0.42782764749E+02  0.10123549434E+03  0.89568007082E+02 0.  0.
          5    1    3    3  502    0 -0.27081871520E+02 -0.59340204959E+02  0.15258174804E+02  0.67119088104E+02  0.41800000000E+01 0.  1.
         -5    1    3    3    0  502  0.41096991804E+02  0.45218984562E+02  0.17989601014E+02  0.63834296775E+02  0.41800000000E+01 0.  1.
        -11    1    4    4    0    0 -0.11361813500E+02  0.51179777887E+02  0.14072226892E+02  0.54281562618E+02  0.00000000000E+00 0.  1.
         11    1    4    4    0    0 -0.26533067850E+01 -0.37058557490E+02  0.28710537857E+02  0.46953931723E+02  0.00000000000E+00 0. -1.
</event>
<event>
 8    1  0.7026811E-009  0.1186394E+03  0.7561462E-02  0.1245359E+00
          2   -1    0    0  501    0  0.00000000000E+00  0.00000000000E+00  0.70903269178E+02  0.70903269178E+02  0.00000000000E+00 0. -1.
         -2   -1    0    0    0  501 -0.00000000000E+00 -0.00000000000E+00 -0.22440435423E+03  0.22440435423E+03  0.00000000000E+00 0.  1.
         25    2    1    2    0    0 -0.56959810288E+02 -0.22458302862E+02 -0.10286302165E+03  0.17314023512E+03  0.12509174408E+03 0.  0.
         23    2    1    2    0    0  0.56959810288E+02  0.22458302862E+02 -0.50638063397E+02  0.12216738829E+03  0.92800118216E+02 0.  0.
          5    1    3    3  502    0 -0.81785152802E+02 -0.45751758867E+02 -0.10235529457E+03  0.13883844347E+03  0.41800000000E+01 0.  1.
         -5    1    3    3    0  502  0.24825342514E+02  0.23293456005E+02 -0.50772708282E+00  0.34301791650E+02  0.41800000000E+01 0.  1.
        -11    1    4    4    0    0 -0.18127015792E+02  0.28574856134E+02 -0.53295470210E+01  0.34256607772E+02  0.00000000000E+00 0. -1.
         11    1    4    4    0    0  0.75086826080E+02 -0.61165532717E+01 -0.45308516376E+02  0.87910780516E+02  0.00000000000E+00 0.  1.
</event>
<event>
 8    1  0.7026811E-009  0.1201143E+03  0.7561462E-02  0.1242909E+00
         -2   -1    0    0    0  501 -0.00000000000E+00  0.00000000000E+00  0.13012239643E+03  0.13012239643E+03  0.00000000000E+00 0.  1.
          2   -1    0    0  501    0  0.00000000000E+00 -0.00000000000E+00 -0.15475488242E+03  0.15475488242E+03  0.00000000000E+00 0. -1.
         25    2    1    2    0    0 -0.69128540205E+02  0.17273641888E+02 -0.73775112881E+02  0.16176321363E+03  0.12508971273E+03 0.  0.
         23    2    1    2    0    0  0.69128540205E+02 -0.17273641888E+02  0.49142626894E+02  0.12311406522E+03  0.87549651638E+02 0.  0.
          5    1    3    3  502    0 -0.94611371243E+02  0.30862310178E+02 -0.84554930934E+02  0.13065528119E+03  0.41800000000E+01 0. -1.
         -5    1    3    3    0  502  0.25482831038E+02 -0.13588668290E+02  0.10779818053E+02  0.31107932443E+02  0.41800000000E+01 0. -1.
        -11    1    4    4    0    0  0.85847193691E+02  0.20740768967E+01  0.45810256939E+02  0.97327396453E+02  0.00000000000E+00 0. -1.
         11    1    4    4    0    0 -0.16718653486E+02 -0.19347718784E+02  0.33323699556E+01  0.25786668767E+02  0.00000000000E+00 0.  1.
</event>
<event>
 8    1  0.7026811E-009  0.1215238E+03  0.7561462E-02  0.1240604E+00
         -2   -1    0    0    0  501 -0.00000000000E+00  0.00000000000E+00  0.17793996126E+02  0.17793996126E+02  0.00000000000E+00 0.  1.
          2   -1    0    0  501    0  0.00000000000E+00 -0.00000000000E+00 -0.95557244093E+03  0.95557244093E+03  0.00000000000E+00 0. -1.
         25    2    1    2    0    0  0.46249213867E+02  0.26915114232E+02 -0.63744940667E+03  0.65180709417E+03  0.12508928330E+03 0.  0.
         23    2    1    2    0    0 -0.46249213867E+02 -0.26915114232E+02 -0.30032903813E+03  0.32155934288E+03  0.10168316817E+03 0.  0.
          5    1    3    3  502    0  0.62199351426E+02  0.67448561263E+02 -0.40622211538E+03  0.41647562613E+03  0.41800000000E+01 0. -1.
         -5    1    3    3    0  502 -0.15950137559E+02 -0.40533447031E+02 -0.23122729128E+03  0.23533146804E+03  0.41800000000E+01 0. -1.
        -11    1    4    4    0    0  0.15281026451E+02  0.23408559771E+02 -0.36253016364E+02  0.45779380025E+02  0.00000000000E+00 0. -1.
         11    1    4    4    0    0 -0.61530240318E+02 -0.50323674004E+02 -0.26407602177E+03  0.27577996286E+03  0.00000000000E+00 0.  1.
</event>
<event>
 8    1  0.7026811E-009  0.6971476E+02  0.7561462E-02  0.1361066E+00
          2   -1    0    0  501    0  0.00000000000E+00  0.00000000000E+00  0.18124044404E+03  0.18124044404E+03  0.00000000000E+00 0. -1.
         -2   -1    0    0    0  501 -0.00000000000E+00 -0.00000000000E+00 -0.10246253836E+03  0.10246253836E+03  0.00000000000E+00 0.  1.
         25    2    1    2    0    0 -0.15506290739E+02  0.20109014106E+02  0.12484416081E+03  0.17854546295E+03  0.12509036874E+03 0.  0.
         23    2    1    2    0    0  0.15506290739E+02 -0.20109014106E+02 -0.46066255122E+02  0.10515751945E+03  0.91055952770E+02 0.  0.
          5    1    3    3  502    0  0.11144649775E+01  0.27196180997E+02 -0.19034631473E+02  0.33476318321E+02  0.41800000000E+01 0. -1.
         -5    1    3    3    0  502 -0.16620755716E+02 -0.70871668911E+01  0.14387879228E+03  0.14506914463E+03  0.41800000000E+01 0. -1.
        -11    1    4    4    0    0  0.53309926767E+02 -0.10397591110E+02 -0.34899990376E+02  0.64560572496E+02  0.00000000000E+00 0.  1.
         11    1    4    4    0    0 -0.37803636028E+02 -0.97114229960E+01 -0.11166264746E+02  0.40596946953E+02  0.00000000000E+00 0. -1.
</event>
<event>
 8    1  0.7026811E-009  0.9980493E+02  0.7561462E-02  0.1280707E+00
         -2   -1    0    0    0  501 -0.00000000000E+00  0.00000000000E+00  0.30573141453E+03  0.30573141453E+03  0.00000000000E+00 0.  1.
          2   -1    0    0  501    0  0.00000000000E+00 -0.00000000000E+00 -0.55604263709E+02  0.55604263709E+02  0.00000000000E+00 0. -1.
         25    2    1    2    0    0  0.12195607991E+02  0.25707402453E+02  0.23058632694E+03  0.26387815342E+03  0.12510804247E+03 0.  0.
         23    2    1    2    0    0 -0.12195607991E+02 -0.25707402453E+02  0.19540823888E+02  0.97457524818E+02  0.91140122615E+02 0.  0.
          5    1    3    3  502    0  0.36534474162E+02 -0.41220778576E+02  0.12241019051E+03  0.13429686344E+03  0.41800000000E+01 0. -1.
         -5    1    3    3    0  502 -0.24338866170E+02  0.66928181029E+02  0.10817613643E+03  0.12958128999E+03  0.41800000000E+01 0. -1.
        -11    1    4    4    0    0 -0.29793597124E+02 -0.40336770092E+02  0.41986072596E+02  0.65402933750E+02  0.00000000000E+00 0.  1.
         11    1    4    4    0    0  0.17597989133E+02  0.14629367638E+02 -0.22445248708E+02  0.32054591069E+02  0.00000000000E+00 0. -1.
</event>
<event>
 8    1  0.7026811E-009  0.1275195E+03  0.7561462E-02  0.1231183E+00
          1   -1    0    0  501    0  0.00000000000E+00  0.00000000000E+00  0.29318023572E+02  0.29318023572E+02  0.00000000000E+00 0. -1.
         -1   -1    0    0    0  501 -0.00000000000E+00 -0.00000000000E+00 -0.71960735566E+03  0.71960735566E+03  0.00000000000E+00 0.  1.
         25    2    1    2    0    0  0.73286503530E+02 -0.50068851775E+02 -0.46695060675E+03  0.49149614064E+03  0.12509110918E+03 0.  0.
         23    2    1    2    0    0 -0.73286503530E+02  0.50068851775E+02 -0.22333872534E+03  0.25742923860E+03  0.92259553062E+02 0.  0.
          5    1    3    3  502    0  0.97759778775E+02 -0.22925373973E+02 -0.41997048304E+03  0.43182777370E+03  0.41800000000E+01 0.  1.
         -5    1    3    3    0  502 -0.24473275245E+02 -0.27143477802E+02 -0.46980123715E+02  0.59668366935E+02  0.41800000000E+01 0.  1.
        -11    1    4    4    0    0 -0.56539025958E+02 -0.81965444345E+01 -0.58378499895E+02  0.81681662856E+02  0.00000000000E+00 0. -1.
         11    1    4    4    0    0 -0.16747477572E+02  0.58265396210E+02 -0.16496022544E+03  0.17574757574E+03  0.00000000000E+00 0.  1.
</event>
<event>
 8    1  0.7026811E-009  0.1530960E+03  0.7561462E-02  0.1196719E+00
         -2   -1    0    0    0  501 -0.00000000000E+00  0.00000000000E+00  0.34163954845E+03  0.34163954845E+03  0.00000000000E+00 0. -1.
          2   -1    0    0  501    0  0.00000000000E+00 -0.00000000000E+00 -0.11991543721E+03  0.11991543721E+03  0.00000000000E+00 0.  1.
         25    2    1    2    0    0  0.93364536321E+02 -0.10716730087E+03  0.22167183424E+03  0.29152750655E+03  0.12509243767E+03 0.  0.
         23    2    1    2    0    0 -0.93364536321E+02  0.10716730087E+03  0.52276999585E-01  0.17002747912E+03  0.93314382078E+02 0.  0.
          5    1    3    3  502    0 -0.10100910941E+02 -0.31170249783E+02 -0.25413728144E+01  0.33129199344E+02  0.41800000000E+01 0. -1.
         -5    1    3    3    0  502  0.10346544726E+03 -0.75997051089E+02  0.22421320705E+03  0.25839830721E+03  0.41800000000E+01 0. -1.
        -11    1    4    4    0    0 -0.20580953074E+02  0.43055819131E+02  0.42733234650E+02  0.64058633564E+02  0.00000000000E+00 0. -1.
         11    1    4    4    0    0 -0.72783583247E+02  0.64111481742E+02 -0.42680957650E+02  0.10596884555E+03  0.00000000000E+00 0.  1.
</event>
<event>
 8    1  0.7026811E-009  0.1769570E+03  0.7561462E-02  0.1170781E+00
         -2   -1    0    0    0  501 -0.00000000000E+00  0.00000000000E+00  0.29462181907E+03  0.29462181907E+03  0.00000000000E+00 0.  1.
          2   -1    0    0  501    0  0.00000000000E+00 -0.00000000000E+00 -0.11083795506E+03  0.11083795506E+03  0.00000000000E+00 0. -1.
         25    2    1    2    0    0  0.11679260155E+03  0.84205123461E+02  0.87636570964E+02  0.20990178533E+03  0.12509027267E+03 0.  0.
         23    2    1    2    0    0 -0.11679260155E+03 -0.84205123461E+02  0.96147293046E+02  0.19555798881E+03  0.90926401180E+02 0.  0.
          5    1    3    3  502    0  0.14104041068E+03  0.85705235503E+02  0.68693521416E+02  0.17881291095E+03  0.41800000000E+01 0.  1.
         -5    1    3    3    0  502 -0.24247809130E+02 -0.15001120414E+01  0.18943049548E+02  0.31088874375E+02  0.41800000000E+01 0.  1.
        -11    1    4    4    0    0 -0.66124904282E+02 -0.26613345385E+00  0.13871505255E+02  0.67564727864E+02  0.00000000000E+00 0.  1.
         11    1    4    4    0    0 -0.50667697272E+02 -0.83938990008E+02  0.82275787791E+02  0.12799326094E+03  0.00000000000E+00 0. -1.
</event>
<event>
 8    1  0.7026811E-009  0.5448913E+02  0.7561462E-02  0.1422530E+00
          2   -1    0    0  501    0  0.00000000000E+00  0.00000000000E+00  0.14904221723E+03  0.14904221723E+03  0.00000000000E+00 0. -1.
         -2   -1    0    0    0  501 -0.00000000000E+00 -0.00000000000E+00 -0.84431225618E+02  0.84431225618E+02  0.00000000000E+00 0.  1.
         25    2    1    2    0    0 -0.16401264277E+02  0.21597162461E+02  0.47139311610E+02  0.13640190655E+03  0.12509167245E+03 0.  0.
         23    2    1    2    0    0  0.16401264277E+02 -0.21597162461E+02  0.17471679999E+02  0.97071536294E+02  0.91554271665E+02 0.  0.
          5    1    3    3  502    0 -0.29522893285E+00  0.26472024027E+02  0.88012596105E+02  0.92002960221E+02  0.41800000000E+01 0.  1.
         -5    1    3    3    0  502 -0.16106035344E+02 -0.48748615660E+01 -0.40873284496E+02  0.44398946331E+02  0.41800000000E+01 0.  1.
        -11    1    4    4    0    0 -0.10530797941E+02  0.15656372879E+02 -0.27113334741E+02  0.33032599622E+02  0.00000000000E+00 0.  1.
         11    1    4    4    0    0  0.26932062218E+02 -0.37253535341E+02  0.44585014740E+02  0.64038936672E+02  0.00000000000E+00 0. -1.
</event>
<event>
 8    1  0.7026811E-009  0.1163864E+03  0.7561462E-02  0.1249180E+00
         -1   -1    0    0    0  501 -0.00000000000E+00  0.00000000000E+00  0.14543906049E+03  0.14543906049E+03  0.00000000000E+00 0.  1.
          1   -1    0    0  501    0  0.00000000000E+00 -0.00000000000E+00 -0.10336271381E+03  0.10336271381E+03  0.00000000000E+00 0. -1.
         25    2    1    2    0    0 -0.22133509888E+02  0.36691564989E+02  0.34664186013E+00  0.13220890914E+03  0.12507162865E+03 0.  0.
         23    2    1    2    0    0  0.22133509888E+02 -0.36691564989E+02  0.41729704816E+02  0.11659286516E+03  0.10008179026E+03 0.  0.
          5    1    3    3  502    0  0.21487972923E+02  0.69623999519E+02 -0.16569645443E+02  0.74841564919E+02  0.41800000000E+01 0.  1.
         -5    1    3    3    0  502 -0.43621482811E+02 -0.32932434530E+02  0.16916287303E+02  0.57367344220E+02  0.41800000000E+01 0.  1.
        -11    1    4    4    0    0 -0.22631901171E+02  0.21727670647E+02 -0.11862125388E+01  0.31395887033E+02  0.00000000000E+00 0. -1.
         11    1    4    4    0    0  0.44765411060E+02 -0.58419235637E+02  0.42915917355E+02  0.85196978128E+02  0.00000000000E+00 0.  1.
</event>
<event>
 8    1  0.7026811E-009  0.1183527E+03  0.7561462E-02  0.1245840E+00
         -1   -1    0    0    0  501 -0.00000000000E+00  0.00000000000E+00  0.15374516953E+03  0.15374516953E+03  0.00000000000E+00 0.  1.
          1   -1    0    0  501    0  0.00000000000E+00 -0.00000000000E+00 -0.10017497136E+03  0.10017497136E+03  0.00000000000E+00 0. -1.
         25    2    1    2    0    0 -0.16567753251E+02  0.53995409008E+02  0.51538109747E+02  0.14660626942E+03  0.12508887575E+03 0.  0.
         23    2    1    2    0    0  0.16567753251E+02 -0.53995409008E+02  0.20320884230E+01  0.10731387147E+03  0.91225780263E+02 0.  0.
          5    1    3    3  502    0 -0.52734709984E+01 -0.37345046155E+02  0.37612596575E+02  0.53428847917E+02  0.41800000000E+01 0. -1.
         -5    1    3    3    0  502 -0.11294282252E+02  0.91340455163E+02  0.13925513172E+02  0.93177421504E+02  0.41800000000E+01 0. -1.
        -11    1    4    4    0    0  0.39562075785E+01  0.25668733590E+02 -0.46365359356E+01  0.26382435976E+02  0.00000000000E+00 0.  1.
         11    1    4    4    0    0  0.12611545672E+02 -0.79664142598E+02  0.66686243585E+01  0.80931435493E+02  0.00000000000E+00 0. -1.
</event>
<event>
 8    1  0.7026811E-009  0.1307574E+03  0.7561462E-02  0.1226336E+00
          1   -1    0    0  501    0  0.00000000000E+00  0.00000000000E+00  0.25623898991E+03  0.25623898991E+03  0.00000000000E+00 0. -1.
         -1   -1    0    0    0  501 -0.00000000000E+00 -0.00000000000E+00 -0.74363289594E+02  0.74363289594E+02  0.00000000000E+00 0.  1.
         25    2    1    2    0    0 -0.79471370505E+02  0.29925780133E+02  0.12446320289E+03  0.19583089966E+03  0.12508957327E+03 0.  0.
         23    2    1    2    0    0  0.79471370505E+02 -0.29925780133E+02  0.57412497430E+02  0.13477137985E+03  0.87497879509E+02 0.  0.
          5    1    3    3  502    0 -0.82751334173E+02  0.71372318019E+02  0.92212298805E+02  0.14304674599E+03  0.41800000000E+01 0. -1.
         -5    1    3    3    0  502  0.32799636679E+01 -0.41446537886E+02  0.32250904080E+02  0.52784153668E+02  0.41800000000E+01 0. -1.
        -11    1    4    4    0    0 -0.12573740273E-01  0.17706958112E+02 -0.98561845539E+01  0.20265263325E+02  0.00000000000E+00 0.  1.
         11    1    4    4    0    0  0.79483944245E+02 -0.47632738244E+02  0.67268681984E+02  0.11450611652E+03  0.00000000000E+00 0. -1.
</event>
