<event>
 8    1  0.7102339E-009  0.1084339E+03  0.7561462E-02  0.1263498E+00
         -2   -1    0    0    0  501 -0.00000000000E+00  0.00000000000E+00  0.16225037575E+02  0.16225037575E+02  0.00000000000E+00 0. -1.
          2   -1    0    0  501    0  0.00000000000E+00 -0.00000000000E+00 -0.91064040561E+03  0.91064040561E+03  0.00000000000E+00 0.  1.
         25    2    1    2    0    0 -0.16412569180E+02 -0.34878108918E+02 -0.64835940133E+03  0.66144013976E+03  0.12508912935E+03 0.  0.
         23    2    1    2    0    0  0.16412569180E+02  0.34878108918E+02 -0.24605596671E+03  0.26542530343E+03  0.91767085817E+02 0.  0.
          5    1    3    3  502    0  0.41963906626E+02 -0.41408843414E+02 -0.18148220160E+03  0.19086362584E+03  0.41800000000E+01 0. -1.
         -5    1    3    3    0  502 -0.58376475806E+02  0.65307344963E+01 -0.46687719973E+03  0.47057651391E+03  0.41800000000E+01 0. -1.
        -11    1    4    4    0    0 -0.12585388952E+02 -0.27414004857E+02 -0.61648624256E+02  0.68632882425E+02  0.00000000000E+00 0. -1.
         11    1    4    4    0    0  0.28997958132E+02  0.62292113775E+02 -0.18440734245E+03  0.19679242101E+03  0.00000000000E+00 0.  1.
</event>
<event>
 8    1  0.7102339E-009  0.2262679E+03  0.7561462E-02  0.1129294E+00
          2   -1    0    0  501    0  0.00000000000E+00  0.00000000000E+00  0.15788488173E+04  0.15788488173E+04  0.00000000000E+00 0. -1.
         -2   -1    0    0    0  501 -0.00000000000E+00 -0.00000000000E+00 -0.34631365803E+02  0.34631365803E+02  0.00000000000E+00 0.  1.
         25    2    1    2    0    0  0.20254362382E+03  0.22476648279E+02  0.92963910748E+03  0.95989855272E+03  0.12508893670E+03 0.  0.
         23    2    1    2    0    0 -0.20254362382E+03 -0.22476648279E+02  0.61457834397E+03  0.65358163034E+03  0.89069003432E+02 0.  0.
          5    1    3    3  502    0  0.19855053792E+03 -0.83508485807E+01  0.87105895241E+03  0.89345017978E+03  0.41800000000E+01 0. -1.
         -5    1    3    3    0  502  0.39930858958E+01  0.30827496860E+02  0.58580155072E+02  0.66448372937E+02  0.41800000000E+01 0. -1.
        -11    1    4    4    0    0 -0.17937427959E+03  0.13201922782E+02  0.49647204564E+03  0.52804726592E+03  0.00000000000E+00 0. -1.
         11    1    4    4    0    0 -0.23169344230E+02 -0.35678571061E+02  0.11810629834E+03  0.12553436443E+03  0.00000000000E+00 0.  1.
</event>
<event>
 8    1  0.7102339E-009  0.9810488E+02  0.7561462E-02  0.1284332E+00
         -1   -1    0    0    0  501 -0.00000000000E+00  0.00000000000E+00  0.31793853763E+02  0.31793853763E+02  0.00000000000E+00 0.  1.
          1   -1    0    0  501    0  0.00000000000E+00 -0.00000000000E+00 -0.45306096278E+03  0.45306096278E+03  0.00000000000E+00 0. -1.
         25    2    1    2    0    0  0.99676923506E+01 -0.18450320787E+02 -0.32814601021E+03  0.35180628733E+03  0.12509232816E+03 0.  0.
         23    2    1    2    0    0 -0.99676923506E+01  0.18450320787E+02 -0.93121098805E+02  0.13304852921E+03  0.92685505087E+02 0.  0.
          5    1    3    3  502    0  0.11026352492E+02 -0.63206013471E+02 -0.97317496042E+02  0.11663939311E+03  0.41800000000E+01 0. -1.
         -5    1    3    3    0  502 -0.10586601416E+01  0.44755692683E+02 -0.23082851417E+03  0.23516689423E+03  0.41800000000E+01 0. -1.
        -11    1    4    4    0    0 -0.45306572476E+02  0.23850860856E+02 -0.79971155893E+02  0.94957542343E+02  0.00000000000E+00 0. -1.
         11    1    4    4    0    0  0.35338880126E+02 -0.54005400683E+01 -0.13149942912E+02  0.38090986863E+02  0.00000000000E+00 0.  1.
</event>
<event>
 8    1  0.7102339E-009  0.1112909E+03  0.7561462E-02  0.1258198E+00
         -1   -1    0    0    0  501 -0.00000000000E+00  0.00000000000E+00  0.15597490104E+03  0.15597490104E+03  0.00000000000E+00 0.  1.
          1   -1    0    0  501    0  0.00000000000E+00 -0.00000000000E+00 -0.10320914199E+03  0.10320914199E+03  0.00000000000E+00 0. -1.
         25    2    1    2    0    0 -0.38485541754E+02  0.47173533921E+02  0.55986347720E+02  0.14996084773E+03  0.12508919016E+03 0.  0.
         23    2    1    2    0    0  0.38485541754E+02 -0.47173533921E+02 -0.32205886755E+01  0.10922319529E+03  0.90624803295E+02 0.  0.
          5    1    3    3  502    0  0.43498683951E+02  0.26577230938E+02  0.55735683033E+01  0.51449215479E+02  0.41800000000E+01 0. -1.
         -5    1    3    3    0  502 -0.81984225704E+02  0.20596302982E+02  0.50412779416E+02  0.98511632254E+02  0.41800000000E+01 0. -1.
        -11    1    4    4    0    0 -0.24758561027E+01 -0.45747116632E+02 -0.34758739728E+02  0.57507378058E+02  0.00000000000E+00 0. -1.
         11    1    4    4    0    0  0.40961397857E+02 -0.14264172889E+01  0.31538151053E+02  0.51715817237E+02  0.00000000000E+00 0.  1.
</event>
<event>
 8    1  0.7102339E-009  0.1113637E+03  0.7561462E-02  0.1258065E+00
         -2   -1    0    0    0  501 -0.00000000000E+00  0.00000000000E+00  0.39788863208E+02  0.39788863208E+02  0.00000000000E+00 0.  1.
          2   -1    0    0  501    0  0.00000000000E+00 -0.00000000000E+00 -0.34001558849E+03  0.34001558849E+03  0.00000000000E+00 0. -1.
         25    2    1    2    0    0  0.73738573930E+01  0.38462290641E+02 -0.15835947952E+03  0.20557059187E+03  0.12509125434E+03 0.  0.
         23    2    1    2    0    0 -0.73738573930E+01 -0.38462290641E+02 -0.14186724576E+03  0.17423385983E+03  0.93259856941E+02 0.  0.
          5    1    3    3  502    0  0.32038579983E+02 -0.35099615627E+02 -0.32729864612E+02  0.57854732408E+02  0.41800000000E+01 0. -1.
         -5    1    3    3    0  502 -0.24664722590E+02  0.73561906268E+02 -0.12562961491E+03  0.14771585946E+03  0.41800000000E+01 0. -1.
        -11    1    4    4    0    0  0.19457963991E+02 -0.59897584259E+02 -0.67488632162E+02  0.92309525152E+02  0.00000000000E+00 0.  1.
         11    1    4    4    0    0 -0.26831821384E+02  0.21435293618E+02 -0.74378613601E+02  0.81924334678E+02  0.00000000000E+00 0. -1.
</event>
<event>
 8    1  0.7102339E-009  0.1423471E+03  0.7561462E-02  0.1210205E+00
          1   -1    0    0  501    0  0.00000000000E+00  0.00000000000E+00  0.21481499768E+03  0.21481499768E+03  0.00000000000E+00 0. -1.
         -1   -1    0    0    0  501 -0.00000000000E+00 -0.00000000000E+00 -0.21247604623E+03  0.21247604623E+03  0.00000000000E+00 0.  1.
         25    2    1    2    0    0 -0.96109023898E+02 -0.25207017871E+01 -0.15523811800E+03  0.22133597530E+03  0.12508973687E+03 0.  0.
         23    2    1    2    0    0  0.96109023898E+02  0.25207017871E+01  0.15757706945E+03  0.20595506862E+03  0.91343631744E+02 0.  0.
          5    1    3    3  502    0 -0.11584724222E+03  0.24641788227E+02 -0.93583836318E+02  0.15100731133E+03  0.41800000000E+01 0.  1.
         -5    1    3    3    0  502  0.19738218319E+02 -0.27162490014E+02 -0.61654281679E+02  0.70328663968E+02  0.41800000000E+01 0.  1.
        -11    1    4    4    0    0  0.43438975402E+01  0.34798858994E+02  0.36101082481E+02  0.50330092285E+02  0.00000000000E+00 0. -1.
         11    1    4    4    0    0  0.91765126358E+02 -0.32278157207E+02  0.12147598697E+03  0.15562497633E+03  0.00000000000E+00 0.  1.
</event>
<event>
 8    1  0.7102339E-009  0.9800074E+02  0.7561462E-02  0.1284557E+00
          1   -1    0    0  501    0  0.00000000000E+00  0.00000000000E+00  0.78497463978E+03  0.78497463978E+03  0.00000000000E+00 0. -1.
         -1   -1    0    0    0  501 -0.00000000000E+00 -0.00000000000E+00 -0.22648671133E+02  0.22648671133E+02  0.00000000000E+00 0.  1.
         25    2    1    2    0    0  0.58201575837E+02 -0.35066635015E+02  0.30651695370E+03  0.33796044172E+03  0.12509006731E+03 0.  0.
         23    2    1    2    0    0 -0.58201575837E+02  0.35066635015E+02  0.45580901495E+03  0.46966286919E+03  0.90577371743E+02 0.  0.
          5    1    3    3  502    0  0.63307118970E+02 -0.19836005257E+02  0.31311891972E+03  0.32009715510E+03  0.41800000000E+01 0.  1.
         -5    1    3    3    0  502 -0.51055431321E+01 -0.15230629757E+02 -0.66019660198E+01  0.17863286618E+02  0.41800000000E+01 0.  1.
        -11    1    4    4    0    0  0.15947771962E+02  0.35348565698E+02  0.14062163807E+03  0.14587082512E+03  0.00000000000E+00 0.  1.
         11    1    4    4    0    0 -0.74149347799E+02 -0.28193068333E+00  0.31518737688E+03  0.32379204408E+03  0.00000000000E+00 0. -1.
</event>
<event>
 8    1  0.7102339E-009  0.1484025E+03  0.7561462E-02  0.1202450E+00
          2   -1    0    0  501    0  0.00000000000E+00  0.00000000000E+00  0.11036645176E+04  0.11036645176E+04  0.00000000000E+00 0. -1.
         -2   -1    0    0    0  501 -0.00000000000E+00 -0.00000000000E+00 -0.22144878950E+02  0.22144878950E+02  0.00000000000E+00 0.  1.
         25    2    1    2    0    0 -0.58834246874E+02  0.94714659054E+02  0.54088802795E+03  0.56625041225E+03  0.12508930949E+03 0.  0.
         23    2    1    2    0    0  0.58834246874E+02 -0.94714659054E+02  0.54063161072E+03  0.55955898432E+03  0.91604493221E+02 0.  0.
          5    1    3    3  502    0 -0.21652426859E+02  0.11060509302E+03  0.47977248508E+03  0.49285030590E+03  0.41800000000E+01 0. -1.
         -5    1    3    3    0  502 -0.37181820015E+02 -0.15890433965E+02  0.61115542874E+02  0.73400106349E+02  0.41800000000E+01 0. -1.
        -11    1    4    4    0    0  0.83013501679E+02 -0.67715619838E+02  0.37459557880E+03  0.38961326247E+03  0.00000000000E+00 0.  1.
         11    1    4    4    0    0 -0.24179254804E+02 -0.26999039216E+02  0.16603603192E+03  0.16994572185E+03  0.00000000000E+00 0. -1.
</event>
<event>
 8    1  0.7102339E-009  0.1093451E+03  0.7561462E-02  0.1261788E+00
         -2   -1    0    0    0  501 -0.00000000000E+00  0.00000000000E+00  0.25150869848E+03  0.25150869848E+03  0.00000000000E+00 0.  1.
          2   -1    0    0  501    0  0.00000000000E+00 -0.00000000000E+00 -0.55467801749E+02  0.55467801749E+02  0.00000000000E+00 0. -1.
         25    2    1    2    0    0 -0.10720869220E+02 -0.86563179511E+01  0.55737832696E+02  0.13764616678E+03  0.12509952981E+03 0.  0.
         23    2    1    2    0    0  0.10720869220E+02  0.86563179511E+01  0.14030306403E+03  0.16933033345E+03  0.93797351625E+02 0.  0.
          5    1    3    3  502    0 -0.20224120065E+02 -0.64724821742E+02  0.38431243864E+02  0.78056072710E+02  0.41800000000E+01 0.  1.
         -5    1    3    3    0  502  0.95032508444E+01  0.56068503791E+02  0.17306588832E+02  0.59590094067E+02  0.41800000000E+01 0.  1.
        -11    1    4    4    0    0  0.45469469865E+01  0.50866668681E+02  0.63639752403E+02  0.81597247475E+02  0.00000000000E+00 0.  1.
         11    1    4    4    0    0  0.61739222338E+01 -0.42210350730E+02  0.76663311629E+02  0.87733085974E+02  0.00000000000E+00 0. -1.
</event>
<event>
 8    1  0.7102339E-009  0.5954974E+02  0.7561462E-02  0.1399731E+00
          4   -1    0    0  501    0  0.00000000000E+00  0.00000000000E+00  0.25882213522E+03  0.25882213522E+03  0.00000000000E+00 0. -1.
         -4   -1    0    0    0  501 -0.00000000000E+00 -0.00000000000E+00 -0.53657312170E+02  0.53657312170E+02  0.00000000000E+00 0.  1.
         25    2    1    2    0    0 -0.22027021851E+02  0.12264891525E+02  0.16621155399E+03  0.20954593428E+03  0.12509036988E+03 0.  0.
         23    2    1    2    0    0  0.22027021851E+02 -0.12264891525E+02  0.38953269065E+02  0.10293351311E+03  0.91882172893E+02 0.  0.
          5    1    3    3  502    0 -0.30773238633E+02  0.40848962040E+02  0.12386417585E+02  0.52787552096E+02  0.41800000000E+01 0. -1.
         -5    1    3    3    0  502  0.87462167817E+01 -0.28584070515E+02  0.15382513640E+03  0.15675838218E+03  0.41800000000E+01 0. -1.
        -11    1    4    4    0    0  0.65000603415E+01 -0.19440065584E+02 -0.27508637537E+02  0.34305860629E+02  0.00000000000E+00 0.  1.
         11    1    4    4    0    0  0.15526961510E+02  0.71751740596E+01  0.66461906602E+02  0.68627652485E+02  0.00000000000E+00 0. -1.
</event>
<event>
 8    1  0.7102339E-009  0.1338427E+03  0.7561462E-02  0.1221863E+00
          1   -1    0    0  501    0  0.00000000000E+00  0.00000000000E+00  0.27989743430E+03  0.27989743430E+03  0.00000000000E+00 0. -1.
         -1   -1    0    0    0  501 -0.00000000000E+00 -0.00000000000E+00 -0.99660986134E+02  0.99660986134E+02  0.00000000000E+00 0.  1.
         25    2    1    2    0    0  0.12114600800E+03 -0.94765672660E+01  0.13693123150E+03  0.22172904646E+03  0.12508975700E+03 0.  0.
         23    2    1    2    0    0 -0.12114600800E+03  0.94765672660E+01  0.43305216672E+02  0.15782937397E+03  0.90931891638E+02 0.  0.
          5    1    3    3  502    0 -0.27238298271E+01 -0.11495847096E+02 -0.18857986885E+02  0.22642213203E+02  0.41800000000E+01 0.  1.
         -5    1    3    3    0  502  0.12386983782E+03  0.20192798296E+01  0.15578921838E+03  0.19908683326E+03  0.41800000000E+01 0.  1.
        -11    1    4    4    0    0 -0.82468243335E+02  0.29572137222E+02  0.65050323029E+02  0.10911950781E+03  0.00000000000E+00 0. -1.
         11    1    4    4    0    0 -0.38677764662E+02 -0.20095569956E+02 -0.21745106357E+02  0.48709866162E+02  0.00000000000E+00 0.  1.
</event>
<event>
 8    1  0.7102339E-009  0.2271398E+03  0.7561462E-02  0.1128669E+00
         -2   -1    0    0    0  501 -0.00000000000E+00  0.00000000000E+00  0.44033772813E+02  0.44033772813E+02  0.00000000000E+00 0.  1.
          2   -1    0    0  501    0  0.00000000000E+00 -0.00000000000E+00 -0.13002733919E+04  0.13002733919E+04  0.00000000000E+00 0. -1.
         25    2    1    2    0    0  0.15232652981E+03 -0.14493204011E+03 -0.55794503640E+03  0.60922787984E+03  0.12508908022E+03 0.  0.
         23    2    1    2    0    0 -0.15232652981E+03  0.14493204011E+03 -0.69829458271E+03  0.73507928490E+03  0.92290643663E+02 0.  0.
          5    1    3    3  502    0  0.11214912050E+03 -0.15610452029E+03 -0.51265883479E+03  0.54752406319E+03  0.41800000000E+01 0. -1.
         -5    1    3    3    0  502  0.40177409317E+02  0.11172480176E+02 -0.45286201610E+02  0.61703816649E+02  0.41800000000E+01 0. -1.
        -11    1    4    4    0    0 -0.75906769110E+02  0.29002847349E+02 -0.16386010437E+03  0.18290198619E+03  0.00000000000E+00 0.  1.
         11    1    4    4    0    0 -0.76419760705E+02  0.11592919276E+03 -0.53443447834E+03  0.55217729870E+03  0.00000000000E+00 0. -1.
</event>
<event>
 8    1  0.7102339E-009  0.1620094E+03  0.7561462E-02  0.1186447E+00
         -1   -1    0    0    0  501 -0.00000000000E+00  0.00000000000E+00  0.49038238789E+02  0.49038238789E+02  0.00000000000E+00 0.  1.
          1   -1    0    0  501    0  0.00000000000E+00 -0.00000000000E+00 -0.73593910233E+03  0.73593910233E+03  0.00000000000E+00 0. -1.
         25    2    1    2    0    0  0.10678352361E+03 -0.98445123571E+02 -0.45051719731E+03  0.48959865945E+03  0.12508772518E+03 0.  0.
         23    2    1    2    0    0 -0.10678352361E+03  0.98445123571E+02 -0.23638366623E+03  0.29537868167E+03  0.10137635155E+03 0.  0.
          5    1    3    3  502    0  0.37111483030E+02 -0.66658217723E+01 -0.18026612708E+02  0.42001506143E+02  0.41800000000E+01 0.  1.
         -5    1    3    3    0  502  0.69672040582E+02 -0.91779301798E+02 -0.43249058460E+03  0.44759715330E+03  0.41800000000E+01 0.  1.
        -11    1    4    4    0    0 -0.58183235851E+02  0.10665131757E+03 -0.12888354379E+03  0.17711792776E+03  0.00000000000E+00 0.  1.
         11    1    4    4    0    0 -0.48600287761E+02 -0.82061940020E+01 -0.10750012244E+03  0.11826075391E+03  0.00000000000E+00 0. -1.
</event>
<event>
 8    1  0.7102339E-009  0.2010826E+03  0.7561462E-02  0.1148829E+00
         -2   -1    0    0    0  501 -0.00000000000E+00  0.00000000000E+00  0.49684626275E+02  0.49684626275E+02  0.00000000000E+00 0.  1.
          2   -1    0    0  501    0  0.00000000000E+00 -0.00000000000E+00 -0.89719471833E+03  0.89719471833E+03  0.00000000000E+00 0. -1.
         25    2    1    2    0    0 -0.11629329251E+03 -0.13338203472E+03 -0.35609655892E+03  0.41685322886E+03  0.12508780143E+03 0.  0.
         23    2    1    2    0    0  0.11629329251E+03  0.13338203472E+03 -0.49141353314E+03  0.53002611575E+03  0.90141698197E+02 0.  0.
          5    1    3    3  502    0 -0.70026671297E+02 -0.40597802395E+01 -0.68584873851E+02  0.98191516078E+02  0.41800000000E+01 0.  1.
         -5    1    3    3    0  502 -0.46266621215E+02 -0.12932225448E+03 -0.28751168507E+03  0.31866171278E+03  0.41800000000E+01 0.  1.
        -11    1    4    4    0    0  0.12638070008E+03  0.10482106368E+03 -0.44756667902E+03  0.47673417007E+03  0.00000000000E+00 0. -1.
         11    1    4    4    0    0 -0.10087407563E+02  0.28560971042E+02 -0.43846854120E+02  0.53291945680E+02  0.00000000000E+00 0.  1.
</event>
<event>
 8    1  0.7102339E-009  0.1301335E+03  0.7561462E-02  0.1227258E+00
          3   -1    0    0  501    0  0.00000000000E+00  0.00000000000E+00  0.61915199850E+02  0.61915199850E+02  0.00000000000E+00 0. -1.
         -3   -1    0    0    0  501 -0.00000000000E+00 -0.00000000000E+00 -0.37971164238E+03  0.37971164238E+03  0.00000000000E+00 0.  1.
         25    2    1    2    0    0  0.88891129271E+02  0.49592125685E+02 -0.11301261752E+03  0.19691817209E+03  0.12507558910E+03 0.  0.
         23    2    1    2    0    0 -0.88891129271E+02 -0.49592125685E+02 -0.20478382502E+03  0.24470867014E+03  0.87091368466E+02 0.  0.
          5    1    3    3  502    0  0.68342327920E+02  0.73924041510E+02 -0.12680231672E+03  0.16196214874E+03  0.41800000000E+01 0. -1.
         -5    1    3    3    0  502  0.20548801351E+02 -0.24331915825E+02  0.13789699200E+02  0.34956023354E+02  0.41800000000E+01 0. -1.
        -11    1    4    4    0    0 -0.10209269102E+03 -0.35535711341E+02 -0.13859351446E+03  0.17576651157E+03  0.00000000000E+00 0. -1.
         11    1    4    4    0    0  0.13201561746E+02 -0.14056414344E+02 -0.66190310557E+02  0.68942158571E+02  0.00000000000E+00 0.  1.
</event>
<event>
 8    1  0.7102339E-009  0.2029603E+03  0.7561462E-02  0.1147265E+00
          1   -1    0    0  501    0  0.00000000000E+00  0.00000000000E+00  0.92954075236E+03  0.92954075236E+03  0.00000000000E+00 0. -1.
         -1   -1    0    0    0  501 -0.00000000000E+00 -0.00000000000E+00 -0.81377841222E+02  0.81377841222E+02  0.00000000000E+00 0.  1.
         25    2    1    2    0    0  0.17478281361E+03  0.37203722182E+02  0.76969063957E+03  0.80000300085E+03  0.12509185369E+03 0.  0.
         23    2    1    2    0    0 -0.17478281361E+03 -0.37203722182E+02  0.78472271575E+02  0.21091559273E+03  0.79964623276E+02 0.  0.
          5    1    3    3  502    0 -0.10530545407E+02 -0.20568929084E+02  0.67673173357E+02  0.71631724971E+02  0.41800000000E+01 0.  1.
         -5    1    3    3    0  502  0.18531335901E+03  0.57772651266E+02  0.70201746621E+03  0.72837127588E+03  0.41800000000E+01 0.  1.
        -11    1    4    4    0    0 -0.56816191684E+02 -0.41306543160E+02  0.20045382697E+01  0.70273240419E+02  0.00000000000E+00 0.  1.
         11    1    4    4    0    0 -0.11796662192E+03  0.41028209782E+01  0.76467733305E+02  0.14064235232E+03  0.00000000000E+00 0. -1.
</event>
<event>
 8    1  0.7102339E-009  0.9915234E+02  0.7561462E-02  0.1282089E+00
         -2   -1    0    0    0  501 -0.00000000000E+00  0.00000000000E+00  0.50378483083E+03  0.50378483083E+03  0.00000000000E+00 0.  1.
          2   -1    0    0  501    0  0.00000000000E+00 -0.00000000000E+00 -0.28118214816E+02  0.28118214816E+02  0.00000000000E+00 0. -1.
         25    2    1    2    0    0 -0.13435869014E+02 -0.46515149638E+02  0.30645075421E+03  0.33452050804E+03  0.12509086227E+03 0.  0.
         23    2    1    2    0    0  0.13435869014E+02  0.46515149638E+02  0.16921586181E+03  0.19738253761E+03  0.89340229138E+02 0.  0.
          5    1    3    3  502    0 -0.22737860679E+02 -0.69074460710E+02  0.30030380233E+03  0.30901154918E+03  0.41800000000E+01 0.  1.
         -5    1    3    3    0  502  0.93019916658E+01  0.22559311071E+02  0.61469518784E+01  0.25508958865E+02  0.41800000000E+01 0.  1.
        -11    1    4    4    0    0 -0.18435487194E+02  0.62421242416E+02  0.12153145946E+03  0.13786288235E+03  0.00000000000E+00 0. -1.
         11    1    4    4    0    0  0.31871356207E+02 -0.15906092778E+02  0.47684402354E+02  0.59519655256E+02  0.00000000000E+00 0.  1.
</event>
<event>
 8    1  0.7102339E-009  0.1222082E+03  0.7561462E-02  0.1239498E+00
         -2   -1    0    0    0  501 -0.00000000000E+00  0.00000000000E+00  0.58272175060E+02  0.58272175060E+02  0.00000000000E+00 0.  1.
          2   -1    0    0  501    0  0.00000000000E+00 -0.00000000000E+00 -0.28982034043E+03  0.28982034043E+03  0.00000000000E+00 0. -1.
         25    2    1    2    0    0  0.49679895230E+02  0.47188832415E+02 -0.15052110698E+03  0.20736649672E+03  0.12509749167E+03 0.  0.
         23    2    1    2    0    0 -0.49679895230E+02 -0.47188832415E+02 -0.81027058387E+02  0.14072601876E+03  0.92431327325E+02 0.  0.
          5    1    3    3  502    0  0.71162021472E+02  0.76090271889E+02 -0.12625361659E+03  0.16374129253E+03  0.41800000000E+01 0. -1.
         -5    1    3    3    0  502 -0.21482126241E+02 -0.28901439474E+02 -0.24267490391E+02  0.43625204199E+02  0.41800000000E+01 0. -1.
        -11    1    4    4    0    0 -0.69364653304E+02 -0.23812700793E+02 -0.82177909166E+02  0.11014403571E+03  0.00000000000E+00 0. -1.
         11    1    4    4    0    0  0.19684758074E+02 -0.23376131622E+02  0.11508507793E+01  0.30581983055E+02  0.00000000000E+00 0.  1.
</event>
<event>
 7    1  0.7102339E-009  0.8756351E+02  0.7561462E-02  0.1308862E+00
         -2   -1    0    0    0  501 -0.00000000000E+00  0.00000000000E+00  0.36216174177E+02  0.36216174177E+02  0.00000000000E+00 0.  1.
          2   -1    0    0  501    0  0.00000000000E+00 -0.00000000000E+00 -0.34573574015E+03  0.34573574015E+03  0.00000000000E+00 0. -1.
         23    2    1    2    0    0 -0.17406435117E+01 -0.86836005314E+01 -0.16161799501E+03  0.18800069538E+03  0.95631848213E+02 0.  0.
          5    1    1    2  502    0 -0.27100384161E+02 -0.50335622986E+02 -0.87575696442E+02  0.10466652173E+03  0.41800000000E+01 0. -1.
         -5    1    1    2    0  502  0.28841027673E+02  0.59019223517E+02 -0.60325874521E+02  0.89284697225E+02  0.41800000000E+01 0. -1.
        -11    1    3    3    0    0  0.14666461785E+02  0.16406645291E+02  0.15885456692E+01  0.22063693896E+02  0.00000000000E+00 0.  1.
         11    1    3    3    0    0 -0.16407105297E+02 -0.25090245822E+02 -0.16320654068E+03  0.16593700148E+03  0.00000000000E+00 0. -1.
</event>
<event>
 8    1  0.7102339E-009  0.8454533E+02  0.7561462E-02  0.1316626E+00
         -1   -1    0    0    0  501 -0.00000000000E+00  0.00000000000E+00  0.19022161820E+02  0.19022161820E+02  0.00000000000E+00 0.  1.
          1   -1    0    0  501    0  0.00000000000E+00 -0.00000000000E+00 -0.51419012829E+03  0.51419012829E+03  0.00000000000E+00 0. -1.
         25    2    1    2    0    0  0.12613470809E+01 -0.37443747841E+01 -0.29279196445E+03  0.31841900165E+03  0.12509162571E+03 0.  0.
         23    2    1    2    0    0 -0.12613470809E+01  0.37443747841E+01 -0.20237600201E+03  0.21479328846E+03  0.71864450437E+02 0.  0.
          5    1    3    3  502    0 -0.28629204846E+01  0.46378573036E+02 -0.24330741038E+03  0.24774005872E+03  0.41800000000E+01 0. -1.
         -5    1    3    3    0  502  0.41242675655E+01 -0.50122947820E+02 -0.49484554074E+02  0.70678942926E+02  0.41800000000E+01 0. -1.
        -11    1    4    4    0    0  0.60848346445E+01  0.37211913257E+02 -0.10693122045E+03  0.11338446810E+03  0.00000000000E+00 0.  1.
         11    1    4    4    0    0 -0.73461817254E+01 -0.33467538472E+02 -0.95444781568E+02  0.10140882036E+03  0.00000000000E+00 0. -1.
</event>
<event>
 8    1  0.7102339E-009  0.7370736E+02  0.7561462E-02  0.1347921E+00
          1   -1    0    0  501    0  0.00000000000E+00  0.00000000000E+00  0.35218603849E+03  0.35218603849E+03  0.00000000000E+00 0. -1.
         -1   -1    0    0    0  501 -0.00000000000E+00 -0.00000000000E+00 -0.38738396295E+02  0.38738396295E+02  0.00000000000E+00 0.  1.
         25    2    1    2    0    0 -0.37132996764E+02 -0.22934797742E+02  0.19376067539E+03  0.23472119124E+03  0.12508386744E+03 0.  0.
         23    2    1    2    0    0  0.37132996764E+02  0.22934797742E+02  0.11968696681E+03  0.15620324355E+03  0.90385944011E+02 0.  0.
          5    1    3    3  502    0  0.19932838708E+02  0.75871754935E+01 -0.77175693717E+01  0.23063316499E+02  0.41800000000E+01 0. -1.
         -5    1    3    3    0  502 -0.57065835473E+02 -0.30521973236E+02  0.20147824476E+03  0.21165787474E+03  0.41800000000E+01 0. -1.
        -11    1    4    4    0    0  0.35280776737E+02 -0.24617728785E+01  0.12524251034E+03  0.13014023178E+03  0.00000000000E+00 0. -1.
         11    1    4    4    0    0  0.18522200269E+01  0.25396570621E+02 -0.55555435290E+01  0.26063011764E+02  0.00000000000E+00 0.  1.
</event>
<event>
 7    1  0.7102339E-009  0.9859553E+02  0.7561462E-02  0.1283277E+00
         -2   -1    0    0    0  501 -0.00000000000E+00  0.00000000000E+00  0.55123968225E+02  0.55123968225E+02  0.00000000000E+00 0. -1.
          2   -1    0    0  501    0  0.00000000000E+00 -0.00000000000E+00 -0.35866040882E+03  0.35866040882E+03  0.00000000000E+00 0.  1.
         23    2    1    2    0    0 -0.40490418214E+02  0.68164927681E+02 -0.72832463748E+02  0.13960575526E+03  0.88877825099E+02 0.  0.
          5    1    1    2  502    0 -0.22348503316E+02 -0.11372962844E+02  0.29678383897E+01  0.25594537485E+02  0.41800000000E+01 0. -1.
         -5    1    1    2    0  502  0.62838921531E+02 -0.56791964836E+02 -0.23367181523E+03  0.24858408429E+03  0.41800000000E+01 0. -1.
        -11    1    3    3    0    0 -0.28861560161E+02  0.14965780653E+02  0.15359278402E+02  0.35956524839E+02  0.00000000000E+00 0. -1.
         11    1    3    3    0    0 -0.11628858053E+02  0.53199147028E+02 -0.88191742151E+02  0.10364923042E+03  0.00000000000E+00 0.  1.
</event>
<event>
 8    1  0.7102339E-009  0.9000353E+02  0.7561462E-02  0.1302843E+00
         -1   -1    0    0    0  501 -0.00000000000E+00  0.00000000000E+00  0.28627107041E+03  0.28627107041E+03  0.00000000000E+00 0.  1.
          1   -1    0    0  501    0  0.00000000000E+00 -0.00000000000E+00 -0.98046229486E+02  0.98046229486E+02  0.00000000000E+00 0. -1.
         25    2    1    2    0    0 -0.50216197605E+02  0.42882105877E+02 -0.25108777862E+02  0.14366074590E+03  0.12508963858E+03 0.  0.
         23    2    1    2    0    0  0.50216197605E+02 -0.42882105877E+02  0.21333361879E+03  0.24065655400E+03  0.89687248664E+02 0.  0.
          5    1    3    3  502    0 -0.11738833861E+01  0.53575470280E+01 -0.68006467507E+02  0.68355199767E+02  0.41800000000E+01 0.  1.
         -5    1    3    3    0  502 -0.49042314219E+02  0.37524558849E+02  0.42897689646E+02  0.75305546128E+02  0.41800000000E+01 0.  1.
        -11    1    4    4    0    0  0.51588299818E+02 -0.68394619040E+02  0.15879784235E+03  0.18043262267E+03  0.00000000000E+00 0. -1.
         11    1    4    4    0    0 -0.13721022127E+01  0.25512513164E+02  0.54535776444E+02  0.60223931329E+02  0.00000000000E+00 0.  1.
</event>
<event>
 8    1  0.7102339E-009  0.1083750E+03  0.7561462E-02  0.1263609E+00
          4   -1    0    0  501    0  0.00000000000E+00  0.00000000000E+00  0.12642954136E+03  0.12642954136E+03  0.00000000000E+00 0. -1.
         -4   -1    0    0    0  501 -0.00000000000E+00 -0.00000000000E+00 -0.97543014188E+02  0.97543014188E+02  0.00000000000E+00 0.  1.
         25    2    1    2    0    0 -0.17939739234E+01  0.21598341745E+02  0.28965913028E+02  0.13021642415E+03  0.12509031255E+03 0.  0.
         23    2    1    2    0    0  0.17939739234E+01 -0.21598341745E+02 -0.79385856355E-01  0.93756131396E+02  0.91216770189E+02 0.  0.
          5    1    3    3  502    0 -0.33494555947E+02  0.63166087095E+02  0.30279100713E+02  0.77756904368E+02  0.41800000000E+01 0.  1.
         -5    1    3    3    0  502  0.31700582023E+02 -0.41567745349E+02 -0.13131876854E+01  0.52459519784E+02  0.41800000000E+01 0.  1.
        -11    1    4    4    0    0 -0.11287644259E+02 -0.55350168142E+02 -0.69378937761E+01  0.56913850654E+02  0.00000000000E+00 0.  1.
         11    1    4    4    0    0  0.13081618182E+02  0.33751826397E+02  0.68585079197E+01  0.36842280742E+02  0.00000000000E+00 0. -1.
</event>
<event>
 8    1  0.7102339E-009  0.1135795E+03  0.7561462E-02  0.1254081E+00
         -1   -1    0    0    0  501 -0.00000000000E+00  0.00000000000E+00  0.50165888713E+02  0.50165888713E+02  0.00000000000E+00 0.  1.
          1   -1    0    0  501    0  0.00000000000E+00 -0.00000000000E+00 -0.29560627337E+03  0.29560627337E+03  0.00000000000E+00 0. -1.
         25    2    1    2    0    0 -0.37425293979E+02 -0.38250548094E+02 -0.15985042880E+03  0.20991123857E+03  0.12508721530E+03 0.  0.
         23    2    1    2    0    0  0.37425293979E+02  0.38250548094E+02 -0.85589955854E+02  0.13586092351E+03  0.90932903482E+02 0.  0.
          5    1    3    3  502    0 -0.73343918662E+02 -0.43088744718E+02 -0.14938380827E+03  0.17195628776E+03  0.41800000000E+01 0.  1.
         -5    1    3    3    0  502  0.35918624683E+02  0.48381966248E+01 -0.10466620531E+02  0.37954950810E+02  0.41800000000E+01 0.  1.
        -11    1    4    4    0    0  0.31201054160E+02  0.68158132196E+02 -0.61211703424E+02  0.96777628620E+02  0.00000000000E+00 0.  1.
         11    1    4    4    0    0  0.62242398197E+01 -0.29907584102E+02 -0.24378252430E+02  0.39083294893E+02  0.00000000000E+00 0. -1.
</event>
<event>
 8    1  0.7102339E-009  0.1658106E+03  0.7561462E-02  0.1182288E+00
         -1   -1    0    0    0  501 -0.00000000000E+00  0.00000000000E+00  0.27924487187E+02  0.27924487187E+02  0.00000000000E+00 0.  1.
          1   -1    0    0  501    0  0.00000000000E+00 -0.00000000000E+00 -0.10798627123E+04  0.10798627123E+04  0.00000000000E+00 0. -1.
         25    2    1    2    0    0  0.92030101287E+02  0.95475684641E+02 -0.62878113454E+03  0.65467561289E+03  0.12509715045E+03 0.  0.
         23    2    1    2    0    0 -0.92030101287E+02 -0.95475684641E+02 -0.42315709060E+03  0.45311158663E+03  0.93075457094E+02 0.  0.
          5    1    3    3  502    0  0.69098765929E+02  0.12505458054E+03 -0.53073612563E+03  0.54964679114E+03  0.41800000000E+01 0. -1.
         -5    1    3    3    0  502  0.22931335358E+02 -0.29578895899E+02 -0.98045008913E+02  0.10502882174E+03  0.41800000000E+01 0. -1.
        -11    1    4    4    0    0 -0.37144547731E+02 -0.88146253686E+02 -0.18117919025E+03  0.20487893607E+03  0.00000000000E+00 0. -1.
         11    1    4    4    0    0 -0.54885553556E+02 -0.73294309548E+01 -0.24197790035E+03  0.24823265056E+03  0.00000000000E+00 0.  1.
</event>
<event>
 8    1  0.7102339E-009  0.1071009E+03  0.7561462E-02  0.1266035E+00
         -1   -1    0    0    0  501 -0.00000000000E+00  0.00000000000E+00  0.20199732842E+03  0.20199732842E+03  0.00000000000E+00 0.  1.
          1   -1    0    0  501    0  0.00000000000E+00 -0.00000000000E+00 -0.99161062302E+02  0.99161062302E+02  0.00000000000E+00 0. -1.
         25    2    1    2    0    0 -0.38000570230E+01 -0.64928017126E+02 -0.76494686228E+01  0.14119550155E+03  0.12509023722E+03 0.  0.
         23    2    1    2    0    0  0.38000570230E+01  0.64928017126E+02  0.11048573474E+03  0.15996288917E+03  0.95660548234E+02 0.  0.
          5    1    3    3  502    0 -0.59523546936E+02 -0.84132399187E+01 -0.12605742506E+02  0.61564700843E+02  0.41800000000E+01 0. -1.
         -5    1    3    3    0  502  0.55723489913E+02 -0.56514777207E+02  0.49562738835E+01  0.79630800710E+02  0.41800000000E+01 0. -1.
        -11    1    4    4    0    0  0.12540152911E+02  0.43702561234E+01 -0.15194797954E+02  0.20180100556E+02  0.00000000000E+00 0. -1.
         11    1    4    4    0    0 -0.87400958876E+01  0.60557761003E+02  0.12568053269E+03  0.13978278861E+03  0.00000000000E+00 0.  1.
</event>
<event>
 8    1  0.7102339E-009  0.1107961E+03  0.7561462E-02  0.1259103E+00
         -1   -1    0    0    0  501 -0.00000000000E+00  0.00000000000E+00  0.18005160395E+04  0.18005160395E+04  0.00000000000E+00 0.  1.
          1   -1    0    0  501    0  0.00000000000E+00 -0.00000000000E+00 -0.91245713307E+01  0.91245713307E+01  0.00000000000E+00 0. -1.
         25    2    1    2    0    0  0.44027326985E+02 -0.12938412930E+02  0.13464135749E+04  0.13529902842E+04  0.12508951265E+03 0.  0.
         23    2    1    2    0    0 -0.44027326985E+02  0.12938412930E+02  0.44497789326E+03  0.45665032671E+03  0.91751770247E+02 0.  0.
          5    1    3    3  502    0 -0.13083573513E+02 -0.49411402394E+02  0.29800423002E+03  0.30238495348E+03  0.41800000000E+01 0.  1.
         -5    1    3    3    0  502  0.57110900497E+02  0.36472989464E+02  0.10484093449E+04  0.10506053307E+04  0.41800000000E+01 0.  1.
        -11    1    4    4    0    0 -0.64891720093E+02  0.33579817318E+02  0.30515738002E+03  0.31378267327E+03  0.00000000000E+00 0. -1.
         11    1    4    4    0    0  0.20864393109E+02 -0.20641404388E+02  0.13982051324E+03  0.14286765343E+03  0.00000000000E+00 0.  1.
</event>
<event>
 8    1  0.7102339E-009  0.8757710E+02  0.7561462E-02  0.1308827E+00
          2   -1    0    0  501    0  0.00000000000E+00  0.00000000000E+00  0.38181512143E+03  0.38181512143E+03  0.00000000000E+00 0. -1.
         -2   -1    0    0    0  501 -0.00000000000E+00 -0.00000000000E+00 -0.38007882966E+02  0.38007882966E+02  0.00000000000E+00 0.  1.
         25    2    1    2    0    0  0.12161324590E+02  0.42559502627E+02  0.23887162233E+03  0.27325125013E+03  0.12508950660E+03 0.  0.
         23    2    1    2    0    0 -0.12161324590E+02 -0.42559502627E+02  0.10493561614E+03  0.14657175427E+03  0.92263679400E+02 0.  0.
          5    1    3    3  502    0 -0.45067918904E+02  0.43385887294E+02  0.18183554974E+03  0.19234108267E+03  0.41800000000E+01 0.  1.
         -5    1    3    3    0  502  0.57229243494E+02 -0.82638466778E+00  0.57036072584E+02  0.80910167459E+02  0.41800000000E+01 0.  1.
        -11    1    4    4    0    0 -0.23409125317E+02 -0.25300762335E+02  0.11749365146E+03  0.12244539133E+03  0.00000000000E+00 0. -1.
         11    1    4    4    0    0  0.11247800728E+02 -0.17258740291E+02 -0.12558035327E+02  0.24126362944E+02  0.00000000000E+00 0.  1.
</event>
<event>
 8    1  0.7102339E-009  0.2052872E+03  0.7561462E-02  0.1145353E+00
         -1   -1    0    0    0  501 -0.00000000000E+00  0.00000000000E+00  0.36032591800E+03  0.36032591800E+03  0.00000000000E+00 0.  1.
          1   -1    0    0  501    0  0.00000000000E+00 -0.00000000000E+00 -0.27442481085E+03  0.27442481085E+03  0.00000000000E+00 0. -1.
         25    2    1    2    0    0  0.23834026380E+02 -0.19574676281E+03  0.26509305102E+03  0.35327998974E+03  0.12509024539E+03 0.  0.
         23    2    1    2    0    0 -0.23834026380E+02  0.19574676281E+03 -0.17919194386E+03  0.28147073911E+03  0.90725786103E+02 0.  0.
          5    1    3    3  502    0 -0.14045805699E+02 -0.23481625736E+01  0.84981426605E+02  0.86267686842E+02  0.41800000000E+01 0. -1.
         -5    1    3    3    0  502  0.37879832079E+02 -0.19339860024E+03  0.18011162441E+03  0.26701230290E+03  0.41800000000E+01 0. -1.
        -11    1    4    4    0    0 -0.28066800275E+02  0.14494767145E+03 -0.75270193722E+02  0.16572017017E+03  0.00000000000E+00 0.  1.
         11    1    4    4    0    0  0.42327738945E+01  0.50799091359E+02 -0.10392175014E+03  0.11575056894E+03  0.00000000000E+00 0. -1.
</event>
<event>
 8    1  0.7102339E-009  0.8612499E+02  0.7561462E-02  0.1312517E+00
          2   -1    0    0  501    0  0.00000000000E+00  0.00000000000E+00  0.25363384416E+03  0.25363384416E+03  0.00000000000E+00 0. -1.
         -2   -1    0    0    0  501 -0.00000000000E+00 -0.00000000000E+00 -0.71862743460E+02  0.71862743460E+02  0.00000000000E+00 0.  1.
         25    2    1    2    0    0 -0.78228892797E+02  0.38306075535E+01  0.12868856536E+03  0.19579816918E+03  0.12506695398E+03 0.  0.
         23    2    1    2    0    0  0.78228892797E+02 -0.38306075535E+01  0.53082535339E+02  0.12969841844E+03  0.88710151416E+02 0.  0.
          5    1    3    3  502    0  0.65924016831E+01  0.19476301475E+01  0.10809295489E+03  0.10839193845E+03  0.41800000000E+01 0.  1.
         -5    1    3    3    0  502 -0.84821294480E+02  0.18829774059E+01  0.20595610469E+02  0.87406230737E+02  0.41800000000E+01 0.  1.
        -11    1    4    4    0    0  0.37010559980E+02  0.42595774626E+01 -0.22288291773E+02  0.43413056796E+02  0.00000000000E+00 0.  1.
         11    1    4    4    0    0  0.41218332817E+02 -0.80901850161E+01  0.75370827112E+02  0.86285361640E+02  0.00000000000E+00 0. -1.
</event>
<event>
 8    1  0.7102339E-009  0.1011971E+03  0.7561462E-02  0.1277799E+00
          1   -1    0    0  501    0  0.00000000000E+00  0.00000000000E+00  0.72013519936E+03  0.72013519936E+03  0.00000000000E+00 0. -1.
         -1   -1    0    0    0  501 -0.00000000000E+00 -0.00000000000E+00 -0.24538750212E+02  0.24538750212E+02  0.00000000000E+00 0.  1.
         25    2    1    2    0    0 -0.72398086335E+02  0.24369787996E+02  0.35964303519E+03  0.38836295795E+03  0.12508918768E+03 0.  0.
         23    2    1    2    0    0  0.72398086335E+02 -0.24369787996E+02  0.33595341396E+03  0.35631099162E+03  0.90870550389E+02 0.  0.
          5    1    3    3  502    0 -0.34670547988E+02  0.29236042166E+02  0.34402994648E+03  0.34703151086E+03  0.41800000000E+01 0. -1.
         -5    1    3    3    0  502 -0.37727538346E+02 -0.48662541708E+01  0.15613088718E+02  0.41331447091E+02  0.41800000000E+01 0. -1.
        -11    1    4    4    0    0  0.20245250265E+02  0.34457287705E+02  0.10540141065E+03  0.11272369849E+03  0.00000000000E+00 0.  1.
         11    1    4    4    0    0  0.52152836070E+02 -0.58827075700E+02  0.23055200330E+03  0.24358729312E+03  0.00000000000E+00 0. -1.
</event>
<event>
 8    1  0.7102339E-009  0.7771129E+02  0.7561462E-02  0.1335675E+00
          1   -1    0    0  501    0  0.00000000000E+00  0.00000000000E+00  0.11624657812E+03  0.11624657812E+03  0.00000000000E+00 0. -1.
         -1   -1    0    0    0  501 -0.00000000000E+00 -0.00000000000E+00 -0.12446906692E+03  0.12446906692E+03  0.00000000000E+00 0.  1.
         25    2    1    2    0    0 -0.14596253822E+02  0.44946785776E+02  0.13359608082E+02  0.13438446950E+03  0.12508973714E+03 0.  0.
         23    2    1    2    0    0  0.14596253822E+02 -0.44946785776E+02 -0.21582096883E+02  0.10633117554E+03  0.92775362081E+02 0.  0.
          5    1    3    3  502    0 -0.26553396616E+02  0.41354662153E+02 -0.49667226238E+02  0.69997119340E+02  0.41800000000E+01 0. -1.
         -5    1    3    3    0  502  0.11957142794E+02  0.35921236225E+01  0.63026834320E+02  0.64387350158E+02  0.41800000000E+01 0. -1.
        -11    1    4    4    0    0 -0.12610134092E+02 -0.60360746835E+02 -0.36530622961E+02  0.71672321396E+02  0.00000000000E+00 0.  1.
         11    1    4    4    0    0  0.27206387914E+02  0.15413961059E+02  0.14948526078E+02  0.34658854147E+02  0.00000000000E+00 0. -1.
</event>
<event>
 8    1  0.7102339E-009  0.2881745E+03  0.7561462E-02  0.1091306E+00
          2   -1    0    0  501    0  0.00000000000E+00  0.00000000000E+00  0.17476059695E+04  0.17476059695E+04  0.00000000000E+00 0. -1.
         -2   -1    0    0    0  501 -0.00000000000E+00 -0.00000000000E+00 -0.55003064748E+02  0.55003064748E+02  0.00000000000E+00 0.  1.
         25    2    1    2    0    0  0.25318639513E+03 -0.92958327999E+02  0.11760423636E+04  0.12130406882E+04  0.12508984254E+03 0.  0.
         23    2    1    2    0    0 -0.25318639513E+03  0.92958327999E+02  0.51656054114E+03  0.58956834608E+03  0.89506651237E+02 0.  0.
          5    1    3    3  502    0  0.15711169905E+03  0.68785896491E+01  0.56676239463E+03  0.58819085792E+03  0.41800000000E+01 0. -1.
         -5    1    3    3    0  502  0.96074696082E+02 -0.99836917649E+02  0.60927996900E+03  0.62484983027E+03  0.41800000000E+01 0. -1.
        -11    1    4    4    0    0 -0.50708180496E+02 -0.12343479137E+02  0.62867013130E+02  0.81706440299E+02  0.00000000000E+00 0.  1.
         11    1    4    4    0    0 -0.20247821464E+03  0.10530180714E+03  0.45369352801E+03  0.50786190578E+03  0.00000000000E+00 0. -1.
</event>
<event>
 8    1  0.7102339E-009  0.8955183E+02  0.7561462E-02  0.1303941E+00
         -3   -1    0    0    0  501 -0.00000000000E+00  0.00000000000E+00  0.49697755705E+02  0.49697755705E+02  0.00000000000E+00 0.  1.
          3   -1    0    0  501    0  0.00000000000E+00 -0.00000000000E+00 -0.63251131390E+03  0.63251131390E+03  0.00000000000E+00 0. -1.
         25    2    1    2    0    0 -0.20571317036E+01  0.82974672797E+02 -0.52301367372E+03  0.54413181452E+03  0.12508837098E+03 0.  0.
         23    2    1    2    0    0  0.20571317036E+01 -0.82974672797E+02 -0.59799884474E+02  0.13807725509E+03  0.92737662646E+02 0.  0.
          5    1    3    3  502    0 -0.77857339054E+01  0.75585395587E+02 -0.12748877121E+03  0.14847433739E+03  0.41800000000E+01 0.  1.
         -5    1    3    3    0  502  0.57286022018E+01  0.73892772097E+01 -0.39552490251E+03  0.39565747713E+03  0.41800000000E+01 0.  1.
        -11    1    4    4    0    0  0.18772921951E+02 -0.67218164565E+02  0.43625650936E+01  0.69926648856E+02  0.00000000000E+00 0.  1.
         11    1    4    4    0    0 -0.16715790248E+02 -0.15756508232E+02 -0.64162449567E+02  0.68150606231E+02  0.00000000000E+00 0. -1.
</event>
<event>
 8    1  0.7102339E-009  0.1003107E+03  0.7561462E-02  0.1279644E+00
         -4   -1    0    0    0  501 -0.00000000000E+00  0.00000000000E+00  0.93941630526E+02  0.93941630526E+02  0.00000000000E+00 0.  1.
          4   -1    0    0  501    0  0.00000000000E+00 -0.00000000000E+00 -0.17994770040E+03  0.17994770040E+03  0.00000000000E+00 0. -1.
         25    2    1    2    0    0  0.93960223327E+01 -0.18466449665E+02  0.23885688946E+02  0.12903728913E+03  0.12510316084E+03 0.  0.
         23    2    1    2    0    0 -0.93960223327E+01  0.18466449665E+02 -0.10989175882E+03  0.14485204179E+03  0.92068563342E+02 0.  0.
          5    1    3    3  502    0 -0.51744165154E-02 -0.71175100541E+02  0.28306176696E+01  0.71353905010E+02  0.41800000000E+01 0.  1.
         -5    1    3    3    0  502  0.94011967492E+01  0.52708650876E+02  0.21055071276E+02  0.57683384123E+02  0.41800000000E+01 0.  1.
        -11    1    4    4    0    0 -0.36982969285E+02 -0.74990013422E+01 -0.11547237078E+02  0.39462814426E+02  0.00000000000E+00 0.  1.
         11    1    4    4    0    0  0.27586946953E+02  0.25965451008E+02 -0.98344521742E+02  0.10538922737E+03  0.00000000000E+00 0. -1.
</event>
<event>
 8    1  0.7102339E-009  0.1179605E+03  0.7561462E-02  0.1246500E+00
          2   -1    0    0  501    0  0.00000000000E+00  0.00000000000E+00  0.63733292353E+02  0.63733292353E+02  0.00000000000E+00 0.  1.
         -2   -1    0    0    0  501 -0.00000000000E+00 -0.00000000000E+00 -0.24450724257E+03  0.24450724257E+03  0.00000000000E+00 0. -1.
         25    2    1    2    0    0 -0.47210664628E+02  0.39115099939E+02 -0.12200830010E+03  0.18518364421E+03  0.12509244138E+03 0.  0.
         23    2    1    2    0    0  0.47210664628E+02 -0.39115099939E+02 -0.58765650117E+02  0.12305689072E+03  0.89054807967E+02 0.  0.
          5    1    3    3  502    0  0.78554347251E+01 -0.40107812567E+02 -0.50044564844E+02  0.64747782619E+02  0.41800000000E+01 0.  1.
         -5    1    3    3    0  502 -0.55066099353E+02  0.79222912506E+02 -0.71963735261E+02  0.12043586159E+03  0.41800000000E+01 0.  1.
        -11    1    4    4    0    0  0.67655786863E+02 -0.38433174610E+02 -0.21796342884E+02  0.80805290482E+02  0.00000000000E+00 0.  1.
         11    1    4    4    0    0 -0.20445122235E+02 -0.68192532873E+00 -0.36969307233E+02  0.42251600238E+02  0.00000000000E+00 0. -1.
</event>
<event>
 8    1  0.7102339E-009  0.1871155E+03  0.7561462E-02  0.1161089E+00
          2   -1    0    0  501    0  0.00000000000E+00  0.00000000000E+00  0.46479847600E+03  0.46479847600E+03  0.00000000000E+00 0. -1.
         -2   -1    0    0    0  501 -0.00000000000E+00 -0.00000000000E+00 -0.13888497190E+03  0.13888497190E+03  0.00000000000E+00 0.  1.
         25    2    1    2    0    0 -0.14603948097E+03  0.96938623918E+02 -0.87965036194E+01  0.21552202346E+03  0.12509091618E+03 0.  0.
         23    2    1    2    0    0  0.14603948097E+03 -0.96938623918E+02  0.33471000772E+03  0.38816142445E+03  0.88959964872E+02 0.  0.
          5    1    3    3  502    0 -0.75662223623E+01  0.52069178097E+02  0.35148897404E+02  0.63414228823E+02  0.41800000000E+01 0.  1.
         -5    1    3    3    0  502 -0.13847325861E+03  0.44869445821E+02 -0.43945401023E+02  0.15210779464E+03  0.41800000000E+01 0.  1.
        -11    1    4    4    0    0  0.52959422151E+02 -0.43234540180E+02  0.22261717120E+03  0.23287836046E+03  0.00000000000E+00 0. -1.
         11    1    4    4    0    0  0.93080058824E+02 -0.53704083738E+02  0.11209283652E+03  0.15528306398E+03  0.00000000000E+00 0.  1.
</event>
<event>
 8    1  0.7102339E-009  0.1059992E+03  0.7561462E-02  0.1268163E+00
          2   -1    0    0  501    0  0.00000000000E+00  0.00000000000E+00  0.89054771998E+02  0.89054771998E+02  0.00000000000E+00 0. -1.
         -2   -1    0    0    0  501 -0.00000000000E+00 -0.00000000000E+00 -0.13941757979E+03  0.13941757979E+03  0.00000000000E+00 0.  1.
         25    2    1    2    0    0  0.10709736276E+02 -0.23082474483E+02 -0.29169428032E+02  0.13094954376E+03  0.12509767544E+03 0.  0.
         23    2    1    2    0    0 -0.10709736276E+02  0.23082474483E+02 -0.21193379763E+02  0.97522808030E+02  0.91728074551E+02 0.  0.
          5    1    3    3  502    0  0.23016243901E+02 -0.69338139729E+02  0.28121542994E+01  0.73231862711E+02  0.41800000000E+01 0.  1.
         -5    1    3    3    0  502 -0.12306507625E+02  0.46255665246E+02 -0.31981582331E+02  0.57717681049E+02  0.41800000000E+01 0.  1.
        -11    1    4    4    0    0 -0.12352322380E+02 -0.32705993912E+02 -0.22710283564E+02  0.41689553673E+02  0.00000000000E+00 0. -1.
         11    1    4    4    0    0  0.16425861036E+01  0.55788468394E+02  0.15169038016E+01  0.55833254356E+02  0.00000000000E+00 0.  1.
</event>
<event>
 8    1  0.7102339E-009  0.1071155E+03  0.7561462E-02  0.1266007E+00
          2   -1    0    0  501    0  0.00000000000E+00  0.00000000000E+00  0.24758546216E+03  0.24758546216E+03  0.00000000000E+00 0. -1.
         -2   -1    0    0    0  501 -0.00000000000E+00 -0.00000000000E+00 -0.63406502937E+02  0.63406502937E+02  0.00000000000E+00 0.  1.
         25    2    1    2    0    0 -0.55422711735E+02 -0.10400955138E+02  0.70039056107E+02  0.15404786301E+03  0.12508164483E+03 0.  0.
         23    2    1    2    0    0  0.55422711735E+02  0.10400955138E+02  0.11413990312E+03  0.15694410209E+03  0.91780590828E+02 0.  0.
          5    1    3    3  502    0  0.23798714104E+02  0.36060751235E+02  0.34629525251E+02  0.55528668197E+02  0.41800000000E+01 0. -1.
         -5    1    3    3    0  502 -0.79221425839E+02 -0.46461706373E+02  0.35409530857E+02  0.98519194813E+02  0.41800000000E+01 0. -1.
        -11    1    4    4    0    0  0.49906314613E+02  0.30201269604E+02  0.21687314709E+02  0.62234207180E+02  0.00000000000E+00 0.  1.
         11    1    4    4    0    0  0.55163971220E+01 -0.19800314466E+02  0.92452588410E+02  0.94709894910E+02  0.00000000000E+00 0. -1.
</event>
<event>
 8    1  0.7102339E-009  0.1674997E+03  0.7561462E-02  0.1180481E+00
          2   -1    0    0  501    0  0.00000000000E+00  0.00000000000E+00  0.46884232217E+03  0.46884232217E+03  0.00000000000E+00 0. -1.
         -2   -1    0    0    0  501 -0.00000000000E+00 -0.00000000000E+00 -0.93299026725E+02  0.93299026725E+02  0.00000000000E+00 0.  1.
         25    2    1    2    0    0 -0.92663459174E+00 -0.15819233724E+03  0.30856696380E+03  0.36862681102E+03  0.12508589225E+03 0.  0.
         23    2    1    2    0    0  0.92663459174E+00  0.15819233724E+03  0.66976331649E+02  0.19351453788E+03  0.89086324186E+02 0.  0.
          5    1    3    3  502    0 -0.10666779223E+02 -0.16296814040E+03  0.19467096673E+03  0.25413904197E+03  0.41800000000E+01 0. -1.
         -5    1    3    3    0  502  0.97401446313E+01  0.47758031635E+01  0.11389599707E+03  0.11448776905E+03  0.41800000000E+01 0. -1.
        -11    1    4    4    0    0 -0.80456991790E+01  0.20545772402E+02 -0.20548150298E+02  0.30151094831E+02  0.00000000000E+00 0.  1.
         11    1    4    4    0    0  0.89723337707E+01  0.13764656484E+03  0.87524481946E+02  0.16336344305E+03  0.00000000000E+00 0. -1.
</event>
<event>
 8    1  0.7102339E-009  0.1200354E+03  0.7561462E-02  0.1243039E+00
          3   -1    0    0  501    0  0.00000000000E+00  0.00000000000E+00  0.29202673495E+03  0.29202673495E+03  0.00000000000E+00 0. -1.
         -3   -1    0    0    0  501 -0.00000000000E+00 -0.00000000000E+00 -0.51863597621E+02  0.51863597621E+02  0.00000000000E+00 0.  1.
         25    2    1    2    0    0 -0.91802767536E+01 -0.10271594186E+02  0.11189408837E+03  0.16840101998E+03  0.12509529723E+03 0.  0.
         23    2    1    2    0    0  0.91802767536E+01  0.10271594186E+02  0.12826904896E+03  0.17548931259E+03  0.11896960445E+03 0.  0.
          5    1    3    3  502    0 -0.65548072977E+02 -0.51188217679E+01  0.41040902022E+02  0.77618169561E+02  0.41800000000E+01 0. -1.
         -5    1    3    3    0  502  0.56367796223E+02 -0.51527724182E+01  0.70853186350E+02  0.90782850421E+02  0.41800000000E+01 0. -1.
        -11    1    4    4    0    0  0.62969996696E+02  0.91567520804E+01  0.52127329880E+02  0.82257675101E+02  0.00000000000E+00 0.  1.
         11    1    4    4    0    0 -0.53789719943E+02  0.11148421058E+01  0.76141719078E+02  0.93231637488E+02  0.00000000000E+00 0. -1.
</event>
<event>
 8    1  0.7102339E-009  0.1318104E+03  0.7561462E-02  0.1224794E+00
          2   -1    0    0  501    0  0.00000000000E+00  0.00000000000E+00  0.15769232163E+04  0.15769232163E+04  0.00000000000E+00 0. -1.
         -2   -1    0    0    0  501 -0.00000000000E+00 -0.00000000000E+00 -0.21389835371E+02  0.21389835371E+02  0.00000000000E+00 0.  1.
         25    2    1    2    0    0 -0.94905678194E+02  0.85168436303E+02  0.11441167085E+04  0.11579772479E+04  0.12509002252E+03 0.  0.
         23    2    1    2    0    0  0.94905678194E+02 -0.85168436303E+02  0.41141667244E+03  0.44033580376E+03  0.91494215212E+02 0.  0.
          5    1    3    3  502    0 -0.20915782552E+01  0.24942051907E+02  0.69325606537E+03  0.69372035088E+03  0.41800000000E+01 0. -1.
         -5    1    3    3    0  502 -0.92814099939E+02  0.60226384397E+02  0.45086064313E+03  0.46425689704E+03  0.41800000000E+01 0. -1.
        -11    1    4    4    0    0  0.47996416451E+02 -0.43897373711E+02  0.80115972635E+02  0.10319498283E+03  0.00000000000E+00 0.  1.
         11    1    4    4    0    0  0.46909261744E+02 -0.41271062592E+02  0.33130069980E+03  0.33714082093E+03  0.00000000000E+00 0. -1.
</event>
<event>
 8    1  0.7102339E-009  0.1114071E+03  0.7561462E-02  0.1257986E+00
         -1   -1    0    0    0  501 -0.00000000000E+00  0.00000000000E+00  0.33414427872E+02  0.33414427872E+02  0.00000000000E+00 0.  1.
          1   -1    0    0  501    0  0.00000000000E+00 -0.00000000000E+00 -0.44922886317E+03  0.44922886317E+03  0.00000000000E+00 0. -1.
         25    2    1    2    0    0  0.53806463227E+02  0.20394137134E+02 -0.22523851485E+03  0.26398926493E+03  0.12508751781E+03 0.  0.
         23    2    1    2    0    0 -0.53806463227E+02 -0.20394137134E+02 -0.19057592044E+03  0.21865402611E+03  0.90439733335E+02 0.  0.
          5    1    3    3  502    0 -0.17934907190E+02 -0.30429342989E+02 -0.20310868877E+02  0.40958632853E+02  0.41800000000E+01 0. -1.
         -5    1    3    3    0  502  0.71741370417E+02  0.50823480123E+02 -0.20492764597E+03  0.22303063208E+03  0.41800000000E+01 0. -1.
        -11    1    4    4    0    0 -0.11274403158E+01  0.27803551874E+02 -0.97217787524E+02  0.10112174261E+03  0.00000000000E+00 0. -1.
         11    1    4    4    0    0 -0.52679022911E+02 -0.48197689009E+02 -0.93358132920E+02  0.11753228349E+03  0.00000000000E+00 0.  1.
</event>
<event>
 8    1  0.7102339E-009  0.7734884E+02  0.7561462E-02  0.1336748E+00
          2   -1    0    0  501    0  0.00000000000E+00  0.00000000000E+00  0.51596189382E+03  0.51596189382E+03  0.00000000000E+00 0. -1.
         -2   -1    0    0    0  501 -0.00000000000E+00 -0.00000000000E+00 -0.30738027156E+02  0.30738027156E+02  0.00000000000E+00 0.  1.
         25    2    1    2    0    0 -0.61714987343E+02 -0.11624831394E+02  0.27874972220E+03  0.31191746684E+03  0.12508885691E+03 0.  0.
         23    2    1    2    0    0  0.61714987343E+02  0.11624831394E+02  0.20647414446E+03  0.23478245414E+03  0.92451890579E+02 0.  0.
          5    1    3    3  502    0 -0.21401556189E+02  0.27807027656E+02  0.92205816122E+01  0.36520527374E+02  0.41800000000E+01 0.  1.
         -5    1    3    3    0  502 -0.40313431154E+02 -0.39431859050E+02  0.26952914059E+03  0.27539693947E+03  0.41800000000E+01 0.  1.
        -11    1    4    4    0    0  0.18121433828E+02  0.40164128572E+01 -0.45972350349E+01  0.19122042417E+02  0.00000000000E+00 0.  1.
         11    1    4    4    0    0  0.43593553515E+02  0.76084185370E+01  0.21107137950E+03  0.21566041172E+03  0.00000000000E+00 0. -1.
</event>
<event>
 8    1  0.7102339E-009  0.7690581E+02  0.7561462E-02  0.1338069E+00
         -1   -1    0    0    0  501 -0.00000000000E+00  0.00000000000E+00  0.20849259665E+03  0.20849259665E+03  0.00000000000E+00 0. -1.
          1   -1    0    0  501    0  0.00000000000E+00 -0.00000000000E+00 -0.83831491837E+02  0.83831491837E+02  0.00000000000E+00 0.  1.
         25    2    1    2    0    0 -0.42609876253E+02  0.20847232154E+02  0.13459843724E+03  0.18977611134E+03  0.12509206403E+03 0.  0.
         23    2    1    2    0    0  0.42609876253E+02 -0.20847232154E+02 -0.99373324308E+01  0.10254797715E+03  0.90372166058E+02 0.  0.
          5    1    3    3  502    0 -0.54865964577E+01  0.11504016341E+02 -0.23498277415E+02  0.27057098406E+02  0.41800000000E+01 0. -1.
         -5    1    3    3    0  502 -0.37123279795E+02  0.93432158129E+01  0.15809671466E+03  0.16271901293E+03  0.41800000000E+01 0. -1.
        -11    1    4    4    0    0  0.28089029351E+02 -0.56662586881E+02 -0.32463138557E+01  0.63325988943E+02  0.00000000000E+00 0. -1.
         11    1    4    4    0    0  0.14520846902E+02  0.35815354727E+02 -0.66910185751E+01  0.39221988202E+02  0.00000000000E+00 0.  1.
</event>
<event>
 8    1  0.7102339E-009  0.1962931E+03  0.7561462E-02  0.1152905E+00
         -2   -1    0    0    0  501 -0.00000000000E+00  0.00000000000E+00  0.35210243742E+03  0.35210243742E+03  0.00000000000E+00 0.  1.
          2   -1    0    0  501    0  0.00000000000E+00 -0.00000000000E+00 -0.13359827817E+03  0.13359827817E+03  0.00000000000E+00 0. -1.
         25    2    1    2    0    0  0.16209320175E+03  0.87471069310E+02  0.79170623997E+02  0.23630970054E+03  0.12509553487E+03 0.  0.
         23    2    1    2    0    0 -0.16209320175E+03 -0.87471069310E+02  0.13933353526E+03  0.24939101505E+03  0.94109778039E+02 0.  0.
          5    1    3    3  502    0  0.49775634093E+02 -0.19038006729E+02 -0.14435216629E+02  0.55370635979E+02  0.41800000000E+01 0.  1.
         -5    1    3    3    0  502  0.11231756766E+03  0.10650907604E+03  0.93605840626E+02  0.18093906456E+03  0.41800000000E+01 0.  1.
        -11    1    4    4    0    0 -0.10866824055E+03 -0.55426499826E+02  0.33367017303E+02  0.12646834082E+03  0.00000000000E+00 0.  1.
         11    1    4    4    0    0 -0.53424961201E+02 -0.32044569484E+02  0.10596651795E+03  0.12292267423E+03  0.00000000000E+00 0. -1.
</event>
<event>
 8    1  0.7102339E-009  0.1051467E+03  0.7561462E-02  0.1269831E+00
          1   -1    0    0  501    0  0.00000000000E+00  0.00000000000E+00  0.14509534185E+04  0.14509534185E+04  0.00000000000E+00 0. -1.
         -1   -1    0    0    0  501 -0.00000000000E+00 -0.00000000000E+00 -0.15674294669E+02  0.15674294669E+02  0.00000000000E+00 0.  1.
         25    2    1    2    0    0  0.16639294512E+02 -0.96325493271E+02  0.96708193781E+03  0.98002564501E+03  0.12508926275E+03 0.  0.
         23    2    1    2    0    0 -0.16639294512E+02  0.96325493271E+02  0.46819718605E+03  0.48660206819E+03  0.89540499037E+02 0.  0.
          5    1    3    3  502    0  0.11463181433E+02 -0.54307203097E+02  0.89195410467E+03  0.89368913727E+03  0.41800000000E+01 0. -1.
         -5    1    3    3    0  502  0.51761130788E+01 -0.42018290174E+02  0.75127833139E+02  0.86336507735E+02  0.41800000000E+01 0. -1.
        -11    1    4    4    0    0  0.19926170280E+02  0.25293029935E+02  0.41689333753E+02  0.52676277147E+02  0.00000000000E+00 0.  1.
         11    1    4    4    0    0 -0.36565464791E+02  0.71032463336E+02  0.42650785230E+03  0.43392579104E+03  0.00000000000E+00 0. -1.
</event>
<event>
 8    1  0.7102339E-009  0.1319099E+03  0.7561462E-02  0.1224649E+00
         -1   -1    0    0    0  501 -0.00000000000E+00  0.00000000000E+00  0.58388837603E+02  0.58388837603E+02  0.00000000000E+00 0.  1.
          1   -1    0    0  501    0  0.00000000000E+00 -0.00000000000E+00 -0.52935549570E+03  0.52935549570E+03  0.00000000000E+00 0. -1.
         25    2    1    2    0    0  0.22560517099E+02  0.90479588865E+02 -0.41962701676E+03  0.44769340801E+03  0.12508805477E+03 0.  0.
         23    2    1    2    0    0 -0.22560517099E+02 -0.90479588865E+02 -0.51339641338E+02  0.14005092529E+03  0.91010823369E+02 0.  0.
          5    1    3    3  502    0  0.45675998110E+02  0.31558997880E+01 -0.26171420127E+03  0.26572175683E+03  0.41800000000E+01 0. -1.
         -5    1    3    3    0  502 -0.23115481011E+02  0.87323689077E+02 -0.15791281549E+03  0.18197165118E+03  0.41800000000E+01 0. -1.
        -11    1    4    4    0    0 -0.42218282485E+02 -0.84387824044E+01 -0.31610147274E+02  0.53411588959E+02  0.00000000000E+00 0.  1.
         11    1    4    4    0    0  0.19657765386E+02 -0.82040806460E+02 -0.19729494064E+02  0.86639336336E+02  0.00000000000E+00 0. -1.
</event>
<event>
 8    1  0.7102339E-009  0.1183839E+03  0.7561462E-02  0.1245787E+00
          1   -1    0    0  501    0  0.00000000000E+00  0.00000000000E+00  0.36369966453E+03  0.36369966453E+03  0.00000000000E+00 0. -1.
         -1   -1    0    0    0  501 -0.00000000000E+00 -0.00000000000E+00 -0.43050888650E+02  0.43050888650E+02  0.00000000000E+00 0.  1.
         25    2    1    2    0    0  0.60637328161E+02  0.88340461367E+00  0.15476485118E+03  0.20803249741E+03  0.12509074645E+03 0.  0.
         23    2    1    2    0    0 -0.60637328161E+02 -0.88340461367E+00  0.16588392469E+03  0.19871805576E+03  0.91069881101E+02 0.  0.
          5    1    3    3  502    0  0.65721882907E+02 -0.48723115640E+02  0.62382998571E+02  0.10296804748E+03  0.41800000000E+01 0.  1.
         -5    1    3    3    0  502 -0.50845547462E+01  0.49606520253E+02  0.92381852613E+02  0.10506444994E+03  0.41800000000E+01 0.  1.
        -11    1    4    4    0    0  0.15764709779E+01 -0.34198557891E+02  0.83463737602E+02  0.90212095181E+02  0.00000000000E+00 0. -1.
         11    1    4    4    0    0 -0.62213799139E+02  0.33315153277E+02  0.82420187090E+02  0.10850596058E+03  0.00000000000E+00 0.  1.
</event>
<event>
 7    1  0.7102339E-009  0.3574893E+03  0.7561462E-02  0.1059582E+00
         -1   -1    0    0    0  501 -0.00000000000E+00  0.00000000000E+00  0.12258776710E+03  0.12258776710E+03  0.00000000000E+00 0.  1.
          1   -1    0    0  501    0  0.00000000000E+00 -0.00000000000E+00 -0.12445847377E+04  0.12445847377E+04  0.00000000000E+00 0. -1.
         23    2    1    2    0    0 -0.33263808426E+03 -0.10865992481E+03 -0.31993190548E+03  0.48317013774E+03  0.92961731381E+02 0.  0.
          5    1    1    2  502    0  0.16961957016E+03  0.10661893608E+03 -0.53233298927E+03  0.56880073838E+03  0.41800000000E+01 0.  1.
         -5    1    1    2    0  502  0.16301851410E+03  0.20409887370E+01 -0.26973207583E+03  0.31520162865E+03  0.41800000000E+01 0.  1.
        -11    1    3    3    0    0 -0.28438704271E+03 -0.80174540580E+02 -0.21919959978E+03  0.36790272024E+03  0.00000000000E+00 0.  1.
         11    1    3    3    0    0 -0.48251041554E+02 -0.28485384234E+02 -0.10073230570E+03  0.11526741750E+03  0.00000000000E+00 0. -1.
</event>
<event>
 8    1  0.7102339E-009  0.2540051E+03  0.7561462E-02  0.1110800E+00
         -2   -1    0    0    0  501 -0.00000000000E+00  0.00000000000E+00  0.61420902931E+02  0.61420902931E+02  0.00000000000E+00 0.  1.
          2   -1    0    0  501    0  0.00000000000E+00 -0.00000000000E+00 -0.12663421269E+04  0.12663421269E+04  0.00000000000E+00 0. -1.
         25    2    1    2    0    0  0.23312950808E+03 -0.36667055615E+02 -0.37836473019E+03  0.46314292388E+03  0.12509060068E+03 0.  0.
         23    2    1    2    0    0 -0.23312950808E+03  0.36667055615E+02 -0.82655649377E+03  0.86462010594E+03  0.93158197229E+02 0.  0.
          5    1    3    3  502    0  0.22666342108E+03 -0.62809846835E+01 -0.28242090063E+03  0.36220822014E+03  0.41800000000E+01 0.  1.
         -5    1    3    3    0  502  0.64660870016E+01 -0.30386070932E+02 -0.95943829562E+02  0.10093470374E+03  0.41800000000E+01 0.  1.
        -11    1    4    4    0    0 -0.85337023143E+02  0.54126198008E+02 -0.26304224666E+03  0.28178586969E+03  0.00000000000E+00 0.  1.
         11    1    4    4    0    0 -0.14779248494E+03 -0.17459142393E+02 -0.56351424711E+03  0.58283423626E+03  0.00000000000E+00 0. -1.
</event>
<event>
 8    1  0.7102339E-009  0.1073957E+03  0.7561462E-02  0.1265470E+00
          2   -1    0    0  501    0  0.00000000000E+00  0.00000000000E+00  0.62726112450E+03  0.62726112450E+03  0.00000000000E+00 0. -1.
         -2   -1    0    0    0  501 -0.00000000000E+00 -0.00000000000E+00 -0.20981881558E+02  0.20981881558E+02  0.00000000000E+00 0.  1.
         25    2    1    2    0    0  0.58004534049E+01 -0.30331270884E+02  0.40939078594E+03  0.42918849351E+03  0.12509322961E+03 0.  0.
         23    2    1    2    0    0 -0.58004534049E+01  0.30331270884E+02  0.19688845700E+03  0.21905451255E+03  0.90918555394E+02 0.  0.
          5    1    3    3  502    0 -0.54472188253E+02 -0.22293113939E+02  0.12348740985E+03  0.13686056778E+03  0.41800000000E+01 0. -1.
         -5    1    3    3    0  502  0.60272641658E+02 -0.80381569448E+01  0.28590337609E+03  0.29232792573E+03  0.41800000000E+01 0. -1.
        -11    1    4    4    0    0 -0.17974126761E+02 -0.29082023091E+02  0.55167974339E+02  0.64902532251E+02  0.00000000000E+00 0.  1.
         11    1    4    4    0    0  0.12173673356E+02  0.59413293975E+02  0.14172048266E+03  0.15415198030E+03  0.00000000000E+00 0. -1.
</event>
<event>
 8    1  0.7102339E-009  0.2018264E+03  0.7561462E-02  0.1148207E+00
          2   -1    0    0  501    0  0.00000000000E+00  0.00000000000E+00  0.23184024543E+03  0.23184024543E+03  0.00000000000E+00 0. -1.
         -2   -1    0    0    0  501 -0.00000000000E+00 -0.00000000000E+00 -0.23491433865E+03  0.23491433865E+03  0.00000000000E+00 0.  1.
         25    2    1    2    0    0  0.84549108115E+02 -0.17076225498E+03  0.78088118885E+02  0.24094554563E+03  0.12509477302E+03 0.  0.
         23    2    1    2    0    0 -0.84549108115E+02  0.17076225498E+03 -0.81162212110E+02  0.22580903845E+03  0.89967314953E+02 0.  0.
          5    1    3    3  502    0  0.59139448959E+02 -0.15393264525E+03  0.10869771098E+03  0.19754847119E+03  0.41800000000E+01 0.  1.
         -5    1    3    3    0  502  0.25409659155E+02 -0.16829609732E+02 -0.30609592091E+02  0.43397074441E+02  0.41800000000E+01 0.  1.
        -11    1    4    4    0    0 -0.50850722210E+02  0.22004076717E+02 -0.58904029765E+01  0.55719585324E+02  0.00000000000E+00 0. -1.
         11    1    4    4    0    0 -0.33698385905E+02  0.14875817827E+03 -0.75271809134E+02  0.17008945312E+03  0.00000000000E+00 0.  1.
</event>
<event>
 7    1  0.7102339E-009  0.1958367E+03  0.7561462E-02  0.1153300E+00
          1   -1    0    0  501    0  0.00000000000E+00  0.00000000000E+00  0.79003976181E+03  0.79003976181E+03  0.00000000000E+00 0. -1.
         -1   -1    0    0    0  501 -0.00000000000E+00 -0.00000000000E+00 -0.56369298742E+02  0.56369298742E+02  0.00000000000E+00 0.  1.
         23    2    1    2    0    0  0.10825395631E+03  0.14367477136E+03  0.37747054396E+03  0.42819288042E+03  0.92215900463E+02 0.  0.
          5    1    1    2  502    0 -0.10777210243E+03 -0.15357199265E+03  0.36066941202E+03  0.40656989578E+03  0.41800000000E+01 0.  1.
         -5    1    1    2    0  502 -0.48185387233E+00  0.98972212868E+01 -0.44694929147E+01  0.11646284355E+02  0.41800000000E+01 0.  1.
        -11    1    3    3    0    0  0.23049275924E+02  0.89194587030E+02  0.24343668739E+03  0.26028515947E+03  0.00000000000E+00 0. -1.
         11    1    3    3    0    0  0.85204680382E+02  0.54480184332E+02  0.13403385658E+03  0.16790772094E+03  0.00000000000E+00 0.  1.
</event>
<event>
 8    1  0.7102339E-009  0.1292777E+03  0.7561462E-02  0.1228531E+00
         -2   -1    0    0    0  501 -0.00000000000E+00  0.00000000000E+00  0.24453549543E+02  0.24453549543E+02  0.00000000000E+00 0.  1.
          2   -1    0    0  501    0  0.00000000000E+00 -0.00000000000E+00 -0.11845191315E+04  0.11845191315E+04  0.00000000000E+00 0. -1.
         25    2    1    2    0    0  0.27520052624E+02 -0.10380802612E+03 -0.88083864183E+03  0.89613478787E+03  0.12508950994E+03 0.  0.
         23    2    1    2    0    0 -0.27520052624E+02  0.10380802612E+03 -0.27922694015E+03  0.31283789320E+03  0.91468047612E+02 0.  0.
          5    1    3    3  502    0  0.29134105107E+02 -0.12158355993E+03 -0.85690242513E+03  0.86598533286E+03  0.41800000000E+01 0.  1.
         -5    1    3    3    0  502 -0.16140524832E+01  0.17775533807E+02 -0.23936216699E+02  0.30149455010E+02  0.41800000000E+01 0.  1.
        -11    1    4    4    0    0  0.99534752406E+01  0.39157260682E+02 -0.24216047228E+02  0.47103924219E+02  0.00000000000E+00 0.  1.
         11    1    4    4    0    0 -0.37473527865E+02  0.64650765440E+02 -0.25501089292E+03  0.26573396898E+03  0.00000000000E+00 0. -1.
</event>
<event>
 8    1  0.7102339E-009  0.8084622E+02  0.7561462E-02  0.1326667E+00
         -1   -1    0    0    0  501 -0.00000000000E+00  0.00000000000E+00  0.39448021123E+02  0.39448021123E+02  0.00000000000E+00 0.  1.
          1   -1    0    0  501    0  0.00000000000E+00 -0.00000000000E+00 -0.31186405686E+03  0.31186405686E+03  0.00000000000E+00 0. -1.
         25    2    1    2    0    0 -0.49814400238E+01 -0.33922913839E+01 -0.19669039679E+03  0.23317442574E+03  0.12508748236E+03 0.  0.
         23    2    1    2    0    0  0.49814400238E+01  0.33922913839E+01 -0.75725638947E+02  0.11813765224E+03  0.90475466828E+02 0.  0.
          5    1    3    3  502    0 -0.36135882315E+02 -0.43397030105E+02 -0.16195931916E+03  0.17157330117E+03  0.41800000000E+01 0. -1.
         -5    1    3    3    0  502  0.31154442292E+02  0.40004738721E+02 -0.34731077630E+02  0.61601124568E+02  0.41800000000E+01 0. -1.
        -11    1    4    4    0    0 -0.10116369526E+02  0.25491126930E+02  0.93314606899E+01  0.28969201631E+02  0.00000000000E+00 0.  1.
         11    1    4    4    0    0  0.15097809549E+02 -0.22098835546E+02 -0.85057099637E+02  0.89168450611E+02  0.00000000000E+00 0. -1.
</event>
<event>
 7    1  0.7102339E-009  0.9745240E+02  0.7561462E-02  0.1285746E+00
          1   -1    0    0  501    0  0.00000000000E+00  0.00000000000E+00  0.14051154474E+03  0.14051154474E+03  0.00000000000E+00 0. -1.
         -1   -1    0    0    0  501 -0.00000000000E+00 -0.00000000000E+00 -0.10572828935E+03  0.10572828935E+03  0.00000000000E+00 0.  1.
         23    2    1    2    0    0  0.28092175723E+02  0.26663806161E+02  0.53227068423E+02  0.11412754413E+03  0.93230073579E+02 0.  0.
          5    1    1    2  502    0 -0.28233515838E+02 -0.61724432723E+02  0.28193380541E+02  0.73616412015E+02  0.41800000000E+01 0. -1.
         -5    1    1    2    0  502  0.14134011457E+00  0.35060626563E+02 -0.46637193582E+02  0.58495877951E+02  0.41800000000E+01 0. -1.
        -11    1    3    3    0    0 -0.72208208691E+01 -0.26668208966E+02 -0.44685984445E+01  0.27987532859E+02  0.00000000000E+00 0.  1.
         11    1    3    3    0    0  0.35312996592E+02  0.53332015127E+02  0.57695666868E+02  0.86140011267E+02  0.00000000000E+00 0. -1.
</event>
<event>
 8    1  0.7102339E-009  0.1217035E+03  0.7561462E-02  0.1240313E+00
         -1   -1    0    0    0  501 -0.00000000000E+00  0.00000000000E+00  0.66301640511E+02  0.66301640511E+02  0.00000000000E+00 0.  1.
          1   -1    0    0  501    0  0.00000000000E+00 -0.00000000000E+00 -0.30313271372E+03  0.30313271372E+03  0.00000000000E+00 0. -1.
         25    2    1    2    0    0  0.41439728638E+02 -0.61295929778E+02 -0.19463387976E+03  0.24290695010E+03  0.12508795761E+03 0.  0.
         23    2    1    2    0    0 -0.41439728638E+02  0.61295929778E+02 -0.42197193451E+02  0.12652740413E+03  0.93563554573E+02 0.  0.
          5    1    3    3  502    0  0.78492454645E+02 -0.62112682290E+02 -0.10164524903E+03  0.14271748242E+03  0.41800000000E+01 0. -1.
         -5    1    3    3    0  502 -0.37052726008E+02  0.81675251212E+00 -0.92988630728E+02  0.10018946768E+03  0.41800000000E+01 0. -1.
        -11    1    4    4    0    0  0.20753117180E+02  0.35391285574E+01  0.13499732797E+02  0.25009200092E+02  0.00000000000E+00 0.  1.
         11    1    4    4    0    0 -0.62192845817E+02  0.57756801221E+02 -0.55696926249E+02  0.10151820404E+03  0.00000000000E+00 0. -1.
</event>
<event>
 8    1  0.7102339E-009  0.1154442E+03  0.7561462E-02  0.1250808E+00
          1   -1    0    0  501    0  0.00000000000E+00  0.00000000000E+00  0.97970363446E+02  0.97970363446E+02  0.00000000000E+00 0.  1.
         -1   -1    0    0    0  501 -0.00000000000E+00 -0.00000000000E+00 -0.15057477212E+03  0.15057477212E+03  0.00000000000E+00 0. -1.
         25    2    1    2    0    0 -0.28819287663E+01  0.48630173875E+02 -0.49351208680E+02  0.14302930886E+03  0.12509453253E+03 0.  0.
         23    2    1    2    0    0  0.28819287663E+01 -0.48630173875E+02 -0.32531999910E+01  0.10551582671E+03  0.93540403307E+02 0.  0.
          5    1    3    3  502    0  0.55053469709E+01  0.90388839680E+02 -0.26156951524E+02  0.94350992029E+02  0.41800000000E+01 0. -1.
         -5    1    3    3    0  502 -0.83872757373E+01 -0.41758665805E+02 -0.23194257157E+02  0.48678316827E+02  0.41800000000E+01 0. -1.
        -11    1    4    4    0    0 -0.29899741574E+02 -0.56321860693E+02  0.17293924998E+02  0.66069859845E+02  0.00000000000E+00 0.  1.
         11    1    4    4    0    0  0.32781670340E+02  0.76916868176E+01 -0.20547124989E+02  0.39445966862E+02  0.00000000000E+00 0. -1.
</event>
<event>
 8    1  0.7102339E-009  0.1391686E+03  0.7561462E-02  0.1214452E+00
         -2   -1    0    0    0  501 -0.00000000000E+00  0.00000000000E+00  0.19467553318E+03  0.19467553318E+03  0.00000000000E+00 0.  1.
          2   -1    0    0  501    0  0.00000000000E+00 -0.00000000000E+00 -0.12317517173E+03  0.12317517173E+03  0.00000000000E+00 0. -1.
         25    2    1    2    0    0 -0.67236016161E+02 -0.78020663563E+02 -0.38050305986E+01  0.16204177230E+03  0.12504060101E+03 0.  0.
         23    2    1    2    0    0  0.67236016161E+02  0.78020663563E+02  0.75305392049E+02  0.15580893260E+03  0.89429388870E+02 0.  0.
          5    1    3    3  502    0 -0.22788114073E+02  0.33027858840E+02 -0.11956139117E+02  0.42078014035E+02  0.41800000000E+01 0. -1.
         -5    1    3    3    0  502 -0.44447902088E+02 -0.11104852240E+03  0.81511085188E+01  0.11996375827E+03  0.41800000000E+01 0. -1.
        -11    1    4    4    0    0  0.77802352047E+02  0.63955203917E+02  0.88296969116E+02  0.13393964629E+03  0.00000000000E+00 0.  1.
         11    1    4    4    0    0 -0.10566335887E+02  0.14065459646E+02 -0.12991577067E+02  0.21869286312E+02  0.00000000000E+00 0. -1.
</event>
<event>
 8    1  0.7102339E-009  0.1724001E+03  0.7561462E-02  0.1175368E+00
          2   -1    0    0  501    0  0.00000000000E+00  0.00000000000E+00  0.84805003024E+03  0.84805003024E+03  0.00000000000E+00 0. -1.
         -2   -1    0    0    0  501 -0.00000000000E+00 -0.00000000000E+00 -0.51356617527E+02  0.51356617527E+02  0.00000000000E+00 0.  1.
         25    2    1    2    0    0  0.26821297930E+02 -0.13078533721E+03  0.66782573016E+03  0.69243226746E+03  0.12508817975E+03 0.  0.
         23    2    1    2    0    0 -0.26821297930E+02  0.13078533721E+03  0.12886768255E+03  0.20697438030E+03  0.91691482933E+02 0.  0.
          5    1    3    3  502    0 -0.12093593429E+02  0.21879826287E+02  0.91289926022E+02  0.94743362794E+02  0.41800000000E+01 0. -1.
         -5    1    3    3    0  502  0.38914891358E+02 -0.15266516350E+03  0.57653580414E+03  0.59768890467E+03  0.41800000000E+01 0. -1.
        -11    1    4    4    0    0  0.21602327328E+02 -0.82206583250E+00  0.19876619019E+02  0.29366925645E+02  0.00000000000E+00 0.  1.
         11    1    4    4    0    0 -0.48423625258E+02  0.13160740304E+03  0.10899106353E+03  0.17760745465E+03  0.00000000000E+00 0. -1.
</event>
<event>
 8    1  0.7102339E-009  0.7282620E+02  0.7561462E-02  0.1350738E+00
         -2   -1    0    0    0  501 -0.00000000000E+00  0.00000000000E+00  0.25026756071E+02  0.25026756071E+02  0.00000000000E+00 0.  1.
          2   -1    0    0  501    0  0.00000000000E+00 -0.00000000000E+00 -0.54138491058E+03  0.54138491058E+03  0.00000000000E+00 0. -1.
         25    2    1    2    0    0 -0.47281414450E+02 -0.76822526263E+01 -0.29431478433E+03  0.32336154285E+03  0.12508775304E+03 0.  0.
         23    2    1    2    0    0  0.47281414450E+02  0.76822526263E+01 -0.22204337018E+03  0.24305012380E+03  0.86461293547E+02 0.  0.
          5    1    3    3  502    0 -0.13225338444E+02 -0.26341679023E+02 -0.35452348188E+01  0.29980572386E+02  0.41800000000E+01 0. -1.
         -5    1    3    3    0  502 -0.34056076006E+02  0.18659426396E+02 -0.29076954951E+03  0.29338097047E+03  0.41800000000E+01 0. -1.
        -11    1    4    4    0    0  0.20489818009E+02  0.33725157227E+02 -0.36405981290E+02  0.53689983663E+02  0.00000000000E+00 0.  1.
         11    1    4    4    0    0  0.26791596441E+02 -0.26042904601E+02 -0.18563738889E+03  0.18936014014E+03  0.00000000000E+00 0. -1.
</event>
<event>
 8    1  0.7102339E-009  0.9030844E+02  0.7561462E-02  0.1302106E+00
         -2   -1    0    0    0  501 -0.00000000000E+00  0.00000000000E+00  0.24127871367E+02  0.24127871367E+02  0.00000000000E+00 0.  1.
          2   -1    0    0  501    0  0.00000000000E+00 -0.00000000000E+00 -0.61001660583E+03  0.61001660583E+03  0.00000000000E+00 0. -1.
         25    2    1    2    0    0 -0.54341950881E+02 -0.15544280636E+02 -0.41025237879E+03  0.43260758262E+03  0.12509050305E+03 0.  0.
         23    2    1    2    0    0  0.54341950881E+02  0.15544280636E+02 -0.17563635568E+03  0.20153689458E+03  0.81082169154E+02 0.  0.
          5    1    3    3  502    0 -0.56533747782E+02  0.37889093501E+02 -0.12530400387E+03  0.14265417565E+03  0.41800000000E+01 0.  1.
         -5    1    3    3    0  502  0.21917969007E+01 -0.53433374138E+02 -0.28494837492E+03  0.28995340697E+03  0.41800000000E+01 0.  1.
        -11    1    4    4    0    0  0.27785860544E+02  0.16318908468E+02 -0.17167832080E+03  0.17467629104E+03  0.00000000000E+00 0. -1.
         11    1    4    4    0    0  0.26556090338E+02 -0.77462783155E+00 -0.39580348791E+01  0.26860603538E+02  0.00000000000E+00 0.  1.
</event>
<event>
 8    1  0.7102339E-009  0.9305094E+02  0.7561462E-02  0.1295627E+00
         -1   -1    0    0    0  501 -0.00000000000E+00  0.00000000000E+00  0.31607942178E+02  0.31607942178E+02  0.00000000000E+00 0.  1.
          1   -1    0    0  501    0  0.00000000000E+00 -0.00000000000E+00 -0.71724863856E+03  0.71724863856E+03  0.00000000000E+00 0. -1.
         25    2    1    2    0    0  0.17730450568E+02 -0.70653415323E+02 -0.18626949613E+03  0.23590237013E+03  0.12508928439E+03 0.  0.
         23    2    1    2    0    0 -0.17730450568E+02  0.70653415323E+02 -0.49937120026E+03  0.51295421061E+03  0.91892070211E+02 0.  0.
          5    1    3    3  502    0  0.48146635075E+01 -0.21905003114E+02 -0.18383001349E+03  0.18524026670E+03  0.41800000000E+01 0.  1.
         -5    1    3    3    0  502  0.12915787061E+02 -0.48748412210E+02 -0.24394826384E+01  0.50662103430E+02  0.41800000000E+01 0.  1.
        -11    1    4    4    0    0 -0.34462175295E+02 -0.53377419734E+01 -0.95792520014E+02  0.10194282665E+03  0.00000000000E+00 0.  1.
         11    1    4    4    0    0  0.16731724727E+02  0.75991157297E+02 -0.40357868024E+03  0.41101138396E+03  0.00000000000E+00 0. -1.
</event>
<event>
 8    1  0.7102339E-009  0.1116046E+03  0.7561462E-02  0.1257627E+00
          2   -1    0    0  501    0  0.00000000000E+00  0.00000000000E+00  0.67701891717E+03  0.67701891717E+03  0.00000000000E+00 0.  1.
         -2   -1    0    0    0  501 -0.00000000000E+00 -0.00000000000E+00 -0.23562051268E+02  0.23562051268E+02  0.00000000000E+00 0. -1.
         25    2    1    2    0    0  0.35292154121E+01 -0.63938242579E+02  0.34963587798E+03  0.37681454255E+03  0.12507357066E+03 0.  0.
         23    2    1    2    0    0 -0.35292154121E+01  0.63938242579E+02  0.30382098792E+03  0.32376642589E+03  0.91743945891E+02 0.  0.
          5    1    3    3  502    0 -0.18823825760E+02 -0.82180534437E+02  0.33239261097E+03  0.34294357682E+03  0.41800000000E+01 0. -1.
         -5    1    3    3    0  502  0.22353041172E+02  0.18242291858E+02  0.17243267012E+02  0.33870965724E+02  0.41800000000E+01 0. -1.
        -11    1    4    4    0    0  0.36263700880E+02  0.59397408692E+02  0.22229267927E+03  0.23293162820E+03  0.00000000000E+00 0. -1.
         11    1    4    4    0    0 -0.39792916292E+02  0.45408338869E+01  0.81528308656E+02  0.90834797692E+02  0.00000000000E+00 0.  1.
</event>
<event>
 8    1  0.7102339E-009  0.9350274E+02  0.7561462E-02  0.1294584E+00
          2   -1    0    0  501    0  0.00000000000E+00  0.00000000000E+00  0.41882299840E+03  0.41882299840E+03  0.00000000000E+00 0. -1.
         -2   -1    0    0    0  501 -0.00000000000E+00 -0.00000000000E+00 -0.30073013079E+02  0.30073013079E+02  0.00000000000E+00 0.  1.
         25    2    1    2    0    0 -0.15252785307E+01 -0.34530545885E+02  0.26616455787E+03  0.29610867460E+03  0.12506834227E+03 0.  0.
         23    2    1    2    0    0  0.15252785307E+01  0.34530545885E+02  0.12258542745E+03  0.15278733688E+03  0.84392524622E+02 0.  0.
          5    1    3    3  502    0  0.55570680702E+02 -0.74212421927E+01  0.18378651804E+03  0.19219295513E+03  0.41800000000E+01 0.  1.
         -5    1    3    3    0  502 -0.57095959233E+02 -0.27109303692E+02  0.82378039829E+02  0.10391571947E+03  0.41800000000E+01 0.  1.
        -11    1    4    4    0    0  0.32655138764E+01  0.50888207723E+02  0.12605236354E+03  0.13597599649E+03  0.00000000000E+00 0. -1.
         11    1    4    4    0    0 -0.17402353456E+01 -0.16357661838E+02 -0.34669360876E+01  0.16811340390E+02  0.00000000000E+00 0.  1.
</event>
<event>
 8    1  0.7102339E-009  0.1121796E+03  0.7561462E-02  0.1256586E+00
          2   -1    0    0  501    0  0.00000000000E+00  0.00000000000E+00  0.45992150175E+03  0.45992150175E+03  0.00000000000E+00 0. -1.
         -2   -1    0    0    0  501 -0.00000000000E+00 -0.00000000000E+00 -0.45661936139E+02  0.45661936139E+02  0.00000000000E+00 0.  1.
         25    2    1    2    0    0 -0.84274060555E+02  0.18122977730E+02  0.15386002693E+03  0.21622014594E+03  0.12509070316E+03 0.  0.
         23    2    1    2    0    0  0.84274060555E+02 -0.18122977730E+02  0.26039953868E+03  0.28936329195E+03  0.92155495657E+02 0.  0.
          5    1    3    3  502    0 -0.19246499147E+02  0.28081873594E+02  0.14583582257E+03  0.14981514910E+03  0.41800000000E+01 0. -1.
         -5    1    3    3    0  502 -0.65027561408E+02 -0.99588958644E+01  0.80242043570E+01  0.66404996839E+02  0.41800000000E+01 0. -1.
        -11    1    4    4    0    0  0.37768916076E+02 -0.53654930558E+02  0.11148632364E+03  0.12936206149E+03  0.00000000000E+00 0. -1.
         11    1    4    4    0    0  0.46505144479E+02  0.35531952828E+02  0.14891321505E+03  0.16000123046E+03  0.00000000000E+00 0.  1.
</event>
<event>
 8    1  0.7102339E-009  0.8585189E+02  0.7561462E-02  0.1313220E+00
         -1   -1    0    0    0  501 -0.00000000000E+00  0.00000000000E+00  0.64859144938E+03  0.64859144938E+03  0.00000000000E+00 0.  1.
          1   -1    0    0  501    0  0.00000000000E+00 -0.00000000000E+00 -0.22185827848E+02  0.22185827848E+02  0.00000000000E+00 0. -1.
         25    2    1    2    0    0 -0.11487620340E+02 -0.30786025568E+02  0.46375214357E+03  0.48144958629E+03  0.12509160115E+03 0.  0.
         23    2    1    2    0    0  0.11487620340E+02  0.30786025568E+02  0.16265347795E+03  0.18932769093E+03  0.91154132507E+02 0.  0.
          5    1    3    3  502    0  0.16902064062E+01  0.23459729043E+02  0.12927388911E+02  0.27162574777E+02  0.41800000000E+01 0. -1.
         -5    1    3    3    0  502 -0.13177826746E+02 -0.54245754612E+02  0.45082475466E+03  0.45428701151E+03  0.41800000000E+01 0. -1.
        -11    1    4    4    0    0 -0.22108375871E+02 -0.20746573821E+02  0.85094784177E+02  0.90334505606E+02  0.00000000000E+00 0.  1.
         11    1    4    4    0    0  0.33595996211E+02  0.51532599389E+02  0.77558693775E+02  0.98993185328E+02  0.00000000000E+00 0. -1.
</event>
<event>
 8    1  0.7102339E-009  0.1013646E+03  0.7561462E-02  0.1277452E+00
         -4   -1    0    0    0  501 -0.00000000000E+00  0.00000000000E+00  0.31718354605E+03  0.31718354605E+03  0.00000000000E+00 0.  1.
          4   -1    0    0  501    0  0.00000000000E+00 -0.00000000000E+00 -0.50579987131E+02  0.50579987131E+02  0.00000000000E+00 0. -1.
         25    2    1    2    0    0 -0.31719801858E+02 -0.57722724680E+02  0.16320483022E+03  0.21589581732E+03  0.12504850480E+03 0.  0.
         23    2    1    2    0    0  0.31719801858E+02  0.57722724680E+02  0.10339872869E+03  0.15186771586E+03  0.89635078235E+02 0.  0.
          5    1    3    3  502    0  0.28775352784E+02 -0.53447406144E+02  0.13660146351E+03  0.14953955459E+03  0.41800000000E+01 0. -1.
         -5    1    3    3    0  502 -0.60495154642E+02 -0.42753185357E+01  0.26603366708E+02  0.66356262734E+02  0.41800000000E+01 0. -1.
        -11    1    4    4    0    0 -0.10161215290E+02  0.48807169719E+00 -0.12423268589E+02  0.16056964613E+02  0.00000000000E+00 0. -1.
         11    1    4    4    0    0  0.41881017148E+02  0.57234652983E+02  0.11582199728E+03  0.13581075125E+03  0.00000000000E+00 0.  1.
</event>
<event>
 8    1  0.7102339E-009  0.9487330E+02  0.7561462E-02  0.1291462E+00
         -1   -1    0    0    0  501 -0.00000000000E+00  0.00000000000E+00  0.39835774033E+02  0.39835774033E+02  0.00000000000E+00 0.  1.
          1   -1    0    0  501    0  0.00000000000E+00 -0.00000000000E+00 -0.42628330336E+03  0.42628330336E+03  0.00000000000E+00 0. -1.
         25    2    1    2    0    0 -0.21645638509E+02 -0.50504859888E+02 -0.31108501784E+03  0.33976550764E+03  0.12508971707E+03 0.  0.
         23    2    1    2    0    0  0.21645638509E+02  0.50504859888E+02 -0.75362511483E+02  0.12635356975E+03  0.85243427393E+02 0.  0.
          5    1    3    3  502    0 -0.52437456173E+02  0.12601066131E+02 -0.20834619553E+03  0.21525353254E+03  0.41800000000E+01 0. -1.
         -5    1    3    3    0  502  0.30791817664E+02 -0.63105926018E+02 -0.10273882231E+03  0.12451197510E+03  0.41800000000E+01 0. -1.
        -11    1    4    4    0    0 -0.17142518227E+01  0.39418325247E+02 -0.88830748646E+02  0.97198996546E+02  0.00000000000E+00 0. -1.
         11    1    4    4    0    0  0.23359890332E+02  0.11086534640E+02  0.13468237163E+02  0.29154573208E+02  0.00000000000E+00 0.  1.
</event>
<event>
 8    1  0.7102339E-009  0.1649211E+03  0.7561462E-02  0.1183250E+00
          1   -1    0    0  501    0  0.00000000000E+00  0.00000000000E+00  0.15668560208E+03  0.15668560208E+03  0.00000000000E+00 0. -1.
         -1   -1    0    0    0  501 -0.00000000000E+00 -0.00000000000E+00 -0.22182682919E+03  0.22182682919E+03  0.00000000000E+00 0.  1.
         25    2    1    2    0    0 -0.11710974944E+02 -0.12970872104E+03 -0.11163584375E+03  0.21230066861E+03  0.12509001972E+03 0.  0.
         23    2    1    2    0    0  0.11710974944E+02  0.12970872104E+03  0.46494616635E+02  0.16621176266E+03  0.92212262870E+02 0.  0.
          5    1    3    3  502    0 -0.61850977671E+02 -0.45365195451E+02 -0.75341753967E+02  0.10759831173E+03  0.41800000000E+01 0.  1.
         -5    1    3    3    0  502  0.50140002727E+02 -0.84343525588E+02 -0.36294089781E+02  0.10470235688E+03  0.41800000000E+01 0.  1.
        -11    1    4    4    0    0 -0.13374361609E+02  0.12902766184E+03  0.22817641027E+02  0.13171050000E+03  0.00000000000E+00 0. -1.
         11    1    4    4    0    0  0.25085336553E+02  0.68105920376E+00  0.23676975609E+02  0.34501262667E+02  0.00000000000E+00 0.  1.
</event>
<event>
 8    1  0.7102339E-009  0.1244642E+03  0.7561462E-02  0.1235909E+00
         -1   -1    0    0    0  501 -0.00000000000E+00  0.00000000000E+00  0.50472048059E+02  0.50472048059E+02  0.00000000000E+00 0.  1.
          1   -1    0    0  501    0  0.00000000000E+00 -0.00000000000E+00 -0.40884795044E+03  0.40884795044E+03  0.00000000000E+00 0. -1.
         25    2    1    2    0    0  0.31247575654E+02 -0.89030186240E+02 -0.19921957873E+03  0.25345567087E+03  0.12509417054E+03 0.  0.
         23    2    1    2    0    0 -0.31247575654E+02  0.89030186240E+02 -0.15915632365E+03  0.20586432763E+03  0.90258523058E+02 0.  0.
          5    1    3    3  502    0  0.64159763226E+01 -0.11497159965E+03 -0.17641396938E+03  0.21071068903E+03  0.41800000000E+01 0. -1.
         -5    1    3    3    0  502  0.24831599332E+02  0.25941413410E+02 -0.22805609349E+02  0.42744981844E+02  0.41800000000E+01 0. -1.
        -11    1    4    4    0    0 -0.33628973784E+02  0.63029509544E+02 -0.36050934032E+02  0.80020602320E+02  0.00000000000E+00 0.  1.
         11    1    4    4    0    0  0.23813981295E+01  0.26000676696E+02 -0.12310538962E+03  0.12584372531E+03  0.00000000000E+00 0. -1.
</event>
<event>
 8    1  0.7102339E-009  0.7635359E+02  0.7561462E-02  0.1339730E+00
         -3   -1    0    0    0  501 -0.00000000000E+00  0.00000000000E+00  0.89402390318E+02  0.89402390318E+02  0.00000000000E+00 0.  1.
          3   -1    0    0  501    0  0.00000000000E+00 -0.00000000000E+00 -0.14880810037E+03  0.14880810037E+03  0.00000000000E+00 0. -1.
         25    2    1    2    0    0 -0.52032709006E+01 -0.43625979004E+02 -0.19580670631E+02  0.13402232084E+03  0.12509308434E+03 0.  0.
         23    2    1    2    0    0  0.52032709006E+01  0.43625979004E+02 -0.39825039418E+02  0.10418816984E+03  0.85667035077E+02 0.  0.
          5    1    3    3  502    0  0.38282491349E+02 -0.44224493314E+02 -0.52978726789E+02  0.79028936757E+02  0.41800000000E+01 0. -1.
         -5    1    3    3    0  502 -0.43485762249E+02  0.59851430986E+00  0.33398056158E+02  0.54993384083E+02  0.41800000000E+01 0. -1.
        -11    1    4    4    0    0  0.15145100353E+02  0.24091782567E+02  0.23671346100E+02  0.37015141201E+02  0.00000000000E+00 0.  1.
         11    1    4    4    0    0 -0.99418294526E+01  0.19534196437E+02 -0.63496385518E+02  0.67173028644E+02  0.00000000000E+00 0. -1.
</event>
<event>
 8    1  0.7102339E-009  0.1116699E+03  0.7561462E-02  0.1257508E+00
         -1   -1    0    0    0  501 -0.00000000000E+00  0.00000000000E+00  0.19571783227E+02  0.19571783227E+02  0.00000000000E+00 0.  1.
          1   -1    0    0  501    0  0.00000000000E+00 -0.00000000000E+00 -0.69298517026E+03  0.69298517026E+03  0.00000000000E+00 0. -1.
         25    2    1    2    0    0 -0.23004187563E+02 -0.27574279623E+02 -0.32071225122E+03  0.34611205868E+03  0.12509066926E+03 0.  0.
         23    2    1    2    0    0  0.23004187563E+02  0.27574279623E+02 -0.35270113581E+03  0.36644489481E+03  0.92705103343E+02 0.  0.
          5    1    3    3  502    0 -0.69325195567E+02 -0.41612247080E+02 -0.21612482849E+03  0.23079206168E+03  0.41800000000E+01 0.  1.
         -5    1    3    3    0  502  0.46321008004E+02  0.14037967456E+02 -0.10458742273E+03  0.11531999700E+03  0.41800000000E+01 0.  1.
        -11    1    4    4    0    0  0.46117912558E+02 -0.12278607893E+02 -0.11838555403E+03  0.12764311761E+03  0.00000000000E+00 0.  1.
         11    1    4    4    0    0 -0.23113724996E+02  0.39852887517E+02 -0.23431558178E+03  0.23880177720E+03  0.00000000000E+00 0. -1.
</event>
<event>
 8    1  0.7102339E-009  0.8753523E+02  0.7561462E-02  0.1308933E+00
         -1   -1    0    0    0  501 -0.00000000000E+00  0.00000000000E+00  0.35687659004E+02  0.35687659004E+02  0.00000000000E+00 0.  1.
          1   -1    0    0  501    0  0.00000000000E+00 -0.00000000000E+00 -0.46992308609E+03  0.46992308609E+03  0.00000000000E+00 0. -1.
         25    2    1    2    0    0  0.10330196385E+02  0.34365238329E+02 -0.20873053949E+03  0.24597419586E+03  0.12508870594E+03 0.  0.
         23    2    1    2    0    0 -0.10330196385E+02 -0.34365238329E+02 -0.22550488760E+03  0.25963654923E+03  0.12357589086E+03 0.  0.
          5    1    3    3  502    0 -0.24232566955E+01 -0.33935167230E+02 -0.10456322870E+02  0.35836780490E+02  0.41800000000E+01 0. -1.
         -5    1    3    3    0  502  0.12753453081E+02  0.68300405559E+02 -0.19827421662E+03  0.21013741537E+03  0.41800000000E+01 0. -1.
        -11    1    4    4    0    0 -0.36325509906E+02 -0.20948743424E+02 -0.22651701843E+03  0.23036569223E+03  0.00000000000E+00 0. -1.
         11    1    4    4    0    0  0.25995313521E+02 -0.13416494905E+02  0.10121308269E+01  0.29270856998E+02  0.00000000000E+00 0.  1.
</event>
<event>
 8    1  0.7102339E-009  0.1034166E+03  0.7561462E-02  0.1273271E+00
          1   -1    0    0  501    0  0.00000000000E+00  0.00000000000E+00  0.22795133199E+03  0.22795133199E+03  0.00000000000E+00 0. -1.
         -1   -1    0    0    0  501 -0.00000000000E+00 -0.00000000000E+00 -0.61776016087E+02  0.61776016087E+02  0.00000000000E+00 0.  1.
         25    2    1    2    0    0  0.13044074777E+02  0.37257514935E+02  0.12706776175E+03  0.18262468939E+03  0.12508913138E+03 0.  0.
         23    2    1    2    0    0 -0.13044074777E+02 -0.37257514935E+02  0.39107554146E+02  0.10710265869E+03  0.91560408478E+02 0.  0.
          5    1    3    3  502    0  0.55611773269E+02 -0.78294999084E+01  0.21814377355E+02  0.60392961960E+02  0.41800000000E+01 0. -1.
         -5    1    3    3    0  502 -0.42567698492E+02  0.45087014843E+02  0.10525338440E+03  0.12223172743E+03  0.41800000000E+01 0. -1.
        -11    1    4    4    0    0 -0.40528324365E+02  0.18502777866E+01 -0.64382821309E+01  0.41078219052E+02  0.00000000000E+00 0.  1.
         11    1    4    4    0    0  0.27484249587E+02 -0.39107792721E+02  0.45545836277E+02  0.66024439635E+02  0.00000000000E+00 0. -1.
</event>
<event>
 8    1  0.7102339E-009  0.1049562E+03  0.7561462E-02  0.1270206E+00
         -2   -1    0    0    0  501 -0.00000000000E+00  0.00000000000E+00  0.10965936379E+03  0.10965936379E+03  0.00000000000E+00 0.  1.
          2   -1    0    0  501    0  0.00000000000E+00 -0.00000000000E+00 -0.10752600807E+03  0.10752600807E+03  0.00000000000E+00 0. -1.
         25    2    1    2    0    0 -0.18554615146E+02 -0.81416589489E+01  0.50836141216E+01  0.12682504025E+03  0.12509271501E+03 0.  0.
         23    2    1    2    0    0  0.18554615146E+02  0.81416589489E+01 -0.29502584044E+01  0.90360331606E+02  0.88009801440E+02 0.  0.
          5    1    3    3  502    0 -0.22655996287E+02  0.55142331516E+02  0.17066909925E+02  0.62150806167E+02  0.41800000000E+01 0.  1.
         -5    1    3    3    0  502  0.41013811413E+01 -0.63283990465E+02 -0.11983295803E+02  0.64674234087E+02  0.41800000000E+01 0.  1.
        -11    1    4    4    0    0  0.23389341742E+02 -0.35595821259E+02  0.11371629761E+02  0.44084438996E+02  0.00000000000E+00 0.  1.
         11    1    4    4    0    0 -0.48347265957E+01  0.43737480208E+02 -0.14321888166E+02  0.46275892609E+02  0.00000000000E+00 0. -1.
</event>
<event>
 8    1  0.7102339E-009  0.1238998E+03  0.7561462E-02  0.1236799E+00
          2   -1    0    0  501    0  0.00000000000E+00  0.00000000000E+00  0.46281329180E+03  0.46281329180E+03  0.00000000000E+00 0. -1.
         -2   -1    0    0    0  501 -0.00000000000E+00 -0.00000000000E+00 -0.62837742898E+02  0.62837742898E+02  0.00000000000E+00 0.  1.
         25    2    1    2    0    0 -0.44617814931E+02 -0.78929818403E+02  0.35765778161E+03  0.38959845838E+03  0.12508878600E+03 0.  0.
         23    2    1    2    0    0  0.44617814931E+02  0.78929818403E+02  0.42317767288E+02  0.13605257631E+03  0.92189177517E+02 0.  0.
          5    1    3    3  502    0 -0.15912084081E+02 -0.96046859827E+02  0.33529593040E+03  0.34916905225E+03  0.41800000000E+01 0.  1.
         -5    1    3    3    0  502 -0.28705730851E+02  0.17117041424E+02  0.22361851205E+02  0.40429406131E+02  0.41800000000E+01 0.  1.
        -11    1    4    4    0    0 -0.26530657155E+01  0.68131646021E+02 -0.49167906922E+01  0.68360330440E+02  0.00000000000E+00 0.  1.
         11    1    4    4    0    0  0.47270880647E+02  0.10798172382E+02  0.47234557980E+02  0.67692245875E+02  0.00000000000E+00 0. -1.
</event>
<event>
 8    1  0.7102339E-009  0.2231401E+03  0.7561462E-02  0.1131563E+00
         -1   -1    0    0    0  501 -0.00000000000E+00  0.00000000000E+00  0.11192435396E+03  0.11192435396E+03  0.00000000000E+00 0.  1.
          1   -1    0    0  501    0  0.00000000000E+00 -0.00000000000E+00 -0.56525249555E+03  0.56525249555E+03  0.00000000000E+00 0. -1.
         25    2    1    2    0    0  0.32821774191E+02 -0.21918854706E+03 -0.16848588177E+03  0.30521491229E+03  0.12509101609E+03 0.  0.
         23    2    1    2    0    0 -0.32821774191E+02  0.21918854706E+03 -0.28484225982E+03  0.37196193722E+03  0.89998231826E+02 0.  0.
          5    1    3    3  502    0  0.39074527419E+02 -0.18302136019E+03 -0.18639030224E+03  0.26416368817E+03  0.41800000000E+01 0.  1.
         -5    1    3    3    0  502 -0.62527532289E+01 -0.36167186879E+02  0.17904420472E+02  0.41051224124E+02  0.41800000000E+01 0.  1.
        -11    1    4    4    0    0 -0.30113494826E+02  0.15484397429E+03 -0.25754361726E+03  0.30201356548E+03  0.00000000000E+00 0. -1.
         11    1    4    4    0    0 -0.27082793643E+01  0.64344572772E+02 -0.27298642565E+02  0.69948371733E+02  0.00000000000E+00 0.  1.
</event>
<event>
 8    1  0.7102339E-009  0.7437031E+02  0.7561462E-02  0.1345832E+00
          1   -1    0    0  501    0  0.00000000000E+00  0.00000000000E+00  0.65668274342E+03  0.65668274342E+03  0.00000000000E+00 0. -1.
         -1   -1    0    0    0  501 -0.00000000000E+00 -0.00000000000E+00 -0.19881961666E+02  0.19881961666E+02  0.00000000000E+00 0.  1.
         25    2    1    2    0    0 -0.29091326020E+02  0.20691128098E+02  0.34399148419E+03  0.36776822407E+03  0.12509555312E+03 0.  0.
         23    2    1    2    0    0  0.29091326020E+02 -0.20691128098E+02  0.29280929757E+03  0.30879648102E+03  0.91343056196E+02 0.  0.
          5    1    3    3  502    0 -0.32416322075E+02 -0.62890924695E-01  0.34477773087E+03  0.34632351638E+03  0.41800000000E+01 0. -1.
         -5    1    3    3    0  502  0.33249960543E+01  0.20754019022E+02 -0.78624667887E+00  0.21444707696E+02  0.41800000000E+01 0. -1.
        -11    1    4    4    0    0 -0.29641062812E+02 -0.20238632346E+02  0.74050464794E+02  0.82290134160E+02  0.00000000000E+00 0.  1.
         11    1    4    4    0    0  0.58732388832E+02 -0.45249575177E+00  0.21875883277E+03  0.22650634686E+03  0.00000000000E+00 0. -1.
</event>
<event>
 8    1  0.7102339E-009  0.1555330E+03  0.7561462E-02  0.1193834E+00
         -2   -1    0    0    0  501 -0.00000000000E+00  0.00000000000E+00  0.47387596454E+02  0.47387596454E+02  0.00000000000E+00 0.  1.
          2   -1    0    0  501    0  0.00000000000E+00 -0.00000000000E+00 -0.70541258245E+03  0.70541258245E+03  0.00000000000E+00 0. -1.
         25    2    1    2    0    0  0.55034973086E+02 -0.11312041850E+03 -0.19154764858E+03  0.26107777111E+03  0.12508406592E+03 0.  0.
         23    2    1    2    0    0 -0.55034973086E+02  0.11312041850E+03 -0.46647733741E+03  0.49172240779E+03  0.91458967102E+02 0.  0.
          5    1    3    3  502    0 -0.39545585791E+02 -0.47096519522E+02 -0.74493978668E+02  0.96688989882E+02  0.41800000000E+01 0. -1.
         -5    1    3    3    0  502  0.94580558877E+02 -0.66023898974E+02 -0.11705366992E+03  0.16438878123E+03  0.41800000000E+01 0. -1.
        -11    1    4    4    0    0 -0.39596904872E+02  0.11168962129E+03 -0.45982908518E+03  0.47485289717E+03  0.00000000000E+00 0. -1.
         11    1    4    4    0    0 -0.15438068213E+02  0.14307972032E+01 -0.66482522383E+01  0.16869510622E+02  0.00000000000E+00 0.  1.
</event>
<event>
 8    1  0.7102339E-009  0.1485771E+03  0.7561462E-02  0.1202232E+00
         -1   -1    0    0    0  501 -0.00000000000E+00  0.00000000000E+00  0.11649341612E+03  0.11649341612E+03  0.00000000000E+00 0.  1.
          1   -1    0    0  501    0  0.00000000000E+00 -0.00000000000E+00 -0.21235426007E+03  0.21235426007E+03  0.00000000000E+00 0. -1.
         25    2    1    2    0    0  0.19521728644E+02  0.11094712800E+03 -0.37164757580E+02  0.17239235554E+03  0.12509013527E+03 0.  0.
         23    2    1    2    0    0 -0.19521728644E+02 -0.11094712800E+03 -0.58696086367E+02  0.15645532065E+03  0.91338237900E+02 0.  0.
          5    1    3    3  502    0 -0.46818971320E+02  0.42526379646E+02  0.12858256538E+02  0.64678560609E+02  0.41800000000E+01 0.  1.
         -5    1    3    3    0  502  0.66340699963E+02  0.68420748358E+02 -0.50023014119E+02  0.10771379493E+03  0.41800000000E+01 0.  1.
        -11    1    4    4    0    0  0.82712195413E+01  0.10737987979E+02 -0.22890515248E+02  0.26602502643E+02  0.00000000000E+00 0. -1.
         11    1    4    4    0    0 -0.27792948185E+02 -0.12168511598E+03 -0.35805571119E+02  0.12985281800E+03  0.00000000000E+00 0.  1.
</event>
<event>
 8    1  0.7102339E-009  0.1306367E+03  0.7561462E-02  0.1226514E+00
         -2   -1    0    0    0  501 -0.00000000000E+00  0.00000000000E+00  0.58805749538E+02  0.58805749538E+02  0.00000000000E+00 0. -1.
          2   -1    0    0  501    0  0.00000000000E+00 -0.00000000000E+00 -0.12203054631E+04  0.12203054631E+04  0.00000000000E+00 0.  1.
         25    2    1    2    0    0  0.42124214178E+02  0.10916759837E+03 -0.11071838724E+04  0.11203549815E+04  0.12508854207E+03 0.  0.
         23    2    1    2    0    0 -0.42124214178E+02 -0.10916759837E+03 -0.54315841123E+02  0.15875623108E+03  0.92527381657E+02 0.  0.
          5    1    3    3  502    0  0.64328440613E+01  0.86565482142E+02 -0.30748396729E+03  0.31952907023E+03  0.41800000000E+01 0.  1.
         -5    1    3    3    0  502  0.35691370117E+02  0.22602116228E+02 -0.79969990513E+03  0.80082591131E+03  0.41800000000E+01 0.  1.
        -11    1    4    4    0    0  0.46644345912E+01 -0.72028732580E+02 -0.66094708483E+02  0.97869330010E+02  0.00000000000E+00 0.  1.
         11    1    4    4    0    0 -0.46788648769E+02 -0.37138865790E+02  0.11778867360E+02  0.60886901072E+02  0.00000000000E+00 0. -1.
</event>
<event>
 8    1  0.7102339E-009  0.2486828E+03  0.7561462E-02  0.1114140E+00
          1   -1    0    0  501    0  0.00000000000E+00  0.00000000000E+00  0.10927169849E+03  0.10927169849E+03  0.00000000000E+00 0. -1.
         -1   -1    0    0    0  501 -0.00000000000E+00 -0.00000000000E+00 -0.74040971653E+03  0.74040971653E+03  0.00000000000E+00 0.  1.
         25    2    1    2    0    0  0.22161535300E+03  0.85423643786E+02 -0.49086916671E+03  0.55947415895E+03  0.12509289390E+03 0.  0.
         23    2    1    2    0    0 -0.22161535300E+03 -0.85423643786E+02 -0.14026885134E+03  0.29020725607E+03  0.90190560550E+02 0.  0.
          5    1    3    3  502    0  0.17245854395E+03  0.10960701608E+03 -0.43745948109E+03  0.48284978757E+03  0.41800000000E+01 0. -1.
         -5    1    3    3    0  502  0.49156809059E+02 -0.24183372297E+02 -0.53409685611E+02  0.76624371381E+02  0.41800000000E+01 0. -1.
        -11    1    4    4    0    0 -0.14890880503E+03 -0.65305261180E+02 -0.45047392942E+02  0.16872426311E+03  0.00000000000E+00 0. -1.
         11    1    4    4    0    0 -0.72706547977E+02 -0.20118382606E+02 -0.95221458396E+02  0.12148299295E+03  0.00000000000E+00 0.  1.
</event>
<event>
 8    1  0.7102339E-009  0.9209545E+02  0.7561462E-02  0.1297855E+00
         -2   -1    0    0    0  501 -0.00000000000E+00  0.00000000000E+00  0.38189083421E+02  0.38189083421E+02  0.00000000000E+00 0.  1.
          2   -1    0    0  501    0  0.00000000000E+00 -0.00000000000E+00 -0.38751497162E+03  0.38751497162E+03  0.00000000000E+00 0. -1.
         25    2    1    2    0    0 -0.39052047582E+02  0.18473298206E+02 -0.21098166432E+03  0.24905211100E+03  0.12508943260E+03 0.  0.
         23    2    1    2    0    0  0.39052047582E+02 -0.18473298206E+02 -0.13834422388E+03  0.17665194404E+03  0.10099732612E+03 0.  0.
          5    1    3    3  502    0  0.38370441183E+02  0.28823348175E+02 -0.46674740517E+02  0.67075181393E+02  0.41800000000E+01 0.  1.
         -5    1    3    3    0  502 -0.77422488765E+02 -0.10350049969E+02 -0.16430692380E+03  0.18197692961E+03  0.41800000000E+01 0.  1.
        -11    1    4    4    0    0  0.26450707202E+02  0.86984328851E+01  0.66245095127E+01  0.28621439035E+02  0.00000000000E+00 0.  1.
         11    1    4    4    0    0  0.12601340380E+02 -0.27171731091E+02 -0.14496873339E+03  0.14803050500E+03  0.00000000000E+00 0. -1.
</event>
<event>
 8    1  0.7102339E-009  0.1036868E+03  0.7561462E-02  0.1272729E+00
         -2   -1    0    0    0  501 -0.00000000000E+00  0.00000000000E+00  0.15333206142E+03  0.15333206142E+03  0.00000000000E+00 0. -1.
          2   -1    0    0  501    0  0.00000000000E+00 -0.00000000000E+00 -0.89797550858E+02  0.89797550858E+02  0.00000000000E+00 0.  1.
         25    2    1    2    0    0 -0.11407893323E+02  0.41963928003E+02  0.18313347827E+02  0.13369611045E+03  0.12509260552E+03 0.  0.
         23    2    1    2    0    0  0.11407893323E+02 -0.41963928003E+02  0.45221162738E+02  0.10943350183E+03  0.89663964225E+02 0.  0.
          5    1    3    3  502    0 -0.59252413632E+02  0.32603893825E+02  0.41596594782E+02  0.79508562503E+02  0.41800000000E+01 0. -1.
         -5    1    3    3    0  502  0.47844520310E+02  0.93600341783E+01 -0.23283246955E+02  0.54187547945E+02  0.41800000000E+01 0. -1.
        -11    1    4    4    0    0  0.19381195616E+02 -0.64199831849E+02  0.11161698483E+02  0.67984061853E+02  0.00000000000E+00 0.  1.
         11    1    4    4    0    0 -0.79733022935E+01  0.22235903846E+02  0.34059464255E+02  0.41449439980E+02  0.00000000000E+00 0. -1.
</event>
<event>
 8    1  0.7102339E-009  0.1248522E+03  0.7561462E-02  0.1235300E+00
         -2   -1    0    0    0  501 -0.00000000000E+00  0.00000000000E+00  0.28235606060E+03  0.28235606060E+03  0.00000000000E+00 0. -1.
          2   -1    0    0  501    0  0.00000000000E+00 -0.00000000000E+00 -0.69056377511E+02  0.69056377511E+02  0.00000000000E+00 0.  1.
         25    2    1    2    0    0  0.14875440664E+02 -0.79874871246E+02  0.73650555682E+02  0.16635147744E+03  0.12508851228E+03 0.  0.
         23    2    1    2    0    0 -0.14875440664E+02  0.79874871246E+02  0.13964912740E+03  0.18506096067E+03  0.90246366057E+02 0.  0.
          5    1    3    3  502    0 -0.41967219027E+02 -0.23683973956E+02  0.71451124793E+02  0.86283913503E+02  0.41800000000E+01 0.  1.
         -5    1    3    3    0  502  0.56842659691E+02 -0.56190897290E+02  0.21994308892E+01  0.80067563940E+02  0.41800000000E+01 0.  1.
        -11    1    4    4    0    0 -0.52945394304E+02  0.41828464928E+02  0.73336679432E+02  0.99654923643E+02  0.00000000000E+00 0.  1.
         11    1    4    4    0    0  0.38069953640E+02  0.38046406318E+02  0.66312447971E+02  0.85406037022E+02  0.00000000000E+00 0. -1.
</event>
<event>
 8    1  0.7102339E-009  0.1121434E+03  0.7561462E-02  0.1256651E+00
         -1   -1    0    0    0  501 -0.00000000000E+00  0.00000000000E+00  0.29154827619E+02  0.29154827619E+02  0.00000000000E+00 0.  1.
          1   -1    0    0  501    0  0.00000000000E+00 -0.00000000000E+00 -0.65249533969E+03  0.65249533969E+03  0.00000000000E+00 0. -1.
         25    2    1    2    0    0 -0.47073355393E+02  0.52692757560E+02 -0.37287319062E+03  0.39959342747E+03  0.12509222001E+03 0.  0.
         23    2    1    2    0    0  0.47073355393E+02 -0.52692757560E+02 -0.25046732145E+03  0.28205673984E+03  0.10876441462E+03 0.  0.
          5    1    3    3  502    0  0.18100729535E+02  0.45757105162E+02 -0.50632100015E+02  0.70727866039E+02  0.41800000000E+01 0. -1.
         -5    1    3    3    0  502 -0.65174084928E+02  0.69356523977E+01 -0.32224109061E+03  0.32886556143E+03  0.41800000000E+01 0. -1.
        -11    1    4    4    0    0  0.61016226478E+02 -0.69549421612E+01 -0.21191823359E+03  0.22063700697E+03  0.00000000000E+00 0.  1.
         11    1    4    4    0    0 -0.13942871085E+02 -0.45737815398E+02 -0.38549087859E+02  0.61419732874E+02  0.00000000000E+00 0. -1.
</event>
<event>
 8    1  0.7102339E-009  0.1139614E+03  0.7561462E-02  0.1253405E+00
          1   -1    0    0  501    0  0.00000000000E+00  0.00000000000E+00  0.40520152266E+03  0.40520152266E+03  0.00000000000E+00 0. -1.
         -1   -1    0    0    0  501 -0.00000000000E+00 -0.00000000000E+00 -0.35314399119E+02  0.35314399119E+02  0.00000000000E+00 0.  1.
         25    2    1    2    0    0  0.14013610085E+02 -0.27829158066E+02  0.14781498563E+03  0.19613162431E+03  0.12508997070E+03 0.  0.
         23    2    1    2    0    0 -0.14013610085E+02  0.27829158066E+02  0.22207213791E+03  0.24438429747E+03  0.97143229860E+02 0.  0.
          5    1    3    3  502    0 -0.46006760206E+02  0.19151286104E+02  0.78181329916E+02  0.92807254520E+02  0.41800000000E+01 0. -1.
         -5    1    3    3    0  502  0.60020370291E+02 -0.46980444170E+02  0.69633655716E+02  0.10332436979E+03  0.41800000000E+01 0. -1.
        -11    1    4    4    0    0 -0.54683456052E+02  0.26795882054E+02  0.12184044510E+03  0.13621084290E+03  0.00000000000E+00 0. -1.
         11    1    4    4    0    0  0.40669845968E+02  0.10332760112E+01  0.10023169281E+03  0.10817345458E+03  0.00000000000E+00 0.  1.
</event>
<event>
 8    1  0.7102339E-009  0.9678911E+02  0.7561462E-02  0.1287197E+00
          2   -1    0    0  501    0  0.00000000000E+00  0.00000000000E+00  0.94858026626E+02  0.94858026626E+02  0.00000000000E+00 0. -1.
         -2   -1    0    0    0  501 -0.00000000000E+00 -0.00000000000E+00 -0.12672116755E+03  0.12672116755E+03  0.00000000000E+00 0.  1.
         25    2    1    2    0    0 -0.20692576615E+02  0.12223158441E+02 -0.19258351254E+02  0.12880588504E+03  0.12506991484E+03 0.  0.
         23    2    1    2    0    0  0.20692576615E+02 -0.12223158441E+02 -0.12604789670E+02  0.92773309140E+02  0.88715375426E+02 0.  0.
          5    1    3    3  502    0 -0.15254166386E+02 -0.48875036091E+02  0.20803850884E+02  0.55423202331E+02  0.41800000000E+01 0.  1.
         -5    1    3    3    0  502 -0.54384102295E+01  0.61098194531E+02 -0.40062202138E+02  0.73382682705E+02  0.41800000000E+01 0.  1.
        -11    1    4    4    0    0 -0.12243442221E+02 -0.37346040570E+02 -0.28348030873E+02  0.48458636775E+02  0.00000000000E+00 0.  1.
         11    1    4    4    0    0  0.32936018836E+02  0.25122882130E+02  0.15743241203E+02  0.44314672365E+02  0.00000000000E+00 0. -1.
</event>
<event>
 8    1  0.7102339E-009  0.1077855E+03  0.7561462E-02  0.1264727E+00
         -2   -1    0    0    0  501 -0.00000000000E+00  0.00000000000E+00  0.25641131004E+02  0.25641131004E+02  0.00000000000E+00 0. -1.
          2   -1    0    0  501    0  0.00000000000E+00 -0.00000000000E+00 -0.68685387018E+03  0.68685387018E+03  0.00000000000E+00 0.  1.
         25    2    1    2    0    0  0.65823594260E+02  0.30729270662E+02 -0.45498954128E+03  0.47743062917E+03  0.12508992510E+03 0.  0.
         23    2    1    2    0    0 -0.65823594260E+02 -0.30729270662E+02 -0.20622319790E+03  0.23506437201E+03  0.86314645348E+02 0.  0.
          5    1    3    3  502    0  0.86324217636E+02  0.34958642410E+02 -0.44349296907E+03  0.45318590363E+03  0.41800000000E+01 0.  1.
         -5    1    3    3    0  502 -0.20500623375E+02 -0.42293717483E+01 -0.11496572201E+02  0.24244725541E+02  0.41800000000E+01 0.  1.
        -11    1    4    4    0    0  0.92284241614E+00  0.18209020509E+02 -0.73531621224E+01  0.19659324994E+02  0.00000000000E+00 0. -1.
         11    1    4    4    0    0 -0.66746436677E+02 -0.48938291171E+02 -0.19887003577E+03  0.21540504702E+03  0.00000000000E+00 0.  1.
</event>
<event>
 8    1  0.7102339E-009  0.1384148E+03  0.7561462E-02  0.1215478E+00
          1   -1    0    0  501    0  0.00000000000E+00  0.00000000000E+00  0.22216533979E+02  0.22216533979E+02  0.00000000000E+00 0. -1.
         -1   -1    0    0    0  501 -0.00000000000E+00 -0.00000000000E+00 -0.86992061032E+03  0.86992061032E+03  0.00000000000E+00 0.  1.
         25    2    1    2    0    0 -0.89258150186E+02  0.14823244914E+02 -0.50847350275E+03  0.53139437645E+03  0.12509170377E+03 0.  0.
         23    2    1    2    0    0  0.89258150186E+02 -0.14823244914E+02 -0.33923057359E+03  0.36074276785E+03  0.82892801478E+02 0.  0.
          5    1    3    3  502    0  0.31898493198E+02 -0.49848902642E+00 -0.10918395196E+03  0.11382605205E+03  0.41800000000E+01 0. -1.
         -5    1    3    3    0  502 -0.12115664338E+03  0.15321733941E+02 -0.39928955079E+03  0.41756832440E+03  0.41800000000E+01 0. -1.
        -11    1    4    4    0    0 -0.16113720267E+02 -0.34365088086E+01 -0.38280378120E+02  0.41675519465E+02  0.00000000000E+00 0.  1.
         11    1    4    4    0    0  0.10537187045E+03 -0.11386736106E+02 -0.30095019547E+03  0.31906724839E+03  0.00000000000E+00 0. -1.
</event>
<event>
 8    1  0.7102339E-009  0.7109498E+02  0.7561462E-02  0.1356409E+00
         -2   -1    0    0    0  501 -0.00000000000E+00  0.00000000000E+00  0.13801758364E+03  0.13801758364E+03  0.00000000000E+00 0.  1.
          2   -1    0    0  501    0  0.00000000000E+00 -0.00000000000E+00 -0.91368305075E+02  0.91368305075E+02  0.00000000000E+00 0. -1.
         25    2    1    2    0    0 -0.24757626038E+01  0.16437983498E+02  0.66840106215E+02  0.14281186186E+03  0.12510512134E+03 0.  0.
         23    2    1    2    0    0  0.24757626038E+01 -0.16437983498E+02 -0.20190827652E+02  0.86574026857E+02  0.82529121545E+02 0.  0.
          5    1    3    3  502    0 -0.33068322218E+02  0.36543699183E+02  0.87541949305E+02  0.10054860105E+03  0.41800000000E+01 0.  1.
         -5    1    3    3    0  502  0.30592559614E+02 -0.20105715685E+02 -0.20701843090E+02  0.42263260810E+02  0.41800000000E+01 0.  1.
        -11    1    4    4    0    0 -0.14170731541E+02  0.14797455173E+02 -0.40772352638E+02  0.45630681035E+02  0.00000000000E+00 0. -1.
         11    1    4    4    0    0  0.16646494145E+02 -0.31235438672E+02  0.20581524986E+02  0.40943345822E+02  0.00000000000E+00 0.  1.
</event>
<event>
 8    1  0.7102339E-009  0.2006817E+03  0.7561462E-02  0.1149165E+00
         -4   -1    0    0    0  501 -0.00000000000E+00  0.00000000000E+00  0.72441381090E+03  0.72441381090E+03  0.00000000000E+00 0. -1.
          4   -1    0    0  501    0  0.00000000000E+00 -0.00000000000E+00 -0.70971679534E+02  0.70971679534E+02  0.00000000000E+00 0.  1.
         25    2    1    2    0    0  0.13277959256E+03 -0.12992104103E+03  0.22732962226E+03  0.31912080585E+03  0.12509769968E+03 0.  0.
         23    2    1    2    0    0 -0.13277959256E+03  0.12992104103E+03  0.42611250910E+03  0.47626468459E+03  0.10366427672E+03 0.  0.
          5    1    3    3  502    0  0.11337480707E+03 -0.14919583766E+03  0.22268417930E+03  0.29106521772E+03  0.41800000000E+01 0.  1.
         -5    1    3    3    0  502  0.19404785491E+02  0.19274796631E+02  0.46454429629E+01  0.28055588132E+02  0.41800000000E+01 0.  1.
        -11    1    4    4    0    0 -0.98098219518E+02  0.87335288085E+02  0.38743143122E+03  0.40908902102E+03  0.00000000000E+00 0. -1.
         11    1    4    4    0    0 -0.34681373040E+02  0.42585752946E+02  0.38681077878E+02  0.67175663567E+02  0.00000000000E+00 0.  1.
</event>
<event>
 8    1  0.7102339E-009  0.1454517E+03  0.7561462E-02  0.1206176E+00
          2   -1    0    0  501    0  0.00000000000E+00  0.00000000000E+00  0.13913769122E+03  0.13913769122E+03  0.00000000000E+00 0.  1.
         -2   -1    0    0    0  501 -0.00000000000E+00 -0.00000000000E+00 -0.22322878174E+03  0.22322878174E+03  0.00000000000E+00 0. -1.
         25    2    1    2    0    0 -0.54470608515E+02  0.10051776784E+03  0.32574534368E+02  0.17256502369E+03  0.12508684291E+03 0.  0.
         23    2    1    2    0    0  0.54470608515E+02 -0.10051776784E+03 -0.11666562489E+03  0.18980144927E+03  0.96658436104E+02 0.  0.
          5    1    3    3  502    0 -0.11072965195E+02  0.12079494608E+03  0.22672714709E+02  0.12347288750E+03  0.41800000000E+01 0.  1.
         -5    1    3    3    0  502 -0.43397643320E+02 -0.20277178238E+02  0.99018196589E+01  0.49092136189E+02  0.41800000000E+01 0.  1.
        -11    1    4    4    0    0  0.51349780016E+02 -0.52889313327E+02 -0.11893745320E+02  0.74669542316E+02  0.00000000000E+00 0.  1.
         11    1    4    4    0    0  0.31208284991E+01 -0.47628454510E+02 -0.10477187957E+03  0.11513190695E+03  0.00000000000E+00 0. -1.
</event>
<event>
 8    1  0.7102339E-009  0.9924546E+02  0.7561462E-02  0.1281891E+00
          2   -1    0    0  501    0  0.00000000000E+00  0.00000000000E+00  0.50844356408E+02  0.50844356408E+02  0.00000000000E+00 0.  1.
         -2   -1    0    0    0  501 -0.00000000000E+00 -0.00000000000E+00 -0.40347407903E+03  0.40347407903E+03  0.00000000000E+00 0. -1.
         25    2    1    2    0    0  0.11492188416E+02  0.33755661686E+02 -0.29452968441E+03  0.32197343455E+03  0.12509053707E+03 0.  0.
         23    2    1    2    0    0 -0.11492188416E+02 -0.33755661686E+02 -0.58100038213E+02  0.13234500089E+03  0.11343751465E+03 0.  0.
          5    1    3    3  502    0  0.58638277431E+02 -0.74398824622E+01 -0.19935768626E+03  0.20797778464E+03  0.41800000000E+01 0.  1.
         -5    1    3    3    0  502 -0.47146089015E+02  0.41195544148E+02 -0.95171998153E+02  0.11399564991E+03  0.41800000000E+01 0.  1.
        -11    1    4    4    0    0 -0.25488893571E+02  0.12335923722E+02 -0.75885362093E+02  0.80996585666E+02  0.00000000000E+00 0. -1.
         11    1    4    4    0    0  0.13996705155E+02 -0.46091585408E+02  0.17785323880E+02  0.51348415225E+02  0.00000000000E+00 0.  1.
</event>
<event>
 8    1  0.7102339E-009  0.1032644E+03  0.7561462E-02  0.1273577E+00
          1   -1    0    0  501    0  0.00000000000E+00  0.00000000000E+00  0.13984972073E+03  0.13984972073E+03  0.00000000000E+00 0. -1.
         -1   -1    0    0    0  501 -0.00000000000E+00 -0.00000000000E+00 -0.11162099189E+03  0.11162099189E+03  0.00000000000E+00 0.  1.
         25    2    1    2    0    0 -0.37927206000E+02 -0.11929825859E+02  0.61837392552E+02  0.14509517802E+03  0.12509178178E+03 0.  0.
         23    2    1    2    0    0  0.37927206000E+02  0.11929825859E+02 -0.33608663707E+02  0.10637553459E+03  0.92765394324E+02 0.  0.
          5    1    3    3  502    0 -0.14597722068E+02  0.43174836313E+02  0.70940715183E+02  0.84422849104E+02  0.41800000000E+01 0.  1.
         -5    1    3    3    0  502 -0.23329483932E+02 -0.55104662172E+02 -0.91033226310E+01  0.60672328920E+02  0.41800000000E+01 0.  1.
        -11    1    4    4    0    0 -0.21638158680E+02  0.31378678526E+02 -0.99063094988E+01  0.39382310052E+02  0.00000000000E+00 0.  1.
         11    1    4    4    0    0  0.59565364681E+02 -0.19448852667E+02 -0.23702354208E+02  0.66993224543E+02  0.00000000000E+00 0. -1.
</event>
<event>
 8    1  0.7102339E-009  0.1671030E+03  0.7561462E-02  0.1180903E+00
         -1   -1    0    0    0  501 -0.00000000000E+00  0.00000000000E+00  0.44019624044E+02  0.44019624044E+02  0.00000000000E+00 0.  1.
          1   -1    0    0  501    0  0.00000000000E+00 -0.00000000000E+00 -0.65586942841E+03  0.65586942841E+03  0.00000000000E+00 0. -1.
         25    2    1    2    0    0  0.12959787658E+03  0.79602535877E+01 -0.34635088003E+03  0.39046822684E+03  0.12509008284E+03 0.  0.
         23    2    1    2    0    0 -0.12959787658E+03 -0.79602535877E+01 -0.26549892434E+03  0.30942082561E+03  0.91611097824E+02 0.  0.
          5    1    3    3  502    0  0.15314243706E+02  0.50827185609E+02 -0.66969704208E+02  0.85559000338E+02  0.41800000000E+01 0.  1.
         -5    1    3    3    0  502  0.11428363288E+03 -0.42866932021E+02 -0.27938117582E+03  0.30490922650E+03  0.41800000000E+01 0.  1.
        -11    1    4    4    0    0 -0.13338699624E+03 -0.29788348445E+02 -0.22496203673E+03  0.26322491227E+03  0.00000000000E+00 0.  1.
         11    1    4    4    0    0  0.37891196510E+01  0.21828094857E+02 -0.40536887603E+02  0.46195913341E+02  0.00000000000E+00 0. -1.
</event>
<event>
 8    1  0.7102339E-009  0.1447649E+03  0.7561462E-02  0.1207058E+00
          1   -1    0    0  501    0  0.00000000000E+00  0.00000000000E+00  0.27921355930E+03  0.27921355930E+03  0.00000000000E+00 0. -1.
         -1   -1    0    0    0  501 -0.00000000000E+00 -0.00000000000E+00 -0.14926487929E+03  0.14926487929E+03  0.00000000000E+00 0.  1.
         25    2    1    2    0    0  0.47604577693E+02 -0.10919278829E+03 -0.62686074409E+02  0.18376437218E+03  0.12510211719E+03 0.  0.
         23    2    1    2    0    0 -0.47604577693E+02  0.10919278829E+03  0.19263475442E+03  0.24471406641E+03  0.92669114898E+02 0.  0.
          5    1    3    3  502    0 -0.35438394809E+02 -0.38354649961E+02 -0.52323666497E+02  0.74041862996E+02  0.41800000000E+01 0.  1.
         -5    1    3    3    0  502  0.83042972502E+02 -0.70838138324E+02 -0.10362407912E+02  0.10972250918E+03  0.41800000000E+01 0.  1.
        -11    1    4    4    0    0 -0.56340412673E+02  0.83136630496E+02  0.19262399497E+03  0.21723246734E+03  0.00000000000E+00 0. -1.
         11    1    4    4    0    0  0.87358349798E+01  0.26056157790E+02  0.10759456542E-01  0.27481599068E+02  0.00000000000E+00 0.  1.
</event>
<event>
 8    1  0.7102339E-009  0.2563315E+03  0.7561462E-02  0.1109368E+00
         -1   -1    0    0    0  501 -0.00000000000E+00  0.00000000000E+00  0.11328212935E+03  0.11328212935E+03  0.00000000000E+00 0.  1.
          1   -1    0    0  501    0  0.00000000000E+00 -0.00000000000E+00 -0.59477218616E+03  0.59477218616E+03  0.00000000000E+00 0. -1.
         25    2    1    2    0    0  0.23292014964E+03 -0.23059074736E+01 -0.20091589987E+03  0.33207139322E+03  0.12508836101E+03 0.  0.
         23    2    1    2    0    0 -0.23292014964E+03  0.23059074736E+01 -0.28057415695E+03  0.37598292228E+03  0.91565206181E+02 0.  0.
          5    1    3    3  502    0  0.22629091339E+03 -0.36551131810E+02 -0.17382984615E+03  0.28771140146E+03  0.41800000000E+01 0.  1.
         -5    1    3    3    0  502  0.66292362500E+01  0.34245224337E+02 -0.27086053713E+02  0.44359991759E+02  0.41800000000E+01 0.  1.
        -11    1    4    4    0    0 -0.35087342325E+02 -0.31996668200E+02 -0.36247528288E+02  0.59739364528E+02  0.00000000000E+00 0.  1.
         11    1    4    4    0    0 -0.19783280731E+03  0.34302575673E+02 -0.24432662866E+03  0.31624355775E+03  0.00000000000E+00 0. -1.
</event>
<event>
 8    1  0.7102339E-009  0.1370137E+03  0.7561462E-02  0.1217405E+00
          2   -1    0    0  501    0  0.00000000000E+00  0.00000000000E+00  0.38334599751E+03  0.38334599751E+03  0.00000000000E+00 0. -1.
         -2   -1    0    0    0  501 -0.00000000000E+00 -0.00000000000E+00 -0.66435509140E+02  0.66435509140E+02  0.00000000000E+00 0.  1.
         25    2    1    2    0    0  0.67337010835E+02 -0.60185256368E+02  0.27295648229E+03  0.31354322929E+03  0.12509027658E+03 0.  0.
         23    2    1    2    0    0 -0.67337010835E+02  0.60185256368E+02  0.43954006073E+02  0.13623827736E+03  0.92045507525E+02 0.  0.
          5    1    3    3  502    0 -0.17165154508E+02 -0.65124387818E+02  0.96043179108E+02  0.11737799228E+03  0.41800000000E+01 0. -1.
         -5    1    3    3    0  502  0.84502165344E+02  0.49391314501E+01  0.17691330319E+03  0.19616523701E+03  0.41800000000E+01 0. -1.
        -11    1    4    4    0    0 -0.38381545788E+01  0.58141493909E+02 -0.12242056479E+01  0.58280901023E+02  0.00000000000E+00 0.  1.
         11    1    4    4    0    0 -0.63498856257E+02  0.20437624587E+01  0.45178211721E+02  0.77957376336E+02  0.00000000000E+00 0. -1.
</event>
<event>
 8    1  0.7102339E-009  0.9474402E+02  0.7561462E-02  0.1291754E+00
          2   -1    0    0  501    0  0.00000000000E+00  0.00000000000E+00  0.22476085818E+03  0.22476085818E+03  0.00000000000E+00 0. -1.
         -2   -1    0    0    0  501 -0.00000000000E+00 -0.00000000000E+00 -0.66863428244E+02  0.66863428244E+02  0.00000000000E+00 0.  1.
         25    2    1    2    0    0 -0.78765197636E+01 -0.45220292564E+02  0.13207174852E+03  0.18760911796E+03  0.12508924799E+03 0.  0.
         23    2    1    2    0    0  0.78765197636E+01  0.45220292564E+02  0.25825681413E+02  0.10401516846E+03  0.89695457108E+02 0.  0.
          5    1    3    3  502    0  0.57290958387E+02 -0.34470955649E+02  0.69531364498E+02  0.96553527876E+02  0.41800000000E+01 0. -1.
         -5    1    3    3    0  502 -0.65167478151E+02 -0.10749336915E+02  0.62540384023E+02  0.91055590089E+02  0.41800000000E+01 0. -1.
        -11    1    4    4    0    0  0.14310901931E+02  0.43724366070E+01  0.52643413169E+02  0.54728868671E+02  0.00000000000E+00 0. -1.
         11    1    4    4    0    0 -0.64343821672E+01  0.40847855957E+02 -0.26817731756E+02  0.49286299787E+02  0.00000000000E+00 0.  1.
</event>
<event>
 8    1  0.7102339E-009  0.1144711E+03  0.7561462E-02  0.1252507E+00
          2   -1    0    0  501    0  0.00000000000E+00  0.00000000000E+00  0.20406852929E+03  0.20406852929E+03  0.00000000000E+00 0. -1.
         -2   -1    0    0    0  501 -0.00000000000E+00 -0.00000000000E+00 -0.16898734841E+03  0.16898734841E+03  0.00000000000E+00 0.  1.
         25    2    1    2    0    0  0.72823876432E+02  0.54376987213E+02 -0.10172421297E+03  0.18508409788E+03  0.12509250204E+03 0.  0.
         23    2    1    2    0    0 -0.72823876432E+02 -0.54376987213E+02  0.13680539385E+03  0.18797177981E+03  0.91419366124E+02 0.  0.
          5    1    3    3  502    0  0.61710096684E+02 -0.13805518444E+02 -0.16316825982E+01  0.63394504181E+02  0.41800000000E+01 0.  1.
         -5    1    3    3    0  502  0.11113779748E+02  0.68182505657E+02 -0.10009253037E+03  0.12168959370E+03  0.41800000000E+01 0.  1.
        -11    1    4    4    0    0 -0.38298827036E+02 -0.90002151774E+01 -0.44975190809E+00  0.39344711237E+02  0.00000000000E+00 0.  1.
         11    1    4    4    0    0 -0.34525049396E+02 -0.45376772035E+02  0.13725514576E+03  0.14862706857E+03  0.00000000000E+00 0. -1.
</event>
<event>
 7    1  0.7102339E-009  0.1147258E+03  0.7561462E-02  0.1252060E+00
          1   -1    0    0  501    0  0.00000000000E+00  0.00000000000E+00  0.16894508240E+03  0.16894508240E+03  0.00000000000E+00 0. -1.
         -1   -1    0    0    0  501 -0.00000000000E+00 -0.00000000000E+00 -0.10384369047E+03  0.10384369047E+03  0.00000000000E+00 0.  1.
         23    2    1    2    0    0 -0.44821979595E+02  0.31741745766E+02 -0.24063574377E+02  0.10958464689E+03  0.91723448165E+02 0.  0.
          5    1    1    2  502    0  0.88017321000E+02 -0.14893725784E+02  0.66705478770E+02  0.11151665867E+03  0.41800000000E+01 0. -1.
         -5    1    1    2    0  502 -0.43195341405E+02 -0.16848019982E+02  0.22459487531E+02  0.51687467307E+02  0.41800000000E+01 0. -1.
        -11    1    3    3    0    0  0.18527453534E+02  0.23075493572E+02 -0.33782176669E+02  0.44910804920E+02  0.00000000000E+00 0.  1.
         11    1    3    3    0    0 -0.63349433129E+02  0.86662521942E+01  0.97186022921E+01  0.64673841971E+02  0.00000000000E+00 0. -1.
</event>
<event>
 8    1  0.7102339E-009  0.1014334E+03  0.7561462E-02  0.1277310E+00
          1   -1    0    0  501    0  0.00000000000E+00  0.00000000000E+00  0.29777370663E+03  0.29777370663E+03  0.00000000000E+00 0. -1.
         -1   -1    0    0    0  501 -0.00000000000E+00 -0.00000000000E+00 -0.67890937843E+02  0.67890937843E+02  0.00000000000E+00 0.  1.
         25    2    1    2    0    0 -0.64623413163E+02  0.44924051886E+02  0.18294909569E+03  0.23518530581E+03  0.12508956985E+03 0.  0.
         23    2    1    2    0    0  0.64623413163E+02 -0.44924051886E+02  0.46933673099E+02  0.13047933867E+03  0.92885586516E+02 0.  0.
          5    1    3    3  502    0 -0.21621118653E+02  0.26161171746E+02  0.18490599758E+03  0.18804143166E+03  0.41800000000E+01 0. -1.
         -5    1    3    3    0  502 -0.43002294511E+02  0.18762880141E+02 -0.19569018932E+01  0.47143874145E+02  0.41800000000E+01 0. -1.
        -11    1    4    4    0    0  0.73475616654E+02 -0.65963852248E+02  0.40837221047E+02  0.10685305175E+03  0.00000000000E+00 0. -1.
         11    1    4    4    0    0 -0.88522034902E+01  0.21039800361E+02  0.60964520515E+01  0.23626286917E+02  0.00000000000E+00 0.  1.
</event>
<event>
 8    1  0.7102339E-009  0.3730190E+03  0.7561462E-02  0.1053545E+00
         -1   -1    0    0    0  501 -0.00000000000E+00  0.00000000000E+00  0.23016960093E+03  0.23016960093E+03  0.00000000000E+00 0.  1.
          1   -1    0    0  501    0  0.00000000000E+00 -0.00000000000E+00 -0.64557536973E+03  0.64557536973E+03  0.00000000000E+00 0. -1.
         25    2    1    2    0    0  0.35752165749E+03  0.23676893903E+02 -0.10711523741E+03  0.39433931765E+03  0.12508993757E+03 0.  0.
         23    2    1    2    0    0 -0.35752165749E+03 -0.23676893903E+02 -0.30829053139E+03  0.48140565300E+03  0.91247027999E+02 0.  0.
          5    1    3    3  502    0  0.35916100504E+03  0.38324910486E+02 -0.91865405742E+02  0.37272262003E+03  0.41800000000E+01 0. -1.
         -5    1    3    3    0  502 -0.16393475544E+01 -0.14648016583E+02 -0.15249831672E+02  0.21616697626E+02  0.41800000000E+01 0. -1.
        -11    1    4    4    0    0 -0.11117935619E+03 -0.49695514125E+02 -0.93393781202E+02  0.15346951402E+03  0.00000000000E+00 0.  1.
         11    1    4    4    0    0 -0.24634230130E+03  0.26018620222E+02 -0.21489675019E+03  0.32793613898E+03  0.00000000000E+00 0. -1.
</event>
<event>
 8    1  0.7102339E-009  0.1690115E+03  0.7561462E-02  0.1178883E+00
          1   -1    0    0  501    0  0.00000000000E+00  0.00000000000E+00  0.97783453809E+03  0.97783453809E+03  0.00000000000E+00 0. -1.
         -1   -1    0    0    0  501 -0.00000000000E+00 -0.00000000000E+00 -0.46177045785E+02  0.46177045785E+02  0.00000000000E+00 0.  1.
         25    2    1    2    0    0 -0.11488011893E+03  0.10529086415E+03  0.71514113501E+03  0.74253489236E+03  0.12509042963E+03 0.  0.
         23    2    1    2    0    0  0.11488011893E+03 -0.10529086415E+03  0.21651635729E+03  0.28147669152E+03  0.89811954062E+02 0.  0.
          5    1    3    3  502    0 -0.87113018518E+02  0.57272876936E+02  0.21154835278E+03  0.23587928776E+03  0.41800000000E+01 0. -1.
         -5    1    3    3    0  502 -0.27767100410E+02  0.48017987218E+02  0.50359278223E+03  0.50665560460E+03  0.41800000000E+01 0. -1.
        -11    1    4    4    0    0 -0.13596677390E+02 -0.18724634421E+02  0.43254202591E+02  0.49055148680E+02  0.00000000000E+00 0. -1.
         11    1    4    4    0    0  0.12847679632E+03 -0.86566229732E+02  0.17326215470E+03  0.23242154284E+03  0.00000000000E+00 0.  1.
</event>
<event>
 8    1  0.7102339E-009  0.8326682E+02  0.7561462E-02  0.1320028E+00
          1   -1    0    0  501    0  0.00000000000E+00  0.00000000000E+00  0.14456605573E+04  0.14456605573E+04  0.00000000000E+00 0. -1.
         -1   -1    0    0    0  501 -0.00000000000E+00 -0.00000000000E+00 -0.99069216912E+01  0.99069216912E+01  0.00000000000E+00 0.  1.
         25    2    1    2    0    0 -0.63146141600E+01 -0.15251685629E+02  0.10926319627E+04  0.10998923008E+04  0.12508388910E+03 0.  0.
         23    2    1    2    0    0  0.63146141600E+01  0.15251685629E+02  0.34312167289E+03  0.35567517811E+03  0.92194694270E+02 0.  0.
          5    1    3    3  502    0 -0.11559003555E+02  0.29027439334E+02  0.94712491159E+03  0.94764934093E+03  0.41800000000E+01 0.  1.
         -5    1    3    3    0  502  0.52443893953E+01 -0.44279124963E+02  0.14550705109E+03  0.15224295992E+03  0.41800000000E+01 0.  1.
        -11    1    4    4    0    0  0.46293185892E+02 -0.27660415404E+01  0.12832000196E+03  0.13644314915E+03  0.00000000000E+00 0.  1.
         11    1    4    4    0    0 -0.39978571732E+02  0.18017727169E+02  0.21480167093E+03  0.21923202896E+03  0.00000000000E+00 0. -1.
</event>
<event>
 8    1  0.7102339E-009  0.1141448E+03  0.7561462E-02  0.1253081E+00
         -1   -1    0    0    0  501 -0.00000000000E+00  0.00000000000E+00  0.22478787773E+02  0.22478787773E+02  0.00000000000E+00 0.  1.
          1   -1    0    0  501    0  0.00000000000E+00 -0.00000000000E+00 -0.76591368999E+03  0.76591368999E+03  0.00000000000E+00 0. -1.
         25    2    1    2    0    0  0.66964885509E+02 -0.16825346223E+02 -0.33706098139E+03  0.36609302221E+03  0.12508640043E+03 0.  0.
         23    2    1    2    0    0 -0.66964885509E+02  0.16825346223E+02 -0.40637392083E+03  0.42229945555E+03  0.91813280423E+02 0.  0.
          5    1    3    3  502    0 -0.94925565696E+01 -0.38855154920E+02 -0.22516207034E+03  0.22872529815E+03  0.41800000000E+01 0.  1.
         -5    1    3    3    0  502  0.76457442078E+02  0.22029808697E+02 -0.11189891105E+03  0.13736772406E+03  0.41800000000E+01 0.  1.
        -11    1    4    4    0    0 -0.34429520590E+02  0.50792000012E+02 -0.15771743045E+03  0.16923358716E+03  0.00000000000E+00 0.  1.
         11    1    4    4    0    0 -0.32535364919E+02 -0.33966653789E+02 -0.24865649037E+03  0.25306586839E+03  0.00000000000E+00 0. -1.
</event>
<event>
 8    1  0.7102339E-009  0.1615766E+03  0.7561462E-02  0.1186928E+00
          2   -1    0    0  501    0  0.00000000000E+00  0.00000000000E+00  0.16624186774E+03  0.16624186774E+03  0.00000000000E+00 0. -1.
         -2   -1    0    0    0  501 -0.00000000000E+00 -0.00000000000E+00 -0.21240547263E+03  0.21240547263E+03  0.00000000000E+00 0.  1.
         25    2    1    2    0    0 -0.14352884814E+03 -0.32788501042E+02  0.19222912293E+02  0.19414564489E+03  0.12508954803E+03 0.  0.
         23    2    1    2    0    0  0.14352884814E+03  0.32788501042E+02 -0.65386517174E+02  0.18450169548E+03  0.89943665467E+02 0.  0.
          5    1    3    3  502    0 -0.14932252191E+03 -0.17101120925E+02 -0.19637545395E+02  0.15163366867E+03  0.41800000000E+01 0. -1.
         -5    1    3    3    0  502  0.57936737668E+01 -0.15687380117E+02  0.38860457688E+02  0.42511976223E+02  0.41800000000E+01 0. -1.
        -11    1    4    4    0    0  0.10938503304E+03  0.17245491183E+01 -0.80616750815E+02  0.13589378218E+03  0.00000000000E+00 0.  1.
         11    1    4    4    0    0  0.34143815103E+02  0.31063951924E+02  0.15230233641E+02  0.48607913303E+02  0.00000000000E+00 0. -1.
</event>
<event>
 8    1  0.7102339E-009  0.9846674E+02  0.7561462E-02  0.1283554E+00
          1   -1    0    0  501    0  0.00000000000E+00  0.00000000000E+00  0.51958568950E+02  0.51958568950E+02  0.00000000000E+00 0. -1.
         -1   -1    0    0    0  501 -0.00000000000E+00 -0.00000000000E+00 -0.29688992282E+03  0.29688992282E+03  0.00000000000E+00 0.  1.
         25    2    1    2    0    0  0.24328857431E+02 -0.45277343481E+02 -0.17929387280E+03  0.22457818249E+03  0.12508851303E+03 0.  0.
         23    2    1    2    0    0 -0.24328857431E+02  0.45277343481E+02 -0.65637481077E+02  0.12427030928E+03  0.92156929802E+02 0.  0.
          5    1    3    3  502    0 -0.34009405355E+02 -0.52635996069E+02 -0.43095588219E+02  0.76170137579E+02  0.41800000000E+01 0.  1.
         -5    1    3    3    0  502  0.58338262786E+02  0.73586525887E+01 -0.13619828458E+03  0.14840804491E+03  0.41800000000E+01 0.  1.
        -11    1    4    4    0    0 -0.29889120193E+02  0.55786289386E+02 -0.82287651709E+02  0.10381101682E+03  0.00000000000E+00 0. -1.
         11    1    4    4    0    0  0.55602627622E+01 -0.10508945905E+02  0.16650170632E+02  0.20459292463E+02  0.00000000000E+00 0.  1.
</event>
<event>
 7    1  0.7102339E-009  0.1603294E+03  0.7561462E-02  0.1188325E+00
         -2   -1    0    0    0  501 -0.00000000000E+00  0.00000000000E+00  0.68871935882E+02  0.68871935882E+02  0.00000000000E+00 0.  1.
          2   -1    0    0  501    0  0.00000000000E+00 -0.00000000000E+00 -0.50525316728E+03  0.50525316728E+03  0.00000000000E+00 0. -1.
         23    2    1    2    0    0  0.70904301521E+02  0.12732546769E+03 -0.26956948093E+03  0.31968349253E+03  0.91052927765E+02 0.  0.
          5    1    1    2  502    0  0.11866865668E+02  0.89355900524E+01 -0.61301251750E+02  0.63213789132E+02  0.41800000000E+01 0. -1.
         -5    1    1    2    0  502 -0.82771167189E+02 -0.13626105774E+03 -0.10551049872E+03  0.19122782149E+03  0.41800000000E+01 0. -1.
        -11    1    3    3    0    0  0.58030434048E+02  0.10513621234E+03 -0.12685114431E+03  0.17467789567E+03  0.00000000000E+00 0.  1.
         11    1    3    3    0    0  0.12873867473E+02  0.22189255347E+02 -0.14271833662E+03  0.14500559687E+03  0.00000000000E+00 0. -1.
</event>
<event>
 8    1  0.7102339E-009  0.2595582E+03  0.7561462E-02  0.1107409E+00
          2   -1    0    0  501    0  0.00000000000E+00  0.00000000000E+00  0.14263192182E+04  0.14263192182E+04  0.00000000000E+00 0.  1.
         -2   -1    0    0    0  501 -0.00000000000E+00 -0.00000000000E+00 -0.51373527340E+02  0.51373527340E+02  0.00000000000E+00 0. -1.
         25    2    1    2    0    0  0.48457918450E+02  0.24273070115E+03  0.75557578874E+03  0.80486544068E+03  0.12508893607E+03 0.  0.
         23    2    1    2    0    0 -0.48457918450E+02 -0.24273070115E+03  0.61936990216E+03  0.67282730490E+03  0.88380673097E+02 0.  0.
          5    1    3    3  502    0 -0.30167767948E+02  0.12137894651E+03  0.44486027452E+03  0.46212669164E+03  0.41800000000E+01 0.  1.
         -5    1    3    3    0  502  0.78625686398E+02  0.12135175464E+03  0.31071551422E+03  0.34273874904E+03  0.41800000000E+01 0.  1.
        -11    1    4    4    0    0 -0.19774185653E+02 -0.40573690954E+02  0.21667279321E+03  0.22132406587E+03  0.00000000000E+00 0.  1.
         11    1    4    4    0    0 -0.28683732797E+02 -0.20215701020E+03  0.40269710895E+03  0.45150323904E+03  0.00000000000E+00 0. -1.
</event>
<event>
 8    1  0.7102339E-009  0.1213853E+03  0.7561462E-02  0.1240829E+00
         -4   -1    0    0    0  501 -0.00000000000E+00  0.00000000000E+00  0.48806396977E+02  0.48806396977E+02  0.00000000000E+00 0.  1.
          4   -1    0    0  501    0  0.00000000000E+00 -0.00000000000E+00 -0.34111971828E+03  0.34111971828E+03  0.00000000000E+00 0. -1.
         25    2    1    2    0    0 -0.60523196713E+02 -0.23240280929E+02 -0.12108850926E+03  0.18578332225E+03  0.12509935153E+03 0.  0.
         23    2    1    2    0    0  0.60523196713E+02  0.23240280929E+02 -0.17122481204E+03  0.20414279301E+03  0.90294937176E+02 0.  0.
          5    1    3    3  502    0 -0.97247757513E+02 -0.46487085774E+01 -0.98866086393E+02  0.13881899103E+03  0.41800000000E+01 0. -1.
         -5    1    3    3    0  502  0.36724560800E+02 -0.18591572352E+02 -0.22222422867E+02  0.46964331216E+02  0.41800000000E+01 0. -1.
        -11    1    4    4    0    0 -0.19573346120E+02  0.12276227652E+02 -0.74931248533E+02  0.78412458515E+02  0.00000000000E+00 0. -1.
         11    1    4    4    0    0  0.80096542833E+02  0.10964053278E+02 -0.96293563511E+02  0.12573033449E+03  0.00000000000E+00 0.  1.
</event>
<event>
 8    1  0.7102339E-009  0.1443424E+03  0.7561462E-02  0.1207603E+00
         -1   -1    0    0    0  501 -0.00000000000E+00  0.00000000000E+00  0.59916620249E+02  0.59916620249E+02  0.00000000000E+00 0.  1.
          1   -1    0    0  501    0  0.00000000000E+00 -0.00000000000E+00 -0.55995734137E+03  0.55995734137E+03  0.00000000000E+00 0. -1.
         25    2    1    2    0    0 -0.35023650776E+02 -0.12885496275E+03 -0.27733337875E+03  0.33224926738E+03  0.12508203376E+03 0.  0.
         23    2    1    2    0    0  0.35023650776E+02  0.12885496275E+03 -0.22270734238E+03  0.28762469424E+03  0.12368972007E+03 0.  0.
          5    1    3    3  502    0 -0.31312191245E+01 -0.30168051715E+02  0.53782351758E+01  0.31085586549E+02  0.41800000000E+01 0. -1.
         -5    1    3    3    0  502 -0.31892431652E+02 -0.98686911031E+02 -0.28271161392E+03  0.30116368083E+03  0.41800000000E+01 0. -1.
        -11    1    4    4    0    0 -0.24617202286E+02  0.46149544839E+02 -0.15902399564E+03  0.16740495311E+03  0.00000000000E+00 0. -1.
         11    1    4    4    0    0  0.59640853062E+02  0.82705417907E+02 -0.63683346735E+02  0.12021974113E+03  0.00000000000E+00 0.  1.
</event>
<event>
 8    1  0.7102339E-009  0.1111915E+03  0.7561462E-02  0.1258379E+00
          2   -1    0    0  501    0  0.00000000000E+00  0.00000000000E+00  0.81135108160E+03  0.81135108160E+03  0.00000000000E+00 0. -1.
         -2   -1    0    0    0  501 -0.00000000000E+00 -0.00000000000E+00 -0.41723308667E+02  0.41723308667E+02  0.00000000000E+00 0.  1.
         25    2    1    2    0    0  0.90847399111E+02  0.16123481147E+02  0.66466118383E+03  0.68259322147E+03  0.12508317287E+03 0.  0.
         23    2    1    2    0    0 -0.90847399111E+02 -0.16123481147E+02  0.10496658910E+03  0.17048116879E+03  0.97635175613E+02 0.  0.
          5    1    3    3  502    0  0.15987597178E+02  0.45975162869E+01  0.51041524970E+03  0.51070337765E+03  0.41800000000E+01 0. -1.
         -5    1    3    3    0  502  0.74859801933E+02  0.11525964860E+02  0.15424593413E+03  0.17188984382E+03  0.41800000000E+01 0. -1.
        -11    1    4    4    0    0 -0.80093869691E+02 -0.49602517802E+02  0.95316357714E+02  0.13401733389E+03  0.00000000000E+00 0. -1.
         11    1    4    4    0    0 -0.10753529420E+02  0.33479036655E+02  0.96502313839E+01  0.36463834907E+02  0.00000000000E+00 0.  1.
</event>
<event>
 8    1  0.7102339E-009  0.7597271E+02  0.7561462E-02  0.1340885E+00
          2   -1    0    0  501    0  0.00000000000E+00  0.00000000000E+00  0.31962883030E+03  0.31962883030E+03  0.00000000000E+00 0. -1.
         -2   -1    0    0    0  501 -0.00000000000E+00 -0.00000000000E+00 -0.52709767551E+02  0.52709767551E+02  0.00000000000E+00 0.  1.
         25    2    1    2    0    0  0.47122491041E+02  0.16570207272E+02  0.75297670004E+02  0.15430984954E+03  0.12508672842E+03 0.  0.
         23    2    1    2    0    0 -0.47122491041E+02 -0.16570207272E+02  0.19162139275E+03  0.21802874831E+03  0.91228701627E+02 0.  0.
          5    1    3    3  502    0  0.17779118955E+02  0.28816665766E+02 -0.29259220322E+02  0.44945207425E+02  0.41800000000E+01 0. -1.
         -5    1    3    3    0  502  0.29343372086E+02 -0.12246458494E+02  0.10455689033E+03  0.10936464212E+03  0.41800000000E+01 0. -1.
        -11    1    4    4    0    0 -0.31386328239E+02  0.25756194259E+02  0.30727984468E+02  0.50918485568E+02  0.00000000000E+00 0.  1.
         11    1    4    4    0    0 -0.15736162802E+02 -0.42326401531E+02  0.16089340828E+03  0.16711026274E+03  0.00000000000E+00 0. -1.
</event>
<event>
 8    1  0.7102339E-009  0.1170606E+03  0.7561462E-02  0.1248026E+00
         -2   -1    0    0    0  501 -0.00000000000E+00  0.00000000000E+00  0.26260221893E+03  0.26260221893E+03  0.00000000000E+00 0.  1.
          2   -1    0    0  501    0  0.00000000000E+00 -0.00000000000E+00 -0.57238715791E+02  0.57238715791E+02  0.00000000000E+00 0. -1.
         25    2    1    2    0    0 -0.23929273330E+02 -0.45459001576E+02  0.81942602965E+02  0.15811854653E+03  0.12509098140E+03 0.  0.
         23    2    1    2    0    0  0.23929273330E+02  0.45459001576E+02  0.12342090017E+03  0.16172238819E+03  0.91007039820E+02 0.  0.
          5    1    3    3  502    0 -0.49512433427E+02 -0.76441881419E+02  0.39005781882E+02  0.99165345353E+02  0.41800000000E+01 0.  1.
         -5    1    3    3    0  502  0.25583160097E+02  0.30982879843E+02  0.42936821084E+02  0.58953201174E+02  0.41800000000E+01 0.  1.
        -11    1    4    4    0    0  0.41762442811E+02  0.64260429970E+02  0.77499525913E+02  0.10899394940E+03  0.00000000000E+00 0.  1.
         11    1    4    4    0    0 -0.17833169482E+02 -0.18801428394E+02  0.45921374257E+02  0.52728438789E+02  0.00000000000E+00 0. -1.
</event>
<event>
 8    1  0.7102339E-009  0.1997683E+03  0.7561462E-02  0.1149935E+00
          1   -1    0    0  501    0  0.00000000000E+00  0.00000000000E+00  0.15839671480E+03  0.15839671480E+03  0.00000000000E+00 0. -1.
         -1   -1    0    0    0  501 -0.00000000000E+00 -0.00000000000E+00 -0.38395766353E+03  0.38395766353E+03  0.00000000000E+00 0.  1.
         25    2    1    2    0    0  0.97046781359E+02 -0.15705081301E+03 -0.24896373911E+03  0.33423450577E+03  0.12508687308E+03 0.  0.
         23    2    1    2    0    0 -0.97046781359E+02  0.15705081301E+03  0.23402790373E+02  0.20811987256E+03  0.93183448738E+02 0.  0.
          5    1    3    3  502    0  0.81957866949E+02 -0.72009542706E+02 -0.21537942229E+03  0.24147097991E+03  0.41800000000E+01 0. -1.
         -5    1    3    3    0  502  0.15088914411E+02 -0.85041270302E+02 -0.33584316824E+02  0.92763525856E+02  0.41800000000E+01 0. -1.
        -11    1    4    4    0    0 -0.51547427826E+02  0.13481915413E+02 -0.90828796288E+01  0.54049958936E+02  0.00000000000E+00 0.  1.
         11    1    4    4    0    0 -0.45499353534E+02  0.14356889760E+03  0.32485670002E+02  0.15406991362E+03  0.00000000000E+00 0. -1.
</event>
<event>
 8    1  0.7102339E-009  0.1156608E+03  0.7561462E-02  0.1250432E+00
         -3   -1    0    0    0  501 -0.00000000000E+00  0.00000000000E+00  0.11902185317E+04  0.11902185317E+04  0.00000000000E+00 0.  1.
          3   -1    0    0  501    0  0.00000000000E+00 -0.00000000000E+00 -0.16846265467E+02  0.16846265467E+02  0.00000000000E+00 0. -1.
         25    2    1    2    0    0  0.78572438197E+02  0.45086468329E+02  0.63558114941E+03  0.65407699718E+03  0.12508758168E+03 0.  0.
         23    2    1    2    0    0 -0.78572438197E+02 -0.45086468329E+02  0.53779111679E+03  0.55298779995E+03  0.91486632490E+02 0.  0.
          5    1    3    3  502    0  0.47082285346E+02  0.62376797243E+02  0.17064168748E+03  0.18773296017E+03  0.41800000000E+01 0. -1.
         -5    1    3    3    0  502  0.31490152851E+02 -0.17290328914E+02  0.46493946193E+03  0.46634403702E+03  0.41800000000E+01 0. -1.
        -11    1    4    4    0    0 -0.48667581322E+02 -0.64824551532E+02  0.46317020371E+03  0.47020994626E+03  0.00000000000E+00 0.  1.
         11    1    4    4    0    0 -0.29904856875E+02  0.19738083203E+02  0.74620913078E+02  0.82777853692E+02  0.00000000000E+00 0. -1.
</event>
<event>
 8    1  0.7102339E-009  0.8625819E+02  0.7561462E-02  0.1312175E+00
          3   -1    0    0  501    0  0.00000000000E+00  0.00000000000E+00  0.29830399217E+03  0.29830399217E+03  0.00000000000E+00 0. -1.
         -3   -1    0    0    0  501 -0.00000000000E+00 -0.00000000000E+00 -0.41237177502E+02  0.41237177502E+02  0.00000000000E+00 0.  1.
         25    2    1    2    0    0  0.15042070298E+00  0.29481186271E+02  0.13056990567E+03  0.18320644150E+03  0.12508771710E+03 0.  0.
         23    2    1    2    0    0 -0.15042070298E+00 -0.29481186271E+02  0.12649690899E+03  0.15633472817E+03  0.87005265801E+02 0.  0.
          5    1    3    3  502    0  0.24397315706E+02  0.49225082670E+02  0.13985863418E+03  0.15032048341E+03  0.41800000000E+01 0. -1.
         -5    1    3    3    0  502 -0.24246895003E+02 -0.19743896399E+02 -0.92887285075E+01  0.32885958091E+02  0.41800000000E+01 0. -1.
        -11    1    4    4    0    0 -0.18084077734E+02  0.23663424418E+02  0.72926173632E+02  0.78773208157E+02  0.00000000000E+00 0. -1.
         11    1    4    4    0    0  0.17933657031E+02 -0.53144610689E+02  0.53570735360E+02  0.77561520013E+02  0.00000000000E+00 0.  1.
</event>
<event>
 8    1  0.7102339E-009  0.1323960E+03  0.7561462E-02  0.1223943E+00
         -1   -1    0    0    0  501 -0.00000000000E+00  0.00000000000E+00  0.40551433659E+03  0.40551433659E+03  0.00000000000E+00 0.  1.
          1   -1    0    0  501    0  0.00000000000E+00 -0.00000000000E+00 -0.47207079190E+02  0.47207079190E+02  0.00000000000E+00 0. -1.
         25    2    1    2    0    0  0.80049552301E+02 -0.20103090777E+02  0.23311959660E+03  0.27713557340E+03  0.12508922673E+03 0.  0.
         23    2    1    2    0    0 -0.80049552301E+02  0.20103090777E+02  0.12518766080E+03  0.17558584238E+03  0.91358483697E+02 0.  0.
          5    1    3    3  502    0  0.54873037035E+02  0.48694812568E+02  0.89039043319E+02  0.11544547891E+03  0.41800000000E+01 0. -1.
         -5    1    3    3    0  502  0.25176515267E+02 -0.68797903345E+02  0.14408055328E+03  0.16169009450E+03  0.41800000000E+01 0. -1.
        -11    1    4    4    0    0 -0.91745140220E+02 -0.32601703491E+01  0.11590812741E+03  0.14785970873E+03  0.00000000000E+00 0.  1.
         11    1    4    4    0    0  0.11695587919E+02  0.23363261126E+02  0.92795333902E+01  0.27726133649E+02  0.00000000000E+00 0. -1.
</event>
<event>
 8    1  0.7102339E-009  0.1499962E+03  0.7561462E-02  0.1200478E+00
         -1   -1    0    0    0  501 -0.00000000000E+00  0.00000000000E+00  0.63767459948E+03  0.63767459948E+03  0.00000000000E+00 0.  1.
          1   -1    0    0  501    0  0.00000000000E+00 -0.00000000000E+00 -0.39821758537E+02  0.39821758537E+02  0.00000000000E+00 0. -1.
         25    2    1    2    0    0 -0.62418066423E+02  0.90719500432E+02  0.40562239311E+03  0.43852432420E+03  0.12509202354E+03 0.  0.
         23    2    1    2    0    0  0.62418066423E+02 -0.90719500432E+02  0.19223044783E+03  0.23897203381E+03  0.89604939014E+02 0.  0.
          5    1    3    3  502    0 -0.92401822728E+02  0.28243668910E+02  0.21885988385E+03  0.23927583003E+03  0.41800000000E+01 0.  1.
         -5    1    3    3    0  502  0.29983756305E+02  0.62475831522E+02  0.18676250925E+03  0.19924849417E+03  0.41800000000E+01 0.  1.
        -11    1    4    4    0    0 -0.17128009097E+02 -0.73896983871E+01  0.63675195171E+02  0.66351388968E+02  0.00000000000E+00 0.  1.
         11    1    4    4    0    0  0.79546075520E+02 -0.83329802045E+02  0.12855525266E+03  0.17262064484E+03  0.00000000000E+00 0. -1.
</event>
<event>
 8    1  0.7102339E-009  0.9754732E+02  0.7561462E-02  0.1285540E+00
         -2   -1    0    0    0  501 -0.00000000000E+00  0.00000000000E+00  0.18149972508E+02  0.18149972508E+02  0.00000000000E+00 0.  1.
          2   -1    0    0  501    0  0.00000000000E+00 -0.00000000000E+00 -0.67839930936E+03  0.67839930936E+03  0.00000000000E+00 0. -1.
         25    2    1    2    0    0  0.11198821557E+02 -0.40616198754E+01 -0.35360441259E+03  0.37526803956E+03  0.12509240806E+03 0.  0.
         23    2    1    2    0    0 -0.11198821557E+02  0.40616198754E+01 -0.30664492426E+03  0.32128124231E+03  0.95124217321E+02 0.  0.
          5    1    3    3  502    0  0.39422174258E+02 -0.39534692227E+02 -0.78485382689E+02  0.96408129370E+02  0.41800000000E+01 0. -1.
         -5    1    3    3    0  502 -0.28223352701E+02  0.35473072351E+02 -0.27511902990E+03  0.27885991019E+03  0.41800000000E+01 0. -1.
        -11    1    4    4    0    0 -0.46279945501E+02  0.25130087219E+02 -0.20624056535E+03  0.21285799359E+03  0.00000000000E+00 0. -1.
         11    1    4    4    0    0  0.35081123944E+02 -0.21068467343E+02 -0.10040435892E+03  0.10842324872E+03  0.00000000000E+00 0.  1.
</event>
<event>
 8    1  0.7102339E-009  0.1995841E+03  0.7561462E-02  0.1150090E+00
         -2   -1    0    0    0  501 -0.00000000000E+00  0.00000000000E+00  0.20876072047E+03  0.20876072047E+03  0.00000000000E+00 0.  1.
          2   -1    0    0  501    0  0.00000000000E+00 -0.00000000000E+00 -0.21243318636E+03  0.21243318636E+03  0.00000000000E+00 0. -1.
         25    2    1    2    0    0  0.17978720177E+03  0.14528412316E+02 -0.14196016632E+02  0.21996308746E+03  0.12509084806E+03 0.  0.
         23    2    1    2    0    0 -0.17978720177E+03 -0.14528412316E+02  0.10523550742E+02  0.20123081938E+03  0.88592239287E+02 0.  0.
          5    1    3    3  502    0  0.14724512797E+03  0.62812525187E+02 -0.19621090627E+02  0.16133505703E+03  0.41800000000E+01 0.  1.
         -5    1    3    3    0  502  0.32542073805E+02 -0.48284112871E+02  0.54250739946E+01  0.58628030422E+02  0.41800000000E+01 0.  1.
        -11    1    4    4    0    0 -0.66892623086E+02 -0.52764005880E+00 -0.38695551116E+02  0.77280315110E+02  0.00000000000E+00 0. -1.
         11    1    4    4    0    0 -0.11289457869E+03 -0.14000772258E+02  0.49219101858E+02  0.12395050427E+03  0.00000000000E+00 0.  1.
</event>
<event>
 8    1  0.7102339E-009  0.9290041E+02  0.7561462E-02  0.1295976E+00
         -1   -1    0    0    0  501 -0.00000000000E+00  0.00000000000E+00  0.17466535489E+03  0.17466535489E+03  0.00000000000E+00 0.  1.
          1   -1    0    0  501    0  0.00000000000E+00 -0.00000000000E+00 -0.66827784951E+02  0.66827784951E+02  0.00000000000E+00 0. -1.
         25    2    1    2    0    0  0.15494725063E+01  0.23050493178E+01  0.63747209814E+02  0.14042254844E+03  0.12508825378E+03 0.  0.
         23    2    1    2    0    0 -0.15494725063E+01 -0.23050493178E+01  0.44090360121E+02  0.10107059140E+03  0.90904292926E+02 0.  0.
          5    1    3    3  502    0  0.49438579179E+02  0.19819522980E+02  0.70885070656E+02  0.88764588909E+02  0.41800000000E+01 0. -1.
         -5    1    3    3    0  502 -0.47889106672E+02 -0.17514473662E+02 -0.71378608416E+01  0.51657959531E+02  0.41800000000E+01 0. -1.
        -11    1    4    4    0    0  0.32116327399E+02  0.22654287408E+02  0.44220002842E+02  0.59161506699E+02  0.00000000000E+00 0.  1.
         11    1    4    4    0    0 -0.33665799905E+02 -0.24959336726E+02 -0.12964272024E+00  0.41909084699E+02  0.00000000000E+00 0. -1.
</event>
<event>
 8    1  0.7102339E-009  0.8754999E+02  0.7561462E-02  0.1308896E+00
         -2   -1    0    0    0  501 -0.00000000000E+00  0.00000000000E+00  0.12545422404E+03  0.12545422404E+03  0.00000000000E+00 0. -1.
          2   -1    0    0  501    0  0.00000000000E+00 -0.00000000000E+00 -0.36476750494E+03  0.36476750494E+03  0.00000000000E+00 0.  1.
         25    2    1    2    0    0 -0.52688870829E+02 -0.12259038344E+02  0.77121705976E+02  0.15659181009E+03  0.12508731480E+03 0.  0.
         23    2    1    2    0    0  0.52688870829E+02  0.12259038344E+02 -0.31643498687E+03  0.33362991888E+03  0.90837331132E+02 0.  0.
          5    1    3    3  502    0  0.11498241102E+02 -0.18260307073E+01  0.89425279180E+02  0.90276779368E+02  0.41800000000E+01 0. -1.
         -5    1    3    3    0  502 -0.64187111931E+02 -0.10433007637E+02 -0.12303573204E+02  0.66315030724E+02  0.41800000000E+01 0. -1.
        -11    1    4    4    0    0  0.16988245015E+02 -0.34665826345E+02 -0.19316049467E+03  0.19698044747E+03  0.00000000000E+00 0.  1.
         11    1    4    4    0    0  0.35700625814E+02  0.46924864689E+02 -0.12327449221E+03  0.13664947142E+03  0.00000000000E+00 0. -1.
</event>
<event>
 8    1  0.7102339E-009  0.1404703E+03  0.7561462E-02  0.1212697E+00
         -2   -1    0    0    0  501 -0.00000000000E+00  0.00000000000E+00  0.48839794560E+02  0.48839794560E+02  0.00000000000E+00 0.  1.
          2   -1    0    0  501    0  0.00000000000E+00 -0.00000000000E+00 -0.63631243226E+03  0.63631243226E+03  0.00000000000E+00 0. -1.
         25    2    1    2    0    0  0.11323565840E+03  0.64737770088E+02 -0.21788863190E+03  0.28308360517E+03  0.12509028098E+03 0.  0.
         23    2    1    2    0    0 -0.11323565840E+03 -0.64737770088E+02 -0.36958400580E+03  0.40206862165E+03  0.89741550935E+02 0.  0.
          5    1    3    3  502    0  0.70658997350E+02  0.13549248801E+02 -0.20204874447E+03  0.21451676762E+03  0.41800000000E+01 0.  1.
         -5    1    3    3    0  502  0.42576661050E+02  0.51188521287E+02 -0.15839887435E+02  0.68566837550E+02  0.41800000000E+01 0.  1.
        -11    1    4    4    0    0 -0.77830757673E+02 -0.71991260779E+02 -0.33743406145E+03  0.35369777254E+03  0.00000000000E+00 0. -1.
         11    1    4    4    0    0 -0.35404900726E+02  0.72534906907E+01 -0.32149944348E+02  0.48370849116E+02  0.00000000000E+00 0.  1.
</event>
<event>
 8    1  0.7102339E-009  0.8020881E+02  0.7561462E-02  0.1328460E+00
          4   -1    0    0  501    0  0.00000000000E+00  0.00000000000E+00  0.32507954173E+02  0.32507954173E+02  0.00000000000E+00 0. -1.
         -4   -1    0    0    0  501 -0.00000000000E+00 -0.00000000000E+00 -0.40293701763E+03  0.40293701763E+03  0.00000000000E+00 0.  1.
         25    2    1    2    0    0  0.19949791898E+02 -0.34428842633E+01 -0.15104393303E+03  0.19715990527E+03  0.12509161000E+03 0.  0.
         23    2    1    2    0    0 -0.19949791898E+02  0.34428842633E+01 -0.21938513042E+03  0.23828506653E+03  0.90774940555E+02 0.  0.
          5    1    3    3  502    0  0.49941097973E+02  0.12621445086E+02 -0.15430219444E+03  0.16272693002E+03  0.41800000000E+01 0. -1.
         -5    1    3    3    0  502 -0.29991306074E+02 -0.16064329349E+02  0.32582614085E+01  0.34432975255E+02  0.41800000000E+01 0. -1.
        -11    1    4    4    0    0 -0.41418752281E+02 -0.17038988580E+02 -0.53521078030E+02  0.69787864030E+02  0.00000000000E+00 0.  1.
         11    1    4    4    0    0  0.21468960383E+02  0.20481872843E+02 -0.16586405239E+03  0.16849720250E+03  0.00000000000E+00 0. -1.
</event>
<event>
 8    1  0.7102339E-009  0.8024802E+02  0.7561462E-02  0.1328349E+00
         -2   -1    0    0    0  501 -0.00000000000E+00  0.00000000000E+00  0.26987726416E+02  0.26987726416E+02  0.00000000000E+00 0.  1.
          2   -1    0    0  501    0  0.00000000000E+00 -0.00000000000E+00 -0.63384689739E+03  0.63384689739E+03  0.00000000000E+00 0. -1.
         25    2    1    2    0    0 -0.54727085703E+02 -0.41662926511E+01 -0.22235644081E+03  0.26096507026E+03  0.12509184315E+03 0.  0.
         23    2    1    2    0    0  0.54727085703E+02  0.41662926511E+01 -0.38450273016E+03  0.39986955355E+03  0.95083639216E+02 0.  0.
          5    1    3    3  502    0 -0.13641623676E+01  0.14556334926E+01  0.15974642160E+02  0.16632540394E+02  0.41800000000E+01 0.  1.
         -5    1    3    3    0  502 -0.53362923336E+02 -0.56219261437E+01 -0.23833108297E+03  0.24433252987E+03  0.41800000000E+01 0.  1.
        -11    1    4    4    0    0  0.33898658934E+01  0.39549117154E+02 -0.83206418944E+02  0.92189652413E+02  0.00000000000E+00 0.  1.
         11    1    4    4    0    0  0.51337219810E+02 -0.35382824503E+02 -0.30129631122E+03  0.30767990113E+03  0.00000000000E+00 0. -1.
</event>
<event>
 8    1  0.7102339E-009  0.1160680E+03  0.7561462E-02  0.1249728E+00
         -2   -1    0    0    0  501 -0.00000000000E+00  0.00000000000E+00  0.11638850861E+02  0.11638850861E+02  0.00000000000E+00 0.  1.
          2   -1    0    0  501    0  0.00000000000E+00 -0.00000000000E+00 -0.26486666344E+04  0.26486666344E+04  0.00000000000E+00 0. -1.
         25    2    1    2    0    0  0.69536192220E+02 -0.56251968602E+02 -0.23087300170E+04  0.23138451625E+04  0.12508228746E+03 0.  0.
         23    2    1    2    0    0 -0.69536192220E+02  0.56251968602E+02 -0.32829776653E+03  0.34646032275E+03  0.65236230203E+02 0.  0.
          5    1    3    3  502    0 -0.17315256708E+02 -0.52343359313E+02 -0.50532193181E+03  0.50833785276E+03  0.41800000000E+01 0.  1.
         -5    1    3    3    0  502  0.86851448929E+02 -0.39086092890E+01 -0.18034080852E+04  0.18055073098E+04  0.41800000000E+01 0.  1.
        -11    1    4    4    0    0 -0.26872940330E+02  0.26877260334E+02 -0.47054643888E+02  0.60487036268E+02  0.00000000000E+00 0.  1.
         11    1    4    4    0    0 -0.42663251890E+02  0.29374708268E+02 -0.28124312265E+03  0.28597328649E+03  0.00000000000E+00 0. -1.
</event>
<event>
 8    1  0.7102339E-009  0.9855528E+02  0.7561462E-02  0.1283364E+00
         -2   -1    0    0    0  501 -0.00000000000E+00  0.00000000000E+00  0.11681787296E+03  0.11681787296E+03  0.00000000000E+00 0.  1.
          2   -1    0    0  501    0  0.00000000000E+00 -0.00000000000E+00 -0.13327061993E+03  0.13327061993E+03  0.00000000000E+00 0. -1.
         25    2    1    2    0    0 -0.29197283446E+02  0.45472668661E+01  0.44288706181E+02  0.13594749779E+03  0.12508826349E+03 0.  0.
         23    2    1    2    0    0  0.29197283446E+02 -0.45472668661E+01 -0.60741453153E+02  0.11414099510E+03  0.92008062881E+02 0.  0.
          5    1    3    3  502    0 -0.18280835738E+02 -0.51650777031E+02  0.54785710433E+02  0.77594704657E+02  0.41800000000E+01 0. -1.
         -5    1    3    3    0  502 -0.10916447708E+02  0.56198043897E+02 -0.10497004252E+02  0.58352793135E+02  0.41800000000E+01 0. -1.
        -11    1    4    4    0    0  0.24777554331E+02  0.36148410712E+02 -0.37682546497E+01  0.43986754128E+02  0.00000000000E+00 0.  1.
         11    1    4    4    0    0  0.44197291154E+01 -0.40695677578E+02 -0.56973198503E+02  0.70154240974E+02  0.00000000000E+00 0. -1.
</event>
<event>
 8    1  0.7102339E-009  0.1593856E+03  0.7561462E-02  0.1189392E+00
          1   -1    0    0  501    0  0.00000000000E+00  0.00000000000E+00  0.41256460605E+03  0.41256460605E+03  0.00000000000E+00 0. -1.
         -1   -1    0    0    0  501 -0.00000000000E+00 -0.00000000000E+00 -0.89919477519E+02  0.89919477519E+02  0.00000000000E+00 0.  1.
         25    2    1    2    0    0  0.14860352234E+03 -0.29826443027E+02  0.95822972811E+02  0.21863555871E+03  0.12508733693E+03 0.  0.
         23    2    1    2    0    0 -0.14860352234E+03  0.29826443027E+02  0.22682215572E+03  0.28384852486E+03  0.78416013554E+02 0.  0.
          5    1    3    3  502    0  0.10714214270E+03 -0.11738318381E+02  0.12464449393E+03  0.16483612810E+03  0.41800000000E+01 0.  1.
         -5    1    3    3    0  502  0.41461379645E+02 -0.18088124645E+02 -0.28821521114E+02  0.53799430616E+02  0.41800000000E+01 0.  1.
        -11    1    4    4    0    0 -0.51347628212E+02 -0.21315803242E+02  0.45552759886E+02  0.71874865732E+02  0.00000000000E+00 0.  1.
         11    1    4    4    0    0 -0.97255894130E+02  0.51142246268E+02  0.18126939583E+03  0.21197365912E+03  0.00000000000E+00 0. -1.
</event>
<event>
 8    1  0.7102339E-009  0.1031242E+03  0.7561462E-02  0.1273860E+00
         -2   -1    0    0    0  501 -0.00000000000E+00  0.00000000000E+00  0.62584698986E+02  0.62584698986E+02  0.00000000000E+00 0.  1.
          2   -1    0    0  501    0  0.00000000000E+00 -0.00000000000E+00 -0.25354045436E+03  0.25354045436E+03  0.00000000000E+00 0. -1.
         25    2    1    2    0    0 -0.22702920791E+02  0.57791333053E+02 -0.87417579401E+02  0.16475261843E+03  0.12508529610E+03 0.  0.
         23    2    1    2    0    0  0.22702920791E+02 -0.57791333053E+02 -0.10353817597E+03  0.15137253492E+03  0.91313907240E+02 0.  0.
          5    1    3    3  502    0 -0.46143143567E+02 -0.14694609262E+02  0.15371608253E+00  0.48606761548E+02  0.41800000000E+01 0.  1.
         -5    1    3    3    0  502  0.23440222775E+02  0.72485942315E+02 -0.87571295483E+02  0.11614585688E+03  0.41800000000E+01 0.  1.
        -11    1    4    4    0    0  0.39367548952E+02 -0.32459930433E+02 -0.10919493788E+03  0.12052794470E+03  0.00000000000E+00 0. -1.
         11    1    4    4    0    0 -0.16664628161E+02 -0.25331402620E+02  0.56567619113E+01  0.30844590218E+02  0.00000000000E+00 0.  1.
</event>
<event>
 8    1  0.7102339E-009  0.1019952E+03  0.7561462E-02  0.1276155E+00
         -1   -1    0    0    0  501 -0.00000000000E+00  0.00000000000E+00  0.19728530172E+02  0.19728530172E+02  0.00000000000E+00 0.  1.
          1   -1    0    0  501    0  0.00000000000E+00 -0.00000000000E+00 -0.87385826862E+03  0.87385826862E+03  0.00000000000E+00 0. -1.
         25    2    1    2    0    0  0.48608883584E+02  0.22710654783E+02 -0.30116060540E+03  0.33048985461E+03  0.12508891380E+03 0.  0.
         23    2    1    2    0    0 -0.48608883584E+02 -0.22710654783E+02 -0.55296913305E+03  0.56309694417E+03  0.91786213727E+02 0.  0.
          5    1    3    3  502    0  0.13417354143E+02  0.51017359923E+02 -0.42468227825E+02  0.67851449361E+02  0.41800000000E+01 0. -1.
         -5    1    3    3    0  502  0.35191529441E+02 -0.28306705140E+02 -0.25869237757E+03  0.26263840525E+03  0.41800000000E+01 0. -1.
        -11    1    4    4    0    0 -0.24628200410E+02  0.35244063618E+02 -0.19612055140E+03  0.20077839266E+03  0.00000000000E+00 0. -1.
         11    1    4    4    0    0 -0.23980683174E+02 -0.57954718402E+02 -0.35684858165E+03  0.36231855152E+03  0.00000000000E+00 0.  1.
</event>
<event>
 8    1  0.7102339E-009  0.9039488E+02  0.7561462E-02  0.1301898E+00
         -1   -1    0    0    0  501 -0.00000000000E+00  0.00000000000E+00  0.24014265250E+02  0.24014265250E+02  0.00000000000E+00 0.  1.
          1   -1    0    0  501    0  0.00000000000E+00 -0.00000000000E+00 -0.68324163120E+03  0.68324163120E+03  0.00000000000E+00 0. -1.
         25    2    1    2    0    0 -0.18516257990E+02 -0.49873656274E+02 -0.47403486698E+03  0.49313892257E+03  0.12508680363E+03 0.  0.
         23    2    1    2    0    0  0.18516257990E+02  0.49873656274E+02 -0.18519249897E+03  0.21411697388E+03  0.93378709713E+02 0.  0.
          5    1    3    3  502    0 -0.29651439998E+02  0.10732818587E+02 -0.37551603727E+03  0.37686093978E+03  0.41800000000E+01 0.  1.
         -5    1    3    3    0  502  0.11135182008E+02 -0.60606474861E+02 -0.98518829711E+02  0.11627798279E+03  0.41800000000E+01 0.  1.
        -11    1    4    4    0    0 -0.24969479341E+02  0.65072605485E+01 -0.86776015093E+01  0.27223521197E+02  0.00000000000E+00 0.  1.
         11    1    4    4    0    0  0.43485737331E+02  0.43366395725E+02 -0.17651489746E+03  0.18689345268E+03  0.00000000000E+00 0. -1.
</event>
<event>
 8    1  0.7102339E-009  0.1613779E+03  0.7561462E-02  0.1187150E+00
          1   -1    0    0  501    0  0.00000000000E+00  0.00000000000E+00  0.11464136367E+03  0.11464136367E+03  0.00000000000E+00 0. -1.
         -1   -1    0    0    0  501 -0.00000000000E+00 -0.00000000000E+00 -0.30020835859E+03  0.30020835859E+03  0.00000000000E+00 0.  1.
         25    2    1    2    0    0  0.12392934351E+03  0.36724398938E+02 -0.17987111644E+03  0.25437956208E+03  0.12509268328E+03 0.  0.
         23    2    1    2    0    0 -0.12392934351E+03 -0.36724398938E+02 -0.56958784703E+01  0.16047016018E+03  0.94926632811E+02 0.  0.
          5    1    3    3  502    0  0.57878475295E+02 -0.32738915100E+02 -0.22984094913E+02  0.70480461713E+02  0.41800000000E+01 0.  1.
         -5    1    3    3    0  502  0.66050868219E+02  0.69463314038E+02 -0.15688702153E+03  0.18389910036E+03  0.41800000000E+01 0.  1.
        -11    1    4    4    0    0 -0.11652734306E+03 -0.63290421368E+02 -0.17970580977E+01  0.13261797968E+03  0.00000000000E+00 0. -1.
         11    1    4    4    0    0 -0.74020004567E+01  0.26566022429E+02 -0.38988203725E+01  0.27852180503E+02  0.00000000000E+00 0.  1.
</event>
<event>
 8    1  0.7102339E-009  0.1478752E+03  0.7561462E-02  0.1203109E+00
          1   -1    0    0  501    0  0.00000000000E+00  0.00000000000E+00  0.18904477504E+02  0.18904477504E+02  0.00000000000E+00 0. -1.
         -1   -1    0    0    0  501 -0.00000000000E+00 -0.00000000000E+00 -0.18310391466E+04  0.18310391466E+04  0.00000000000E+00 0.  1.
         25    2    1    2    0    0 -0.11602876739E+03  0.79013417848E+02 -0.12447730182E+04  0.12588935016E+04  0.12508871393E+03 0.  0.
         23    2    1    2    0    0  0.11602876739E+03 -0.79013417848E+02 -0.56736165087E+03  0.59105012252E+03  0.87950039210E+02 0.  0.
          5    1    3    3  502    0 -0.30145574474E+02  0.57850192853E+02 -0.91832904713E+03  0.92065254666E+03  0.41800000000E+01 0. -1.
         -5    1    3    3    0  502 -0.85883192916E+02  0.21163224995E+02 -0.32644397108E+03  0.33824095490E+03  0.41800000000E+01 0. -1.
        -11    1    4    4    0    0  0.75472735889E+02 -0.39392552333E+02 -0.47579192366E+03  0.48334859228E+03  0.00000000000E+00 0.  1.
         11    1    4    4    0    0  0.40556031501E+02 -0.39620865514E+02 -0.91569727211E+02  0.10770153024E+03  0.00000000000E+00 0. -1.
</event>
<event>
 8    1  0.7102339E-009  0.1224603E+03  0.7561462E-02  0.1239093E+00
          2   -1    0    0  501    0  0.00000000000E+00  0.00000000000E+00  0.10952627997E+04  0.10952627997E+04  0.00000000000E+00 0. -1.
         -2   -1    0    0    0  501 -0.00000000000E+00 -0.00000000000E+00 -0.13803507295E+02  0.13803507295E+02  0.00000000000E+00 0.  1.
         25    2    1    2    0    0 -0.50562350507E+02  0.24410517286E+02  0.64607953312E+03  0.66046825725E+03  0.12508849299E+03 0.  0.
         23    2    1    2    0    0  0.50562350507E+02 -0.24410517286E+02  0.43537975931E+03  0.44859804976E+03  0.92370183475E+02 0.  0.
          5    1    3    3  502    0  0.21674552377E+02 -0.36335127760E+02  0.18789098209E+03  0.19264091279E+03  0.41800000000E+01 0. -1.
         -5    1    3    3    0  502 -0.72236902884E+02  0.60745645047E+02  0.45818855102E+03  0.46782734446E+03  0.41800000000E+01 0. -1.
        -11    1    4    4    0    0  0.21892548824E+02  0.35388921466E+02  0.18009761048E+03  0.18484265947E+03  0.00000000000E+00 0.  1.
         11    1    4    4    0    0  0.28669801684E+02 -0.59799438752E+02  0.25528214882E+03  0.26375539030E+03  0.00000000000E+00 0. -1.
</event>
<event>
 8    1  0.7102339E-009  0.7977567E+02  0.7561462E-02  0.1329689E+00
         -1   -1    0    0    0  501 -0.00000000000E+00  0.00000000000E+00  0.60253744406E+03  0.60253744406E+03  0.00000000000E+00 0.  1.
          1   -1    0    0  501    0  0.00000000000E+00 -0.00000000000E+00 -0.21630301496E+02  0.21630301496E+02  0.00000000000E+00 0. -1.
         25    2    1    2    0    0  0.15605766462E+02 -0.24987190866E+02  0.41517265513E+03  0.43460762497E+03  0.12509018531E+03 0.  0.
         23    2    1    2    0    0 -0.15605766462E+02  0.24987190866E+02  0.16573448743E+03  0.18956012058E+03  0.87162029216E+02 0.  0.
          5    1    3    3  502    0 -0.29976743822E+02 -0.41679228508E+02  0.75128984811E+02  0.91091163227E+02  0.41800000000E+01 0.  1.
         -5    1    3    3    0  502  0.45582510284E+02  0.16692037642E+02  0.34004367032E+03  0.34351646175E+03  0.41800000000E+01 0.  1.
        -11    1    4    4    0    0  0.15711821934E+02  0.23110644005E+02  0.15327681240E+03  0.15580354436E+03  0.00000000000E+00 0.  1.
         11    1    4    4    0    0 -0.31317588396E+02  0.18765468613E+01  0.12457675025E+02  0.33756576220E+02  0.00000000000E+00 0. -1.
</event>
<event>
 7    1  0.7102339E-009  0.1035266E+03  0.7561462E-02  0.1273050E+00
          2   -1    0    0  501    0  0.00000000000E+00  0.00000000000E+00  0.25429595623E+03  0.25429595623E+03  0.00000000000E+00 0. -1.
         -2   -1    0    0    0  501 -0.00000000000E+00 -0.00000000000E+00 -0.66917062628E+02  0.66917062628E+02  0.00000000000E+00 0.  1.
         23    2    1    2    0    0  0.32245752059E+02 -0.34105214082E+01  0.43835470933E+01  0.97269253615E+02  0.91600611524E+02 0.  0.
          5    1    1    2  502    0  0.33677867790E+02 -0.32069758950E+02  0.10908816744E+03  0.11866073021E+03  0.41800000000E+01 0. -1.
         -5    1    1    2    0  502 -0.65923619849E+02  0.35480280358E+02  0.73907179070E+02  0.10528303504E+03  0.41800000000E+01 0. -1.
        -11    1    3    3    0    0  0.29102405174E+01  0.36073416090E+02 -0.21077830702E+02  0.41881210529E+02  0.00000000000E+00 0. -1.
         11    1    3    3    0    0  0.29335511541E+02 -0.39483937498E+02  0.25461377795E+02  0.55388043087E+02  0.00000000000E+00 0.  1.
</event>
<event>
 8    1  0.7102339E-009  0.9603621E+02  0.7561462E-02  0.1288859E+00
         -4   -1    0    0    0  501 -0.00000000000E+00  0.00000000000E+00  0.19537359926E+02  0.19537359926E+02  0.00000000000E+00 0.  1.
          4   -1    0    0  501    0  0.00000000000E+00 -0.00000000000E+00 -0.66399933706E+03  0.66399933706E+03  0.00000000000E+00 0. -1.
         25    2    1    2    0    0  0.21640826670E+02 -0.12036085335E+02 -0.42410815631E+03  0.44286254306E+03  0.12508521522E+03 0.  0.
         23    2    1    2    0    0 -0.21640826670E+02  0.12036085335E+02 -0.22035382083E+03  0.24067415393E+03  0.93568420357E+02 0.  0.
          5    1    3    3  502    0 -0.30656024168E+02 -0.39747969394E+02 -0.86638549515E+02  0.10021678278E+03  0.41800000000E+01 0.  1.
         -5    1    3    3    0  502  0.52296850838E+02  0.27711884060E+02 -0.33746960680E+03  0.34264576028E+03  0.41800000000E+01 0.  1.
        -11    1    4    4    0    0 -0.17471805016E+02  0.45451955509E+02 -0.62297781670E+02  0.79070587649E+02  0.00000000000E+00 0.  1.
         11    1    4    4    0    0 -0.41690216542E+01 -0.33415870174E+02 -0.15805603916E+03  0.16160356628E+03  0.00000000000E+00 0. -1.
</event>
<event>
 8    1  0.7102339E-009  0.8795805E+02  0.7561462E-02  0.1307873E+00
          3   -1    0    0  501    0  0.00000000000E+00  0.00000000000E+00  0.33288080040E+03  0.33288080040E+03  0.00000000000E+00 0. -1.
         -3   -1    0    0    0  501 -0.00000000000E+00 -0.00000000000E+00 -0.36886429674E+02  0.36886429674E+02  0.00000000000E+00 0.  1.
         25    2    1    2    0    0 -0.68920350110E+00 -0.12064735079E+02  0.19104018530E+03  0.22866939310E+03  0.12508919261E+03 0.  0.
         23    2    1    2    0    0  0.68920350110E+00  0.12064735079E+02  0.10495418543E+03  0.14109783697E+03  0.93526390535E+02 0.  0.
          5    1    3    3  502    0 -0.11560722838E+02 -0.46408157042E+02  0.18595197741E+03  0.19204941461E+03  0.41800000000E+01 0. -1.
         -5    1    3    3    0  502  0.10871519337E+02  0.34343421964E+02  0.50882078960E+01  0.36619978488E+02  0.41800000000E+01 0. -1.
        -11    1    4    4    0    0 -0.22960862198E+02  0.45337985613E+02  0.74431938048E+02  0.90126841362E+02  0.00000000000E+00 0. -1.
         11    1    4    4    0    0  0.23650065699E+02 -0.33273250534E+02  0.30522247378E+02  0.50970995612E+02  0.00000000000E+00 0.  1.
</event>
<event>
 8    1  0.7102339E-009  0.1693845E+03  0.7561462E-02  0.1178491E+00
          1   -1    0    0  501    0  0.00000000000E+00  0.00000000000E+00  0.10302453848E+03  0.10302453848E+03  0.00000000000E+00 0. -1.
         -1   -1    0    0    0  501 -0.00000000000E+00 -0.00000000000E+00 -0.35637354328E+03  0.35637354328E+03  0.00000000000E+00 0.  1.
         25    2    1    2    0    0  0.10777740453E+03  0.10462300963E+03 -0.18801134088E+03  0.27121480823E+03  0.12508902763E+03 0.  0.
         23    2    1    2    0    0 -0.10777740453E+03 -0.10462300963E+03 -0.65337663918E+02  0.18818327352E+03  0.92639036226E+02 0.  0.
          5    1    3    3  502    0 -0.47170242832E+01  0.23592077283E+02  0.12478148214E+02  0.27422855641E+02  0.41800000000E+01 0. -1.
         -5    1    3    3    0  502  0.11249442882E+03  0.81030932349E+02 -0.20048948910E+03  0.24379195259E+03  0.41800000000E+01 0. -1.
        -11    1    4    4    0    0 -0.52955468992E+02 -0.10845301917E+03 -0.53238264968E+02  0.13191153066E+03  0.00000000000E+00 0. -1.
         11    1    4    4    0    0 -0.54821935540E+02  0.38300095391E+01 -0.12099398950E+02  0.56271742859E+02  0.00000000000E+00 0.  1.
</event>
<event>
 8    1  0.7102339E-009  0.1470286E+03  0.7561462E-02  0.1204173E+00
         -1   -1    0    0    0  501 -0.00000000000E+00  0.00000000000E+00  0.36173876966E+02  0.36173876966E+02  0.00000000000E+00 0.  1.
          1   -1    0    0  501    0  0.00000000000E+00 -0.00000000000E+00 -0.85705855416E+03  0.85705855416E+03  0.00000000000E+00 0. -1.
         25    2    1    2    0    0  0.59126023765E+01 -0.11414019022E+03 -0.63161380187E+03  0.65394676386E+03  0.12508970122E+03 0.  0.
         23    2    1    2    0    0 -0.59126023765E+01  0.11414019022E+03 -0.18927087532E+03  0.23928566727E+03  0.91494395600E+02 0.  0.
          5    1    3    3  502    0 -0.55721492283E+02 -0.82829138533E+02 -0.35475384190E+03  0.36855571035E+03  0.41800000000E+01 0.  1.
         -5    1    3    3    0  502  0.61634094660E+02 -0.31311051688E+02 -0.27685995998E+03  0.28539105351E+03  0.41800000000E+01 0.  1.
        -11    1    4    4    0    0  0.22315798217E+02  0.54911794306E+02 -0.28758549288E+02  0.65881364293E+02  0.00000000000E+00 0.  1.
         11    1    4    4    0    0 -0.28228400594E+02  0.59228395915E+02 -0.16051232604E+03  0.17340430298E+03  0.00000000000E+00 0. -1.
</event>
<event>
 8    1  0.7102339E-009  0.1101881E+03  0.7561462E-02  0.1260222E+00
          1   -1    0    0  501    0  0.00000000000E+00  0.00000000000E+00  0.89032045456E+02  0.89032045456E+02  0.00000000000E+00 0. -1.
         -1   -1    0    0    0  501 -0.00000000000E+00 -0.00000000000E+00 -0.15585148153E+03  0.15585148153E+03  0.00000000000E+00 0.  1.
         25    2    1    2    0    0 -0.39074084203E+01  0.42820416713E+02 -0.23622811726E+02  0.13436557169E+03  0.12508882322E+03 0.  0.
         23    2    1    2    0    0  0.39074084203E+01 -0.42820416713E+02 -0.43196624345E+02  0.11051795529E+03  0.92192267349E+02 0.  0.
          5    1    3    3  502    0 -0.20807777979E+02  0.78820636226E+02 -0.40305182663E+02  0.91036456812E+02  0.41800000000E+01 0. -1.
         -5    1    3    3    0  502  0.16900369558E+02 -0.36000219513E+02  0.16682370937E+02  0.43329114880E+02  0.41800000000E+01 0. -1.
        -11    1    4    4    0    0  0.43741372322E+02 -0.53430002519E+01 -0.62314913336E+01  0.44504907466E+02  0.00000000000E+00 0.  1.
         11    1    4    4    0    0 -0.39833963902E+02 -0.37477416461E+02 -0.36965133012E+02  0.66013047826E+02  0.00000000000E+00 0. -1.
</event>
<event>
 8    1  0.7102339E-009  0.2162292E+03  0.7561462E-02  0.1136726E+00
         -4   -1    0    0    0  501 -0.00000000000E+00  0.00000000000E+00  0.15303201387E+03  0.15303201387E+03  0.00000000000E+00 0.  1.
          4   -1    0    0  501    0  0.00000000000E+00 -0.00000000000E+00 -0.38042209654E+03  0.38042209654E+03  0.00000000000E+00 0. -1.
         25    2    1    2    0    0  0.20280189522E+03 -0.70571642213E+02 -0.12688880083E+03  0.27903101961E+03  0.12509427140E+03 0.  0.
         23    2    1    2    0    0 -0.20280189522E+03  0.70571642213E+02 -0.10050128183E+03  0.25442309080E+03  0.92312708173E+02 0.  0.
          5    1    3    3  502    0  0.18074290019E+03 -0.58733161233E+02 -0.15195180646E+03  0.24336064613E+03  0.41800000000E+01 0.  1.
         -5    1    3    3    0  502  0.22058995031E+02 -0.11838480981E+02  0.25063005623E+02  0.35670373485E+02  0.41800000000E+01 0.  1.
        -11    1    4    4    0    0 -0.10615413764E+03  0.53380388458E+02 -0.72722679578E+01  0.11904223070E+03  0.00000000000E+00 0.  1.
         11    1    4    4    0    0 -0.96647757585E+02  0.17191253756E+02 -0.93229013872E+02  0.13538086009E+03  0.00000000000E+00 0. -1.
</event>
<event>
 8    1  0.7102339E-009  0.1264488E+03  0.7561462E-02  0.1232822E+00
          2   -1    0    0  501    0  0.00000000000E+00  0.00000000000E+00  0.48401847356E+03  0.48401847356E+03  0.00000000000E+00 0. -1.
         -2   -1    0    0    0  501 -0.00000000000E+00 -0.00000000000E+00 -0.40232855979E+02  0.40232855979E+02  0.00000000000E+00 0.  1.
         25    2    1    2    0    0 -0.12740483584E+02 -0.91070728199E+02  0.25179639852E+03  0.29581207489E+03  0.12508860813E+03 0.  0.
         23    2    1    2    0    0  0.12740483584E+02  0.91070728199E+02  0.19198921905E+03  0.22843925465E+03  0.82876024117E+02 0.  0.
          5    1    3    3  502    0  0.46402958373E+02 -0.20732193202E+02  0.15084634137E+03  0.15923300376E+03  0.41800000000E+01 0. -1.
         -5    1    3    3    0  502 -0.59143441957E+02 -0.70338534997E+02  0.10095005715E+03  0.13657907113E+03  0.41800000000E+01 0. -1.
        -11    1    4    4    0    0 -0.89132808580E+01  0.87510912301E+02  0.18590744347E+03  0.20566765396E+03  0.00000000000E+00 0. -1.
         11    1    4    4    0    0  0.21653764442E+02  0.35598158980E+01  0.60817755887E+01  0.22771600691E+02  0.00000000000E+00 0.  1.
</event>
<event>
 8    1  0.7102339E-009  0.1354055E+03  0.7561462E-02  0.1219648E+00
         -1   -1    0    0    0  501 -0.00000000000E+00  0.00000000000E+00  0.41245062344E+02  0.41245062344E+02  0.00000000000E+00 0.  1.
          1   -1    0    0  501    0  0.00000000000E+00 -0.00000000000E+00 -0.71026730011E+03  0.71026730011E+03  0.00000000000E+00 0. -1.
         25    2    1    2    0    0 -0.92856635347E+02  0.88055936765E+02 -0.42782703127E+03  0.46374475492E+03  0.12508807420E+03 0.  0.
         23    2    1    2    0    0  0.92856635347E+02 -0.88055936765E+02 -0.24119520650E+03  0.28776760753E+03  0.90878300927E+02 0.  0.
          5    1    3    3  502    0 -0.32212679946E+02  0.14803146603E+02 -0.12770203632E+02  0.37912272412E+02  0.41800000000E+01 0.  1.
         -5    1    3    3    0  502 -0.60643955400E+02  0.73252790162E+02 -0.41505682764E+03  0.42583248251E+03  0.41800000000E+01 0.  1.
        -11    1    4    4    0    0  0.70972415250E+02 -0.28510930158E+02 -0.19449371852E+03  0.20899225682E+03  0.00000000000E+00 0. -1.
         11    1    4    4    0    0  0.21884220097E+02 -0.59545006607E+02 -0.46701487977E+02  0.78775350716E+02  0.00000000000E+00 0.  1.
</event>
<event>
 8    1  0.7102339E-009  0.9802937E+02  0.7561462E-02  0.1284495E+00
         -2   -1    0    0    0  501 -0.00000000000E+00  0.00000000000E+00  0.35110107522E+02  0.35110107522E+02  0.00000000000E+00 0.  1.
          2   -1    0    0  501    0  0.00000000000E+00 -0.00000000000E+00 -0.37742502303E+03  0.37742502303E+03  0.00000000000E+00 0. -1.
         25    2    1    2    0    0 -0.29459631933E+01 -0.31748296377E+02 -0.22653261886E+03  0.26073161042E+03  0.12508921712E+03 0.  0.
         23    2    1    2    0    0  0.29459631933E+01  0.31748296377E+02 -0.11578229664E+03  0.15180352014E+03  0.92855454806E+02 0.  0.
          5    1    3    3  502    0  0.29032323873E+02 -0.59751761956E+02 -0.19919102300E+03  0.21001829666E+03  0.41800000000E+01 0. -1.
         -5    1    3    3    0  502 -0.31978287066E+02  0.28003465579E+02 -0.27341595859E+02  0.50713313757E+02  0.41800000000E+01 0. -1.
        -11    1    4    4    0    0 -0.53293299791E+01 -0.26967062455E+02 -0.77368825034E+01  0.28556672887E+02  0.00000000000E+00 0.  1.
         11    1    4    4    0    0  0.82752931725E+01  0.58715358832E+02 -0.10804541414E+03  0.12324684725E+03  0.00000000000E+00 0. -1.
</event>
<event>
 8    1  0.7102339E-009  0.1174393E+03  0.7561462E-02  0.1247382E+00
         -1   -1    0    0    0  501 -0.00000000000E+00  0.00000000000E+00  0.52576547854E+03  0.52576547854E+03  0.00000000000E+00 0.  1.
          1   -1    0    0  501    0  0.00000000000E+00 -0.00000000000E+00 -0.42921118961E+02  0.42921118961E+02  0.00000000000E+00 0. -1.
         25    2    1    2    0    0  0.77957676376E+02 -0.52062361491E+02  0.17723856075E+03  0.23632322202E+03  0.12508904451E+03 0.  0.
         23    2    1    2    0    0 -0.77957676376E+02  0.52062361491E+02  0.30560579883E+03  0.33236337549E+03  0.91008902296E+02 0.  0.
          5    1    3    3  502    0  0.66842995858E+02 -0.41894417435E+00  0.17015405170E+03  0.18286069922E+03  0.41800000000E+01 0.  1.
         -5    1    3    3    0  502  0.11114680518E+02 -0.51643417317E+02  0.70845090512E+01  0.53462522796E+02  0.41800000000E+01 0.  1.
        -11    1    4    4    0    0 -0.40844467183E+02  0.64003422276E+02  0.26665271096E+03  0.27725146857E+03  0.00000000000E+00 0.  1.
         11    1    4    4    0    0 -0.37113209193E+02 -0.11941060785E+02  0.38953087865E+02  0.55111906912E+02  0.00000000000E+00 0. -1.
</event>
<event>
 8    1  0.7102339E-009  0.1450035E+03  0.7561462E-02  0.1206751E+00
          1   -1    0    0  501    0  0.00000000000E+00  0.00000000000E+00  0.26303333151E+03  0.26303333151E+03  0.00000000000E+00 0. -1.
         -1   -1    0    0    0  501 -0.00000000000E+00 -0.00000000000E+00 -0.11680941738E+03  0.11680941738E+03  0.00000000000E+00 0.  1.
         25    2    1    2    0    0  0.54224222259E+02  0.90424481741E+02  0.17360913547E+03  0.23854319083E+03  0.12508344733E+03 0.  0.
         23    2    1    2    0    0 -0.54224222259E+02 -0.90424481741E+02 -0.27385221349E+02  0.14129955806E+03  0.89993119639E+02 0.  0.
          5    1    3    3  502    0 -0.13896520268E+02  0.84160631330E+02  0.55073117556E+02  0.10162010539E+03  0.41800000000E+01 0. -1.
         -5    1    3    3    0  502  0.68120742527E+02  0.62638504111E+01  0.11853601792E+03  0.13692308545E+03  0.41800000000E+01 0. -1.
        -11    1    4    4    0    0 -0.86752717502E+01 -0.90101891923E+02 -0.30816430762E+02  0.95620414520E+02  0.00000000000E+00 0.  1.
         11    1    4    4    0    0 -0.45548950509E+02 -0.32258981741E+00  0.34312094128E+01  0.45679143542E+02  0.00000000000E+00 0. -1.
</event>
<event>
 8    1  0.7102339E-009  0.1511288E+03  0.7561462E-02  0.1199093E+00
         -1   -1    0    0    0  501 -0.00000000000E+00  0.00000000000E+00  0.43180730766E+03  0.43180730766E+03  0.00000000000E+00 0. -1.
          1   -1    0    0  501    0  0.00000000000E+00 -0.00000000000E+00 -0.87863558949E+02  0.87863558949E+02  0.00000000000E+00 0.  1.
         25    2    1    2    0    0 -0.52345465386E+01 -0.12258388820E+03  0.40537417460E+02  0.17984763722E+03  0.12509068820E+03 0.  0.
         23    2    1    2    0    0  0.52345465386E+01  0.12258388820E+03  0.30340633125E+03  0.33982322939E+03  0.91488880546E+02 0.  0.
          5    1    3    3  502    0 -0.37170273741E+02 -0.11358484811E+03 -0.91718334401E+01  0.11993640773E+03  0.41800000000E+01 0. -1.
         -5    1    3    3    0  502  0.31935727203E+02 -0.89990400952E+01  0.49709250900E+02  0.59911229496E+02  0.41800000000E+01 0. -1.
        -11    1    4    4    0    0 -0.35939965754E+02  0.89383194925E+02  0.22986286653E+03  0.24923477703E+03  0.00000000000E+00 0. -1.
         11    1    4    4    0    0  0.41174512293E+02  0.33200693279E+02  0.73543464718E+02  0.90588452351E+02  0.00000000000E+00 0.  1.
</event>
<event>
 8    1  0.7102339E-009  0.1338104E+03  0.7561462E-02  0.1221909E+00
         -2   -1    0    0    0  501 -0.00000000000E+00  0.00000000000E+00  0.83825417023E+02  0.83825417023E+02  0.00000000000E+00 0. -1.
          2   -1    0    0  501    0  0.00000000000E+00 -0.00000000000E+00 -0.25349609935E+03  0.25349609935E+03  0.00000000000E+00 0.  1.
         25    2    1    2    0    0  0.13518635307E+02 -0.85882445235E+02 -0.13972543825E+03  0.20671293601E+03  0.12509393238E+03 0.  0.
         23    2    1    2    0    0 -0.13518635307E+02  0.85882445235E+02 -0.29945244082E+02  0.13060858037E+03  0.92754168221E+02 0.  0.
          5    1    3    3  502    0 -0.10442021646E+02 -0.11160248690E+03 -0.12613446300E+03  0.16879433064E+03  0.41800000000E+01 0.  1.
         -5    1    3    3    0  502  0.23960656953E+02  0.25720041667E+02 -0.13590975243E+02  0.37918605368E+02  0.41800000000E+01 0.  1.
        -11    1    4    4    0    0 -0.33676747777E+02  0.19484837298E+01 -0.28682404212E+02  0.44278665755E+02  0.00000000000E+00 0.  1.
         11    1    4    4    0    0  0.20158112470E+02  0.83933961505E+02 -0.12628398697E+01  0.86329914612E+02  0.00000000000E+00 0. -1.
</event>
<event>
 8    1  0.7102339E-009  0.7050399E+02  0.7561462E-02  0.1358388E+00
          4   -1    0    0  501    0  0.00000000000E+00  0.00000000000E+00  0.86128827614E+02  0.86128827614E+02  0.00000000000E+00 0. -1.
         -4   -1    0    0    0  501 -0.00000000000E+00 -0.00000000000E+00 -0.19105524359E+03  0.19105524359E+03  0.00000000000E+00 0.  1.
         25    2    1    2    0    0 -0.47835392403E+02 -0.37080749438E+02 -0.25963033786E+02  0.14136695953E+03  0.12508929362E+03 0.  0.
         23    2    1    2    0    0  0.47835392403E+02  0.37080749438E+02 -0.78963382192E+02  0.13581711168E+03  0.92454666468E+02 0.  0.
          5    1    3    3  502    0 -0.44211625034E+02 -0.48604695078E+02  0.38082563829E+02  0.76058124086E+02  0.41800000000E+01 0.  1.
         -5    1    3    3    0  502 -0.36237673692E+01  0.11523945639E+02 -0.64045597614E+02  0.65308835442E+02  0.41800000000E+01 0.  1.
        -11    1    4    4    0    0  0.36930643710E+02  0.19666077994E+02 -0.98776951683E+02  0.10727307795E+03  0.00000000000E+00 0.  1.
         11    1    4    4    0    0  0.10904748693E+02  0.17414671445E+02  0.19813569491E+02  0.28544033729E+02  0.00000000000E+00 0. -1.
</event>
<event>
 8    1  0.7102339E-009  0.1207290E+03  0.7561462E-02  0.1241899E+00
         -2   -1    0    0    0  501 -0.00000000000E+00  0.00000000000E+00  0.70951890128E+03  0.70951890128E+03  0.00000000000E+00 0. -1.
          2   -1    0    0  501    0  0.00000000000E+00 -0.00000000000E+00 -0.26152257913E+02  0.26152257913E+02  0.00000000000E+00 0.  1.
         25    2    1    2    0    0 -0.16166208430E+02  0.74133430678E+02  0.30759371962E+03  0.34061633794E+03  0.12509389065E+03 0.  0.
         23    2    1    2    0    0  0.16166208430E+02 -0.74133430678E+02  0.37577292374E+03  0.39505482126E+03  0.95424890577E+02 0.  0.
          5    1    3    3  502    0  0.33220901201E+02  0.80420792447E+02  0.24797704281E+03  0.26283306165E+03  0.41800000000E+01 0. -1.
         -5    1    3    3    0  502 -0.49387109631E+02 -0.62873617692E+01  0.59616676817E+02  0.77783276291E+02  0.41800000000E+01 0. -1.
        -11    1    4    4    0    0 -0.27574590681E+02 -0.16867081963E+02  0.38978814865E+02  0.50637975013E+02  0.00000000000E+00 0.  1.
         11    1    4    4    0    0  0.43740799111E+02 -0.57266348715E+02  0.33679410888E+03  0.34441684624E+03  0.00000000000E+00 0. -1.
</event>
<event>
 8    1  0.7102339E-009  0.1394718E+03  0.7561462E-02  0.1214041E+00
          2   -1    0    0  501    0  0.00000000000E+00  0.00000000000E+00  0.29549194145E+03  0.29549194145E+03  0.00000000000E+00 0.  1.
         -2   -1    0    0    0  501 -0.00000000000E+00 -0.00000000000E+00 -0.11845643652E+03  0.11845643652E+03  0.00000000000E+00 0. -1.
         25    2    1    2    0    0 -0.12076828217E+03  0.19887038526E+02  0.19238066967E+03  0.26007008117E+03  0.12508258382E+03 0.  0.
         23    2    1    2    0    0  0.12076828217E+03 -0.19887038526E+02 -0.15345164732E+02  0.15387829680E+03  0.91992303296E+02 0.  0.
          5    1    3    3  502    0  0.13293741799E+01  0.29815420211E+02  0.10578636482E+03  0.10999524489E+03  0.41800000000E+01 0. -1.
         -5    1    3    3    0  502 -0.12209765635E+03 -0.99283816843E+01  0.86594304852E+02  0.15007483627E+03  0.41800000000E+01 0. -1.
        -11    1    4    4    0    0  0.14402960638E+02 -0.13399784723E+02 -0.39932831181E+02  0.44515508667E+02  0.00000000000E+00 0. -1.
         11    1    4    4    0    0  0.10636532154E+03 -0.64872538029E+01  0.24587666449E+02  0.10936278814E+03  0.00000000000E+00 0.  1.
</event>
<event>
 8    1  0.7102339E-009  0.2968377E+03  0.7561462E-02  0.1086832E+00
          1   -1    0    0  501    0  0.00000000000E+00  0.00000000000E+00  0.11122451048E+04  0.11122451048E+04  0.00000000000E+00 0. -1.
         -1   -1    0    0    0  501 -0.00000000000E+00 -0.00000000000E+00 -0.85586893041E+02  0.85586893041E+02  0.00000000000E+00 0.  1.
         25    2    1    2    0    0  0.45767548715E+01  0.28944007186E+03  0.54078057915E+03  0.62600974292E+03  0.12509221224E+03 0.  0.
         23    2    1    2    0    0 -0.45767548715E+01 -0.28944007186E+03  0.48587763259E+03  0.57182225490E+03  0.84303709659E+02 0.  0.
          5    1    3    3  502    0  0.30617070731E+01 -0.24078609292E+01  0.82332819736E+02  0.82530827271E+02  0.41800000000E+01 0. -1.
         -5    1    3    3    0  502  0.15150477983E+01  0.29184793279E+03  0.45844775941E+03  0.54347891565E+03  0.41800000000E+01 0. -1.
        -11    1    4    4    0    0 -0.29740705466E+02 -0.22404866117E+03  0.32013802243E+03  0.39188093286E+03  0.00000000000E+00 0.  1.
         11    1    4    4    0    0  0.25163950595E+02 -0.65391410698E+02  0.16573961016E+03  0.17994132204E+03  0.00000000000E+00 0. -1.
</event>
<event>
 8    1  0.7102339E-009  0.1266995E+03  0.7561462E-02  0.1232437E+00
          2   -1    0    0  501    0  0.00000000000E+00  0.00000000000E+00  0.36107283635E+03  0.36107283635E+03  0.00000000000E+00 0. -1.
         -2   -1    0    0    0  501 -0.00000000000E+00 -0.00000000000E+00 -0.67235763209E+02  0.67235763209E+02  0.00000000000E+00 0.  1.
         25    2    1    2    0    0  0.67112466332E+02  0.24652349597E+02  0.27417237731E+03  0.30972440882E+03  0.12508755120E+03 0.  0.
         23    2    1    2    0    0 -0.67112466332E+02 -0.24652349597E+02  0.19664695833E+02  0.11858419073E+03  0.92540199651E+02 0.  0.
          5    1    3    3  502    0 -0.35889658211E+02 -0.25818808942E+01  0.53052612434E+02  0.64240063523E+02  0.41800000000E+01 0. -1.
         -5    1    3    3    0  502  0.10300212454E+03  0.27234230491E+02  0.22111976487E+03  0.24548434530E+03  0.41800000000E+01 0. -1.
        -11    1    4    4    0    0 -0.52592352222E+02  0.25421614017E+02 -0.89742955435E+01  0.59099508898E+02  0.00000000000E+00 0.  1.
         11    1    4    4    0    0 -0.14520114110E+02 -0.50073963614E+02  0.28638991377E+02  0.59484681834E+02  0.00000000000E+00 0. -1.
</event>
<event>
 8    1  0.7102339E-009  0.1415255E+03  0.7561462E-02  0.1211291E+00
         -2   -1    0    0    0  501 -0.00000000000E+00  0.00000000000E+00  0.46910146059E+02  0.46910146059E+02  0.00000000000E+00 0. -1.
          2   -1    0    0  501    0  0.00000000000E+00 -0.00000000000E+00 -0.47718310790E+03  0.47718310790E+03  0.00000000000E+00 0.  1.
         25    2    1    2    0    0  0.10053678392E+03  0.21964627799E+02 -0.23633169272E+03  0.28651328439E+03  0.12508838216E+03 0.  0.
         23    2    1    2    0    0 -0.10053678392E+03 -0.21964627799E+02 -0.19394126912E+03  0.23757996957E+03  0.90779602760E+02 0.  0.
          5    1    3    3  502    0 -0.16864525391E+02 -0.22165398189E+02 -0.87050727428E+02  0.91493271006E+02  0.41800000000E+01 0. -1.
         -5    1    3    3    0  502  0.11740130931E+03  0.44130025988E+02 -0.14928096529E+03  0.19502001339E+03  0.41800000000E+01 0. -1.
        -11    1    4    4    0    0  0.11406437067E+02 -0.12700192213E+02 -0.50286207572E+01  0.17795749928E+02  0.00000000000E+00 0. -1.
         11    1    4    4    0    0 -0.11194322099E+03 -0.92644355868E+01 -0.18891264837E+03  0.21978421964E+03  0.00000000000E+00 0.  1.
</event>
<event>
 8    1  0.7102339E-009  0.1428047E+03  0.7561462E-02  0.1209604E+00
         -1   -1    0    0    0  501 -0.00000000000E+00  0.00000000000E+00  0.30716229656E+03  0.30716229656E+03  0.00000000000E+00 0.  1.
          1   -1    0    0  501    0  0.00000000000E+00 -0.00000000000E+00 -0.10118834278E+03  0.10118834278E+03  0.00000000000E+00 0. -1.
         25    2    1    2    0    0  0.72803395480E+02  0.76116609037E+02  0.56707084825E+01  0.16362818170E+03  0.12509177569E+03 0.  0.
         23    2    1    2    0    0 -0.72803395480E+02 -0.76116609037E+02  0.20030324530E+03  0.24472245764E+03  0.93132264177E+02 0.  0.
          5    1    3    3  502    0  0.12634764195E+02  0.89617128865E+02  0.32496359007E+02  0.96251508045E+02  0.41800000000E+01 0. -1.
         -5    1    3    3    0  502  0.60168631285E+02 -0.13500519828E+02 -0.26825650524E+02  0.67376673652E+02  0.41800000000E+01 0. -1.
        -11    1    4    4    0    0  0.18142132211E+02 -0.95725091098E+01  0.83752427330E+01  0.22156592307E+02  0.00000000000E+00 0. -1.
         11    1    4    4    0    0 -0.90945527691E+02 -0.66544099927E+02  0.19192800256E+03  0.22256586533E+03  0.00000000000E+00 0.  1.
</event>
<event>
 8    1  0.7102339E-009  0.8574131E+02  0.7561462E-02  0.1313505E+00
          2   -1    0    0  501    0  0.00000000000E+00  0.00000000000E+00  0.44117379079E+03  0.44117379079E+03  0.00000000000E+00 0. -1.
         -2   -1    0    0    0  501 -0.00000000000E+00 -0.00000000000E+00 -0.37832686412E+02  0.37832686412E+02  0.00000000000E+00 0.  1.
         25    2    1    2    0    0  0.73000722103E+01 -0.57354791831E+02  0.29376954898E+03  0.32448409982E+03  0.12508605010E+03 0.  0.
         23    2    1    2    0    0 -0.73000722103E+01  0.57354791831E+02  0.10957155540E+03  0.15452237739E+03  0.92349207681E+02 0.  0.
          5    1    3    3  502    0 -0.73169885917E+01 -0.33917174206E+02  0.61187866040E+01  0.35479923587E+02  0.41800000000E+01 0.  1.
         -5    1    3    3    0  502  0.14617060802E+02 -0.23437617624E+02  0.28765076237E+03  0.28900417623E+03  0.41800000000E+01 0.  1.
        -11    1    4    4    0    0 -0.39212725324E+02  0.64880465244E+02  0.82092837074E+02  0.11174232187E+03  0.00000000000E+00 0.  1.
         11    1    4    4    0    0  0.31912653113E+02 -0.75256734135E+01  0.27478718330E+02  0.42780055518E+02  0.00000000000E+00 0. -1.
</event>
<event>
 8    1  0.7102339E-009  0.8702900E+02  0.7561462E-02  0.1310210E+00
         -3   -1    0    0    0  501 -0.00000000000E+00  0.00000000000E+00  0.18259129865E+02  0.18259129865E+02  0.00000000000E+00 0.  1.
          3   -1    0    0  501    0  0.00000000000E+00 -0.00000000000E+00 -0.10731968202E+04  0.10731968202E+04  0.00000000000E+00 0. -1.
         25    2    1    2    0    0 -0.17613009945E+02 -0.61035238453E+02 -0.81908967155E+03  0.83101849378E+03  0.12509327923E+03 0.  0.
         23    2    1    2    0    0  0.17613009945E+02  0.61035238453E+02 -0.23584801874E+03  0.26043745625E+03  0.90376225958E+02 0.  0.
          5    1    3    3  502    0  0.10709006839E+02 -0.36988851924E+02 -0.76069404663E+03  0.76167956712E+03  0.41800000000E+01 0. -1.
         -5    1    3    3    0  502 -0.28322016784E+02 -0.24046386529E+02 -0.58395624917E+02  0.69338926652E+02  0.41800000000E+01 0. -1.
        -11    1    4    4    0    0  0.19650409418E+02 -0.13200465081E+02 -0.16491084150E+02  0.28850419842E+02  0.00000000000E+00 0.  1.
         11    1    4    4    0    0 -0.20373994728E+01  0.74235703534E+02 -0.21935693459E+03  0.23158703640E+03  0.00000000000E+00 0. -1.
</event>
<event>
 8    1  0.7102339E-009  0.1885215E+03  0.7561462E-02  0.1159802E+00
         -1   -1    0    0    0  501 -0.00000000000E+00  0.00000000000E+00  0.37239366022E+02  0.37239366022E+02  0.00000000000E+00 0.  1.
          1   -1    0    0  501    0  0.00000000000E+00 -0.00000000000E+00 -0.16647581281E+04  0.16647581281E+04  0.00000000000E+00 0. -1.
         25    2    1    2    0    0  0.29607180199E+01  0.17070624052E+03 -0.13347763687E+04  0.13514527774E+04  0.12508904290E+03 0.  0.
         23    2    1    2    0    0 -0.29607180199E+01 -0.17070624052E+03 -0.29274239338E+03  0.35054471674E+03  0.89633158761E+02 0.  0.
          5    1    3    3  502    0  0.19761781656E+02  0.16826349217E+03 -0.87026916445E+03  0.88661661489E+03  0.41800000000E+01 0.  1.
         -5    1    3    3    0  502 -0.16801063636E+02  0.24427483506E+01 -0.46450720428E+03  0.46483616252E+03  0.41800000000E+01 0.  1.
        -11    1    4    4    0    0 -0.38009641732E+02 -0.13420110725E+03 -0.18672764210E+03  0.23307055236E+03  0.00000000000E+00 0.  1.
         11    1    4    4    0    0  0.35048923712E+02 -0.36505133265E+02 -0.10601475128E+03  0.11747416438E+03  0.00000000000E+00 0. -1.
</event>
<event>
 8    1  0.7102339E-009  0.1879124E+03  0.7561462E-02  0.1160358E+00
         -2   -1    0    0    0  501 -0.00000000000E+00  0.00000000000E+00  0.32469812042E+02  0.32469812042E+02  0.00000000000E+00 0.  1.
          2   -1    0    0  501    0  0.00000000000E+00 -0.00000000000E+00 -0.12924809065E+04  0.12924809065E+04  0.00000000000E+00 0. -1.
         25    2    1    2    0    0  0.15703432577E+03  0.39524709757E+02 -0.48499398449E+03  0.52639239606E+03  0.12509119666E+03 0.  0.
         23    2    1    2    0    0 -0.15703432577E+03 -0.39524709757E+02 -0.77501710999E+03  0.79855832251E+03  0.10402832074E+03 0.  0.
          5    1    3    3  502    0  0.15993082939E+03 -0.45700822431E+01 -0.37025956816E+03  0.40337126330E+03  0.41800000000E+01 0. -1.
         -5    1    3    3    0  502 -0.28965036147E+01  0.44094792000E+02 -0.11473441633E+03  0.12302113276E+03  0.41800000000E+01 0. -1.
        -11    1    4    4    0    0 -0.33952263287E+02  0.14564447038E+02 -0.56057549381E+02  0.67136637855E+02  0.00000000000E+00 0.  1.
         11    1    4    4    0    0 -0.12308206249E+03 -0.54089156795E+02 -0.71895956061E+03  0.73142168465E+03  0.00000000000E+00 0. -1.
</event>
<event>
 8    1  0.7102339E-009  0.1787171E+03  0.7561462E-02  0.1169050E+00
         -1   -1    0    0    0  501 -0.00000000000E+00  0.00000000000E+00  0.34765400551E+02  0.34765400551E+02  0.00000000000E+00 0. -1.
          1   -1    0    0  501    0  0.00000000000E+00 -0.00000000000E+00 -0.10193663012E+04  0.10193663012E+04  0.00000000000E+00 0.  1.
         25    2    1    2    0    0  0.95722724626E+02 -0.11928098331E+03 -0.49296777673E+03  0.53108853747E+03  0.12508802001E+03 0.  0.
         23    2    1    2    0    0 -0.95722724626E+02  0.11928098331E+03 -0.49163312387E+03  0.52304316423E+03  0.92088165221E+02 0.  0.
          5    1    3    3  502    0 -0.18353325180E+02  0.17719879625E+01 -0.13528205599E+03  0.13659682119E+03  0.41800000000E+01 0. -1.
         -5    1    3    3    0  502  0.11407604981E+03 -0.12105297127E+03 -0.35768572074E+03  0.39449171628E+03  0.41800000000E+01 0. -1.
        -11    1    4    4    0    0 -0.64699824720E+02  0.12485300482E+03 -0.44553233292E+03  0.46719738849E+03  0.00000000000E+00 0. -1.
         11    1    4    4    0    0 -0.31022899906E+02 -0.55720215101E+01 -0.46100790948E+02  0.55845775743E+02  0.00000000000E+00 0.  1.
</event>
<event>
 8    1  0.7102339E-009  0.1066789E+03  0.7561462E-02  0.1266847E+00
          1   -1    0    0  501    0  0.00000000000E+00  0.00000000000E+00  0.94383537225E+02  0.94383537225E+02  0.00000000000E+00 0. -1.
         -1   -1    0    0    0  501 -0.00000000000E+00 -0.00000000000E+00 -0.19181803285E+03  0.19181803285E+03  0.00000000000E+00 0.  1.
         25    2    1    2    0    0  0.68439138157E+02  0.19028288470E+02 -0.85750839988E+02  0.16747047468E+03  0.12508861634E+03 0.  0.
         23    2    1    2    0    0 -0.68439138157E+02 -0.19028288470E+02 -0.11683655640E+02  0.11873109539E+03  0.94417020767E+02 0.  0.
          5    1    3    3  502    0 -0.22033810588E+02 -0.18633747813E+02  0.95775563143E+01  0.30690509144E+02  0.41800000000E+01 0. -1.
         -5    1    3    3    0  502  0.90472948745E+02  0.37662036283E+02 -0.95328396302E+02  0.13677996554E+03  0.41800000000E+01 0. -1.
        -11    1    4    4    0    0 -0.73688744822E+02 -0.82828083184E+01 -0.42644639616E+02  0.85540641306E+02  0.00000000000E+00 0.  1.
         11    1    4    4    0    0  0.52496066646E+01 -0.10745480152E+02  0.30960983976E+02  0.33190454088E+02  0.00000000000E+00 0. -1.
</event>
<event>
 8    1  0.7102339E-009  0.1094871E+03  0.7561462E-02  0.1261523E+00
          2   -1    0    0  501    0  0.00000000000E+00  0.00000000000E+00  0.11126455535E+04  0.11126455535E+04  0.00000000000E+00 0.  1.
         -2   -1    0    0    0  501 -0.00000000000E+00 -0.00000000000E+00 -0.14187095848E+02  0.14187095848E+02  0.00000000000E+00 0. -1.
         25    2    1    2    0    0 -0.12206897202E+01 -0.20450149668E+02  0.88309799754E+03  0.89214884806E+03  0.12509114725E+03 0.  0.
         23    2    1    2    0    0  0.12206897202E+01  0.20450149668E+02  0.21536046016E+03  0.23468380134E+03  0.90976151311E+02 0.  0.
          5    1    3    3  502    0 -0.12240246645E+01  0.52702155168E+02  0.41379526881E+03  0.41716065525E+03  0.41800000000E+01 0.  1.
         -5    1    3    3    0  502  0.33349443016E-02 -0.73152304836E+02  0.46930272873E+03  0.47498819281E+03  0.41800000000E+01 0.  1.
        -11    1    4    4    0    0  0.68139935152E+01 -0.35724431590E+02  0.95632499876E+02  0.10231442006E+03  0.00000000000E+00 0.  1.
         11    1    4    4    0    0 -0.55933037950E+01  0.56174581258E+02  0.11972796028E+03  0.13236938128E+03  0.00000000000E+00 0. -1.
</event>
<event>
 8    1  0.7102339E-009  0.9824052E+02  0.7561462E-02  0.1284040E+00
         -3   -1    0    0    0  501 -0.00000000000E+00  0.00000000000E+00  0.24604012643E+03  0.24604012643E+03  0.00000000000E+00 0.  1.
          3   -1    0    0  501    0  0.00000000000E+00 -0.00000000000E+00 -0.49610853356E+02  0.49610853356E+02  0.00000000000E+00 0. -1.
         25    2    1    2    0    0 -0.23005524491E+01 -0.13839221135E+02  0.11289691815E+03  0.16908582537E+03  0.12508991019E+03 0.  0.
         23    2    1    2    0    0  0.23005524491E+01  0.13839221135E+02  0.83532354926E+02  0.12656515441E+03  0.94043965295E+02 0.  0.
          5    1    3    3  502    0 -0.26182544582E+02 -0.51748142225E+02  0.13085293077E+02  0.59599439255E+02  0.41800000000E+01 0. -1.
         -5    1    3    3    0  502  0.23881992133E+02  0.37908921090E+02  0.99811625069E+02  0.10948638612E+03  0.41800000000E+01 0. -1.
        -11    1    4    4    0    0  0.41689536631E+02  0.29370372925E+02  0.57526010898E+02  0.76875732192E+02  0.00000000000E+00 0.  1.
         11    1    4    4    0    0 -0.39388984182E+02 -0.15531151789E+02  0.26006344028E+02  0.49689422219E+02  0.00000000000E+00 0. -1.
</event>
<event>
 8    1  0.7102339E-009  0.1280510E+03  0.7561462E-02  0.1230377E+00
         -1   -1    0    0    0  501 -0.00000000000E+00  0.00000000000E+00  0.98834857632E+02  0.98834857632E+02  0.00000000000E+00 0.  1.
          1   -1    0    0  501    0  0.00000000000E+00 -0.00000000000E+00 -0.19981015816E+03  0.19981015816E+03  0.00000000000E+00 0. -1.
         25    2    1    2    0    0  0.24858766229E+02  0.80263023295E+02 -0.86193828899E+02  0.17359781556E+03  0.12508682688E+03 0.  0.
         23    2    1    2    0    0 -0.24858766229E+02 -0.80263023295E+02 -0.14781471624E+02  0.12504720023E+03  0.91423187512E+02 0.  0.
          5    1    3    3  502    0 -0.12500753664E+02  0.10201902045E+03 -0.40494538963E+02  0.11055057423E+03  0.41800000000E+01 0. -1.
         -5    1    3    3    0  502  0.37359519893E+02 -0.21755997156E+02 -0.45699289937E+02  0.63047241333E+02  0.41800000000E+01 0. -1.
        -11    1    4    4    0    0  0.23057070892E+02 -0.10917596222E+02  0.21421175693E+02  0.33311997740E+02  0.00000000000E+00 0.  1.
         11    1    4    4    0    0 -0.47915837121E+02 -0.69345427072E+02 -0.36202647317E+02  0.91735202488E+02  0.00000000000E+00 0. -1.
</event>
<event>
 8    1  0.7102339E-009  0.2333402E+03  0.7561462E-02  0.1124311E+00
         -1   -1    0    0    0  501 -0.00000000000E+00  0.00000000000E+00  0.31332512956E+03  0.31332512956E+03  0.00000000000E+00 0.  1.
          1   -1    0    0  501    0  0.00000000000E+00 -0.00000000000E+00 -0.19612675636E+03  0.19612675636E+03  0.00000000000E+00 0. -1.
         25    2    1    2    0    0  0.19872394441E+02 -0.21583635623E+03  0.81623224764E+01  0.25038858171E+03  0.12509026186E+03 0.  0.
         23    2    1    2    0    0 -0.19872394441E+02  0.21583635623E+03  0.10903605072E+03  0.25906330421E+03  0.90800278080E+02 0.  0.
          5    1    3    3  502    0  0.72222730997E+02 -0.13607363908E+03 -0.37121010862E+01  0.15415385243E+03  0.41800000000E+01 0. -1.
         -5    1    3    3    0  502 -0.52350336556E+02 -0.79762717150E+02  0.11874423563E+02  0.96234729280E+02  0.41800000000E+01 0. -1.
        -11    1    4    4    0    0 -0.62720845510E+01  0.13118979956E+03  0.11297036491E+03  0.17324088981E+03  0.00000000000E+00 0. -1.
         11    1    4    4    0    0 -0.13600309890E+02  0.84646556672E+02 -0.39343141930E+01  0.85822414401E+02  0.00000000000E+00 0.  1.
</event>
<event>
 8    1  0.7102339E-009  0.1154604E+03  0.7561462E-02  0.1250780E+00
          2   -1    0    0  501    0  0.00000000000E+00  0.00000000000E+00  0.16947332760E+03  0.16947332760E+03  0.00000000000E+00 0.  1.
         -2   -1    0    0    0  501 -0.00000000000E+00 -0.00000000000E+00 -0.12967494649E+03  0.12967494649E+03  0.00000000000E+00 0. -1.
         25    2    1    2    0    0 -0.29790804408E+01  0.49742341404E+02  0.11037216499E+03  0.17410493894E+03  0.12508932613E+03 0.  0.
         23    2    1    2    0    0  0.29790804408E+01 -0.49742341404E+02 -0.70573783873E+02  0.12504333516E+03  0.90399121947E+02 0.  0.
          5    1    3    3  502    0  0.39988359550E+02  0.72164537093E+02  0.87550558861E+02  0.12037176608E+03  0.41800000000E+01 0.  1.
         -5    1    3    3    0  502 -0.42967439991E+02 -0.22422195689E+02  0.22821606124E+02  0.53733172854E+02  0.41800000000E+01 0.  1.
        -11    1    4    4    0    0 -0.29684089446E+02 -0.58715465993E+02 -0.61298602648E+02  0.89923132728E+02  0.00000000000E+00 0. -1.
         11    1    4    4    0    0  0.32663169887E+02  0.89731245892E+01 -0.92751812249E+01  0.35120202430E+02  0.00000000000E+00 0.  1.
</event>
<event>
 8    1  0.7102339E-009  0.1626957E+03  0.7561462E-02  0.1185686E+00
          2   -1    0    0  501    0  0.00000000000E+00  0.00000000000E+00  0.32850805553E+03  0.32850805553E+03  0.00000000000E+00 0. -1.
         -2   -1    0    0    0  501 -0.00000000000E+00 -0.00000000000E+00 -0.12488300673E+03  0.12488300673E+03  0.00000000000E+00 0.  1.
         25    2    1    2    0    0 -0.47213034098E+02 -0.14452987058E+03  0.18101482346E+02  0.19772033747E+03  0.12509082343E+03 0.  0.
         23    2    1    2    0    0  0.47213034098E+02  0.14452987058E+03  0.18552356645E+03  0.25567072479E+03  0.88490517733E+02 0.  0.
          5    1    3    3  502    0 -0.12302130030E+02  0.67830869398E+01  0.38356119554E+02  0.41061137088E+02  0.41800000000E+01 0.  1.
         -5    1    3    3    0  502 -0.34910904068E+02 -0.15131295752E+03 -0.20254637208E+02  0.15665920038E+03  0.41800000000E+01 0.  1.
        -11    1    4    4    0    0  0.39220402712E+02  0.68437111691E+02  0.33937444222E+02  0.85869833852E+02  0.00000000000E+00 0.  1.
         11    1    4    4    0    0  0.79926313865E+01  0.76092758887E+02  0.15158612223E+03  0.16980089094E+03  0.00000000000E+00 0. -1.
</event>
<event>
 8    1  0.7102339E-009  0.8344714E+02  0.7561462E-02  0.1319544E+00
         -2   -1    0    0    0  501 -0.00000000000E+00  0.00000000000E+00  0.13603671114E+03  0.13603671114E+03  0.00000000000E+00 0.  1.
          2   -1    0    0  501    0  0.00000000000E+00 -0.00000000000E+00 -0.88702283945E+02  0.88702283945E+02  0.00000000000E+00 0. -1.
         25    2    1    2    0    0  0.47173479222E+01  0.49658246174E+01  0.32966783149E+02  0.12953986610E+03  0.12508739078E+03 0.  0.
         23    2    1    2    0    0 -0.47173479222E+01 -0.49658246174E+01  0.14367644042E+02  0.95199128981E+02  0.93859108124E+02 0.  0.
          5    1    3    3  502    0  0.38572879828E+02  0.29174260971E+01  0.69415495798E+02  0.79576138949E+02  0.41800000000E+01 0. -1.
         -5    1    3    3    0  502 -0.33855531906E+02  0.20483985202E+01 -0.36448712648E+02  0.49963727151E+02  0.41800000000E+01 0. -1.
        -11    1    4    4    0    0  0.66103384896E+01 -0.48438630529E+02  0.37120523157E+01  0.49028326862E+02  0.00000000000E+00 0.  1.
         11    1    4    4    0    0 -0.11327686412E+02  0.43472805912E+02  0.10655591727E+02  0.46170802119E+02  0.00000000000E+00 0. -1.
</event>
<event>
 8    1  0.7102339E-009  0.1200735E+03  0.7561462E-02  0.1242976E+00
         -1   -1    0    0    0  501 -0.00000000000E+00  0.00000000000E+00  0.20144641079E+03  0.20144641079E+03  0.00000000000E+00 0.  1.
          1   -1    0    0  501    0  0.00000000000E+00 -0.00000000000E+00 -0.74447387972E+02  0.74447387972E+02  0.00000000000E+00 0. -1.
         25    2    1    2    0    0  0.63657184790E+01 -0.54908792262E+02  0.89483810427E+02  0.16343195927E+03  0.12508858918E+03 0.  0.
         23    2    1    2    0    0 -0.63657184790E+01  0.54908792262E+02  0.37515212390E+02  0.11246183949E+03  0.90469753736E+02 0.  0.
          5    1    3    3  502    0  0.49092759089E+00 -0.94899682501E+02  0.71993948095E+02  0.11919224686E+03  0.41800000000E+01 0.  1.
         -5    1    3    3    0  502  0.58747908881E+01  0.39990890239E+02  0.17489862332E+02  0.44239712414E+02  0.41800000000E+01 0.  1.
        -11    1    4    4    0    0  0.40774532292E+02  0.33377606239E+02  0.28339857623E+02  0.59831217705E+02  0.00000000000E+00 0. -1.
         11    1    4    4    0    0 -0.47140250771E+02  0.21531186023E+02  0.91753547668E+01  0.52630621784E+02  0.00000000000E+00 0.  1.
</event>
<event>
 8    1  0.7102339E-009  0.1336325E+03  0.7561462E-02  0.1222163E+00
         -3   -1    0    0    0  501 -0.00000000000E+00  0.00000000000E+00  0.24296976923E+03  0.24296976923E+03  0.00000000000E+00 0.  1.
          3   -1    0    0  501    0  0.00000000000E+00 -0.00000000000E+00 -0.10379174648E+03  0.10379174648E+03  0.00000000000E+00 0. -1.
         25    2    1    2    0    0 -0.10552258659E+03  0.46198805356E+02  0.83771197752E+02  0.18956433618E+03  0.12509067943E+03 0.  0.
         23    2    1    2    0    0  0.10552258659E+03 -0.46198805356E+02  0.55406824996E+02  0.15719717953E+03  0.91496945837E+02 0.  0.
          5    1    3    3  502    0  0.14627719790E+02  0.22827258703E+02 -0.15857425667E+02  0.31685710896E+02  0.41800000000E+01 0. -1.
         -5    1    3    3    0  502 -0.12015030638E+03  0.23371546653E+02  0.99628623419E+02  0.15787862528E+03  0.41800000000E+01 0. -1.
        -11    1    4    4    0    0  0.73082306223E+02 -0.20301771253E+02  0.78945151037E+02  0.10947841007E+03  0.00000000000E+00 0.  1.
         11    1    4    4    0    0  0.32440280371E+02 -0.25897034104E+02 -0.23538326041E+02  0.47718769459E+02  0.00000000000E+00 0. -1.
</event>
<event>
 8    1  0.7102339E-009  0.1718085E+03  0.7561462E-02  0.1175975E+00
          1   -1    0    0  501    0  0.00000000000E+00  0.00000000000E+00  0.71797174991E+03  0.71797174991E+03  0.00000000000E+00 0. -1.
         -1   -1    0    0    0  501 -0.00000000000E+00 -0.00000000000E+00 -0.50963883538E+02  0.50963883538E+02  0.00000000000E+00 0.  1.
         25    2    1    2    0    0 -0.15031479580E+03 -0.25537977823E+02  0.26132710697E+03  0.32739358769E+03  0.12509187933E+03 0.  0.
         23    2    1    2    0    0  0.15031479580E+03  0.25537977823E+02  0.40568075940E+03  0.44154204575E+03  0.84473507531E+02 0.  0.
          5    1    3    3  502    0  0.17608106503E+02  0.25324417049E+01  0.64874605166E+02  0.67399150373E+02  0.41800000000E+01 0. -1.
         -5    1    3    3    0  502 -0.16792290231E+03 -0.28070419528E+02  0.19645250181E+03  0.25999443732E+03  0.41800000000E+01 0. -1.
        -11    1    4    4    0    0  0.61272197876E+02 -0.35245574107E+01  0.26856224045E+03  0.27548571965E+03  0.00000000000E+00 0. -1.
         11    1    4    4    0    0  0.89042597926E+02  0.29062535234E+02  0.13711851895E+03  0.16605632610E+03  0.00000000000E+00 0.  1.
</event>
<event>
 8    1  0.7102339E-009  0.8983769E+02  0.7561462E-02  0.1303245E+00
          1   -1    0    0  501    0  0.00000000000E+00  0.00000000000E+00  0.30848957542E+02  0.30848957542E+02  0.00000000000E+00 0.  1.
         -1   -1    0    0    0  501 -0.00000000000E+00 -0.00000000000E+00 -0.39072722243E+03  0.39072722243E+03  0.00000000000E+00 0. -1.
         25    2    1    2    0    0 -0.33674008121E+01  0.16598138906E+01 -0.22039896909E+03  0.25345412782E+03  0.12509674242E+03 0.  0.
         23    2    1    2    0    0  0.33674008121E+01 -0.16598138906E+01 -0.13947929580E+03  0.16812205216E+03  0.93789424208E+02 0.  0.
          5    1    3    3  502    0 -0.47035730549E+02  0.15754008790E+02 -0.19413989497E+03  0.20042035815E+03  0.41800000000E+01 0. -1.
         -5    1    3    3    0  502  0.43668329737E+02 -0.14094194899E+02 -0.26259074116E+02  0.53033769669E+02  0.41800000000E+01 0. -1.
        -11    1    4    4    0    0  0.90312022689E+01  0.40391153456E+02 -0.10688137365E+03  0.11461516447E+03  0.00000000000E+00 0. -1.
         11    1    4    4    0    0 -0.56638014567E+01 -0.42050967346E+02 -0.32597922150E+02  0.53506887689E+02  0.00000000000E+00 0.  1.
</event>
<event>
 8    1  0.7102339E-009  0.5228122E+02  0.7561462E-02  0.1433412E+00
         -2   -1    0    0    0  501 -0.00000000000E+00  0.00000000000E+00  0.46479805217E+02  0.46479805217E+02  0.00000000000E+00 0.  1.
          2   -1    0    0  501    0  0.00000000000E+00 -0.00000000000E+00 -0.28059285617E+03  0.28059285617E+03  0.00000000000E+00 0. -1.
         25    2    1    2    0    0  0.13854089721E+02  0.94607660179E+01 -0.17703883403E+03  0.21742253518E+03  0.12509343768E+03 0.  0.
         23    2    1    2    0    0 -0.13854089721E+02 -0.94607660179E+01 -0.57074216920E+02  0.10965012621E+03  0.92109945421E+02 0.  0.
          5    1    3    3  502    0  0.76203353172E+01  0.33712547569E+02 -0.18695423251E+03  0.19016824874E+03  0.41800000000E+01 0. -1.
         -5    1    3    3    0  502  0.62337544039E+01 -0.24251781551E+02  0.99153984762E+01  0.27254286440E+02  0.41800000000E+01 0. -1.
        -11    1    4    4    0    0  0.35435681395E+01 -0.22400313629E+02 -0.76958668156E+02  0.80230714382E+02  0.00000000000E+00 0. -1.
         11    1    4    4    0    0 -0.17397657861E+02  0.12939547611E+02  0.19884451236E+02  0.29419411829E+02  0.00000000000E+00 0.  1.
</event>
<event>
 8    1  0.7102339E-009  0.1254613E+03  0.7561462E-02  0.1234350E+00
          2   -1    0    0  501    0  0.00000000000E+00  0.00000000000E+00  0.47492118852E+03  0.47492118852E+03  0.00000000000E+00 0. -1.
         -2   -1    0    0    0  501 -0.00000000000E+00 -0.00000000000E+00 -0.44757674356E+02  0.44757674356E+02  0.00000000000E+00 0.  1.
         25    2    1    2    0    0 -0.54338512020E+02  0.55812812445E+02  0.13144111079E+03  0.19746316370E+03  0.12508873447E+03 0.  0.
         23    2    1    2    0    0  0.54338512020E+02 -0.55812812445E+02  0.29872240338E+03  0.32221569918E+03  0.92304596831E+02 0.  0.
          5    1    3    3  502    0 -0.23812808793E+02 -0.39262216769E+02  0.54143396511E+02  0.71116463030E+02  0.41800000000E+01 0.  1.
         -5    1    3    3    0  502 -0.30525703227E+02  0.95075029214E+02  0.77297714278E+02  0.12634670067E+03  0.41800000000E+01 0.  1.
        -11    1    4    4    0    0  0.99913676119E+01 -0.59535101195E+02  0.87165779904E+02  0.10602890591E+03  0.00000000000E+00 0.  1.
         11    1    4    4    0    0  0.44347144408E+02  0.37222887503E+01  0.21155662347E+03  0.21618679327E+03  0.00000000000E+00 0. -1.
</event>
<event>
 8    1  0.7102339E-009  0.9583144E+02  0.7561462E-02  0.1289314E+00
         -3   -1    0    0    0  501 -0.00000000000E+00  0.00000000000E+00  0.88675046261E+02  0.88675046261E+02  0.00000000000E+00 0.  1.
          3   -1    0    0  501    0  0.00000000000E+00 -0.00000000000E+00 -0.14359286897E+03  0.14359286897E+03  0.00000000000E+00 0. -1.
         25    2    1    2    0    0 -0.66577332412E+01 -0.23907116387E+02 -0.12653274746E+02  0.12815330698E+03  0.12508912464E+03 0.  0.
         23    2    1    2    0    0  0.66577332412E+01  0.23907116387E+02 -0.42264547966E+02  0.10411460825E+03  0.91856866976E+02 0.  0.
          5    1    3    3  502    0  0.47475636674E+02 -0.38397533157E+01 -0.41651712473E+02  0.63411492137E+02  0.41800000000E+01 0.  1.
         -5    1    3    3    0  502 -0.54133369915E+02 -0.20067363072E+02  0.28998437726E+02  0.64741814846E+02  0.41800000000E+01 0.  1.
        -11    1    4    4    0    0 -0.37788829536E+02  0.14867456824E+02 -0.42466752001E+02  0.58757654272E+02  0.00000000000E+00 0. -1.
         11    1    4    4    0    0  0.44446562777E+02  0.90396595636E+01  0.20220403507E+00  0.45356953979E+02  0.00000000000E+00 0.  1.
</event>
<event>
 7    1  0.7102339E-009  0.1326862E+03  0.7561462E-02  0.1223524E+00
          2   -1    0    0  501    0  0.00000000000E+00  0.00000000000E+00  0.10572298065E+04  0.10572298065E+04  0.00000000000E+00 0. -1.
         -2   -1    0    0    0  501 -0.00000000000E+00 -0.00000000000E+00 -0.35818330976E+02  0.35818330976E+02  0.00000000000E+00 0.  1.
         23    2    1    2    0    0 -0.69291071561E+02 -0.47504344952E+02  0.93180286208E+02  0.15251951613E+03  0.86727859850E+02 0.  0.
          5    1    1    2  502    0 -0.54929292208E+01 -0.37216592572E+02  0.27286112646E+03  0.27547398020E+03  0.41800000000E+01 0.  1.
         -5    1    1    2    0  502  0.74784000782E+02  0.84720937524E+02  0.65537006283E+03  0.66505464112E+03  0.41800000000E+01 0.  1.
        -11    1    3    3    0    0 -0.58478344507E+01  0.20569048779E+02  0.80339523383E+00  0.21399261187E+02  0.00000000000E+00 0.  1.
         11    1    3    3    0    0 -0.63443237110E+02 -0.68073393731E+02  0.92376890974E+02  0.13112025494E+03  0.00000000000E+00 0. -1.
</event>
<event>
 8    1  0.7102339E-009  0.1315112E+03  0.7561462E-02  0.1225230E+00
         -2   -1    0    0    0  501 -0.00000000000E+00  0.00000000000E+00  0.92110004980E+02  0.92110004980E+02  0.00000000000E+00 0.  1.
          2   -1    0    0  501    0  0.00000000000E+00 -0.00000000000E+00 -0.28682074991E+03  0.28682074991E+03  0.00000000000E+00 0. -1.
         25    2    1    2    0    0  0.91830035622E+02  0.48835139890E+02 -0.29536594518E+02  0.16534091016E+03  0.12509028670E+03 0.  0.
         23    2    1    2    0    0 -0.91830035622E+02 -0.48835139890E+02 -0.16517415041E+03  0.21358984473E+03  0.86720790344E+02 0.  0.
          5    1    3    3  502    0 -0.18328881759E+02 -0.12296322237E+02  0.19831073499E+02  0.29964834777E+02  0.41800000000E+01 0.  1.
         -5    1    3    3    0  502  0.11015891738E+03  0.61131462127E+02 -0.49367668017E+02  0.13537607538E+03  0.41800000000E+01 0.  1.
        -11    1    4    4    0    0 -0.60535298012E+02 -0.51317029831E+01 -0.14313522803E+03  0.15549453425E+03  0.00000000000E+00 0. -1.
         11    1    4    4    0    0 -0.31294737609E+02 -0.43703436907E+02 -0.22038922386E+02  0.58095310477E+02  0.00000000000E+00 0.  1.
</event>
<event>
 7    1  0.7102339E-009  0.2047811E+03  0.7561462E-02  0.1145767E+00
         -2   -1    0    0    0  501 -0.00000000000E+00  0.00000000000E+00  0.45010320581E+02  0.45010320581E+02  0.00000000000E+00 0.  1.
          2   -1    0    0  501    0  0.00000000000E+00 -0.00000000000E+00 -0.11587652467E+04  0.11587652467E+04  0.00000000000E+00 0. -1.
         23    2    1    2    0    0 -0.15907445839E+03 -0.74677056435E+02 -0.79196865853E+03  0.81641373819E+03  0.91846011046E+02 0.  0.
          5    1    1    2  502    0  0.27555379280E+02  0.76732285368E+02 -0.15209914736E+03  0.17262318956E+03  0.41800000000E+01 0. -1.
         -5    1    1    2    0  502  0.13151907911E+03 -0.20552289331E+01 -0.16968712024E+03  0.21473863954E+03  0.41800000000E+01 0. -1.
        -11    1    3    3    0    0 -0.94336759735E+02  0.40179920159E+01 -0.43843249327E+03  0.44848480426E+03  0.00000000000E+00 0.  1.
         11    1    3    3    0    0 -0.64737698660E+02 -0.78695048450E+02 -0.35353616526E+03  0.36792893394E+03  0.00000000000E+00 0. -1.
</event>
<event>
 8    1  0.7102339E-009  0.1076203E+03  0.7561462E-02  0.1265041E+00
          1   -1    0    0  501    0  0.00000000000E+00  0.00000000000E+00  0.92500852136E+03  0.92500852136E+03  0.00000000000E+00 0. -1.
         -1   -1    0    0    0  501 -0.00000000000E+00 -0.00000000000E+00 -0.24424358800E+02  0.24424358800E+02  0.00000000000E+00 0.  1.
         25    2    1    2    0    0 -0.36171431897E+02  0.43035344158E+02  0.76955659376E+03  0.78168026044E+03  0.12508503205E+03 0.  0.
         23    2    1    2    0    0  0.36171431897E+02 -0.43035344158E+02  0.13102756880E+03  0.16775261971E+03  0.88387240610E+02 0.  0.
          5    1    3    3  502    0  0.35306891055E+02 -0.20700998731E+02  0.24744855039E+03  0.25084530171E+03  0.41800000000E+01 0.  1.
         -5    1    3    3    0  502 -0.71478322952E+02  0.63736342889E+02  0.52210804337E+03  0.53083495873E+03  0.41800000000E+01 0.  1.
        -11    1    4    4    0    0  0.49812874590E+02 -0.40859411083E+02  0.13798553751E+03  0.15228533255E+03  0.00000000000E+00 0. -1.
         11    1    4    4    0    0 -0.13641442693E+02 -0.21759330751E+01 -0.69579687106E+01  0.15467287159E+02  0.00000000000E+00 0.  1.
</event>
<event>
 8    1  0.7102339E-009  0.8817077E+02  0.7561462E-02  0.1307343E+00
          1   -1    0    0  501    0  0.00000000000E+00  0.00000000000E+00  0.68544302296E+03  0.68544302296E+03  0.00000000000E+00 0. -1.
         -1   -1    0    0    0  501 -0.00000000000E+00 -0.00000000000E+00 -0.19802189684E+02  0.19802189684E+02  0.00000000000E+00 0.  1.
         25    2    1    2    0    0  0.24795574582E+02  0.80123553378E+01  0.48874986181E+03  0.50517760960E+03  0.12509584910E+03 0.  0.
         23    2    1    2    0    0 -0.24795574582E+02 -0.80123553378E+01  0.17689097147E+03  0.20006760305E+03  0.89764200247E+02 0.  0.
          5    1    3    3  502    0  0.18725068837E+02  0.65780477995E+02  0.29568573471E+03  0.30352137585E+03  0.41800000000E+01 0. -1.
         -5    1    3    3    0  502  0.60705057451E+01 -0.57768122657E+02  0.19306412710E+03  0.20165623375E+03  0.41800000000E+01 0. -1.
        -11    1    4    4    0    0  0.43023300026E+01  0.12999202546E+02 -0.50696518576E+01  0.14601050655E+02  0.00000000000E+00 0.  1.
         11    1    4    4    0    0 -0.29097904584E+02 -0.21011557883E+02  0.18196062332E+03  0.18546655239E+03  0.00000000000E+00 0. -1.
</event>
<event>
 8    1  0.7102339E-009  0.1115485E+03  0.7561462E-02  0.1257729E+00
          2   -1    0    0  501    0  0.00000000000E+00  0.00000000000E+00  0.77915417262E+03  0.77915417262E+03  0.00000000000E+00 0.  1.
         -2   -1    0    0    0  501 -0.00000000000E+00 -0.00000000000E+00 -0.39126170605E+02  0.39126170605E+02  0.00000000000E+00 0. -1.
         25    2    1    2    0    0  0.74921924954E+02 -0.40872580194E+02  0.63888307570E+03  0.65658480740E+03  0.12509261466E+03 0.  0.
         23    2    1    2    0    0 -0.74921924954E+02  0.40872580194E+02  0.10114492632E+03  0.16169553583E+03  0.92904722894E+02 0.  0.
          5    1    3    3  502    0  0.79933761321E+02 -0.16484682166E+02  0.61920769512E+03  0.62457729149E+03  0.41800000000E+01 0.  1.
         -5    1    3    3    0  502 -0.50118363671E+01 -0.24387898027E+02  0.19675380579E+02  0.32007515913E+02  0.41800000000E+01 0.  1.
        -11    1    4    4    0    0 -0.62723905033E+02  0.64230674640E+02  0.46672207966E+02  0.10118380712E+03  0.00000000000E+00 0. -1.
         11    1    4    4    0    0 -0.12198019921E+02 -0.23358094447E+02  0.54472718352E+02  0.60511728705E+02  0.00000000000E+00 0.  1.
</event>
<event>
 8    1  0.7102339E-009  0.1055649E+03  0.7561462E-02  0.1269011E+00
         -2   -1    0    0    0  501 -0.00000000000E+00  0.00000000000E+00  0.17676438200E+03  0.17676438200E+03  0.00000000000E+00 0. -1.
          2   -1    0    0  501    0  0.00000000000E+00 -0.00000000000E+00 -0.11666078661E+03  0.11666078661E+03  0.00000000000E+00 0.  1.
         25    2    1    2    0    0 -0.87978220682E+02  0.17820020329E+02  0.45457042848E+01  0.15402891631E+03  0.12508606315E+03 0.  0.
         23    2    1    2    0    0  0.87978220682E+02 -0.17820020329E+02  0.55557891106E+02  0.13939625230E+03  0.91032496684E+02 0.  0.
          5    1    3    3  502    0 -0.31385539172E+02  0.37435510379E+02  0.56373719437E+02  0.74712369455E+02  0.41800000000E+01 0.  1.
         -5    1    3    3    0  502 -0.56592681510E+02 -0.19615490050E+02 -0.51828015153E+02  0.79316546855E+02  0.41800000000E+01 0.  1.
        -11    1    4    4    0    0  0.45576622034E+00 -0.14464423847E+02  0.49531638138E+02  0.51602426848E+02  0.00000000000E+00 0. -1.
         11    1    4    4    0    0  0.87522454461E+02 -0.33555964822E+01  0.60262529687E+01  0.87793825452E+02  0.00000000000E+00 0.  1.
</event>
<event>
 8    1  0.7102339E-009  0.8782333E+02  0.7561462E-02  0.1308210E+00
         -2   -1    0    0    0  501 -0.00000000000E+00  0.00000000000E+00  0.74632661792E+01  0.74632661792E+01  0.00000000000E+00 0.  1.
          2   -1    0    0  501    0  0.00000000000E+00 -0.00000000000E+00 -0.18601284679E+04  0.18601284679E+04  0.00000000000E+00 0. -1.
         25    2    1    2    0    0  0.29642378980E+02  0.10733785268E+02 -0.13172199510E+04  0.13235218171E+04  0.12509083174E+03 0.  0.
         23    2    1    2    0    0 -0.29642378980E+02 -0.10733785268E+02 -0.53544525069E+03  0.54406991697E+03  0.91195248178E+02 0.  0.
          5    1    3    3  502    0 -0.92985150545E+00  0.37926418013E+02 -0.11711566362E+04  0.11717783992E+04  0.41800000000E+01 0. -1.
         -5    1    3    3    0  502  0.30572230485E+02 -0.27192632745E+02 -0.14606331480E+03  0.15174341792E+03  0.41800000000E+01 0. -1.
        -11    1    4    4    0    0  0.23010069292E+02 -0.32127588764E+02 -0.23417040906E+03  0.23748142186E+03  0.00000000000E+00 0. -1.
         11    1    4    4    0    0 -0.52652448272E+02  0.21393803496E+02 -0.30127484162E+03  0.30658849511E+03  0.00000000000E+00 0.  1.
</event>
<event>
 8    1  0.7102339E-009  0.1051971E+03  0.7561462E-02  0.1269732E+00
         -1   -1    0    0    0  501 -0.00000000000E+00  0.00000000000E+00  0.96841814544E+01  0.96841814544E+01  0.00000000000E+00 0.  1.
          1   -1    0    0  501    0  0.00000000000E+00 -0.00000000000E+00 -0.15076789748E+04  0.15076789748E+04  0.00000000000E+00 0. -1.
         25    2    1    2    0    0 -0.27945983505E+02  0.25763965191E+02 -0.10515512078E+04  0.10596469893E+04  0.12508812659E+03 0.  0.
         23    2    1    2    0    0  0.27945983505E+02 -0.25763965191E+02 -0.44644358556E+03  0.45771616697E+03  0.93527827513E+02 0.  0.
          5    1    3    3  502    0 -0.61232647748E+02 -0.79358513932E+01 -0.86213212778E+03  0.86435044573E+03  0.41800000000E+01 0.  1.
         -5    1    3    3    0  502  0.33286664243E+02  0.33699816585E+02 -0.18941908001E+03  0.19529654356E+03  0.41800000000E+01 0.  1.
        -11    1    4    4    0    0  0.29347353417E+02 -0.59946787720E+02 -0.29534922375E+03  0.30279704173E+03  0.00000000000E+00 0. -1.
         11    1    4    4    0    0 -0.14013699121E+01  0.34182822529E+02 -0.15109436181E+03  0.15491912524E+03  0.00000000000E+00 0.  1.
</event>
<event>
 8    1  0.7102339E-009  0.8487481E+02  0.7561462E-02  0.1315760E+00
          1   -1    0    0  501    0  0.00000000000E+00  0.00000000000E+00  0.11333497838E+03  0.11333497838E+03  0.00000000000E+00 0. -1.
         -1   -1    0    0    0  501 -0.00000000000E+00 -0.00000000000E+00 -0.14619281216E+03  0.14619281216E+03  0.00000000000E+00 0.  1.
         25    2    1    2    0    0 -0.58887152175E+02 -0.42995102065E+01  0.19147240260E+02  0.13964218833E+03  0.12508853453E+03 0.  0.
         23    2    1    2    0    0  0.58887152175E+02  0.42995102065E+01 -0.52005074042E+02  0.11988560222E+03  0.90453564962E+02 0.  0.
          5    1    3    3  502    0  0.21822646460E+02 -0.17493671910E+02 -0.32302908093E+02  0.42932583508E+02  0.41800000000E+01 0. -1.
         -5    1    3    3    0  502 -0.80709798635E+02  0.13194161703E+02  0.51450148353E+02  0.96709604819E+02  0.41800000000E+01 0. -1.
        -11    1    4    4    0    0  0.37145006473E+02 -0.11672858704E+01  0.21570831892E+02  0.42969929610E+02  0.00000000000E+00 0. -1.
         11    1    4    4    0    0  0.21742145702E+02  0.54667960769E+01 -0.73575905934E+02  0.76915672611E+02  0.00000000000E+00 0.  1.
</event>
<event>
 8    1  0.7102339E-009  0.4556427E+03  0.7561462E-02  0.1026053E+00
          2   -1    0    0  501    0  0.00000000000E+00  0.00000000000E+00  0.80090045540E+03  0.80090045540E+03  0.00000000000E+00 0.  1.
         -2   -1    0    0    0  501 -0.00000000000E+00 -0.00000000000E+00 -0.28018375730E+03  0.28018375730E+03  0.00000000000E+00 0. -1.
         25    2    1    2    0    0 -0.32036050681E+03  0.31708110165E+03  0.15383267743E+03  0.49242536197E+03  0.12508782962E+03 0.  0.
         23    2    1    2    0    0  0.32036050681E+03 -0.31708110165E+03  0.36688402068E+03  0.58865885073E+03  0.93509777907E+02 0.  0.
          5    1    3    3  502    0 -0.24380323726E+03  0.26725892036E+03  0.16973073241E+03  0.39961649483E+03  0.41800000000E+01 0.  1.
         -5    1    3    3    0  502 -0.76557269543E+02  0.49822181289E+02 -0.15898054980E+02  0.92808867143E+02  0.41800000000E+01 0.  1.
        -11    1    4    4    0    0  0.31177592329E+03 -0.27691965501E+03  0.34937181167E+03  0.54401230176E+03  0.00000000000E+00 0.  1.
         11    1    4    4    0    0  0.85845835131E+01 -0.40161446640E+02  0.17512209012E+02  0.44646548969E+02  0.00000000000E+00 0. -1.
</event>
<event>
 8    1  0.7102339E-009  0.1088055E+03  0.7561462E-02  0.1262798E+00
         -1   -1    0    0    0  501 -0.00000000000E+00  0.00000000000E+00  0.92219773986E+02  0.92219773986E+02  0.00000000000E+00 0.  1.
          1   -1    0    0  501    0  0.00000000000E+00 -0.00000000000E+00 -0.15581040089E+03  0.15581040089E+03  0.00000000000E+00 0. -1.
         25    2    1    2    0    0 -0.73865892636E+01 -0.43313269311E+02 -0.63406010191E+02  0.14696502744E+03  0.12509115141E+03 0.  0.
         23    2    1    2    0    0  0.73865892636E+01  0.43313269311E+02 -0.18461670861E+00  0.10106514743E+03  0.91013894230E+02 0.  0.
          5    1    3    3  502    0  0.40774008508E+02 -0.65808951712E+02 -0.49064668970E+02  0.91750487936E+02  0.41800000000E+01 0. -1.
         -5    1    3    3    0  502 -0.48160597772E+02  0.22495682402E+02 -0.14341341222E+02  0.55214539503E+02  0.41800000000E+01 0. -1.
        -11    1    4    4    0    0 -0.15628495127E+01 -0.21387901315E+02 -0.23404375900E+02  0.31743497484E+02  0.00000000000E+00 0. -1.
         11    1    4    4    0    0  0.89494387763E+01  0.64701170625E+02  0.23219759191E+02  0.69321649949E+02  0.00000000000E+00 0.  1.
</event>
<event>
 8    1  0.7102339E-009  0.7764464E+02  0.7561462E-02  0.1335872E+00
         -1   -1    0    0    0  501 -0.00000000000E+00  0.00000000000E+00  0.25814941896E+03  0.25814941896E+03  0.00000000000E+00 0.  1.
          1   -1    0    0  501    0  0.00000000000E+00 -0.00000000000E+00 -0.46364136229E+02  0.46364136229E+02  0.00000000000E+00 0. -1.
         25    2    1    2    0    0 -0.14073613458E+02  0.31243927630E+02  0.15609371220E+03  0.20294491716E+03  0.12508853986E+03 0.  0.
         23    2    1    2    0    0  0.14073613458E+02 -0.31243927630E+02  0.55691570535E+02  0.10156863803E+03  0.77719930470E+02 0.  0.
          5    1    3    3  502    0 -0.40973366415E+02  0.56138154365E+02  0.38204386983E+02  0.79418868763E+02  0.41800000000E+01 0.  1.
         -5    1    3    3    0  502  0.26899752957E+02 -0.24894226735E+02  0.11788932521E+03  0.12352604840E+03  0.41800000000E+01 0.  1.
        -11    1    4    4    0    0 -0.74108378339E+01 -0.25471889453E+02 -0.12872204370E+02  0.29486120719E+02  0.00000000000E+00 0. -1.
         11    1    4    4    0    0  0.21484451292E+02 -0.57720381773E+01  0.68563774906E+02  0.72082517307E+02  0.00000000000E+00 0.  1.
</event>
<event>
 8    1  0.7102339E-009  0.1059475E+03  0.7561462E-02  0.1268264E+00
          1   -1    0    0  501    0  0.00000000000E+00  0.00000000000E+00  0.50173044285E+03  0.50173044285E+03  0.00000000000E+00 0. -1.
         -1   -1    0    0    0  501 -0.00000000000E+00 -0.00000000000E+00 -0.36595036274E+02  0.36595036274E+02  0.00000000000E+00 0.  1.
         25    2    1    2    0    0 -0.76490967355E+02 -0.27503707882E+02  0.26461228923E+03  0.30376482395E+03  0.12508430208E+03 0.  0.
         23    2    1    2    0    0  0.76490967355E+02  0.27503707882E+02  0.20052311734E+03  0.23456065517E+03  0.90564111707E+02 0.  0.
          5    1    3    3  502    0 -0.49950371775E+02  0.27781593419E+01  0.17206433252E+02  0.53068743673E+02  0.41800000000E+01 0.  1.
         -5    1    3    3    0  502 -0.26540595580E+02 -0.30281867224E+02  0.24740585598E+03  0.25069608028E+03  0.41800000000E+01 0.  1.
        -11    1    4    4    0    0  0.26589438476E+02  0.57244318976E+02  0.11481475795E+03  0.13102037604E+03  0.00000000000E+00 0. -1.
         11    1    4    4    0    0  0.49901528879E+02 -0.29740611094E+02  0.85708359391E+02  0.10354027913E+03  0.00000000000E+00 0.  1.
</event>
<event>
 8    1  0.7102339E-009  0.1606352E+03  0.7561462E-02  0.1187981E+00
         -2   -1    0    0    0  501 -0.00000000000E+00  0.00000000000E+00  0.19870818215E+03  0.19870818215E+03  0.00000000000E+00 0.  1.
          2   -1    0    0  501    0  0.00000000000E+00 -0.00000000000E+00 -0.18687054365E+03  0.18687054365E+03  0.00000000000E+00 0. -1.
         25    2    1    2    0    0 -0.97217331074E+02 -0.12378819496E+03 -0.12810235335E+02  0.20146808313E+03  0.12510219710E+03 0.  0.
         23    2    1    2    0    0  0.97217331074E+02  0.12378819496E+03  0.24647873842E+02  0.18411064267E+03  0.92273963751E+02 0.  0.
          5    1    3    3  502    0 -0.10069341248E+02 -0.38961986435E+02  0.50168364935E+02  0.64449711096E+02  0.41800000000E+01 0. -1.
         -5    1    3    3    0  502 -0.87147989826E+02 -0.84826208524E+02 -0.62978600271E+02  0.13701837204E+03  0.41800000000E+01 0. -1.
        -11    1    4    4    0    0  0.67606210640E+02  0.10196145119E+03  0.57144215927E+02  0.13502665907E+03  0.00000000000E+00 0.  1.
         11    1    4    4    0    0  0.29611120434E+02  0.21826743771E+02 -0.32496342085E+02  0.49083983599E+02  0.00000000000E+00 0. -1.
</event>
<event>
 8    1  0.7102339E-009  0.1024789E+03  0.7561462E-02  0.1275168E+00
         -1   -1    0    0    0  501 -0.00000000000E+00  0.00000000000E+00  0.29108617805E+02  0.29108617805E+02  0.00000000000E+00 0.  1.
          1   -1    0    0  501    0  0.00000000000E+00 -0.00000000000E+00 -0.46304281916E+03  0.46304281916E+03  0.00000000000E+00 0. -1.
         25    2    1    2    0    0 -0.41726129403E+02 -0.11286490014E+01 -0.25513578528E+03  0.28720046471E+03  0.12508994474E+03 0.  0.
         23    2    1    2    0    0  0.41726129403E+02  0.11286490014E+01 -0.17879841608E+03  0.20495097226E+03  0.91069664069E+02 0.  0.
          5    1    3    3  502    0  0.36100233611E+01 -0.58232812288E+02 -0.12384362204E+03  0.13696279720E+03  0.41800000000E+01 0. -1.
         -5    1    3    3    0  502 -0.45336152764E+02  0.57104163286E+02 -0.13129216324E+03  0.15023766751E+03  0.41800000000E+01 0. -1.
        -11    1    4    4    0    0  0.44564569659E+02  0.23841901388E+02 -0.40487042311E+02  0.64758302369E+02  0.00000000000E+00 0.  1.
         11    1    4    4    0    0 -0.28384402552E+01 -0.22713252386E+02 -0.13831137377E+03  0.14019266989E+03  0.00000000000E+00 0. -1.
</event>
<event>
 8    1  0.7102339E-009  0.9929581E+02  0.7561462E-02  0.1281784E+00
         -1   -1    0    0    0  501 -0.00000000000E+00  0.00000000000E+00  0.46442120146E+02  0.46442120146E+02  0.00000000000E+00 0.  1.
          1   -1    0    0  501    0  0.00000000000E+00 -0.00000000000E+00 -0.52874180579E+03  0.52874180579E+03  0.00000000000E+00 0. -1.
         25    2    1    2    0    0 -0.67232219681E+02  0.95674652323E+00 -0.42983772132E+03  0.45269304369E+03  0.12509771545E+03 0.  0.
         23    2    1    2    0    0  0.67232219681E+02 -0.95674652323E+00 -0.52461964329E+02  0.12249088225E+03  0.87924239010E+02 0.  0.
          5    1    3    3  502    0  0.14989979912E+02  0.22447342500E+02 -0.19335083512E+02  0.33464915023E+02  0.41800000000E+01 0.  1.
         -5    1    3    3    0  502 -0.82222199593E+02 -0.21490595977E+02 -0.41050263781E+03  0.41922812867E+03  0.41800000000E+01 0.  1.
        -11    1    4    4    0    0  0.38537709334E+02 -0.27307878562E+02  0.10561235838E+02  0.48398501782E+02  0.00000000000E+00 0.  1.
         11    1    4    4    0    0  0.28694510347E+02  0.26351132039E+02 -0.63023200167E+02  0.74092380466E+02  0.00000000000E+00 0. -1.
</event>
<event>
 8    1  0.7102339E-009  0.1196223E+03  0.7561462E-02  0.1243721E+00
         -3   -1    0    0    0  501 -0.00000000000E+00  0.00000000000E+00  0.22416432879E+03  0.22416432879E+03  0.00000000000E+00 0.  1.
          3   -1    0    0  501    0  0.00000000000E+00 -0.00000000000E+00 -0.85157827960E+02  0.85157827960E+02  0.00000000000E+00 0. -1.
         25    2    1    2    0    0 -0.76882239850E+02 -0.28392277333E+02  0.10205177892E+03  0.18104965101E+03  0.12508960922E+03 0.  0.
         23    2    1    2    0    0  0.76882239850E+02  0.28392277333E+02  0.36954721916E+02  0.12827250574E+03  0.91494174901E+02 0.  0.
          5    1    3    3  502    0 -0.41503489319E+02 -0.60853385604E+02  0.65403536707E+01  0.74067015542E+02  0.41800000000E+01 0. -1.
         -5    1    3    3    0  502 -0.35378750531E+02  0.32461108271E+02  0.95511425246E+02  0.10698263547E+03  0.41800000000E+01 0. -1.
        -11    1    4    4    0    0  0.60436557152E+02  0.57768314306E+02  0.82146577856E+01  0.84007357896E+02  0.00000000000E+00 0. -1.
         11    1    4    4    0    0  0.16445682698E+02 -0.29376036972E+02  0.28740064130E+02  0.44265147846E+02  0.00000000000E+00 0.  1.
</event>
<event>
 8    1  0.7102339E-009  0.1229350E+03  0.7561462E-02  0.1238332E+00
         -1   -1    0    0    0  501 -0.00000000000E+00  0.00000000000E+00  0.68510283761E+02  0.68510283761E+02  0.00000000000E+00 0.  1.
          1   -1    0    0  501    0  0.00000000000E+00 -0.00000000000E+00 -0.22445553076E+03  0.22445553076E+03  0.00000000000E+00 0. -1.
         25    2    1    2    0    0  0.48102253303E+02 -0.33597831613E+02 -0.85271084383E+02  0.16236322079E+03  0.12509203241E+03 0.  0.
         23    2    1    2    0    0 -0.48102253303E+02  0.33597831613E+02 -0.70674162620E+02  0.13060259373E+03  0.92841581019E+02 0.  0.
          5    1    3    3  502    0 -0.42382335201E+02 -0.17873964891E+02 -0.30510958303E+02  0.55354601747E+02  0.41800000000E+01 0. -1.
         -5    1    3    3    0  502  0.90484588504E+02 -0.15723866723E+02 -0.54760126080E+02  0.10700861904E+03  0.41800000000E+01 0. -1.
        -11    1    4    4    0    0 -0.22297318179E+02 -0.31000127452E+02 -0.37556435602E+02  0.53559911829E+02  0.00000000000E+00 0. -1.
         11    1    4    4    0    0 -0.25804935124E+02  0.64597959066E+02 -0.33117727018E+02  0.77042681905E+02  0.00000000000E+00 0.  1.
</event>
<event>
 8    1  0.7102339E-009  0.1438570E+03  0.7561462E-02  0.1208231E+00
         -1   -1    0    0    0  501 -0.00000000000E+00  0.00000000000E+00  0.10599268733E+03  0.10599268733E+03  0.00000000000E+00 0.  1.
          1   -1    0    0  501    0  0.00000000000E+00 -0.00000000000E+00 -0.22380306071E+03  0.22380306071E+03  0.00000000000E+00 0. -1.
         25    2    1    2    0    0 -0.91083513152E+02 -0.38415991715E+02 -0.15547638839E+02  0.16019279627E+03  0.12509199861E+03 0.  0.
         23    2    1    2    0    0  0.91083513152E+02  0.38415991715E+02 -0.10226273454E+03  0.16960295177E+03  0.92387767519E+02 0.  0.
          5    1    3    3  502    0 -0.19028074084E+02  0.44109742251E+02 -0.15190996510E+02  0.50556658709E+02  0.41800000000E+01 0.  1.
         -5    1    3    3    0  502 -0.72055439068E+02 -0.82525733966E+02 -0.35664232886E+00  0.10963613756E+03  0.41800000000E+01 0.  1.
        -11    1    4    4    0    0  0.16748744657E+02  0.51700212065E+02 -0.66980812405E+02  0.86254632372E+02  0.00000000000E+00 0. -1.
         11    1    4    4    0    0  0.74334768495E+02 -0.13284220350E+02 -0.35281922133E+02  0.83348319400E+02  0.00000000000E+00 0.  1.
</event>
<event>
 8    1  0.7102339E-009  0.1023130E+03  0.7561462E-02  0.1275506E+00
         -2   -1    0    0    0  501 -0.00000000000E+00  0.00000000000E+00  0.27009618530E+03  0.27009618530E+03  0.00000000000E+00 0.  1.
          2   -1    0    0  501    0  0.00000000000E+00 -0.00000000000E+00 -0.46195469068E+02  0.46195469068E+02  0.00000000000E+00 0. -1.
         25    2    1    2    0    0 -0.31314487478E+01 -0.18563818540E+02  0.15624655002E+03  0.20104258216E+03  0.12510281420E+03 0.  0.
         23    2    1    2    0    0  0.31314487478E+01  0.18563818540E+02  0.67654166213E+02  0.11524907221E+03  0.91382936637E+02 0.  0.
          5    1    3    3  502    0  0.57646091504E+02  0.10775578853E+02  0.76667426068E+02  0.96615483154E+02  0.41800000000E+01 0.  1.
         -5    1    3    3    0  502 -0.60777540251E+02 -0.29339397393E+02  0.79579123953E+02  0.10442709901E+03  0.41800000000E+01 0.  1.
        -11    1    4    4    0    0  0.39545465748E+02  0.10569120162E+02  0.35434757674E+01  0.41086571806E+02  0.00000000000E+00 0. -1.
         11    1    4    4    0    0 -0.36414017000E+02  0.79946983781E+01  0.64110690445E+02  0.74162500400E+02  0.00000000000E+00 0.  1.
</event>
<event>
 8    1  0.7102339E-009  0.1000129E+03  0.7561462E-02  0.1280269E+00
         -2   -1    0    0    0  501 -0.00000000000E+00  0.00000000000E+00  0.20892597027E+02  0.20892597027E+02  0.00000000000E+00 0.  1.
          2   -1    0    0  501    0  0.00000000000E+00 -0.00000000000E+00 -0.60205595837E+03  0.60205595837E+03  0.00000000000E+00 0. -1.
         25    2    1    2    0    0  0.15363840668E+02 -0.13422919789E+02 -0.27195556924E+03  0.30003884490E+03  0.12508898607E+03 0.  0.
         23    2    1    2    0    0 -0.15363840668E+02  0.13422919789E+02 -0.30920779211E+03  0.32290971050E+03  0.90801982670E+02 0.  0.
          5    1    3    3  502    0 -0.30304912958E+02  0.43779790012E+02 -0.11701643697E+03  0.12862883302E+03  0.41800000000E+01 0. -1.
         -5    1    3    3    0  502  0.45668753626E+02 -0.57202709800E+02 -0.15493913227E+03  0.17141001188E+03  0.41800000000E+01 0. -1.
        -11    1    4    4    0    0  0.73396415544E+01 -0.26432349142E+02 -0.32971834583E+02  0.42891506094E+02  0.00000000000E+00 0.  1.
         11    1    4    4    0    0 -0.22703482222E+02  0.39855268930E+02 -0.27623595753E+03  0.28001820440E+03  0.00000000000E+00 0. -1.
</event>
<event>
 8    1  0.7102339E-009  0.8399665E+02  0.7561462E-02  0.1318077E+00
          2   -1    0    0  501    0  0.00000000000E+00  0.00000000000E+00  0.72480059369E+02  0.72480059369E+02  0.00000000000E+00 0.  1.
         -2   -1    0    0    0  501 -0.00000000000E+00 -0.00000000000E+00 -0.16983766144E+03  0.16983766144E+03  0.00000000000E+00 0. -1.
         25    2    1    2    0    0  0.25932865219E+02 -0.19536020221E+01 -0.70583218382E+02  0.14597183292E+03  0.12509778267E+03 0.  0.
         23    2    1    2    0    0 -0.25932865219E+02  0.19536020221E+01 -0.26774383686E+02  0.96345887885E+02  0.88821914139E+02 0.  0.
          5    1    3    3  502    0 -0.28612889289E+02  0.16210639806E+01 -0.84571386813E+02  0.89393048664E+02  0.41800000000E+01 0. -1.
         -5    1    3    3    0  502  0.54545754509E+02 -0.35746660027E+01  0.13988168431E+02  0.56578784257E+02  0.41800000000E+01 0. -1.
        -11    1    4    4    0    0 -0.30004795067E+02 -0.35530187891E+02  0.53510214158E+01  0.46811488000E+02  0.00000000000E+00 0. -1.
         11    1    4    4    0    0  0.40719298479E+01  0.37483789914E+02 -0.32125405102E+02  0.49534399884E+02  0.00000000000E+00 0.  1.
</event>
<event>
 8    1  0.7102339E-009  0.2949589E+03  0.7561462E-02  0.1087788E+00
         -2   -1    0    0    0  501 -0.00000000000E+00  0.00000000000E+00  0.24101409923E+03  0.24101409923E+03  0.00000000000E+00 0. -1.
          2   -1    0    0  501    0  0.00000000000E+00 -0.00000000000E+00 -0.39183363477E+03  0.39183363477E+03  0.00000000000E+00 0.  1.
         25    2    1    2    0    0 -0.12682410394E+03  0.25238699896E+03 -0.25185627511E+02  0.30994059957E+03  0.12508120898E+03 0.  0.
         23    2    1    2    0    0  0.12682410394E+03 -0.25238699896E+03 -0.12563390803E+03  0.32290713443E+03  0.93282302905E+02 0.  0.
          5    1    3    3  502    0 -0.88883430588E+02  0.24639586046E+03 -0.46115012820E+02  0.26599859228E+03  0.41800000000E+01 0. -1.
         -5    1    3    3    0  502 -0.37940673353E+02  0.59911385013E+01  0.20929385308E+02  0.43942007287E+02  0.41800000000E+01 0. -1.
        -11    1    4    4    0    0  0.10680830120E+03 -0.14510429884E+03 -0.40948809039E+02  0.18477033233E+03  0.00000000000E+00 0. -1.
         11    1    4    4    0    0  0.20015802742E+02 -0.10728270012E+03 -0.84685098986E+02  0.13813680210E+03  0.00000000000E+00 0.  1.
</event>
<event>
 8    1  0.7102339E-009  0.7930587E+02  0.7561462E-02  0.1331033E+00
         -2   -1    0    0    0  501 -0.00000000000E+00  0.00000000000E+00  0.33260545159E+03  0.33260545159E+03  0.00000000000E+00 0. -1.
          2   -1    0    0  501    0  0.00000000000E+00 -0.00000000000E+00 -0.46749842597E+02  0.46749842597E+02  0.00000000000E+00 0.  1.
         25    2    1    2    0    0 -0.25075292863E+02  0.15479847721E+02  0.78143437156E+02  0.15040965555E+03  0.12509305222E+03 0.  0.
         23    2    1    2    0    0  0.25075292863E+02 -0.15479847721E+02  0.20771217184E+03  0.22894563864E+03  0.91669859404E+02 0.  0.
          5    1    3    3  502    0  0.23810622693E+02  0.11503334672E+01  0.93863068021E+02  0.96933054003E+02  0.41800000000E+01 0. -1.
         -5    1    3    3    0  502 -0.48885915557E+02  0.14329514254E+02 -0.15719630865E+02  0.53476601548E+02  0.41800000000E+01 0. -1.
        -11    1    4    4    0    0  0.43393212887E+02  0.16513703160E+02  0.55632968515E+02  0.72461717496E+02  0.00000000000E+00 0.  1.
         11    1    4    4    0    0 -0.18317920023E+02 -0.31993550881E+02  0.15207920332E+03  0.15648392114E+03  0.00000000000E+00 0. -1.
</event>
<event>
 8    1  0.7102339E-009  0.1131158E+03  0.7561462E-02  0.1254906E+00
         -2   -1    0    0    0  501 -0.00000000000E+00  0.00000000000E+00  0.20462388380E+03  0.20462388380E+03  0.00000000000E+00 0.  1.
          2   -1    0    0  501    0  0.00000000000E+00 -0.00000000000E+00 -0.84503312917E+02  0.84503312917E+02  0.00000000000E+00 0. -1.
         25    2    1    2    0    0  0.38273075120E+02 -0.46490733575E+01 -0.38712366214E+01  0.13095106738E+03  0.12508698339E+03 0.  0.
         23    2    1    2    0    0 -0.38273075120E+02  0.46490733575E+01  0.12399180750E+03  0.15817612933E+03  0.90328718585E+02 0.  0.
          5    1    3    3  502    0  0.39828696575E+02 -0.61519104665E+02  0.31661867425E+01  0.73473957619E+02  0.41800000000E+01 0. -1.
         -5    1    3    3    0  502 -0.15556214553E+01  0.56870031308E+02 -0.70374233639E+01  0.57477109762E+02  0.41800000000E+01 0. -1.
        -11    1    4    4    0    0 -0.39478901819E+02 -0.37004472518E+02  0.52305401214E+02  0.75258020644E+02  0.00000000000E+00 0. -1.
         11    1    4    4    0    0  0.12058266991E+01  0.41653545876E+02  0.71686406290E+02  0.82918108691E+02  0.00000000000E+00 0.  1.
</event>
<event>
 8    1  0.7102339E-009  0.1557064E+03  0.7561462E-02  0.1193631E+00
         -2   -1    0    0    0  501 -0.00000000000E+00  0.00000000000E+00  0.17077415470E+03  0.17077415470E+03  0.00000000000E+00 0.  1.
          2   -1    0    0  501    0  0.00000000000E+00 -0.00000000000E+00 -0.33435820865E+03  0.33435820865E+03  0.00000000000E+00 0. -1.
         25    2    1    2    0    0 -0.12890237587E+03 -0.24083015269E+02 -0.26070764450E+03  0.31750184522E+03  0.12507250571E+03 0.  0.
         23    2    1    2    0    0  0.12890237587E+03  0.24083015269E+02  0.97123590552E+02  0.18763051812E+03  0.92608883808E+02 0.  0.
          5    1    3    3  502    0  0.14244954479E+02  0.24182843405E+02 -0.58927424450E+02  0.65403687936E+02  0.41800000000E+01 0. -1.
         -5    1    3    3    0  502 -0.14314733035E+03 -0.48265858675E+02 -0.20178022005E+03  0.25209815728E+03  0.41800000000E+01 0. -1.
        -11    1    4    4    0    0  0.11575986883E+03  0.17054000537E+02  0.11520023791E+03  0.16420195182E+03  0.00000000000E+00 0.  1.
         11    1    4    4    0    0  0.13142507045E+02  0.70290147325E+01 -0.18076647360E+02  0.23428566309E+02  0.00000000000E+00 0. -1.
</event>
<event>
 8    1  0.7102339E-009  0.1005061E+03  0.7561462E-02  0.1279235E+00
         -2   -1    0    0    0  501 -0.00000000000E+00  0.00000000000E+00  0.28355124711E+02  0.28355124711E+02  0.00000000000E+00 0. -1.
          2   -1    0    0  501    0  0.00000000000E+00 -0.00000000000E+00 -0.67334369619E+03  0.67334369619E+03  0.00000000000E+00 0.  1.
         25    2    1    2    0    0  0.45946091360E+02 -0.34967023640E+02 -0.51817613282E+03  0.53617907596E+03  0.12509101015E+03 0.  0.
         23    2    1    2    0    0 -0.45946091360E+02  0.34967023640E+02 -0.12681243866E+03  0.16551974494E+03  0.89340110325E+02 0.  0.
          5    1    3    3  502    0 -0.38356646098E+02 -0.21209417868E+02 -0.98716395921E+02  0.10809010561E+03  0.41800000000E+01 0. -1.
         -5    1    3    3    0  502  0.84302737458E+02 -0.13757605771E+02 -0.41945973690E+03  0.42808897035E+03  0.41800000000E+01 0. -1.
        -11    1    4    4    0    0 -0.48044536801E+02  0.13515619123E+02 -0.13384506252E+03  0.14284764695E+03  0.00000000000E+00 0.  1.
         11    1    4    4    0    0  0.20984454411E+01  0.21451404516E+02  0.70326238638E+01  0.22672097993E+02  0.00000000000E+00 0. -1.
</event>
<event>
 8    1  0.7102339E-009  0.9443381E+02  0.7561462E-02  0.1292456E+00
         -1   -1    0    0    0  501 -0.00000000000E+00  0.00000000000E+00  0.10703575585E+03  0.10703575585E+03  0.00000000000E+00 0.  1.
          1   -1    0    0  501    0  0.00000000000E+00 -0.00000000000E+00 -0.19004415817E+03  0.19004415817E+03  0.00000000000E+00 0. -1.
         25    2    1    2    0    0  0.65418641855E+02 -0.37071117344E+02 -0.93499119287E+02  0.17332777430E+03  0.12508623262E+03 0.  0.
         23    2    1    2    0    0 -0.65418641855E+02  0.37071117344E+02  0.10490716970E+02  0.12375213972E+03  0.97727531946E+02 0.  0.
          5    1    3    3  502    0  0.77080596577E+02 -0.38266353701E+02 -0.75566356795E+01  0.86488770005E+02  0.41800000000E+01 0. -1.
         -5    1    3    3    0  502 -0.11661954722E+02  0.11952363565E+01 -0.85942483607E+02  0.86839004292E+02  0.41800000000E+01 0. -1.
        -11    1    4    4    0    0 -0.15955454951E+02  0.37548788994E+02 -0.37075030129E+02  0.55127542632E+02  0.00000000000E+00 0. -1.
         11    1    4    4    0    0 -0.49463186905E+02 -0.47767164963E+00  0.47565747099E+02  0.68624597092E+02  0.00000000000E+00 0.  1.
</event>
<event>
 8    1  0.7102339E-009  0.1740302E+03  0.7561462E-02  0.1173709E+00
         -1   -1    0    0    0  501 -0.00000000000E+00  0.00000000000E+00  0.74549006113E+02  0.74549006113E+02  0.00000000000E+00 0.  1.
          1   -1    0    0  501    0  0.00000000000E+00 -0.00000000000E+00 -0.46853485759E+03  0.46853485759E+03  0.00000000000E+00 0. -1.
         25    2    1    2    0    0  0.14137043408E+03 -0.40925517557E+02 -0.17925450175E+03  0.26350649321E+03  0.12507197108E+03 0.  0.
         23    2    1    2    0    0 -0.14137043408E+03  0.40925517557E+02 -0.21473134972E+03  0.27957737049E+03  0.10194830020E+03 0.  0.
          5    1    3    3  502    0  0.66190732209E+02 -0.70442130271E+02 -0.14796701076E+03  0.17679088048E+03  0.41800000000E+01 0. -1.
         -5    1    3    3    0  502  0.75179701872E+02  0.29516612713E+02 -0.31287490991E+02  0.86715612736E+02  0.41800000000E+01 0. -1.
        -11    1    4    4    0    0 -0.99859076292E+02 -0.14797155275E+02 -0.83186363900E+02  0.13080811160E+03  0.00000000000E+00 0.  1.
         11    1    4    4    0    0 -0.41511357788E+02  0.55722672832E+02 -0.13154498582E+03  0.14876925888E+03  0.00000000000E+00 0. -1.
</event>
<event>
 7    1  0.7102339E-009  0.1360873E+03  0.7561462E-02  0.1218693E+00
          2   -1    0    0  501    0  0.00000000000E+00  0.00000000000E+00  0.69233735013E+02  0.69233735013E+02  0.00000000000E+00 0. -1.
         -2   -1    0    0    0  501 -0.00000000000E+00 -0.00000000000E+00 -0.59154683104E+03  0.59154683104E+03  0.00000000000E+00 0.  1.
         25    2    1    2    0    0 -0.11589292662E+03 -0.27480190824E+02 -0.91787519684E+02  0.19559756202E+03  0.12508847337E+03 0.  0.
          5    1    3    3  502    0 -0.86044708293E+01 -0.42762919398E+02 -0.73562468358E+02  0.85624840698E+02  0.41800000000E+01 0. -1.
         -5    1    3    3    0  502 -0.10728845579E+03  0.15282728574E+02 -0.18225051326E+02  0.10997272132E+03  0.41800000000E+01 0. -1.
        -11    1    1    2    0    0  0.95342180269E+02  0.17043222619E+02 -0.43137892329E+03  0.44211805916E+03  0.00000000000E+00 0.  1.
         11    1    1    2    0    0  0.20550746352E+02  0.10436968205E+02  0.85334694968E+00  0.23064944872E+02  0.00000000000E+00 0. -1.
</event>
<event>
 8    1  0.7102339E-009  0.1978162E+03  0.7561462E-02  0.1151595E+00
          2   -1    0    0  501    0  0.00000000000E+00  0.00000000000E+00  0.12646439356E+03  0.12646439356E+03  0.00000000000E+00 0. -1.
         -2   -1    0    0    0  501 -0.00000000000E+00 -0.00000000000E+00 -0.69564002064E+03  0.69564002064E+03  0.00000000000E+00 0.  1.
         25    2    1    2    0    0 -0.13764557631E+03  0.11689466067E+03 -0.14242931927E+01  0.21968135728E+03  0.12508878349E+03 0.  0.
         23    2    1    2    0    0  0.13764557631E+03 -0.11689466067E+03 -0.56775133389E+03  0.60242305692E+03  0.89226094854E+02 0.  0.
          5    1    3    3  502    0 -0.97083633559E+02  0.13826369032E+03  0.17515303759E+02  0.16990096596E+03  0.41800000000E+01 0. -1.
         -5    1    3    3    0  502 -0.40561942746E+02 -0.21369029651E+02 -0.18939596952E+02  0.49780391323E+02  0.41800000000E+01 0. -1.
        -11    1    4    4    0    0  0.11533885826E+03 -0.96783125675E+02 -0.54304800154E+03  0.56353452212E+03  0.00000000000E+00 0.  1.
         11    1    4    4    0    0  0.22306718041E+02 -0.20111534999E+02 -0.24703332348E+02  0.38888534799E+02  0.00000000000E+00 0. -1.
</event>
<event>
 8    1  0.7102339E-009  0.9988324E+02  0.7561462E-02  0.1280542E+00
          2   -1    0    0  501    0  0.00000000000E+00  0.00000000000E+00  0.75465135168E+03  0.75465135168E+03  0.00000000000E+00 0.  1.
         -2   -1    0    0    0  501 -0.00000000000E+00 -0.00000000000E+00 -0.18205575954E+02  0.18205575954E+02  0.00000000000E+00 0. -1.
         25    2    1    2    0    0  0.52920960102E+01 -0.38209224633E+02  0.49287347863E+03  0.50996073131E+03  0.12509088860E+03 0.  0.
         23    2    1    2    0    0 -0.52920960102E+01  0.38209224633E+02  0.24357229709E+03  0.26289619632E+03  0.91098819984E+02 0.  0.
          5    1    3    3  502    0  0.10477259739E+02 -0.75248886407E+02  0.18862845337E+03  0.20339698547E+03  0.41800000000E+01 0.  1.
         -5    1    3    3    0  502 -0.51851637284E+01  0.37039661774E+02  0.30424502526E+03  0.30656374584E+03  0.41800000000E+01 0.  1.
        -11    1    4    4    0    0 -0.11973951046E+02 -0.22222486136E+02  0.14425027124E+03  0.14644232703E+03  0.00000000000E+00 0.  1.
         11    1    4    4    0    0  0.66818550356E+01  0.60431710769E+02  0.99322025850E+02  0.11645386929E+03  0.00000000000E+00 0. -1.
</event>
<event>
 8    1  0.7102339E-009  0.1107650E+03  0.7561462E-02  0.1259160E+00
         -1   -1    0    0    0  501 -0.00000000000E+00  0.00000000000E+00  0.19152940504E+03  0.19152940504E+03  0.00000000000E+00 0. -1.
          1   -1    0    0  501    0  0.00000000000E+00 -0.00000000000E+00 -0.12752335771E+03  0.12752335771E+03  0.00000000000E+00 0.  1.
         25    2    1    2    0    0 -0.30118913593E+02  0.27931014383E+02  0.14346716782E+03  0.19472335040E+03  0.12508822658E+03 0.  0.
         23    2    1    2    0    0  0.30118913593E+02 -0.27931014383E+02 -0.79461120493E+02  0.12432941235E+03  0.86350695339E+02 0.  0.
          5    1    3    3  502    0 -0.27540529357E+02 -0.45769607007E+02  0.85185149082E+02  0.10063458504E+03  0.41800000000E+01 0. -1.
         -5    1    3    3    0  502 -0.25783842355E+01  0.73700621390E+02  0.58282018739E+02  0.94088765359E+02  0.41800000000E+01 0. -1.
        -11    1    4    4    0    0  0.50329253613E+02 -0.45090507256E+02 -0.66542152590E+02  0.94836942618E+02  0.00000000000E+00 0.  1.
         11    1    4    4    0    0 -0.20210340021E+02  0.17159492872E+02 -0.12918967903E+02  0.29492469735E+02  0.00000000000E+00 0. -1.
</event>
<event>
 8    1  0.7102339E-009  0.8313048E+02  0.7561462E-02  0.1320395E+00
          2   -1    0    0  501    0  0.00000000000E+00  0.00000000000E+00  0.35433922602E+03  0.35433922602E+03  0.00000000000E+00 0. -1.
         -2   -1    0    0    0  501 -0.00000000000E+00 -0.00000000000E+00 -0.44433207480E+02  0.44433207480E+02  0.00000000000E+00 0.  1.
         25    2    1    2    0    0 -0.25579105242E+02  0.32709031910E+02  0.10267999675E+03  0.16707620724E+03  0.12508839235E+03 0.  0.
         23    2    1    2    0    0  0.25579105242E+02 -0.32709031910E+02  0.20722602179E+03  0.23169622626E+03  0.94954440457E+02 0.  0.
          5    1    3    3  502    0 -0.21218686836E+02  0.51052485502E+02  0.12548768217E+03  0.13719045056E+03  0.41800000000E+01 0.  1.
         -5    1    3    3    0  502 -0.43604184060E+01 -0.18343453592E+02 -0.22807685421E+02  0.29885756685E+02  0.41800000000E+01 0.  1.
        -11    1    4    4    0    0  0.55393782000E+02 -0.17897799712E+02  0.72819186013E+02  0.93227872282E+02  0.00000000000E+00 0. -1.
         11    1    4    4    0    0 -0.29814676758E+02 -0.14811232199E+02  0.13440683578E+03  0.13846835398E+03  0.00000000000E+00 0.  1.
</event>
<event>
 8    1  0.7102339E-009  0.9886997E+02  0.7561462E-02  0.1282690E+00
         -4   -1    0    0    0  501 -0.00000000000E+00  0.00000000000E+00  0.44211137572E+02  0.44211137572E+02  0.00000000000E+00 0. -1.
          4   -1    0    0  501    0  0.00000000000E+00 -0.00000000000E+00 -0.29851968024E+03  0.29851968024E+03  0.00000000000E+00 0.  1.
         25    2    1    2    0    0 -0.29773744030E+02  0.90563321573E+01 -0.17872764579E+03  0.22036404480E+03  0.12509295698E+03 0.  0.
         23    2    1    2    0    0  0.29773744030E+02 -0.90563321573E+01 -0.75580896884E+02  0.12236677302E+03  0.91064055361E+02 0.  0.
          5    1    3    3  502    0 -0.68570746960E+02  0.45531180373E+01 -0.48173888581E+02  0.84029007869E+02  0.41800000000E+01 0. -1.
         -5    1    3    3    0  502  0.38797002930E+02  0.45032141200E+01 -0.13055375721E+03  0.13633503693E+03  0.41800000000E+01 0. -1.
        -11    1    4    4    0    0  0.33689775656E+02  0.33125644930E+02 -0.17297905062E+02  0.50314280829E+02  0.00000000000E+00 0. -1.
         11    1    4    4    0    0 -0.39160316257E+01 -0.42181977087E+02 -0.58282991821E+02  0.72052492187E+02  0.00000000000E+00 0.  1.
</event>
<event>
 7    1  0.7102339E-009  0.1834293E+03  0.7561462E-02  0.1164525E+00
          2   -1    0    0  501    0  0.00000000000E+00  0.00000000000E+00  0.94014835112E+03  0.94014835112E+03  0.00000000000E+00 0. -1.
         -2   -1    0    0    0  501 -0.00000000000E+00 -0.00000000000E+00 -0.49775315857E+02  0.49775315857E+02  0.00000000000E+00 0.  1.
         25    2    1    2    0    0 -0.60721640756E+02  0.11817281185E+03  0.33534222232E+03  0.38177637160E+03  0.12508741234E+03 0.  0.
          5    1    3    3  502    0 -0.43042255755E+02  0.13633170354E+03  0.32306018797E+03  0.35330486357E+03  0.41800000000E+01 0.  1.
         -5    1    3    3    0  502 -0.17679385001E+02 -0.18158891696E+02  0.12282034350E+02  0.28471508029E+02  0.41800000000E+01 0.  1.
        -11    1    1    2    0    0 -0.46080235828E+02 -0.12148726845E+02  0.18850279800E+02  0.51247563322E+02  0.00000000000E+00 0.  1.
         11    1    1    2    0    0  0.10680187658E+03 -0.10602408500E+03  0.53618053314E+03  0.55689973206E+03  0.00000000000E+00 0. -1.
</event>
<event>
 8    1  0.7102339E-009  0.1768125E+03  0.7561462E-02  0.1170924E+00
         -2   -1    0    0    0  501 -0.00000000000E+00  0.00000000000E+00  0.48259632986E+02  0.48259632986E+02  0.00000000000E+00 0.  1.
          2   -1    0    0  501    0  0.00000000000E+00 -0.00000000000E+00 -0.95347525906E+03  0.95347525906E+03  0.00000000000E+00 0. -1.
         25    2    1    2    0    0 -0.14894325459E+03  0.21587386507E+02 -0.22007568907E+03  0.29450233826E+03  0.12509280545E+03 0.  0.
         23    2    1    2    0    0  0.14894325459E+03 -0.21587386507E+02 -0.68513993700E+03  0.70723255379E+03  0.90061331970E+02 0.  0.
          5    1    3    3  502    0 -0.15717629195E+03 -0.21058960679E+01 -0.14018100622E+03  0.21065851146E+03  0.41800000000E+01 0. -1.
         -5    1    3    3    0  502  0.82330373532E+01  0.23693282575E+02 -0.79894682855E+02  0.83843826796E+02  0.41800000000E+01 0. -1.
        -11    1    4    4    0    0  0.10173546361E+03 -0.52538601575E+02 -0.52767894302E+03  0.53995877261E+03  0.00000000000E+00 0. -1.
         11    1    4    4    0    0  0.47207790984E+02  0.30951215068E+02 -0.15746099399E+03  0.16727378118E+03  0.00000000000E+00 0.  1.
</event>
<event>
 8    1  0.7102339E-009  0.1144438E+03  0.7561462E-02  0.1252555E+00
          2   -1    0    0  501    0  0.00000000000E+00  0.00000000000E+00  0.90546145612E+02  0.90546145612E+02  0.00000000000E+00 0. -1.
         -2   -1    0    0    0  501 -0.00000000000E+00 -0.00000000000E+00 -0.27026314285E+03  0.27026314285E+03  0.00000000000E+00 0.  1.
         25    2    1    2    0    0 -0.33531087594E+01  0.47967059924E+02  0.19567036958E+02  0.13543887779E+03  0.12509491798E+03 0.  0.
         23    2    1    2    0    0  0.33531087594E+01 -0.47967059924E+02 -0.19928403420E+03  0.22537041068E+03  0.93624855383E+02 0.  0.
          5    1    3    3  502    0 -0.58061109488E+02  0.37346980608E+02  0.34926992614E+02  0.77480685390E+02  0.41800000000E+01 0.  1.
         -5    1    3    3    0  502  0.54708000729E+02  0.10620079316E+02 -0.15359955657E+02  0.57958192399E+02  0.41800000000E+01 0.  1.
        -11    1    4    4    0    0 -0.39561169530E+02 -0.11199822397E+00 -0.94428765530E+02  0.10238110391E+03  0.00000000000E+00 0.  1.
         11    1    4    4    0    0  0.42914278289E+02 -0.47855061700E+02 -0.10485526867E+03  0.12298930677E+03  0.00000000000E+00 0. -1.
</event>
<event>
 8    1  0.7102339E-009  0.1829152E+03  0.7561462E-02  0.1165011E+00
          1   -1    0    0  501    0  0.00000000000E+00  0.00000000000E+00  0.26173097753E+03  0.26173097753E+03  0.00000000000E+00 0. -1.
         -1   -1    0    0    0  501 -0.00000000000E+00 -0.00000000000E+00 -0.14730224464E+03  0.14730224464E+03  0.00000000000E+00 0.  1.
         25    2    1    2    0    0  0.15364238799E+03 -0.31915972808E+02  0.12717788652E+02  0.20108002693E+03  0.12508725904E+03 0.  0.
         23    2    1    2    0    0 -0.15364238799E+03  0.31915972808E+02  0.10171094424E+03  0.20795319524E+03  0.90965941573E+02 0.  0.
          5    1    3    3  502    0  0.15734818223E+03  0.78917706743E+01  0.23786115084E+02  0.15938626718E+03  0.41800000000E+01 0.  1.
         -5    1    3    3    0  502 -0.37057942392E+01 -0.39807743483E+02 -0.11068326432E+02  0.41693759750E+02  0.41800000000E+01 0.  1.
        -11    1    4    4    0    0 -0.15331337357E+03  0.18289022493E+02  0.62728600071E+02  0.16665640140E+03  0.00000000000E+00 0.  1.
         11    1    4    4    0    0 -0.32901442063E+00  0.13626950315E+02  0.38982344166E+02  0.41296793847E+02  0.00000000000E+00 0. -1.
</event>
<event>
 8    1  0.7102339E-009  0.1158958E+03  0.7561462E-02  0.1250026E+00
         -4   -1    0    0    0  501 -0.00000000000E+00  0.00000000000E+00  0.10135416577E+03  0.10135416577E+03  0.00000000000E+00 0.  1.
          4   -1    0    0  501    0  0.00000000000E+00 -0.00000000000E+00 -0.14007524469E+03  0.14007524469E+03  0.00000000000E+00 0. -1.
         25    2    1    2    0    0  0.12317165358E+01 -0.48802192479E+02 -0.15033438969E+02  0.13510172897E+03  0.12507318564E+03 0.  0.
         23    2    1    2    0    0 -0.12317165358E+01  0.48802192479E+02 -0.23687639946E+02  0.10632768149E+03  0.91440146812E+02 0.  0.
          5    1    3    3  502    0  0.19425515858E+02 -0.85971706947E+02 -0.26180269953E+02  0.92040013019E+02  0.41800000000E+01 0. -1.
         -5    1    3    3    0  502 -0.18193799322E+02  0.37169514468E+02  0.11146830984E+02  0.43061715950E+02  0.41800000000E+01 0. -1.
        -11    1    4    4    0    0  0.32255584385E+02 -0.10444023210E+02 -0.17048651328E+02  0.37949398637E+02  0.00000000000E+00 0. -1.
         11    1    4    4    0    0 -0.33487300921E+02  0.59246215689E+02 -0.66389886179E+01  0.68378282855E+02  0.00000000000E+00 0.  1.
</event>
<event>
 8    1  0.7102339E-009  0.1306694E+03  0.7561462E-02  0.1226466E+00
         -2   -1    0    0    0  501 -0.00000000000E+00  0.00000000000E+00  0.35902069155E+03  0.35902069155E+03  0.00000000000E+00 0. -1.
          2   -1    0    0  501    0  0.00000000000E+00 -0.00000000000E+00 -0.66173172671E+02  0.66173172671E+02  0.00000000000E+00 0.  1.
         25    2    1    2    0    0 -0.81576345314E+02  0.64421058904E+02  0.20368628437E+03  0.26065387982E+03  0.12509024615E+03 0.  0.
         23    2    1    2    0    0  0.81576345314E+02 -0.64421058904E+02  0.89161234506E+02  0.16453998439E+03  0.91208046688E+02 0.  0.
          5    1    3    3  502    0 -0.45377211762E+02 -0.17756809629E+02  0.14567685506E+03  0.15366721881E+03  0.41800000000E+01 0.  1.
         -5    1    3    3    0  502 -0.36199133552E+02  0.82177868533E+02  0.58009429308E+02  0.10698666102E+03  0.41800000000E+01 0.  1.
        -11    1    4    4    0    0 -0.10505231606E+02 -0.64191345263E+00 -0.10311813907E+02  0.14734498636E+02  0.00000000000E+00 0.  1.
         11    1    4    4    0    0  0.92081576921E+02 -0.63779145451E+02  0.99473048414E+02  0.14980548576E+03  0.00000000000E+00 0. -1.
</event>
<event>
 8    1  0.7102339E-009  0.1519296E+03  0.7561462E-02  0.1198122E+00
         -1   -1    0    0    0  501 -0.00000000000E+00  0.00000000000E+00  0.65978435656E+03  0.65978435656E+03  0.00000000000E+00 0.  1.
          1   -1    0    0  501    0  0.00000000000E+00 -0.00000000000E+00 -0.39976553899E+02  0.39976553899E+02  0.00000000000E+00 0. -1.
         25    2    1    2    0    0  0.11545106469E+03  0.55568461479E+01  0.26096831107E+03  0.31162824106E+03  0.12509146399E+03 0.  0.
         23    2    1    2    0    0 -0.11545106469E+03 -0.55568461479E+01  0.35883949159E+03  0.38813266941E+03  0.92311220626E+02 0.  0.
          5    1    3    3  502    0  0.13493534240E+03 -0.95964961823E+01  0.25002665587E+03  0.28430694753E+03  0.41800000000E+01 0. -1.
         -5    1    3    3    0  502 -0.19484277705E+02  0.15153342330E+02  0.10941655194E+02  0.27321293524E+02  0.41800000000E+01 0. -1.
        -11    1    4    4    0    0 -0.26399530021E+02 -0.40064428568E+02  0.16819148199E+03  0.17490130999E+03  0.00000000000E+00 0.  1.
         11    1    4    4    0    0 -0.89051534674E+02  0.34507582420E+02  0.19064800960E+03  0.21323135941E+03  0.00000000000E+00 0. -1.
</event>
<event>
 8    1  0.7102339E-009  0.1092912E+03  0.7561462E-02  0.1261888E+00
         -3   -1    0    0    0  501 -0.00000000000E+00  0.00000000000E+00  0.42889350144E+03  0.42889350144E+03  0.00000000000E+00 0.  1.
          3   -1    0    0  501    0  0.00000000000E+00 -0.00000000000E+00 -0.32935233427E+02  0.32935233427E+02  0.00000000000E+00 0. -1.
         25    2    1    2    0    0 -0.40173032347E+02 -0.30447919008E+02  0.26749003298E+03  0.29956396997E+03  0.12508679412E+03 0.  0.
         23    2    1    2    0    0  0.40173032347E+02  0.30447919008E+02  0.12846823503E+03  0.16226476489E+03  0.85351146526E+02 0.  0.
          5    1    3    3  502    0  0.18229498582E+02 -0.53718608778E+02  0.19686868082E+03  0.20492133475E+03  0.41800000000E+01 0.  1.
         -5    1    3    3    0  502 -0.58402530929E+02  0.23270689770E+02  0.70621352160E+02  0.94642635224E+02  0.41800000000E+01 0.  1.
        -11    1    4    4    0    0  0.40092894778E+02  0.58347527661E+02  0.85098821339E+02  0.11069635761E+03  0.00000000000E+00 0.  1.
         11    1    4    4    0    0  0.80137568367E-01 -0.27899608653E+02  0.43369413690E+02  0.51568407275E+02  0.00000000000E+00 0. -1.
</event>
<event>
 8    1  0.7102339E-009  0.1291897E+03  0.7561462E-02  0.1228663E+00
         -3   -1    0    0    0  501 -0.00000000000E+00  0.00000000000E+00  0.40272559612E+02  0.40272559612E+02  0.00000000000E+00 0.  1.
          3   -1    0    0  501    0  0.00000000000E+00 -0.00000000000E+00 -0.64814725169E+03  0.64814725169E+03  0.00000000000E+00 0. -1.
         25    2    1    2    0    0  0.94996596540E+02  0.34861063770E+02 -0.46111405193E+03  0.48837712044E+03  0.12508555377E+03 0.  0.
         23    2    1    2    0    0 -0.94996596540E+02 -0.34861063770E+02 -0.14676064014E+03  0.20004269085E+03  0.90767535763E+02 0.  0.
          5    1    3    3  502    0  0.12371983426E+03  0.23939302034E+02 -0.40611409924E+03  0.42523619504E+03  0.41800000000E+01 0.  1.
         -5    1    3    3    0  502 -0.28723237720E+02  0.10921761736E+02 -0.54999952698E+02  0.63140925408E+02  0.41800000000E+01 0.  1.
        -11    1    4    4    0    0 -0.64993664154E+02 -0.25970963293E+02 -0.15289628093E+03  0.16815451239E+03  0.00000000000E+00 0.  1.
         11    1    4    4    0    0 -0.30002932386E+02 -0.88901004768E+01  0.61356407854E+01  0.31888178469E+02  0.00000000000E+00 0. -1.
</event>
<event>
 8    1  0.7102339E-009  0.1003113E+03  0.7561462E-02  0.1279643E+00
         -1   -1    0    0    0  501 -0.00000000000E+00  0.00000000000E+00  0.23025393523E+02  0.23025393523E+02  0.00000000000E+00 0.  1.
          1   -1    0    0  501    0  0.00000000000E+00 -0.00000000000E+00 -0.65636041801E+03  0.65636041801E+03  0.00000000000E+00 0. -1.
         25    2    1    2    0    0 -0.25899540964E+02 -0.33708325189E+02 -0.53158813826E+03  0.54775906174E+03  0.12508798336E+03 0.  0.
         23    2    1    2    0    0  0.25899540964E+02  0.33708325189E+02 -0.10174688623E+03  0.13162674979E+03  0.71875830379E+02 0.  0.
          5    1    3    3  502    0 -0.20994624754E+02 -0.73634545769E+02 -0.45227580645E+03  0.45873052885E+03  0.41800000000E+01 0. -1.
         -5    1    3    3    0  502 -0.49049162097E+01  0.39926220581E+02 -0.79312331803E+02  0.89028532892E+02  0.41800000000E+01 0. -1.
        -11    1    4    4    0    0 -0.14462132341E+02  0.40103321843E+02 -0.52917914644E+02  0.67953921042E+02  0.00000000000E+00 0. -1.
         11    1    4    4    0    0  0.40361673305E+02 -0.63949966548E+01 -0.48828971588E+02  0.63672828746E+02  0.00000000000E+00 0.  1.
</event>
<event>
 8    1  0.7102339E-009  0.1365882E+03  0.7561462E-02  0.1217995E+00
         -2   -1    0    0    0  501 -0.00000000000E+00  0.00000000000E+00  0.48316100971E+03  0.48316100971E+03  0.00000000000E+00 0. -1.
          2   -1    0    0  501    0  0.00000000000E+00 -0.00000000000E+00 -0.56859937425E+02  0.56859937425E+02  0.00000000000E+00 0.  1.
         25    2    1    2    0    0  0.56942871003E+02  0.11092724258E+03  0.25278877692E+03  0.30837550732E+03  0.12508374825E+03 0.  0.
         23    2    1    2    0    0 -0.56942871003E+02 -0.11092724258E+03  0.17351229537E+03  0.23164543981E+03  0.89474853653E+02 0.  0.
          5    1    3    3  502    0 -0.14407936804E+02  0.54755705929E+02  0.22993739632E+02  0.61253248379E+02  0.41800000000E+01 0. -1.
         -5    1    3    3    0  502  0.71350807807E+02  0.56171536655E+02  0.22979503728E+03  0.24712225894E+03  0.41800000000E+01 0. -1.
        -11    1    4    4    0    0 -0.17639176862E+02 -0.21465000454E+02 -0.49142406374E+01  0.28214119974E+02  0.00000000000E+00 0.  1.
         11    1    4    4    0    0 -0.39303694141E+02 -0.89462242130E+02  0.17842653600E+03  0.20343131984E+03  0.00000000000E+00 0. -1.
</event>
<event>
 8    1  0.7102339E-009  0.8747603E+02  0.7561462E-02  0.1309082E+00
          2   -1    0    0  501    0  0.00000000000E+00  0.00000000000E+00  0.53828599625E+03  0.53828599625E+03  0.00000000000E+00 0. -1.
         -2   -1    0    0    0  501 -0.00000000000E+00 -0.00000000000E+00 -0.29614909603E+02  0.29614909603E+02  0.00000000000E+00 0.  1.
         25    2    1    2    0    0 -0.18436354201E+02 -0.60406276037E+02  0.30977834648E+03  0.33999643224E+03  0.12508450201E+03 0.  0.
         23    2    1    2    0    0  0.18436354201E+02  0.60406276037E+02  0.19889274016E+03  0.22790447361E+03  0.91615007848E+02 0.  0.
          5    1    3    3  502    0 -0.13944949193E+02 -0.46915657124E+02  0.25527372028E+02  0.55359367897E+02  0.41800000000E+01 0.  1.
         -5    1    3    3    0  502 -0.44914050080E+01 -0.13490618914E+02  0.28425097446E+03  0.28463706434E+03  0.41800000000E+01 0.  1.
        -11    1    4    4    0    0  0.18052206500E+02 -0.22081026204E+02  0.44448754847E+02  0.52812362996E+02  0.00000000000E+00 0. -1.
         11    1    4    4    0    0  0.38414770053E+00  0.82487302242E+02  0.15444398531E+03  0.17509211062E+03  0.00000000000E+00 0.  1.
</event>
<event>
 8    1  0.7102339E-009  0.1215240E+03  0.7561462E-02  0.1240604E+00
          3   -1    0    0  501    0  0.00000000000E+00  0.00000000000E+00  0.10448245053E+03  0.10448245053E+03  0.00000000000E+00 0. -1.
         -3   -1    0    0    0  501 -0.00000000000E+00 -0.00000000000E+00 -0.16045782288E+03  0.16045782288E+03  0.00000000000E+00 0.  1.
         25    2    1    2    0    0  0.58903279184E+00  0.70164884936E+02 -0.37332465615E+02  0.14819779898E+03  0.12508163972E+03 0.  0.
         23    2    1    2    0    0 -0.58903279184E+00 -0.70164884936E+02 -0.18642906738E+02  0.11674247444E+03  0.91420945785E+02 0.  0.
          5    1    3    3  502    0 -0.45534211205E+02  0.67508791242E+02 -0.55224509226E+02  0.98478526107E+02  0.41800000000E+01 0. -1.
         -5    1    3    3    0  502  0.46123243996E+02  0.26560936942E+01  0.17892043611E+02  0.49719272873E+02  0.41800000000E+01 0. -1.
        -11    1    4    4    0    0 -0.21857522805E+02  0.15539729345E+02 -0.66204320602E+01  0.27623624164E+02  0.00000000000E+00 0. -1.
         11    1    4    4    0    0  0.21268490013E+02 -0.85704614282E+02 -0.12022474678E+02  0.89118850273E+02  0.00000000000E+00 0.  1.
</event>
<event>
 8    1  0.7102339E-009  0.1104444E+03  0.7561462E-02  0.1259749E+00
         -1   -1    0    0    0  501 -0.00000000000E+00  0.00000000000E+00  0.33777447743E+02  0.33777447743E+02  0.00000000000E+00 0.  1.
          1   -1    0    0  501    0  0.00000000000E+00 -0.00000000000E+00 -0.60652273439E+03  0.60652273439E+03  0.00000000000E+00 0. -1.
         25    2    1    2    0    0 -0.55594991086E+02 -0.16416691750E+02 -0.14918927650E+03  0.20313615243E+03  0.12508615190E+03 0.  0.
         23    2    1    2    0    0  0.55594991086E+02  0.16416691750E+02 -0.42355601015E+03  0.43716402971E+03  0.91391380010E+02 0.  0.
          5    1    3    3  502    0 -0.68001995655E+02  0.22611885880E+02 -0.14495126336E+03  0.16175261959E+03  0.41800000000E+01 0.  1.
         -5    1    3    3    0  502  0.12407004570E+02 -0.39028577630E+02 -0.42380131459E+01  0.41383532832E+02  0.41800000000E+01 0.  1.
        -11    1    4    4    0    0 -0.24659985489E+02  0.12351206365E+02 -0.94883887082E+02  0.98811027779E+02  0.00000000000E+00 0.  1.
         11    1    4    4    0    0  0.80254976575E+02  0.40654853852E+01 -0.32867212306E+03  0.33835300193E+03  0.00000000000E+00 0. -1.
</event>
<event>
 8    1  0.7102339E-009  0.1783644E+03  0.7561462E-02  0.1169395E+00
          2   -1    0    0  501    0  0.00000000000E+00  0.00000000000E+00  0.79862503429E+02  0.79862503429E+02  0.00000000000E+00 0. -1.
         -2   -1    0    0    0  501 -0.00000000000E+00 -0.00000000000E+00 -0.54400951753E+03  0.54400951753E+03  0.00000000000E+00 0.  1.
         25    2    1    2    0    0 -0.16193263843E+03  0.57552897952E+02 -0.30850070133E+03  0.37464039031E+03  0.12509286101E+03 0.  0.
         23    2    1    2    0    0  0.16193263843E+03 -0.57552897952E+02 -0.15564631277E+03  0.24923163065E+03  0.91411791291E+02 0.  0.
          5    1    3    3  502    0 -0.60614562315E+02  0.25528927119E+02 -0.23823366170E+03  0.24718131251E+03  0.41800000000E+01 0.  1.
         -5    1    3    3    0  502 -0.10131807612E+03  0.32023970833E+02 -0.70267039628E+02  0.12745907780E+03  0.41800000000E+01 0.  1.
        -11    1    4    4    0    0  0.13794793591E+03 -0.72883823024E+02 -0.15618453716E+03  0.22076071736E+03  0.00000000000E+00 0.  1.
         11    1    4    4    0    0  0.23984702516E+02  0.15330925072E+02  0.53822438616E+00  0.28470913294E+02  0.00000000000E+00 0. -1.
</event>
<event>
 8    1  0.7102339E-009  0.6909010E+02  0.7561462E-02  0.1363215E+00
         -2   -1    0    0    0  501 -0.00000000000E+00  0.00000000000E+00  0.14544409504E+03  0.14544409504E+03  0.00000000000E+00 0. -1.
          2   -1    0    0  501    0  0.00000000000E+00 -0.00000000000E+00 -0.10316406250E+03  0.10316406250E+03  0.00000000000E+00 0.  1.
         25    2    1    2    0    0 -0.15383244051E+02  0.40433185012E+02 -0.70399655431E+01  0.13254500900E+03  0.12508849526E+03 0.  0.
         23    2    1    2    0    0  0.15383244051E+02 -0.40433185012E+02  0.49319998083E+02  0.11606314855E+03  0.95742914062E+02 0.  0.
          5    1    3    3  502    0 -0.38253872165E+02  0.53101658004E+02  0.41249330870E+02  0.77473379400E+02  0.41800000000E+01 0. -1.
         -5    1    3    3    0  502  0.22870628113E+02 -0.12668472992E+02 -0.48289296413E+02  0.55071629596E+02  0.41800000000E+01 0. -1.
        -11    1    4    4    0    0  0.14143500916E+02 -0.14837716108E+02 -0.27946358775E+02  0.34658266059E+02  0.00000000000E+00 0.  1.
         11    1    4    4    0    0  0.12397431351E+01 -0.25595468904E+02  0.77266356858E+02  0.81404882492E+02  0.00000000000E+00 0. -1.
</event>
<event>
 8    1  0.7102339E-009  0.5613264E+02  0.7561462E-02  0.1414817E+00
         -1   -1    0    0    0  501 -0.00000000000E+00  0.00000000000E+00  0.55806233580E+03  0.55806233580E+03  0.00000000000E+00 0.  1.
          1   -1    0    0  501    0  0.00000000000E+00 -0.00000000000E+00 -0.20062232664E+02  0.20062232664E+02  0.00000000000E+00 0. -1.
         25    2    1    2    0    0  0.26685909115E+02 -0.31258881813E+02  0.31252630084E+03  0.33914970354E+03  0.12514222811E+03 0.  0.
         23    2    1    2    0    0 -0.26685909115E+02  0.31258881813E+02  0.22547380229E+03  0.23897486492E+03  0.67685265062E+02 0.  0.
          5    1    3    3  502    0 -0.30126562709E+01 -0.55695378043E+01  0.29639561948E+03  0.29649271745E+03  0.41800000000E+01 0.  1.
         -5    1    3    3    0  502  0.29698565386E+02 -0.25689344009E+02  0.16130681357E+02  0.42656986094E+02  0.41800000000E+01 0.  1.
        -11    1    4    4    0    0 -0.41815906221E+02  0.20146630739E+02  0.20870313890E+03  0.21380237821E+03  0.00000000000E+00 0.  1.
         11    1    4    4    0    0  0.15129997107E+02  0.11112251075E+02  0.16770663390E+02  0.25172486706E+02  0.00000000000E+00 0. -1.
</event>
<event>
 8    1  0.7102339E-009  0.1296468E+03  0.7561462E-02  0.1227981E+00
         -1   -1    0    0    0  501 -0.00000000000E+00  0.00000000000E+00  0.15483865719E+03  0.15483865719E+03  0.00000000000E+00 0.  1.
          1   -1    0    0  501    0  0.00000000000E+00 -0.00000000000E+00 -0.13952525804E+03  0.13952525804E+03  0.00000000000E+00 0. -1.
         25    2    1    2    0    0  0.18721015884E+02 -0.62060258320E+02  0.74320886353E+02  0.15929487684E+03  0.12509720836E+03 0.  0.
         23    2    1    2    0    0 -0.18721015884E+02  0.62060258320E+02 -0.59007487206E+02  0.13506903840E+03  0.10276093367E+03 0.  0.
          5    1    3    3  502    0 -0.13799243422E+02 -0.94006130913E+02  0.49212650179E+02  0.10708374809E+03  0.41800000000E+01 0.  1.
         -5    1    3    3    0  502  0.32520259305E+02  0.31945872593E+02  0.25108236174E+02  0.52211128745E+02  0.41800000000E+01 0.  1.
        -11    1    4    4    0    0 -0.49521728508E+02  0.44262203971E+00 -0.39855386692E+02  0.63569248517E+02  0.00000000000E+00 0. -1.
         11    1    4    4    0    0  0.30800712624E+02  0.61617636280E+02 -0.19152100514E+02  0.71499789881E+02  0.00000000000E+00 0.  1.
</event>
<event>
 8    1  0.7102339E-009  0.1134553E+03  0.7561462E-02  0.1254302E+00
         -2   -1    0    0    0  501 -0.00000000000E+00  0.00000000000E+00  0.10339257264E+02  0.10339257264E+02  0.00000000000E+00 0.  1.
          2   -1    0    0  501    0  0.00000000000E+00 -0.00000000000E+00 -0.17092274045E+04  0.17092274045E+04  0.00000000000E+00 0. -1.
         25    2    1    2    0    0 -0.42052143786E+01 -0.60295374379E+02 -0.12274083593E+04  0.12352456646E+04  0.12508938986E+03 0.  0.
         23    2    1    2    0    0  0.42052143786E+01  0.60295374379E+02 -0.47147978790E+03  0.48432099712E+03  0.92846226923E+02 0.  0.
          5    1    3    3  502    0 -0.33297440823E+02 -0.84210636766E+02 -0.10460858828E+04  0.10500063321E+04  0.41800000000E+01 0.  1.
         -5    1    3    3    0  502  0.29092226445E+02  0.23915262387E+02 -0.18132247648E+03  0.18523933246E+03  0.41800000000E+01 0.  1.
        -11    1    4    4    0    0 -0.23811409600E+02  0.65658216414E+02 -0.41716598396E+03  0.42297215367E+03  0.00000000000E+00 0. -1.
         11    1    4    4    0    0  0.28016623978E+02 -0.53628420356E+01 -0.54313803942E+02  0.61348843449E+02  0.00000000000E+00 0.  1.
</event>
<event>
 8    1  0.7102339E-009  0.1376175E+03  0.7561462E-02  0.1216571E+00
          2   -1    0    0  501    0  0.00000000000E+00  0.00000000000E+00  0.16683692998E+03  0.16683692998E+03  0.00000000000E+00 0. -1.
         -2   -1    0    0    0  501 -0.00000000000E+00 -0.00000000000E+00 -0.15973817900E+03  0.15973817900E+03  0.00000000000E+00 0.  1.
         25    2    1    2    0    0  0.43910836434E+02  0.89728196444E+02  0.72452868027E+02  0.17571788127E+03  0.12509214571E+03 0.  0.
         23    2    1    2    0    0 -0.43910836434E+02 -0.89728196444E+02 -0.65354117047E+02  0.15085722771E+03  0.92235740056E+02 0.  0.
          5    1    3    3  502    0  0.43678926891E+02 -0.14658965017E+02 -0.37406774407E+01  0.46413349130E+02  0.41800000000E+01 0. -1.
         -5    1    3    3    0  502  0.23190954288E+00  0.10438716146E+03  0.76193545468E+02  0.12930453214E+03  0.41800000000E+01 0. -1.
        -11    1    4    4    0    0  0.20441850444E+02 -0.32439739027E+02 -0.50533301548E+02  0.63433591125E+02  0.00000000000E+00 0.  1.
         11    1    4    4    0    0 -0.64352686878E+02 -0.57288457417E+02 -0.14820815499E+02  0.87423636585E+02  0.00000000000E+00 0. -1.
</event>
<event>
 8    1  0.7102339E-009  0.1330388E+03  0.7561462E-02  0.1223015E+00
          2   -1    0    0  501    0  0.00000000000E+00  0.00000000000E+00  0.43417655005E+03  0.43417655005E+03  0.00000000000E+00 0. -1.
         -2   -1    0    0    0  501 -0.00000000000E+00 -0.00000000000E+00 -0.47724075212E+02  0.47724075212E+02  0.00000000000E+00 0.  1.
         25    2    1    2    0    0  0.67280054190E+02 -0.24620625481E+02  0.29128444384E+03  0.32500728205E+03  0.12510126007E+03 0.  0.
         23    2    1    2    0    0 -0.67280054190E+02  0.24620625481E+02  0.95168030998E+02  0.15689334321E+03  0.10210673891E+03 0.  0.
          5    1    3    3  502    0  0.81129671982E+02 -0.61783647487E+02  0.23313419245E+03  0.25449610383E+03  0.41800000000E+01 0. -1.
         -5    1    3    3    0  502 -0.13849617791E+02  0.37163022007E+02  0.58150251384E+02  0.70511178218E+02  0.41800000000E+01 0. -1.
        -11    1    4    4    0    0  0.61169496028E+01  0.47004920240E+02  0.43906352773E+02  0.64611511459E+02  0.00000000000E+00 0. -1.
         11    1    4    4    0    0 -0.73397003793E+02 -0.22384294759E+02  0.51261678225E+02  0.92281831755E+02  0.00000000000E+00 0.  1.
</event>
<event>
 8    1  0.7102339E-009  0.1151620E+03  0.7561462E-02  0.1251299E+00
          2   -1    0    0  501    0  0.00000000000E+00  0.00000000000E+00  0.86060529124E+03  0.86060529124E+03  0.00000000000E+00 0. -1.
         -2   -1    0    0    0  501 -0.00000000000E+00 -0.00000000000E+00 -0.20094989746E+02  0.20094989746E+02  0.00000000000E+00 0.  1.
         25    2    1    2    0    0 -0.70527980792E+02 -0.24865916045E+02  0.43774490135E+03  0.46136897446E+03  0.12509285383E+03 0.  0.
         23    2    1    2    0    0  0.70527980792E+02  0.24865916045E+02  0.40276540015E+03  0.41933130653E+03  0.89589437031E+02 0.  0.
          5    1    3    3  502    0 -0.41001613148E+02  0.38273605977E+02  0.85994717194E+02  0.10275487813E+03  0.41800000000E+01 0.  1.
         -5    1    3    3    0  502 -0.29526367644E+02 -0.63139522022E+02  0.35175018415E+03  0.35861409632E+03  0.41800000000E+01 0.  1.
        -11    1    4    4    0    0  0.85053814022E+02  0.14201070756E+02  0.38298654565E+03  0.39257421698E+03  0.00000000000E+00 0.  1.
         11    1    4    4    0    0 -0.14525833230E+02  0.10664845289E+02  0.19778854501E+02  0.26757089555E+02  0.00000000000E+00 0. -1.
</event>
<event>
 8    1  0.7102339E-009  0.1342408E+03  0.7561462E-02  0.1221295E+00
         -2   -1    0    0    0  501 -0.00000000000E+00  0.00000000000E+00  0.20234431270E+03  0.20234431270E+03  0.00000000000E+00 0.  1.
          2   -1    0    0  501    0  0.00000000000E+00 -0.00000000000E+00 -0.12159165700E+03  0.12159165700E+03  0.00000000000E+00 0. -1.
         25    2    1    2    0    0 -0.83151097010E+00 -0.97558844427E+02 -0.11872769857E+02  0.15907995088E+03  0.12508816320E+03 0.  0.
         23    2    1    2    0    0  0.83151097010E+00  0.97558844427E+02  0.92625425556E+02  0.16485601882E+03  0.95287029256E+02 0.  0.
          5    1    3    3  502    0  0.47461596655E+02 -0.31462874963E+02  0.32681063239E+02  0.65787840460E+02  0.41800000000E+01 0.  1.
         -5    1    3    3    0  502 -0.48293107625E+02 -0.66095969464E+02 -0.44553833095E+02  0.93292110422E+02  0.41800000000E+01 0.  1.
        -11    1    4    4    0    0  0.25004223337E+02  0.10184528531E+03  0.93200155412E+02  0.14029947360E+03  0.00000000000E+00 0.  1.
         11    1    4    4    0    0 -0.24172712367E+02 -0.42864408788E+01 -0.57472985551E+00  0.24556545217E+02  0.00000000000E+00 0. -1.
</event>
<event>
 8    1  0.7102339E-009  0.1471644E+03  0.7561462E-02  0.1204001E+00
         -2   -1    0    0    0  501 -0.00000000000E+00  0.00000000000E+00  0.11857550317E+03  0.11857550317E+03  0.00000000000E+00 0. -1.
          2   -1    0    0  501    0  0.00000000000E+00 -0.00000000000E+00 -0.21558822214E+03  0.21558822214E+03  0.00000000000E+00 0.  1.
         25    2    1    2    0    0 -0.39900434076E+02  0.10523546163E+03 -0.89942184752E+02  0.19079525101E+03  0.12508670668E+03 0.  0.
         23    2    1    2    0    0  0.39900434076E+02 -0.10523546163E+03 -0.70705342148E+01  0.14336847429E+03  0.88532366637E+02 0.  0.
          5    1    3    3  502    0  0.73887966698E-01  0.11396679886E+03 -0.96191393507E+02  0.14919347602E+03  0.41800000000E+01 0. -1.
         -5    1    3    3    0  502 -0.39974322042E+02 -0.87313372306E+01  0.62492087548E+01  0.41601774994E+02  0.41800000000E+01 0. -1.
        -11    1    4    4    0    0  0.62991520494E+02 -0.54047665259E+02  0.12425385202E+02  0.83925395272E+02  0.00000000000E+00 0. -1.
         11    1    4    4    0    0 -0.23091086419E+02 -0.51187796373E+02 -0.19495919417E+02  0.59443079020E+02  0.00000000000E+00 0.  1.
</event>
<event>
 8    1  0.7102339E-009  0.7395887E+02  0.7561462E-02  0.1347126E+00
         -1   -1    0    0    0  501 -0.00000000000E+00  0.00000000000E+00  0.51850480386E+02  0.51850480386E+02  0.00000000000E+00 0.  1.
          1   -1    0    0  501    0  0.00000000000E+00 -0.00000000000E+00 -0.24546012523E+03  0.24546012523E+03  0.00000000000E+00 0. -1.
         25    2    1    2    0    0  0.16771637804E+02  0.13263390130E+02 -0.14373758232E+03  0.19174249283E+03  0.12508991019E+03 0.  0.
         23    2    1    2    0    0 -0.16771637804E+02 -0.13263390130E+02 -0.49872062522E+02  0.10556811279E+03  0.90554947213E+02 0.  0.
          5    1    3    3  502    0  0.33107007062E+02 -0.13608765523E+01  0.11184652640E+02  0.35220658090E+02  0.41800000000E+01 0.  1.
         -5    1    3    3    0  502 -0.16335369258E+02  0.14624266682E+02 -0.15492223496E+03  0.15652183474E+03  0.41800000000E+01 0.  1.
        -11    1    4    4    0    0 -0.28005470645E+02 -0.48065875678E+02 -0.36944829271E+02  0.66779901173E+02  0.00000000000E+00 0.  1.
         11    1    4    4    0    0  0.11233832841E+02  0.34802485548E+02 -0.12927233251E+02  0.38788211614E+02  0.00000000000E+00 0. -1.
</event>
<event>
 8    1  0.7102339E-009  0.1073136E+03  0.7561462E-02  0.1265627E+00
          2   -1    0    0  501    0  0.00000000000E+00  0.00000000000E+00  0.24388916497E+03  0.24388916497E+03  0.00000000000E+00 0. -1.
         -2   -1    0    0    0  501 -0.00000000000E+00 -0.00000000000E+00 -0.53151992958E+02  0.53151992958E+02  0.00000000000E+00 0.  1.
         25    2    1    2    0    0 -0.14715211365E+02  0.70147072409E+01  0.14779914349E+03  0.19433194738E+03  0.12511824565E+03 0.  0.
         23    2    1    2    0    0  0.14715211365E+02 -0.70147072409E+01  0.42938028519E+02  0.10270921054E+03  0.91868188588E+02 0.  0.
          5    1    3    3  502    0 -0.66544736516E+02 -0.10559167717E+02  0.10456117284E+03  0.12445966916E+03  0.41800000000E+01 0. -1.
         -5    1    3    3    0  502  0.51829525151E+02  0.17573874958E+02  0.43237970650E+02  0.69872278224E+02  0.41800000000E+01 0. -1.
        -11    1    4    4    0    0  0.41423460556E+02 -0.34499893056E+02  0.17367085005E+02  0.56637102211E+02  0.00000000000E+00 0.  1.
         11    1    4    4    0    0 -0.26708249191E+02  0.27485185815E+02  0.25570943513E+02  0.46072108333E+02  0.00000000000E+00 0. -1.
</event>
<event>
 8    1  0.7102339E-009  0.1836954E+03  0.7561462E-02  0.1164274E+00
          1   -1    0    0  501    0  0.00000000000E+00  0.00000000000E+00  0.25167887442E+03  0.25167887442E+03  0.00000000000E+00 0. -1.
         -1   -1    0    0    0  501 -0.00000000000E+00 -0.00000000000E+00 -0.16187542858E+03  0.16187542858E+03  0.00000000000E+00 0.  1.
         25    2    1    2    0    0 -0.33686774290E+02 -0.16450033722E+03  0.22416514623E+02  0.21058300133E+03  0.12509012997E+03 0.  0.
         23    2    1    2    0    0  0.33686774290E+02  0.16450033722E+03  0.67386931222E+02  0.20297130167E+03  0.91984732941E+02 0.  0.
          5    1    3    3  502    0  0.13882158320E+02 -0.95108231431E+02  0.65088354925E+02  0.11615617225E+03  0.41800000000E+01 0.  1.
         -5    1    3    3    0  502 -0.47568932610E+02 -0.69392105788E+02 -0.42671840302E+02  0.94426829080E+02  0.41800000000E+01 0.  1.
        -11    1    4    4    0    0 -0.16924586851E+02  0.11471005936E+03  0.62702838131E+02  0.13181989709E+03  0.00000000000E+00 0. -1.
         11    1    4    4    0    0  0.50611361141E+02  0.49790277861E+02  0.46840930911E+01  0.71151404582E+02  0.00000000000E+00 0.  1.
</event>
<event>
 8    1  0.7102339E-009  0.1188178E+03  0.7561462E-02  0.1245060E+00
         -1   -1    0    0    0  501 -0.00000000000E+00  0.00000000000E+00  0.16201287484E+03  0.16201287484E+03  0.00000000000E+00 0.  1.
          1   -1    0    0  501    0  0.00000000000E+00 -0.00000000000E+00 -0.10800278644E+03  0.10800278644E+03  0.00000000000E+00 0. -1.
         25    2    1    2    0    0 -0.26045468964E+02 -0.58033343886E+02  0.76713112865E+02  0.15993269301E+03  0.12508928471E+03 0.  0.
         23    2    1    2    0    0  0.26045468964E+02  0.58033343886E+02 -0.22703024470E+02  0.11008296828E+03  0.86928689902E+02 0.  0.
          5    1    3    3  502    0  0.42140420106E+02 -0.48889373149E+02  0.12794965368E+02  0.65933067215E+02  0.41800000000E+01 0.  1.
         -5    1    3    3    0  502 -0.68185889071E+02 -0.91439707367E+01  0.63918147497E+02  0.93999625790E+02  0.41800000000E+01 0.  1.
        -11    1    4    4    0    0  0.25473362701E+02 -0.15945037178E+02 -0.19910922786E+02  0.36049705465E+02  0.00000000000E+00 0.  1.
         11    1    4    4    0    0  0.57210626331E+00  0.73978381064E+02 -0.27921016832E+01  0.74033262810E+02  0.00000000000E+00 0. -1.
</event>
<event>
 8    1  0.7102339E-009  0.1034549E+03  0.7561462E-02  0.1273194E+00
          3   -1    0    0  501    0  0.00000000000E+00  0.00000000000E+00  0.43794046038E+02  0.43794046038E+02  0.00000000000E+00 0. -1.
         -3   -1    0    0    0  501 -0.00000000000E+00 -0.00000000000E+00 -0.39642399458E+03  0.39642399458E+03  0.00000000000E+00 0.  1.
         25    2    1    2    0    0  0.76376029925E+02 -0.92183980744E+01 -0.22024365565E+03  0.26471224239E+03  0.12508807540E+03 0.  0.
         23    2    1    2    0    0 -0.76376029925E+02  0.92183980744E+01 -0.13238629290E+03  0.17550579823E+03  0.85778073279E+02 0.  0.
          5    1    3    3  502    0  0.14796056232E+02  0.43029701582E+02 -0.15256737631E+03  0.15926316338E+03  0.41800000000E+01 0. -1.
         -5    1    3    3    0  502  0.61579973692E+02 -0.52248099656E+02 -0.67676279342E+02  0.10544907901E+03  0.41800000000E+01 0. -1.
        -11    1    4    4    0    0 -0.26534574848E+02  0.14483683104E+02  0.37265077006E+01  0.30458949395E+02  0.00000000000E+00 0. -1.
         11    1    4    4    0    0 -0.49841455076E+02 -0.52652850292E+01 -0.13611280060E+03  0.14504684884E+03  0.00000000000E+00 0.  1.
</event>
<event>
 8    1  0.7102339E-009  0.7831313E+02  0.7561462E-02  0.1333908E+00
          2   -1    0    0  501    0  0.00000000000E+00  0.00000000000E+00  0.49770307929E+03  0.49770307929E+03  0.00000000000E+00 0. -1.
         -2   -1    0    0    0  501 -0.00000000000E+00 -0.00000000000E+00 -0.20860661561E+02  0.20860661561E+02  0.00000000000E+00 0.  1.
         25    2    1    2    0    0  0.16126330876E+01  0.34452040547E+01  0.28586184857E+03  0.31205573166E+03  0.12508922086E+03 0.  0.
         23    2    1    2    0    0 -0.16126330876E+01 -0.34452040547E+01  0.19098056916E+03  0.20650800920E+03  0.78469803415E+02 0.  0.
          5    1    3    3  502    0  0.20841497478E+02 -0.32453826290E+02  0.26161432302E+03  0.26447522619E+03  0.41800000000E+01 0. -1.
         -5    1    3    3    0  502 -0.19228864390E+02  0.35899030345E+02  0.24247525548E+02  0.47580505468E+02  0.41800000000E+01 0. -1.
        -11    1    4    4    0    0  0.19249257130E+02  0.31077301702E+02  0.11214297852E+03  0.11795075334E+03  0.00000000000E+00 0. -1.
         11    1    4    4    0    0 -0.20861890218E+02 -0.34522505757E+02  0.78837590643E+02  0.88557255860E+02  0.00000000000E+00 0.  1.
</event>
<event>
 8    1  0.7102339E-009  0.5666737E+02  0.7561462E-02  0.1412374E+00
         -1   -1    0    0    0  501 -0.00000000000E+00  0.00000000000E+00  0.15521291550E+03  0.15521291550E+03  0.00000000000E+00 0. -1.
          1   -1    0    0  501    0  0.00000000000E+00 -0.00000000000E+00 -0.93165597511E+02  0.93165597511E+02  0.00000000000E+00 0.  1.
         25    2    1    2    0    0  0.41759999408E+02  0.22860422677E+02  0.54903916691E+02  0.14466854404E+03  0.12509217039E+03 0.  0.
         23    2    1    2    0    0 -0.41759999408E+02 -0.22860422677E+02  0.71434012990E+01  0.10370996897E+03  0.91859855245E+02 0.  0.
          5    1    3    3  502    0  0.10921427516E+02  0.31132662312E+02 -0.35534009234E+02  0.48668865344E+02  0.41800000000E+01 0.  1.
         -5    1    3    3    0  502  0.30838571892E+02 -0.82722396357E+01  0.90437925925E+02  0.95999678701E+02  0.41800000000E+01 0.  1.
        -11    1    4    4    0    0 -0.22445116696E+02 -0.15152193524E+02 -0.42212088416E+02  0.50152095076E+02  0.00000000000E+00 0.  1.
         11    1    4    4    0    0 -0.19314882712E+02 -0.77082291526E+01  0.49355489715E+02  0.53557873892E+02  0.00000000000E+00 0. -1.
</event>
<event>
 8    1  0.7102339E-009  0.1851226E+03  0.7561462E-02  0.1162935E+00
         -2   -1    0    0    0  501 -0.00000000000E+00  0.00000000000E+00  0.73404498361E+02  0.73404498361E+02  0.00000000000E+00 0. -1.
          2   -1    0    0  501    0  0.00000000000E+00 -0.00000000000E+00 -0.56389130159E+03  0.56389130159E+03  0.00000000000E+00 0.  1.
         25    2    1    2    0    0  0.15149250560E+03 -0.48302416656E+02 -0.15467860718E+03  0.25467201457E+03  0.12509700548E+03 0.  0.
         23    2    1    2    0    0 -0.15149250560E+03  0.48302416656E+02 -0.33580819606E+03  0.38262378538E+03  0.91382240591E+02 0.  0.
          5    1    3    3  502    0  0.16799926408E+03 -0.26471023941E+02 -0.14955728402E+03  0.22651560972E+03  0.41800000000E+01 0.  1.
         -5    1    3    3    0  502 -0.16506758483E+02 -0.21831392715E+02 -0.51213231515E+01  0.28156404855E+02  0.41800000000E+01 0.  1.
        -11    1    4    4    0    0 -0.43778660831E+02  0.47665906255E+02 -0.19422162253E+03  0.20472090372E+03  0.00000000000E+00 0.  1.
         11    1    4    4    0    0 -0.10771384477E+03  0.63651040059E+00 -0.14158657353E+03  0.17790288166E+03  0.00000000000E+00 0. -1.
</event>
<event>
 8    1  0.7102339E-009  0.2207246E+03  0.7561462E-02  0.1133344E+00
         -2   -1    0    0    0  501 -0.00000000000E+00  0.00000000000E+00  0.59713151545E+02  0.59713151545E+02  0.00000000000E+00 0.  1.
          2   -1    0    0  501    0  0.00000000000E+00 -0.00000000000E+00 -0.10593953341E+04  0.10593953341E+04  0.00000000000E+00 0. -1.
         25    2    1    2    0    0  0.61999767541E+02 -0.20822108464E+03 -0.65618870546E+03  0.70244530469E+03  0.12508316286E+03 0.  0.
         23    2    1    2    0    0 -0.61999767541E+02  0.20822108464E+03 -0.34349347711E+03  0.41666318098E+03  0.91762989813E+02 0.  0.
          5    1    3    3  502    0  0.28082953423E+02 -0.81881190450E+02 -0.44968127782E+03  0.45795622678E+03  0.41800000000E+01 0.  1.
         -5    1    3    3    0  502  0.33916814117E+02 -0.12633989419E+03 -0.20650742765E+03  0.24448907791E+03  0.41800000000E+01 0.  1.
        -11    1    4    4    0    0 -0.69539216803E+02  0.15164635819E+03 -0.30554587818E+03  0.34812440922E+03  0.00000000000E+00 0. -1.
         11    1    4    4    0    0  0.75394492620E+01  0.56574726457E+02 -0.37947598930E+02  0.68538771753E+02  0.00000000000E+00 0.  1.
</event>
<event>
 8    1  0.7102339E-009  0.7113231E+02  0.7561462E-02  0.1356284E+00
          2   -1    0    0  501    0  0.00000000000E+00  0.00000000000E+00  0.89835444739E+02  0.89835444739E+02  0.00000000000E+00 0. -1.
         -2   -1    0    0    0  501 -0.00000000000E+00 -0.00000000000E+00 -0.20120379744E+03  0.20120379744E+03  0.00000000000E+00 0.  1.
         25    2    1    2    0    0 -0.71033758409E+01 -0.67984801035E+01 -0.14647187189E+03  0.19287024016E+03  0.12509293747E+03 0.  0.
         23    2    1    2    0    0  0.71033758409E+01  0.67984801035E+01  0.35103519188E+02  0.98169002020E+02  0.91149430158E+02 0.  0.
          5    1    3    3  502    0 -0.11298291298E+02 -0.43106908547E+02 -0.14940496928E+03  0.15596529805E+03  0.41800000000E+01 0.  1.
         -5    1    3    3    0  502  0.41949154567E+01  0.36308428444E+02  0.29330973895E+01  0.36904942108E+02  0.41800000000E+01 0.  1.
        -11    1    4    4    0    0 -0.25873532280E+02 -0.36398973819E+01 -0.20140436001E+02  0.32989781568E+02  0.00000000000E+00 0.  1.
         11    1    4    4    0    0  0.32976908121E+02  0.10438377485E+02  0.55243955189E+02  0.65179220452E+02  0.00000000000E+00 0. -1.
</event>
<event>
 7    1  0.7102339E-009  0.1180790E+03  0.7561462E-02  0.1246300E+00
         -2   -1    0    0    0  501 -0.00000000000E+00  0.00000000000E+00  0.78380479902E+02  0.78380479902E+02  0.00000000000E+00 0.  1.
          2   -1    0    0  501    0  0.00000000000E+00 -0.00000000000E+00 -0.28991054268E+03  0.28991054268E+03  0.00000000000E+00 0. -1.
         23    2    1    2    0    0  0.23443419172E+01  0.92481859569E+02 -0.38262128155E+02  0.13526930027E+03  0.90969241267E+02 0.  0.
          5    1    1    2  502    0  0.82304390689E+01  0.12242199010E+02 -0.10803913553E+03  0.10912166957E+03  0.41800000000E+01 0.  1.
         -5    1    1    2    0  502 -0.10574780986E+02 -0.10472405858E+03 -0.65228799096E+02  0.12390005274E+03  0.41800000000E+01 0.  1.
        -11    1    3    3    0    0 -0.32816482564E+02  0.55359432236E+02  0.97984292119E+01  0.65096831570E+02  0.00000000000E+00 0.  1.
         11    1    3    3    0    0  0.35160824481E+02  0.37122427332E+02 -0.48060557367E+02  0.70172468702E+02  0.00000000000E+00 0. -1.
</event>
<event>
 8    1  0.7102339E-009  0.1178783E+03  0.7561462E-02  0.1246639E+00
         -2   -1    0    0    0  501 -0.00000000000E+00  0.00000000000E+00  0.17305171933E+02  0.17305171933E+02  0.00000000000E+00 0.  1.
          2   -1    0    0  501    0  0.00000000000E+00 -0.00000000000E+00 -0.11676153868E+04  0.11676153868E+04  0.00000000000E+00 0. -1.
         25    2    1    2    0    0 -0.76507799477E+02  0.36542588575E+02 -0.78078360605E+03  0.79527323717E+03  0.12509067960E+03 0.  0.
         23    2    1    2    0    0  0.76507799477E+02 -0.36542588575E+02 -0.36952660885E+03  0.38964732160E+03  0.89923947966E+02 0.  0.
          5    1    3    3  502    0 -0.71834000915E+02  0.71163078435E+02 -0.39027232132E+03  0.40318018876E+03  0.41800000000E+01 0.  1.
         -5    1    3    3    0  502 -0.46737985615E+01 -0.34620489860E+02 -0.39051128473E+03  0.39209304842E+03  0.41800000000E+01 0.  1.
        -11    1    4    4    0    0  0.80336318579E+02 -0.20544800895E+02 -0.36232114852E+03  0.37168888548E+03  0.00000000000E+00 0. -1.
         11    1    4    4    0    0 -0.38285191024E+01 -0.15997787679E+02 -0.72054603355E+01  0.17958436118E+02  0.00000000000E+00 0.  1.
</event>
<event>
 8    1  0.7102339E-009  0.1143289E+03  0.7561462E-02  0.1252757E+00
          2   -1    0    0  501    0  0.00000000000E+00  0.00000000000E+00  0.87327827409E+02  0.87327827409E+02  0.00000000000E+00 0. -1.
         -2   -1    0    0    0  501 -0.00000000000E+00 -0.00000000000E+00 -0.17279962293E+03  0.17279962293E+03  0.00000000000E+00 0.  1.
         25    2    1    2    0    0 -0.54002551573E+02  0.13476388154E+02 -0.60472258339E+02  0.14967537482E+03  0.12509170709E+03 0.  0.
         23    2    1    2    0    0  0.54002551573E+02 -0.13476388154E+02 -0.24999537182E+02  0.11045207552E+03  0.92069514577E+02 0.  0.
          5    1    3    3  502    0  0.32589168859E+02 -0.16457720276E+02 -0.42556845366E+02  0.56226932791E+02  0.41800000000E+01 0.  1.
         -5    1    3    3    0  502 -0.86591720431E+02  0.29934108430E+02 -0.17915412974E+02  0.93448442025E+02  0.41800000000E+01 0.  1.
        -11    1    4    4    0    0  0.75693594813E+02 -0.21477649299E+01 -0.35939106795E+00  0.75724912359E+02  0.00000000000E+00 0. -1.
         11    1    4    4    0    0 -0.21691043240E+02 -0.11328623225E+02 -0.24640146114E+02  0.34727163165E+02  0.00000000000E+00 0.  1.
</event>
<event>
 8    1  0.7102339E-009  0.1665569E+03  0.7561462E-02  0.1181487E+00
          2   -1    0    0  501    0  0.00000000000E+00  0.00000000000E+00  0.14550644424E+04  0.14550644424E+04  0.00000000000E+00 0. -1.
         -2   -1    0    0    0  501 -0.00000000000E+00 -0.00000000000E+00 -0.24441704688E+02  0.24441704688E+02  0.00000000000E+00 0.  1.
         25    2    1    2    0    0  0.10274048831E+03 -0.11351744309E+03  0.77624722759E+03  0.80103034701E+03  0.12509212876E+03 0.  0.
         23    2    1    2    0    0 -0.10274048831E+03  0.11351744309E+03  0.65437551016E+03  0.67847580011E+03  0.93168048244E+02 0.  0.
          5    1    3    3  502    0  0.50963112829E+02 -0.86326095758E+02  0.22116087585E+03  0.24285600484E+03  0.41800000000E+01 0.  1.
         -5    1    3    3    0  502  0.51777375483E+02 -0.27191347329E+02  0.55508635173E+03  0.55817434218E+03  0.41800000000E+01 0.  1.
        -11    1    4    4    0    0 -0.57678256241E+00  0.57752384766E+02  0.14740228109E+03  0.15831330675E+03  0.00000000000E+00 0.  1.
         11    1    4    4    0    0 -0.10216370575E+03  0.55765058321E+02  0.50697322907E+03  0.52016249336E+03  0.00000000000E+00 0. -1.
</event>
<event>
 8    1  0.7102339E-009  0.1176307E+03  0.7561462E-02  0.1247058E+00
          3   -1    0    0  501    0  0.00000000000E+00  0.00000000000E+00  0.24872196329E+03  0.24872196329E+03  0.00000000000E+00 0. -1.
         -3   -1    0    0    0  501 -0.00000000000E+00 -0.00000000000E+00 -0.55823863092E+02  0.55823863092E+02  0.00000000000E+00 0.  1.
         25    2    1    2    0    0  0.29920296162E+02 -0.95039931374E+00  0.10055651304E+03  0.16327209773E+03  0.12510011272E+03 0.  0.
         23    2    1    2    0    0 -0.29920296162E+02  0.95039931374E+00  0.92341587159E+02  0.14127372865E+03  0.10264097772E+03 0.  0.
          5    1    3    3  502    0 -0.27107905746E+02 -0.47498359507E+02  0.40626302391E+02  0.68256146652E+02  0.41800000000E+01 0. -1.
         -5    1    3    3    0  502  0.57028201909E+02  0.46547960193E+02  0.59930210647E+02  0.95015951078E+02  0.41800000000E+01 0. -1.
        -11    1    4    4    0    0 -0.65353464026E+02 -0.16175730354E+02  0.62757091377E+02  0.92039024499E+02  0.00000000000E+00 0. -1.
         11    1    4    4    0    0  0.35433167864E+02  0.17126129668E+02  0.29584495782E+02  0.49234704152E+02  0.00000000000E+00 0.  1.
</event>
<event>
 8    1  0.7102339E-009  0.1031275E+03  0.7561462E-02  0.1273853E+00
         -3   -1    0    0    0  501 -0.00000000000E+00  0.00000000000E+00  0.18952933992E+02  0.18952933992E+02  0.00000000000E+00 0.  1.
          3   -1    0    0  501    0  0.00000000000E+00 -0.00000000000E+00 -0.69361712193E+03  0.69361712193E+03  0.00000000000E+00 0. -1.
         25    2    1    2    0    0  0.15107805220E+01  0.14870926269E+02 -0.42767638249E+03  0.44584483265E+03  0.12508836776E+03 0.  0.
         23    2    1    2    0    0 -0.15107805220E+01 -0.14870926269E+02 -0.24698780545E+03  0.26672522328E+03  0.99578821980E+02 0.  0.
          5    1    3    3  502    0  0.38450927511E+02  0.43943349492E+02 -0.35070501638E+03  0.35555727064E+03  0.41800000000E+01 0.  1.
         -5    1    3    3    0  502 -0.36940146989E+02 -0.29072423223E+02 -0.76971366113E+02  0.90287562006E+02  0.41800000000E+01 0.  1.
        -11    1    4    4    0    0 -0.35738737066E+02  0.28186552913E+02 -0.10408612720E+03  0.11360308521E+03  0.00000000000E+00 0. -1.
         11    1    4    4    0    0  0.34227956544E+02 -0.43057479182E+02 -0.14290167824E+03  0.15312213807E+03  0.00000000000E+00 0.  1.
</event>
<event>
 8    1  0.7102339E-009  0.1157626E+03  0.7561462E-02  0.1250256E+00
         -1   -1    0    0    0  501 -0.00000000000E+00  0.00000000000E+00  0.20407777037E+02  0.20407777037E+02  0.00000000000E+00 0.  1.
          1   -1    0    0  501    0  0.00000000000E+00 -0.00000000000E+00 -0.13065546599E+04  0.13065546599E+04  0.00000000000E+00 0. -1.
         25    2    1    2    0    0  0.71671674435E+02  0.75053770397E+02 -0.96867602292E+03  0.98221734841E+03  0.12509110589E+03 0.  0.
         23    2    1    2    0    0 -0.71671674435E+02 -0.75053770397E+02 -0.31747085992E+03  0.34474508850E+03  0.85390466572E+02 0.  0.
          5    1    3    3  502    0  0.67657605656E+02  0.65763396499E+02 -0.32491288367E+03  0.33836109454E+03  0.41800000000E+01 0.  1.
         -5    1    3    3    0  502  0.40140687784E+01  0.92903738989E+01 -0.64376313925E+03  0.64385625388E+03  0.41800000000E+01 0.  1.
        -11    1    4    4    0    0 -0.23097533025E+02  0.12308545921E+02 -0.27207024883E+02  0.37752066666E+02  0.00000000000E+00 0.  1.
         11    1    4    4    0    0 -0.48574141410E+02 -0.87362316319E+02 -0.29026383504E+03  0.30699302184E+03  0.00000000000E+00 0. -1.
</event>
<event>
 8    1  0.7102339E-009  0.1297463E+03  0.7561462E-02  0.1227833E+00
         -2   -1    0    0    0  501 -0.00000000000E+00  0.00000000000E+00  0.18771830254E+03  0.18771830254E+03  0.00000000000E+00 0. -1.
          2   -1    0    0  501    0  0.00000000000E+00 -0.00000000000E+00 -0.13555000911E+03  0.13555000911E+03  0.00000000000E+00 0.  1.
         25    2    1    2    0    0  0.11136870917E+02  0.11584052585E+03  0.37814971843E+02  0.17498808563E+03  0.12509116953E+03 0.  0.
         23    2    1    2    0    0 -0.11136870917E+02 -0.11584052585E+03  0.14353321592E+02  0.14828022602E+03  0.90763154777E+02 0.  0.
          5    1    3    3  502    0  0.29155024803E+02  0.58525145717E+01  0.54489447043E+02  0.62216072177E+02  0.41800000000E+01 0.  1.
         -5    1    3    3    0  502 -0.18018153886E+02  0.10998801128E+03 -0.16674475200E+02  0.11277201345E+03  0.41800000000E+01 0.  1.
        -11    1    4    4    0    0 -0.85766664548E+01 -0.16846230035E+02 -0.33370599712E+02  0.38352986833E+02  0.00000000000E+00 0.  1.
         11    1    4    4    0    0 -0.25602044625E+01 -0.98994295818E+02  0.47723921304E+02  0.10992723919E+03  0.00000000000E+00 0. -1.
</event>
<event>
 8    1  0.7102339E-009  0.1251625E+03  0.7561462E-02  0.1234816E+00
         -1   -1    0    0    0  501 -0.00000000000E+00  0.00000000000E+00  0.11480709904E+03  0.11480709904E+03  0.00000000000E+00 0.  1.
          1   -1    0    0  501    0  0.00000000000E+00 -0.00000000000E+00 -0.20487739095E+03  0.20487739095E+03  0.00000000000E+00 0. -1.
         25    2    1    2    0    0 -0.20228809010E+01 -0.79123631524E+02  0.28383422140E+02  0.15070644151E+03  0.12506866813E+03 0.  0.
         23    2    1    2    0    0  0.20228809010E+01  0.79123631524E+02 -0.11845371405E+03  0.16897804848E+03  0.90871653347E+02 0.  0.
          5    1    3    3  502    0  0.39631610461E+02 -0.95156174452E+02  0.18744266994E+02  0.10485314506E+03  0.41800000000E+01 0. -1.
         -5    1    3    3    0  502 -0.41654491362E+02  0.16032542928E+02  0.96391551461E+01  0.45853296450E+02  0.41800000000E+01 0. -1.
        -11    1    4    4    0    0  0.17777063952E+02  0.83984357862E+02 -0.51684035131E+02  0.10020297329E+03  0.00000000000E+00 0.  1.
         11    1    4    4    0    0 -0.15754183051E+02 -0.48607263382E+01 -0.66769678923E+02  0.68775075192E+02  0.00000000000E+00 0. -1.
</event>
<event>
 8    1  0.7102339E-009  0.1249408E+03  0.7561462E-02  0.1235162E+00
          2   -1    0    0  501    0  0.00000000000E+00  0.00000000000E+00  0.10512427643E+03  0.10512427643E+03  0.00000000000E+00 0. -1.
         -2   -1    0    0    0  501 -0.00000000000E+00 -0.00000000000E+00 -0.24736570990E+03  0.24736570990E+03  0.00000000000E+00 0.  1.
         25    2    1    2    0    0 -0.10785504107E+03 -0.42158795185E+02 -0.37915106939E+02  0.17462545709E+03  0.12508565479E+03 0.  0.
         23    2    1    2    0    0  0.10785504107E+03  0.42158795185E+02 -0.10432632652E+03  0.17786452924E+03  0.85683921824E+02 0.  0.
          5    1    3    3  502    0 -0.27843438195E+02 -0.42171267873E+02 -0.71579337415E+02  0.87719706049E+02  0.41800000000E+01 0. -1.
         -5    1    3    3    0  502 -0.80011602877E+02  0.12472688320E-01  0.33664230476E+02  0.86905751041E+02  0.41800000000E+01 0. -1.
        -11    1    4    4    0    0  0.96761911107E+02  0.46229173272E+02 -0.43209704420E+02  0.11561609948E+03  0.00000000000E+00 0. -1.
         11    1    4    4    0    0  0.11093129964E+02 -0.40703780873E+01 -0.61116622104E+02  0.62248429760E+02  0.00000000000E+00 0.  1.
</event>
<event>
 8    1  0.7102339E-009  0.1253225E+03  0.7561462E-02  0.1234566E+00
         -1   -1    0    0    0  501 -0.00000000000E+00  0.00000000000E+00  0.76548871270E+02  0.76548871270E+02  0.00000000000E+00 0.  1.
          1   -1    0    0  501    0  0.00000000000E+00 -0.00000000000E+00 -0.31546474144E+03  0.31546474144E+03  0.00000000000E+00 0. -1.
         25    2    1    2    0    0  0.10515589400E+03  0.32253733686E+02 -0.10298747509E+03  0.19583856829E+03  0.12509300310E+03 0.  0.
         23    2    1    2    0    0 -0.10515589400E+03 -0.32253733686E+02 -0.13592839507E+03  0.19617504442E+03  0.88938484836E+02 0.  0.
          5    1    3    3  502    0  0.78411766407E+02 -0.79341608287E+01  0.33374572440E+01  0.78993462007E+02  0.41800000000E+01 0. -1.
         -5    1    3    3    0  502  0.26744127591E+02  0.40187894514E+02 -0.10632493234E+03  0.11684510628E+03  0.41800000000E+01 0. -1.
        -11    1    4    4    0    0 -0.92789936946E+02 -0.45171949442E+01 -0.13729982724E+03  0.16577581250E+03  0.00000000000E+00 0. -1.
         11    1    4    4    0    0 -0.12365957051E+02 -0.27736538741E+02  0.13714321648E+01  0.30399231920E+02  0.00000000000E+00 0.  1.
</event>
<event>
 8    1  0.7102339E-009  0.1202959E+03  0.7561462E-02  0.1242610E+00
          2   -1    0    0  501    0  0.00000000000E+00  0.00000000000E+00  0.62519102559E+03  0.62519102559E+03  0.00000000000E+00 0. -1.
         -2   -1    0    0    0  501 -0.00000000000E+00 -0.00000000000E+00 -0.34020578932E+02  0.34020578932E+02  0.00000000000E+00 0.  1.
         25    2    1    2    0    0  0.86965039264E+01 -0.90565961734E+02  0.40311322437E+03  0.43177042765E+03  0.12509039900E+03 0.  0.
         23    2    1    2    0    0 -0.86965039264E+01  0.90565961734E+02  0.18805722228E+03  0.22744117687E+03  0.89923008618E+02 0.  0.
          5    1    3    3  502    0 -0.31679779690E+02 -0.49724818632E+02  0.34475919600E+03  0.34978928179E+03  0.41800000000E+01 0. -1.
         -5    1    3    3    0  502  0.40376283616E+02 -0.40841143102E+02  0.58354028369E+02  0.81981145853E+02  0.41800000000E+01 0. -1.
        -11    1    4    4    0    0 -0.41292253502E+02  0.19390950098E+02  0.98117182900E+02  0.10820370015E+03  0.00000000000E+00 0.  1.
         11    1    4    4    0    0  0.32595749576E+02  0.71175011637E+02  0.89940039383E+02  0.11923747673E+03  0.00000000000E+00 0. -1.
</event>
<event>
 8    1  0.7102339E-009  0.2552599E+03  0.7561462E-02  0.1110025E+00
         -2   -1    0    0    0  501 -0.00000000000E+00  0.00000000000E+00  0.76803496241E+02  0.76803496241E+02  0.00000000000E+00 0.  1.
          2   -1    0    0  501    0  0.00000000000E+00 -0.00000000000E+00 -0.10017084569E+04  0.10017084569E+04  0.00000000000E+00 0. -1.
         25    2    1    2    0    0 -0.22336219703E+03 -0.12088338924E+03 -0.51846328950E+03  0.59072462009E+03  0.12509168382E+03 0.  0.
         23    2    1    2    0    0  0.22336219703E+03  0.12088338924E+03 -0.40644167115E+03  0.48778733305E+03  0.90764449963E+02 0.  0.
          5    1    3    3  502    0 -0.20128320867E+02 -0.10017805490E+02  0.41895456512E-01  0.22868753420E+02  0.41800000000E+01 0. -1.
         -5    1    3    3    0  502 -0.20323387617E+03 -0.11086558375E+03 -0.51850518496E+03  0.56785586667E+03  0.41800000000E+01 0. -1.
        -11    1    4    4    0    0  0.96057653051E+02  0.70688799457E+02 -0.26695013592E+03  0.29238049549E+03  0.00000000000E+00 0.  1.
         11    1    4    4    0    0  0.12730454398E+03  0.50194589779E+02 -0.13949153524E+03  0.19540683756E+03  0.00000000000E+00 0. -1.
</event>
<event>
 8    1  0.7102339E-009  0.1007252E+03  0.7561462E-02  0.1278778E+00
         -2   -1    0    0    0  501 -0.00000000000E+00  0.00000000000E+00  0.71605137605E+02  0.71605137605E+02  0.00000000000E+00 0.  1.
          2   -1    0    0  501    0  0.00000000000E+00 -0.00000000000E+00 -0.23267832837E+03  0.23267832837E+03  0.00000000000E+00 0. -1.
         25    2    1    2    0    0  0.43957543976E+01  0.48852193103E+02 -0.14982713253E+03  0.20124998268E+03  0.12509007338E+03 0.  0.
         23    2    1    2    0    0 -0.43957543976E+01 -0.48852193103E+02 -0.11246058239E+02  0.10303348330E+03  0.89908650461E+02 0.  0.
          5    1    3    3  502    0 -0.49770397108E+01  0.72744797686E+02 -0.15794122554E+03  0.17400999867E+03  0.41800000000E+01 0.  1.
         -5    1    3    3    0  502  0.93727941084E+01 -0.23892604583E+02  0.81140930075E+01  0.27239984003E+02  0.41800000000E+01 0.  1.
        -11    1    4    4    0    0  0.42802485739E+02 -0.22508426326E+02 -0.47766652594E+01  0.48595252568E+02  0.00000000000E+00 0.  1.
         11    1    4    4    0    0 -0.47198240136E+02 -0.26343766777E+02 -0.64693929797E+01  0.54438230734E+02  0.00000000000E+00 0. -1.
</event>
<event>
 8    1  0.7102339E-009  0.1114426E+03  0.7561462E-02  0.1257921E+00
         -1   -1    0    0    0  501 -0.00000000000E+00  0.00000000000E+00  0.27008259335E+02  0.27008259335E+02  0.00000000000E+00 0.  1.
          1   -1    0    0  501    0  0.00000000000E+00 -0.00000000000E+00 -0.54689382674E+03  0.54689382674E+03  0.00000000000E+00 0. -1.
         25    2    1    2    0    0 -0.28572497754E+02  0.42846340811E+02 -0.34490235748E+03  0.37048330849E+03  0.12509216251E+03 0.  0.
         23    2    1    2    0    0  0.28572497754E+02 -0.42846340811E+02 -0.17498320992E+03  0.20341877759E+03  0.90043760318E+02 0.  0.
          5    1    3    3  502    0 -0.66138541599E+02  0.62719518111E+01 -0.10092252592E+03  0.12089860505E+03  0.41800000000E+01 0. -1.
         -5    1    3    3    0  502  0.37566043845E+02  0.36574389000E+02 -0.24397983156E+03  0.24958470344E+03  0.41800000000E+01 0. -1.
        -11    1    4    4    0    0  0.57003954955E+02 -0.48368729657E+02 -0.12728088284E+03  0.14761235729E+03  0.00000000000E+00 0.  1.
         11    1    4    4    0    0 -0.28431457201E+02  0.55223888456E+01 -0.47702327089E+02  0.55806420301E+02  0.00000000000E+00 0. -1.
</event>
<event>
 8    1  0.7102339E-009  0.9500846E+02  0.7561462E-02  0.1291157E+00
          2   -1    0    0  501    0  0.00000000000E+00  0.00000000000E+00  0.16298115094E+03  0.16298115094E+03  0.00000000000E+00 0. -1.
         -2   -1    0    0    0  501 -0.00000000000E+00 -0.00000000000E+00 -0.86500491012E+02  0.86500491012E+02  0.00000000000E+00 0.  1.
         25    2    1    2    0    0 -0.13651031642E+02  0.46041737818E+02  0.32900321697E+02  0.13796981072E+03  0.12508814979E+03 0.  0.
         23    2    1    2    0    0  0.13651031642E+02 -0.46041737818E+02  0.43580338234E+02  0.11151183123E+03  0.90716317926E+02 0.  0.
          5    1    3    3  502    0 -0.11726880443E+00  0.71078694028E+02  0.63906354177E+02  0.95674913122E+02  0.41800000000E+01 0. -1.
         -5    1    3    3    0  502 -0.13533762837E+02 -0.25036956211E+02 -0.31006032480E+02  0.42294897600E+02  0.41800000000E+01 0. -1.
        -11    1    4    4    0    0 -0.31263671243E+02 -0.26831570039E+02  0.47049954139E+02  0.62538376017E+02  0.00000000000E+00 0. -1.
         11    1    4    4    0    0  0.44914702884E+02 -0.19210167779E+02 -0.34696159050E+01  0.48973455216E+02  0.00000000000E+00 0.  1.
</event>
<event>
 8    1  0.7102339E-009  0.2858153E+03  0.7561462E-02  0.1092554E+00
          1   -1    0    0  501    0  0.00000000000E+00  0.00000000000E+00  0.29764978091E+03  0.29764978091E+03  0.00000000000E+00 0. -1.
         -1   -1    0    0    0  501 -0.00000000000E+00 -0.00000000000E+00 -0.35896328262E+03  0.35896328262E+03  0.00000000000E+00 0.  1.
         25    2    1    2    0    0 -0.28060011329E+03 -0.57353160017E+01  0.96730372364E+02  0.32213882217E+03  0.12508932162E+03 0.  0.
         23    2    1    2    0    0  0.28060011329E+03  0.57353160017E+01 -0.15804387408E+03  0.33447424136E+03  0.90143411124E+02 0.  0.
          5    1    3    3  502    0 -0.17529705416E+03 -0.41092560871E+01  0.12212525432E+03  0.21372410563E+03  0.41800000000E+01 0.  1.
         -5    1    3    3    0  502 -0.10530305914E+03 -0.16260599146E+01 -0.25394881959E+02  0.10841471655E+03  0.41800000000E+01 0.  1.
        -11    1    4    4    0    0  0.13180558824E+03  0.40782307325E+02 -0.10230880129E+03  0.17176437496E+03  0.00000000000E+00 0.  1.
         11    1    4    4    0    0  0.14879452505E+03 -0.35046991323E+02 -0.55735072788E+02  0.16270986640E+03  0.00000000000E+00 0. -1.
</event>
<event>
 8    1  0.7102339E-009  0.9523082E+02  0.7561462E-02  0.1290657E+00
          2   -1    0    0  501    0  0.00000000000E+00  0.00000000000E+00  0.12553939843E+03  0.12553939843E+03  0.00000000000E+00 0. -1.
         -2   -1    0    0    0  501 -0.00000000000E+00 -0.00000000000E+00 -0.10355543407E+03  0.10355543407E+03  0.00000000000E+00 0.  1.
         25    2    1    2    0    0 -0.16718536795E+02  0.11461671590E+02  0.42507569076E+02  0.13365735896E+03  0.12508603754E+03 0.  0.
         23    2    1    2    0    0  0.16718536795E+02 -0.11461671590E+02 -0.20523604714E+02  0.95437473544E+02  0.90973697396E+02 0.  0.
          5    1    3    3  502    0  0.37282225578E+02 -0.17348511645E+02 -0.20136407531E+02  0.45976978028E+02  0.41800000000E+01 0.  1.
         -5    1    3    3    0  502 -0.54000762372E+02  0.28810183235E+02  0.62643976607E+02  0.87680380930E+02  0.41800000000E+01 0.  1.
        -11    1    4    4    0    0 -0.99618741748E+01  0.33801724398E+02  0.72943728572E+01  0.35986155459E+02  0.00000000000E+00 0. -1.
         11    1    4    4    0    0  0.26680410969E+02 -0.45263395988E+02 -0.27817977571E+02  0.59451318085E+02  0.00000000000E+00 0.  1.
</event>
<event>
 8    1  0.7102339E-009  0.1179303E+03  0.7561462E-02  0.1246551E+00
          2   -1    0    0  501    0  0.00000000000E+00  0.00000000000E+00  0.58941634397E+03  0.58941634397E+03  0.00000000000E+00 0. -1.
         -2   -1    0    0    0  501 -0.00000000000E+00 -0.00000000000E+00 -0.34003554148E+02  0.34003554148E+02  0.00000000000E+00 0.  1.
         25    2    1    2    0    0 -0.51428715324E+02  0.70562287506E+02  0.24921152402E+03  0.29219412120E+03  0.12508825517E+03 0.  0.
         23    2    1    2    0    0  0.51428715324E+02 -0.70562287506E+02  0.30620126581E+03  0.33122577692E+03  0.91254320097E+02 0.  0.
          5    1    3    3  502    0 -0.69628319030E+02  0.82543830870E+01  0.19583701045E+03  0.20805250470E+03  0.41800000000E+01 0.  1.
         -5    1    3    3    0  502  0.18199603706E+02  0.62307904419E+02  0.53374513568E+02  0.84141616497E+02  0.41800000000E+01 0.  1.
        -11    1    4    4    0    0  0.47803447243E+02 -0.23311394427E+02  0.25876358984E+03  0.26417264450E+03  0.00000000000E+00 0. -1.
         11    1    4    4    0    0  0.36252680806E+01 -0.47250893079E+02  0.47437675969E+02  0.67053132416E+02  0.00000000000E+00 0.  1.
</event>
<event>
 8    1  0.7102339E-009  0.1347812E+03  0.7561462E-02  0.1220529E+00
         -1   -1    0    0    0  501 -0.00000000000E+00  0.00000000000E+00  0.97701043540E+02  0.97701043540E+02  0.00000000000E+00 0.  1.
          1   -1    0    0  501    0  0.00000000000E+00 -0.00000000000E+00 -0.31064776172E+03  0.31064776172E+03  0.00000000000E+00 0. -1.
         25    2    1    2    0    0 -0.99766745676E+01  0.91947124552E+02  0.36267278697E+01  0.15561049291E+03  0.12509062555E+03 0.  0.
         23    2    1    2    0    0  0.99766745676E+01 -0.91947124552E+02 -0.21657344605E+03  0.25273831235E+03  0.91753960376E+02 0.  0.
          5    1    3    3  502    0  0.46010137217E+02  0.69267538148E+02  0.31411917033E+02  0.88989356102E+02  0.41800000000E+01 0. -1.
         -5    1    3    3    0  502 -0.55986811784E+02  0.22679586404E+02 -0.27785189163E+02  0.66621136812E+02  0.41800000000E+01 0. -1.
        -11    1    4    4    0    0  0.45772033150E+02 -0.31717655865E+02 -0.12957770255E+03  0.14103712175E+03  0.00000000000E+00 0. -1.
         11    1    4    4    0    0 -0.35795358582E+02 -0.60229468687E+02 -0.86995743498E+02  0.11170119060E+03  0.00000000000E+00 0.  1.
</event>
<event>
 8    1  0.7102339E-009  0.1230070E+03  0.7561462E-02  0.1238217E+00
          1   -1    0    0  501    0  0.00000000000E+00  0.00000000000E+00  0.20305644067E+03  0.20305644067E+03  0.00000000000E+00 0. -1.
         -1   -1    0    0    0  501 -0.00000000000E+00 -0.00000000000E+00 -0.10861222292E+03  0.10861222292E+03  0.00000000000E+00 0.  1.
         25    2    1    2    0    0  0.32135869473E+02  0.92548775443E+02  0.77753589949E+02  0.17689475121E+03  0.12509253501E+03 0.  0.
         23    2    1    2    0    0 -0.32135869473E+02 -0.92548775443E+02  0.16690627801E+02  0.13477391238E+03  0.91035380266E+02 0.  0.
          5    1    3    3  502    0  0.44261902880E+02  0.18298442429E+02 -0.21178859781E+02  0.52535374212E+02  0.41800000000E+01 0. -1.
         -5    1    3    3    0  502 -0.12126033408E+02  0.74250333014E+02  0.98932449731E+02  0.12435937700E+03  0.41800000000E+01 0. -1.
        -11    1    4    4    0    0 -0.56225541813E+02 -0.62365858079E+02 -0.14401647254E+02  0.85195183255E+02  0.00000000000E+00 0. -1.
         11    1    4    4    0    0  0.24089672341E+02 -0.30182917364E+02  0.31092275055E+02  0.49578729130E+02  0.00000000000E+00 0.  1.
</event>
<event>
 8    1  0.7102339E-009  0.9584735E+02  0.7561462E-02  0.1289279E+00
          1   -1    0    0  501    0  0.00000000000E+00  0.00000000000E+00  0.37885150143E+03  0.37885150143E+03  0.00000000000E+00 0. -1.
         -1   -1    0    0    0  501 -0.00000000000E+00 -0.00000000000E+00 -0.53650194351E+02  0.53650194351E+02  0.00000000000E+00 0.  1.
         25    2    1    2    0    0  0.18786147600E+02 -0.79487406045E+02  0.24138977912E+03  0.28387981080E+03  0.12509018529E+03 0.  0.
         23    2    1    2    0    0 -0.18786147600E+02  0.79487406045E+02  0.83811527958E+02  0.14862188498E+03  0.91612910738E+02 0.  0.
          5    1    3    3  502    0 -0.72463261503E+01 -0.39519269461E+02  0.23148721069E+03  0.23498528255E+03  0.41800000000E+01 0. -1.
         -5    1    3    3    0  502  0.26032473750E+02 -0.39968136584E+02  0.99025684268E+01  0.48894528252E+02  0.41800000000E+01 0. -1.
        -11    1    4    4    0    0  0.12168054132E+02 -0.52140373566E+01  0.50948465574E+02  0.52640230540E+02  0.00000000000E+00 0. -1.
         11    1    4    4    0    0 -0.30954201732E+02  0.84701443402E+02  0.32863062384E+02  0.95981654437E+02  0.00000000000E+00 0.  1.
</event>
<event>
 8    1  0.7102339E-009  0.1691006E+03  0.7561462E-02  0.1178789E+00
          1   -1    0    0  501    0  0.00000000000E+00  0.00000000000E+00  0.39830266127E+03  0.39830266127E+03  0.00000000000E+00 0. -1.
         -1   -1    0    0    0  501 -0.00000000000E+00 -0.00000000000E+00 -0.84390638178E+02  0.84390638178E+02  0.00000000000E+00 0.  1.
         25    2    1    2    0    0  0.55101574398E+02 -0.13463984735E+03  0.13168833271E+03  0.23270796831E+03  0.12508840692E+03 0.  0.
         23    2    1    2    0    0 -0.55101574398E+02  0.13463984735E+03  0.18222369039E+03  0.24998533115E+03  0.90128355433E+02 0.  0.
          5    1    3    3  502    0  0.57894949372E+01 -0.13732699558E+03  0.72316401187E+02  0.15536845319E+03  0.41800000000E+01 0. -1.
         -5    1    3    3    0  502  0.49312079461E+02  0.26871482253E+01  0.59371931520E+02  0.77339515119E+02  0.41800000000E+01 0. -1.
        -11    1    4    4    0    0  0.66848778850E+01  0.10253716326E+02  0.71013462124E+02  0.72060655657E+02  0.00000000000E+00 0. -1.
         11    1    4    4    0    0 -0.61786452283E+02  0.12438613102E+03  0.11121022826E+03  0.17792467549E+03  0.00000000000E+00 0.  1.
</event>
<event>
 8    1  0.7102339E-009  0.9069863E+02  0.7561462E-02  0.1301169E+00
          2   -1    0    0  501    0  0.00000000000E+00  0.00000000000E+00  0.54691960242E+03  0.54691960242E+03  0.00000000000E+00 0. -1.
         -2   -1    0    0    0  501 -0.00000000000E+00 -0.00000000000E+00 -0.23685499412E+02  0.23685499412E+02  0.00000000000E+00 0.  1.
         25    2    1    2    0    0 -0.20246171044E+02  0.21721151344E+02  0.35491686988E+03  0.37749231365E+03  0.12511093670E+03 0.  0.
         23    2    1    2    0    0  0.20246171044E+02 -0.21721151344E+02  0.16831723312E+03  0.19311278818E+03  0.89889610821E+02 0.  0.
          5    1    3    3  502    0  0.16761137278E+02 -0.43109380873E+02  0.20208000792E+03  0.20734791160E+03  0.41800000000E+01 0.  1.
         -5    1    3    3    0  502 -0.37007308322E+02  0.64830532216E+02  0.15283686196E+03  0.17014440206E+03  0.41800000000E+01 0.  1.
        -11    1    4    4    0    0  0.37825039758E+02 -0.19236759952E+02  0.17005932837E+03  0.17527396193E+03  0.00000000000E+00 0.  1.
         11    1    4    4    0    0 -0.17578868714E+02 -0.24843913920E+01 -0.17420952481E+01  0.17838826242E+02  0.00000000000E+00 0. -1.
</event>
<event>
 8    1  0.7102339E-009  0.1089897E+03  0.7561462E-02  0.1262452E+00
         -2   -1    0    0    0  501 -0.00000000000E+00  0.00000000000E+00  0.26855301125E+02  0.26855301125E+02  0.00000000000E+00 0. -1.
          2   -1    0    0  501    0  0.00000000000E+00 -0.00000000000E+00 -0.56624808877E+03  0.56624808877E+03  0.00000000000E+00 0.  1.
         25    2    1    2    0    0  0.37778545173E+02 -0.54510238711E+01 -0.40589352656E+03  0.42644364698E+03  0.12509075507E+03 0.  0.
         23    2    1    2    0    0 -0.37778545173E+02  0.54510238711E+01 -0.13349926108E+03  0.16665974292E+03  0.92176380182E+02 0.  0.
          5    1    3    3  502    0  0.62852941648E+02 -0.41624717199E+02 -0.33075071585E+03  0.33925892441E+03  0.41800000000E+01 0.  1.
         -5    1    3    3    0  502 -0.25074396475E+02  0.36173693328E+02 -0.75142810714E+02  0.87184722570E+02  0.41800000000E+01 0.  1.
        -11    1    4    4    0    0  0.28144497094E+02  0.14606652190E+02 -0.57283734057E+02  0.65474370500E+02  0.00000000000E+00 0.  1.
         11    1    4    4    0    0 -0.65923042267E+02 -0.91556283190E+01 -0.76215527024E+02  0.10118537242E+03  0.00000000000E+00 0. -1.
</event>
<event>
 8    1  0.7102339E-009  0.7268107E+02  0.7561462E-02  0.1351206E+00
          2   -1    0    0  501    0  0.00000000000E+00  0.00000000000E+00  0.20189790307E+03  0.20189790307E+03  0.00000000000E+00 0. -1.
         -2   -1    0    0    0  501 -0.00000000000E+00 -0.00000000000E+00 -0.62706085780E+02  0.62706085780E+02  0.00000000000E+00 0.  1.
         25    2    1    2    0    0 -0.10138123375E+02  0.16776966515E+02  0.10747759164E+03  0.16608192975E+03  0.12509007369E+03 0.  0.
         23    2    1    2    0    0  0.10138123375E+02 -0.16776966515E+02  0.31714225654E+02  0.98522059098E+02  0.91195152662E+02 0.  0.
          5    1    3    3  502    0 -0.39375247658E+02  0.44832416098E+02  0.11006073950E+03  0.12526449793E+03  0.41800000000E+01 0. -1.
         -5    1    3    3    0  502  0.29237124283E+02 -0.28055449583E+02 -0.25831478682E+01  0.40817431822E+02  0.41800000000E+01 0. -1.
        -11    1    4    4    0    0  0.13492629289E+02 -0.29080910706E+02  0.59702441903E+02  0.67765271207E+02  0.00000000000E+00 0. -1.
         11    1    4    4    0    0 -0.33545059136E+01  0.12303944191E+02 -0.27988216249E+02  0.30756787891E+02  0.00000000000E+00 0.  1.
</event>
<event>
 8    1  0.7102339E-009  0.1653038E+03  0.7561462E-02  0.1182836E+00
         -2   -1    0    0    0  501 -0.00000000000E+00  0.00000000000E+00  0.45542869281E+02  0.45542869281E+02  0.00000000000E+00 0.  1.
          2   -1    0    0  501    0  0.00000000000E+00 -0.00000000000E+00 -0.68055455284E+03  0.68055455284E+03  0.00000000000E+00 0. -1.
         25    2    1    2    0    0 -0.45539113956E+02  0.12948367260E+03 -0.30012430440E+03  0.35293339507E+03  0.12509017104E+03 0.  0.
         23    2    1    2    0    0  0.45539113956E+02 -0.12948367260E+03 -0.33488737916E+03  0.37316402705E+03  0.90895555419E+02 0.  0.
          5    1    3    3  502    0 -0.33743001426E+02  0.15279650992E+03 -0.27508852807E+03  0.31650676812E+03  0.41800000000E+01 0. -1.
         -5    1    3    3    0  502 -0.11796112530E+02 -0.23312837315E+02 -0.25035776330E+02  0.36426626950E+02  0.41800000000E+01 0. -1.
        -11    1    4    4    0    0 -0.10804211892E+02 -0.43446670212E+02 -0.37186946712E+02  0.58199769354E+02  0.00000000000E+00 0.  1.
         11    1    4    4    0    0  0.56343325847E+02 -0.86037002392E+02 -0.29770043245E+03  0.31496425770E+03  0.00000000000E+00 0. -1.
</event>
<event>
 8    1  0.7102339E-009  0.9836843E+02  0.7561462E-02  0.1283765E+00
         -1   -1    0    0    0  501 -0.00000000000E+00  0.00000000000E+00  0.46672440442E+02  0.46672440442E+02  0.00000000000E+00 0.  1.
          1   -1    0    0  501    0  0.00000000000E+00 -0.00000000000E+00 -0.44849868384E+03  0.44849868384E+03  0.00000000000E+00 0. -1.
         25    2    1    2    0    0  0.94413183737E+02  0.25081816497E+01 -0.24069264508E+03  0.28722739247E+03  0.12508591188E+03 0.  0.
         23    2    1    2    0    0 -0.94413183737E+02 -0.25081816497E+01 -0.16113359832E+03  0.20794373181E+03  0.91413450078E+02 0.  0.
          5    1    3    3  502    0  0.23683078746E+02  0.98801454616E+01  0.90454853364E+01  0.27528143748E+02  0.41800000000E+01 0. -1.
         -5    1    3    3    0  502  0.70730104991E+02 -0.73719638119E+01 -0.24973813042E+03  0.25969924872E+03  0.41800000000E+01 0. -1.
        -11    1    4    4    0    0 -0.42505612717E+02  0.14448710028E+02 -0.83098134904E+01  0.45656821332E+02  0.00000000000E+00 0.  1.
         11    1    4    4    0    0 -0.51907571020E+02 -0.16956891678E+02 -0.15282378483E+03  0.16228691048E+03  0.00000000000E+00 0. -1.
</event>
<event>
 8    1  0.7102339E-009  0.1537940E+03  0.7561462E-02  0.1195887E+00
         -2   -1    0    0    0  501 -0.00000000000E+00  0.00000000000E+00  0.23584173182E+03  0.23584173182E+03  0.00000000000E+00 0.  1.
          2   -1    0    0  501    0  0.00000000000E+00 -0.00000000000E+00 -0.19610941615E+03  0.19610941615E+03  0.00000000000E+00 0. -1.
         25    2    1    2    0    0  0.96110269158E+02 -0.73522671972E+02 -0.11960916795E+03  0.21117474140E+03  0.12508257759E+03 0.  0.
         23    2    1    2    0    0 -0.96110269158E+02  0.73522671972E+02  0.15934148362E+03  0.22077640658E+03  0.93326020853E+02 0.  0.
          5    1    3    3  502    0  0.10907099461E+03 -0.10983469650E+02 -0.69219620029E+02  0.12971486679E+03  0.41800000000E+01 0.  1.
         -5    1    3    3    0  502 -0.12960725448E+02 -0.62539202322E+02 -0.50389547920E+02  0.81459874606E+02  0.41800000000E+01 0.  1.
        -11    1    4    4    0    0 -0.60563600821E+02  0.10417772958E+02  0.12774264673E+03  0.14175564727E+03  0.00000000000E+00 0.  1.
         11    1    4    4    0    0 -0.35546668337E+02  0.63104899014E+02  0.31598836884E+02  0.79020759310E+02  0.00000000000E+00 0. -1.
</event>
<event>
 8    1  0.7102339E-009  0.1555735E+03  0.7561462E-02  0.1193787E+00
          2   -1    0    0  501    0  0.00000000000E+00  0.00000000000E+00  0.55330649830E+03  0.55330649830E+03  0.00000000000E+00 0. -1.
         -2   -1    0    0    0  501 -0.00000000000E+00 -0.00000000000E+00 -0.61470052894E+02  0.61470052894E+02  0.00000000000E+00 0.  1.
         25    2    1    2    0    0 -0.29736889681E+02 -0.12081881995E+03  0.39285654764E+03  0.43065709760E+03  0.12509116210E+03 0.  0.
         23    2    1    2    0    0  0.29736889681E+02  0.12081881995E+03  0.98979897771E+02  0.18411945359E+03  0.92851942179E+02 0.  0.
          5    1    3    3  502    0 -0.66138432733E+01 -0.13031692169E+03  0.21897971406E+03  0.25494279863E+03  0.41800000000E+01 0. -1.
         -5    1    3    3    0  502 -0.23123046407E+02  0.94981017405E+01  0.17387683357E+03  0.17571429898E+03  0.41800000000E+01 0. -1.
        -11    1    4    4    0    0 -0.20593262421E+02  0.97731918577E+02  0.63930375817E+02  0.11858626952E+03  0.00000000000E+00 0. -1.
         11    1    4    4    0    0  0.50330152102E+02  0.23086901368E+02  0.35049521955E+02  0.65533184072E+02  0.00000000000E+00 0.  1.
</event>
<event>
 8    1  0.7102339E-009  0.1351213E+03  0.7561462E-02  0.1220049E+00
         -1   -1    0    0    0  501 -0.00000000000E+00  0.00000000000E+00  0.13626212789E+03  0.13626212789E+03  0.00000000000E+00 0.  1.
          1   -1    0    0  501    0  0.00000000000E+00 -0.00000000000E+00 -0.15057600588E+03  0.15057600588E+03  0.00000000000E+00 0. -1.
         25    2    1    2    0    0 -0.33247883633E+02 -0.85823442236E+02 -0.12146871533E+02  0.15577419743E+03  0.12508784551E+03 0.  0.
         23    2    1    2    0    0  0.33247883633E+02  0.85823442236E+02 -0.21670064616E+01  0.13106393634E+03  0.93284374302E+02 0.  0.
          5    1    3    3  502    0 -0.78381991579E+02 -0.75166398336E+02 -0.65620192200E+01  0.10887725446E+03  0.41800000000E+01 0. -1.
         -5    1    3    3    0  502  0.45134107947E+02 -0.10657043900E+02 -0.55848523126E+01  0.46896942973E+02  0.41800000000E+01 0. -1.
        -11    1    4    4    0    0  0.32710152739E+02  0.37495294623E+01 -0.29854100317E+02  0.44444126374E+02  0.00000000000E+00 0. -1.
         11    1    4    4    0    0  0.53773089366E+00  0.82073912774E+02  0.27687093856E+02  0.86619809967E+02  0.00000000000E+00 0.  1.
</event>
<event>
 8    1  0.7102339E-009  0.1382048E+03  0.7561462E-02  0.1215765E+00
         -1   -1    0    0    0  501 -0.00000000000E+00  0.00000000000E+00  0.59883910141E+02  0.59883910141E+02  0.00000000000E+00 0.  1.
          1   -1    0    0  501    0  0.00000000000E+00 -0.00000000000E+00 -0.57655293596E+03  0.57655293596E+03  0.00000000000E+00 0. -1.
         25    2    1    2    0    0 -0.38567509202E+02 -0.11400126266E+03 -0.11719926776E+03  0.20944516963E+03  0.12509144680E+03 0.  0.
         23    2    1    2    0    0  0.38567509202E+02  0.11400126266E+03 -0.39946975806E+03  0.42699167647E+03  0.90895893841E+02 0.  0.
          5    1    3    3  502    0  0.14638428894E+02 -0.94629607083E+02 -0.21589304212E+02  0.98247730730E+02  0.41800000000E+01 0.  1.
         -5    1    3    3    0  502 -0.53205938096E+02 -0.19371655578E+02 -0.95609963544E+02  0.11119743890E+03  0.41800000000E+01 0.  1.
        -11    1    4    4    0    0  0.32255669527E+02  0.50173440373E+02 -0.72945630129E+02  0.94227741617E+02  0.00000000000E+00 0.  1.
         11    1    4    4    0    0  0.63118396749E+01  0.63827822288E+02 -0.32652412793E+03  0.33276393486E+03  0.00000000000E+00 0. -1.
</event>
<event>
 8    1  0.7102339E-009  0.1028909E+03  0.7561462E-02  0.1274332E+00
          1   -1    0    0  501    0  0.00000000000E+00  0.00000000000E+00  0.23156257111E+03  0.23156257111E+03  0.00000000000E+00 0. -1.
         -1   -1    0    0    0  501 -0.00000000000E+00 -0.00000000000E+00 -0.92928064505E+02  0.92928064505E+02  0.00000000000E+00 0.  1.
         25    2    1    2    0    0 -0.25468609991E+01  0.57068022120E+01  0.18285153528E+03  0.22163202504E+03  0.12508803492E+03 0.  0.
         23    2    1    2    0    0  0.25468609991E+01 -0.57068022120E+01 -0.44217028674E+02  0.10285861057E+03  0.92659020345E+02 0.  0.
          5    1    3    3  502    0  0.13441870463E+02 -0.51975813810E+02  0.41218788468E+02  0.67813199493E+02  0.41800000000E+01 0.  1.
         -5    1    3    3    0  502 -0.15988731462E+02  0.57682616022E+02  0.14163274681E+03  0.15381882555E+03  0.41800000000E+01 0.  1.
        -11    1    4    4    0    0  0.24526890222E+02  0.36714108693E+02 -0.13963947565E+02  0.46308594804E+02  0.00000000000E+00 0.  1.
         11    1    4    4    0    0 -0.21980029223E+02 -0.42420910905E+02 -0.30253081109E+02  0.56550015767E+02  0.00000000000E+00 0. -1.
</event>
<event>
 8    1  0.7102339E-009  0.1529456E+03  0.7561462E-02  0.1196899E+00
          2   -1    0    0  501    0  0.00000000000E+00  0.00000000000E+00  0.30510015119E+03  0.30510015119E+03  0.00000000000E+00 0. -1.
         -2   -1    0    0    0  501 -0.00000000000E+00 -0.00000000000E+00 -0.80091587414E+02  0.80091587414E+02  0.00000000000E+00 0.  1.
         25    2    1    2    0    0 -0.10069218135E+03  0.52759136859E+02  0.14857671273E+03  0.22504425791E+03  0.12508971399E+03 0.  0.
         23    2    1    2    0    0  0.10069218135E+03 -0.52759136859E+02  0.76431851045E+02  0.16014748070E+03  0.82963520976E+02 0.  0.
          5    1    3    3  502    0 -0.10887074786E+03  0.81827477834E+02  0.10576807596E+03  0.17249038860E+03  0.41800000000E+01 0. -1.
         -5    1    3    3    0  502  0.81785665113E+01 -0.29068340975E+02  0.42808636769E+02  0.52553869307E+02  0.41800000000E+01 0. -1.
        -11    1    4    4    0    0  0.50336239483E+02  0.16986239028E+02  0.17739817575E+02  0.56008664055E+02  0.00000000000E+00 0.  1.
         11    1    4    4    0    0  0.50355941862E+02 -0.69745375887E+02  0.58692033470E+02  0.10413881664E+03  0.00000000000E+00 0. -1.
</event>
<event>
 8    1  0.7102339E-009  0.1149718E+03  0.7561462E-02  0.1251630E+00
         -1   -1    0    0    0  501 -0.00000000000E+00  0.00000000000E+00  0.11114351845E+03  0.11114351845E+03  0.00000000000E+00 0.  1.
          1   -1    0    0  501    0  0.00000000000E+00 -0.00000000000E+00 -0.14364270716E+03  0.14364270716E+03  0.00000000000E+00 0. -1.
         25    2    1    2    0    0 -0.46259534546E+02 -0.40515281016E+02 -0.33011130789E+02  0.14326301305E+03  0.12511244391E+03 0.  0.
         23    2    1    2    0    0  0.46259534546E+02  0.40515281016E+02  0.51194208732E+00  0.11152321256E+03  0.93036188242E+02 0.  0.
          5    1    3    3  502    0 -0.69256392313E+02 -0.57021816337E+02 -0.56620134506E+02  0.10616613135E+03  0.41800000000E+01 0. -1.
         -5    1    3    3    0  502  0.22996857767E+02  0.16506535321E+02  0.23609003717E+02  0.37096881701E+02  0.41800000000E+01 0. -1.
        -11    1    4    4    0    0  0.49296850648E+02  0.67933537061E+02  0.21479161893E+00  0.83935636514E+02  0.00000000000E+00 0.  1.
         11    1    4    4    0    0 -0.30373161024E+01 -0.27418256045E+02  0.29715046840E+00  0.27587576045E+02  0.00000000000E+00 0. -1.
</event>
<event>
 8    1  0.7102339E-009  0.1165667E+03  0.7561462E-02  0.1248871E+00
          2   -1    0    0  501    0  0.00000000000E+00  0.00000000000E+00  0.27350254826E+04  0.27350254826E+04  0.00000000000E+00 0. -1.
         -2   -1    0    0    0  501 -0.00000000000E+00 -0.00000000000E+00 -0.12869591440E+02  0.12869591440E+02  0.00000000000E+00 0.  1.
         25    2    1    2    0    0 -0.96308607564E+02 -0.49185894343E+02  0.22221047628E+04  0.22282487454E+04  0.12509314296E+03 0.  0.
         23    2    1    2    0    0  0.96308607564E+02  0.49185894343E+02  0.50005112839E+03  0.51964632867E+03  0.91030631138E+02 0.  0.
          5    1    3    3  502    0 -0.48541209033E+02 -0.10755250882E+02  0.18804473586E+04  0.18811091582E+04  0.41800000000E+01 0.  1.
         -5    1    3    3    0  502 -0.47767398531E+02 -0.38430643461E+02  0.34165740423E+03  0.34713958717E+03  0.41800000000E+01 0.  1.
        -11    1    4    4    0    0  0.47281967034E+01 -0.11156117325E+02  0.59108315160E+01  0.13481569903E+02  0.00000000000E+00 0.  1.
         11    1    4    4    0    0  0.91580410860E+02  0.60342011668E+02  0.49414029687E+03  0.50616475877E+03  0.00000000000E+00 0. -1.
</event>
<event>
 8    1  0.7102339E-009  0.1142403E+03  0.7561462E-02  0.1252913E+00
         -2   -1    0    0    0  501 -0.00000000000E+00  0.00000000000E+00  0.25234410041E+03  0.25234410041E+03  0.00000000000E+00 0.  1.
          2   -1    0    0  501    0  0.00000000000E+00 -0.00000000000E+00 -0.69999531361E+02  0.69999531361E+02  0.00000000000E+00 0. -1.
         25    2    1    2    0    0  0.72092526558E+02 -0.17874419730E+02  0.83124436291E+02  0.16755399724E+03  0.12509133790E+03 0.  0.
         23    2    1    2    0    0 -0.72092526558E+02  0.17874419730E+02  0.99220132761E+02  0.15478963453E+03  0.92727390486E+02 0.  0.
          5    1    3    3  502    0  0.16741706852E+02  0.52633882238E+02  0.26096261588E+02  0.61229874871E+02  0.41800000000E+01 0. -1.
         -5    1    3    3    0  502  0.55350819706E+02 -0.70508301968E+02  0.57028174703E+02  0.10632412237E+03  0.41800000000E+01 0. -1.
        -11    1    4    4    0    0 -0.70163408347E+02  0.50058625282E+01  0.11470981558E+03  0.13455966826E+03  0.00000000000E+00 0.  1.
         11    1    4    4    0    0 -0.19291182114E+01  0.12868557202E+02 -0.15489682820E+02  0.20229966273E+02  0.00000000000E+00 0. -1.
</event>
<event>
 8    1  0.7102339E-009  0.1788656E+03  0.7561462E-02  0.1168905E+00
         -1   -1    0    0    0  501 -0.00000000000E+00  0.00000000000E+00  0.28388563724E+03  0.28388563724E+03  0.00000000000E+00 0.  1.
          1   -1    0    0  501    0  0.00000000000E+00 -0.00000000000E+00 -0.14289547524E+03  0.14289547524E+03  0.00000000000E+00 0. -1.
         25    2    1    2    0    0  0.13488192625E+03 -0.80594573142E+02  0.59032981651E+01  0.20091823986E+03  0.12507865898E+03 0.  0.
         23    2    1    2    0    0 -0.13488192625E+03  0.80594573142E+02  0.13508686384E+03  0.22586287262E+03  0.89871893240E+02 0.  0.
          5    1    3    3  502    0  0.14525638097E+03 -0.29680522586E+02  0.98328184152E+01  0.14864220918E+03  0.41800000000E+01 0. -1.
         -5    1    3    3    0  502 -0.10374454712E+02 -0.50914050555E+02 -0.39295202501E+01  0.52276030683E+02  0.41800000000E+01 0. -1.
        -11    1    4    4    0    0 -0.90275907508E+02  0.50013282367E+02  0.13726743337E+03  0.17173647298E+03  0.00000000000E+00 0.  1.
         11    1    4    4    0    0 -0.44606018747E+02  0.30581290775E+02 -0.21805695264E+01  0.54126399634E+02  0.00000000000E+00 0. -1.
</event>
<event>
 8    1  0.7102339E-009  0.1924599E+03  0.7561462E-02  0.1156261E+00
          1   -1    0    0  501    0  0.00000000000E+00  0.00000000000E+00  0.39170476727E+02  0.39170476727E+02  0.00000000000E+00 0. -1.
         -1   -1    0    0    0  501 -0.00000000000E+00 -0.00000000000E+00 -0.10926145711E+04  0.10926145711E+04  0.00000000000E+00 0.  1.
         25    2    1    2    0    0  0.16950011379E+03 -0.25784467629E+02 -0.64902970064E+03  0.68284909253E+03  0.12509277962E+03 0.  0.
         23    2    1    2    0    0 -0.16950011379E+03  0.25784467629E+02 -0.40441439368E+03  0.44893595525E+03  0.92721964754E+02 0.  0.
          5    1    3    3  502    0  0.16426342012E+02 -0.50593438315E+02 -0.11558419888E+03  0.12730553854E+03  0.41800000000E+01 0.  1.
         -5    1    3    3    0  502  0.15307377178E+03  0.24808970686E+02 -0.53344550177E+03  0.55554355400E+03  0.41800000000E+01 0.  1.
        -11    1    4    4    0    0 -0.14604310065E+03  0.36668197995E+02 -0.39263971336E+03  0.42052239952E+03  0.00000000000E+00 0.  1.
         11    1    4    4    0    0 -0.23457013140E+02 -0.10883730366E+02 -0.11774680323E+02  0.28413555723E+02  0.00000000000E+00 0. -1.
</event>
<event>
 8    1  0.7102339E-009  0.1766921E+03  0.7561462E-02  0.1171043E+00
          1   -1    0    0  501    0  0.00000000000E+00  0.00000000000E+00  0.14966090495E+03  0.14966090495E+03  0.00000000000E+00 0.  1.
         -1   -1    0    0    0  501 -0.00000000000E+00 -0.00000000000E+00 -0.30352691394E+03  0.30352691394E+03  0.00000000000E+00 0. -1.
         25    2    1    2    0    0 -0.70494871694E+02 -0.13492437451E+03  0.27460292650E+02  0.19892797876E+03  0.12507661367E+03 0.  0.
         23    2    1    2    0    0  0.70494871694E+02  0.13492437451E+03 -0.18132630163E+03  0.25425984013E+03  0.92707738973E+02 0.  0.
          5    1    3    3  502    0 -0.60189015714E+01 -0.12332496752E+03 -0.89426276143E+01  0.12386572480E+03  0.41800000000E+01 0. -1.
         -5    1    3    3    0  502 -0.64475970123E+02 -0.11599406991E+02  0.36402920264E+02  0.75062253960E+02  0.41800000000E+01 0. -1.
        -11    1    4    4    0    0 -0.11505310850E+02  0.18751612759E+02  0.21798612980E+01  0.22107622081E+02  0.00000000000E+00 0.  1.
         11    1    4    4    0    0  0.82000182544E+02  0.11617276176E+03 -0.18350616293E+03  0.23215221805E+03  0.00000000000E+00 0. -1.
</event>
<event>
 8    1  0.7102339E-009  0.3363326E+03  0.7561462E-02  0.1068369E+00
         -2   -1    0    0    0  501 -0.00000000000E+00  0.00000000000E+00  0.23370942516E+03  0.23370942516E+03  0.00000000000E+00 0.  1.
          2   -1    0    0  501    0  0.00000000000E+00 -0.00000000000E+00 -0.60883810185E+03  0.60883810185E+03  0.00000000000E+00 0. -1.
         25    2    1    2    0    0  0.28951862823E+03  0.15698789772E+03 -0.35529276768E+03  0.50034654442E+03  0.12508987816E+03 0.  0.
         23    2    1    2    0    0 -0.28951862823E+03 -0.15698789772E+03 -0.19835909016E+02  0.34220098259E+03  0.90784431912E+02 0.  0.
          5    1    3    3  502    0  0.11623865221E+03  0.11770838588E+03 -0.22806303764E+03  0.28177457287E+03  0.41800000000E+01 0.  1.
         -5    1    3    3    0  502  0.17327997603E+03  0.39279511836E+02 -0.12722973003E+03  0.21857197155E+03  0.41800000000E+01 0.  1.
        -11    1    4    4    0    0 -0.11325322806E+03 -0.56571291508E+02  0.36332351449E+02  0.13170666061E+03  0.00000000000E+00 0.  1.
         11    1    4    4    0    0 -0.17626540018E+03 -0.10041660621E+03 -0.56168260465E+02  0.21049432198E+03  0.00000000000E+00 0. -1.
</event>
<event>
 8    1  0.7102339E-009  0.6841646E+02  0.7561462E-02  0.1365562E+00
          1   -1    0    0  501    0  0.00000000000E+00  0.00000000000E+00  0.57852471559E+03  0.57852471559E+03  0.00000000000E+00 0. -1.
         -1   -1    0    0    0  501 -0.00000000000E+00 -0.00000000000E+00 -0.29105074723E+02  0.29105074723E+02  0.00000000000E+00 0.  1.
         25    2    1    2    0    0 -0.46925390880E+02  0.10892794203E+02  0.43470815141E+03  0.45490570854E+03  0.12508949390E+03 0.  0.
         23    2    1    2    0    0  0.46925390880E+02 -0.10892794203E+02  0.11471148945E+03  0.15272408177E+03  0.88573551723E+02 0.  0.
          5    1    3    3  502    0 -0.12978404360E+02 -0.10991723271E+02  0.40301645088E+03  0.40339681338E+03  0.41800000000E+01 0. -1.
         -5    1    3    3    0  502 -0.33946986519E+02  0.21884517474E+02  0.31691700532E+02  0.51508895168E+02  0.41800000000E+01 0. -1.
        -11    1    4    4    0    0  0.57926196680E+02  0.63367832425E+01  0.11838998488E+03  0.13195373281E+03  0.00000000000E+00 0. -1.
         11    1    4    4    0    0 -0.11000805800E+02 -0.17229577445E+02 -0.36784954251E+01  0.20770348957E+02  0.00000000000E+00 0.  1.
</event>
<event>
 8    1  0.7102339E-009  0.1173595E+03  0.7561462E-02  0.1247518E+00
         -1   -1    0    0    0  501 -0.00000000000E+00  0.00000000000E+00  0.14624119705E+03  0.14624119705E+03  0.00000000000E+00 0.  1.
          1   -1    0    0  501    0  0.00000000000E+00 -0.00000000000E+00 -0.11770312158E+03  0.11770312158E+03  0.00000000000E+00 0. -1.
         25    2    1    2    0    0 -0.49735413673E+02  0.55612864011E+02  0.14412086168E+02  0.14635722292E+03  0.12508527674E+03 0.  0.
         23    2    1    2    0    0  0.49735413673E+02 -0.55612864011E+02  0.14125989298E+02  0.11758709571E+03  0.89781843856E+02 0.  0.
          5    1    3    3  502    0 -0.70638047675E+02 -0.14610984079E+02  0.66286291715E+01  0.72557740868E+02  0.41800000000E+01 0.  1.
         -5    1    3    3    0  502  0.20902634002E+02  0.70223848090E+02  0.77834569966E+01  0.73799482055E+02  0.41800000000E+01 0.  1.
        -11    1    4    4    0    0  0.54129168750E+02 -0.27671357163E+02 -0.27932626372E+02  0.66902186308E+02  0.00000000000E+00 0. -1.
         11    1    4    4    0    0 -0.43937550765E+01 -0.27941506848E+02  0.42058615670E+02  0.50684909398E+02  0.00000000000E+00 0.  1.
</event>
<event>
 8    1  0.7102339E-009  0.1027191E+03  0.7561462E-02  0.1274680E+00
         -2   -1    0    0    0  501 -0.00000000000E+00  0.00000000000E+00  0.17809496919E+03  0.17809496919E+03  0.00000000000E+00 0. -1.
          2   -1    0    0  501    0  0.00000000000E+00 -0.00000000000E+00 -0.10025054497E+03  0.10025054497E+03  0.00000000000E+00 0.  1.
         25    2    1    2    0    0 -0.51393186019E+02 -0.12644639459E+02  0.10033125783E+03  0.16886241522E+03  0.12508799903E+03 0.  0.
         23    2    1    2    0    0  0.51393186019E+02  0.12644639459E+02 -0.22486833608E+02  0.10948309894E+03  0.93165147950E+02 0.  0.
          5    1    3    3  502    0 -0.68321520878E+02 -0.30791788475E+02  0.11676349499E+03  0.13880616202E+03  0.41800000000E+01 0. -1.
         -5    1    3    3    0  502  0.16928334860E+02  0.18147149017E+02 -0.16432237162E+02  0.30056253205E+02  0.41800000000E+01 0. -1.
        -11    1    4    4    0    0  0.74222200320E+02 -0.77206879757E+01 -0.63420163267E+01  0.74891689887E+02  0.00000000000E+00 0.  1.
         11    1    4    4    0    0 -0.22829014301E+02  0.20365327434E+02 -0.16144817281E+02  0.34591409057E+02  0.00000000000E+00 0. -1.
</event>
<event>
 8    1  0.7102339E-009  0.1126821E+03  0.7561462E-02  0.1255682E+00
          1   -1    0    0  501    0  0.00000000000E+00  0.00000000000E+00  0.18169454462E+04  0.18169454462E+04  0.00000000000E+00 0. -1.
         -1   -1    0    0    0  501 -0.00000000000E+00 -0.00000000000E+00 -0.10997620605E+02  0.10997620605E+02  0.00000000000E+00 0.  1.
         25    2    1    2    0    0  0.57478576753E+02 -0.28108469412E+02  0.14041390758E+04  0.14111510518E+04  0.12508746439E+03 0.  0.
         23    2    1    2    0    0 -0.57478576753E+02  0.28108469412E+02  0.40180874973E+03  0.41679201502E+03  0.90396015321E+02 0.  0.
          5    1    3    3  502    0  0.52608776762E+02  0.34769072351E+02  0.39398360237E+03  0.39902020390E+03  0.41800000000E+01 0. -1.
         -5    1    3    3    0  502  0.48697999911E+01 -0.62877541763E+02  0.10101554735E+04  0.10121308478E+04  0.41800000000E+01 0. -1.
        -11    1    4    4    0    0  0.12551272180E+01 -0.21830901932E+02  0.30289047799E+02  0.37357596819E+02  0.00000000000E+00 0.  1.
         11    1    4    4    0    0 -0.58733703971E+02  0.49939371344E+02  0.37151970193E+03  0.37943441820E+03  0.00000000000E+00 0. -1.
</event>
<event>
 8    1  0.7102339E-009  0.9550063E+02  0.7561462E-02  0.1290053E+00
         -1   -1    0    0    0  501 -0.00000000000E+00  0.00000000000E+00  0.22919271010E+02  0.22919271010E+02  0.00000000000E+00 0.  1.
          1   -1    0    0  501    0  0.00000000000E+00 -0.00000000000E+00 -0.58311503690E+03  0.58311503690E+03  0.00000000000E+00 0. -1.
         25    2    1    2    0    0 -0.20058818580E+02 -0.29281485895E+02 -0.37173580415E+03  0.39382242254E+03  0.12509528683E+03 0.  0.
         23    2    1    2    0    0  0.20058818580E+02  0.29281485895E+02 -0.18845996174E+03  0.21221188537E+03  0.90867846322E+02 0.  0.
          5    1    3    3  502    0  0.50271601673E+02 -0.23525309114E+02 -0.21121490490E+03  0.21842592006E+03  0.41800000000E+01 0.  1.
         -5    1    3    3    0  502 -0.70330420253E+02 -0.57561767813E+01 -0.16052089925E+03  0.17539650247E+03  0.41800000000E+01 0.  1.
        -11    1    4    4    0    0  0.83550322218E+01  0.44598479378E+02 -0.18749918600E+03  0.19291131558E+03  0.00000000000E+00 0. -1.
         11    1    4    4    0    0  0.11703786358E+02 -0.15316993483E+02 -0.96077574053E+00  0.19300569797E+02  0.00000000000E+00 0.  1.
</event>
<event>
 8    1  0.7102339E-009  0.7499461E+02  0.7561462E-02  0.1343888E+00
          2   -1    0    0  501    0  0.00000000000E+00  0.00000000000E+00  0.83359902127E+02  0.83359902127E+02  0.00000000000E+00 0. -1.
         -2   -1    0    0    0  501 -0.00000000000E+00 -0.00000000000E+00 -0.17187332666E+03  0.17187332666E+03  0.00000000000E+00 0.  1.
         25    2    1    2    0    0 -0.29017163572E+02  0.51589935043E+02 -0.33321720751E+02  0.14234019650E+03  0.12508747854E+03 0.  0.
         23    2    1    2    0    0  0.29017163572E+02 -0.51589935043E+02 -0.55191703778E+02  0.11289303228E+03  0.78709563539E+02 0.  0.
          5    1    3    3  502    0 -0.42989717108E+02  0.75262623788E+01  0.37480604590E+02  0.57680399815E+02  0.41800000000E+01 0.  1.
         -5    1    3    3    0  502  0.13972553536E+02  0.44063672664E+02 -0.70802325341E+02  0.84659796684E+02  0.41800000000E+01 0.  1.
        -11    1    4    4    0    0  0.56027666245E+01 -0.17499139759E+02 -0.67329387900E+02  0.69791527861E+02  0.00000000000E+00 0.  1.
         11    1    4    4    0    0  0.23414396948E+02 -0.34090795284E+02  0.12137684123E+02  0.43101504421E+02  0.00000000000E+00 0. -1.
</event>
<event>
 8    1  0.7102339E-009  0.1352326E+03  0.7561462E-02  0.1219892E+00
          3   -1    0    0  501    0  0.00000000000E+00  0.00000000000E+00  0.34494672893E+03  0.34494672893E+03  0.00000000000E+00 0. -1.
         -3   -1    0    0    0  501 -0.00000000000E+00 -0.00000000000E+00 -0.63395792697E+02  0.63395792697E+02  0.00000000000E+00 0.  1.
         25    2    1    2    0    0  0.52890041267E+02 -0.72900506211E+02  0.17237638374E+03  0.23124223014E+03  0.12509001182E+03 0.  0.
         23    2    1    2    0    0 -0.52890041267E+02  0.72900506211E+02  0.10917455249E+03  0.17710029149E+03  0.10645933525E+03 0.  0.
          5    1    3    3  502    0 -0.34107117807E+02 -0.55479660828E+02  0.76174804124E+02  0.10030633796E+03  0.41800000000E+01 0.  1.
         -5    1    3    3    0  502  0.86997159074E+02 -0.17420845383E+02  0.96201579621E+02  0.13093589219E+03  0.41800000000E+01 0.  1.
        -11    1    4    4    0    0  0.18717477014E+02  0.10871919577E+02 -0.10832692270E+02  0.24205160666E+02  0.00000000000E+00 0.  1.
         11    1    4    4    0    0 -0.71607518281E+02  0.62028586634E+02  0.12000724476E+03  0.15289513082E+03  0.00000000000E+00 0. -1.
</event>
<event>
 8    1  0.7102339E-009  0.1161211E+03  0.7561462E-02  0.1249637E+00
         -1   -1    0    0    0  501 -0.00000000000E+00  0.00000000000E+00  0.96250583687E+02  0.96250583687E+02  0.00000000000E+00 0.  1.
          1   -1    0    0  501    0  0.00000000000E+00 -0.00000000000E+00 -0.18452956598E+03  0.18452956598E+03  0.00000000000E+00 0. -1.
         25    2    1    2    0    0  0.45169738520E+02  0.62649420525E+02 -0.45613836647E+02  0.15392652848E+03  0.12508996325E+03 0.  0.
         23    2    1    2    0    0 -0.45169738520E+02 -0.62649420525E+02 -0.42665145642E+02  0.12685362118E+03  0.91138747986E+02 0.  0.
          5    1    3    3  502    0  0.53396827418E+02  0.51996762806E+00  0.25264324847E+02  0.59222040278E+02  0.41800000000E+01 0.  1.
         -5    1    3    3    0  502 -0.82270888984E+01  0.62129452897E+02 -0.70878161495E+02  0.94704488203E+02  0.41800000000E+01 0.  1.
        -11    1    4    4    0    0 -0.63108204808E+02 -0.14875457710E+02 -0.83844233378E+01  0.65377544393E+02  0.00000000000E+00 0. -1.
         11    1    4    4    0    0  0.17938466288E+02 -0.47773962814E+02 -0.34280722304E+02  0.61476076790E+02  0.00000000000E+00 0.  1.
</event>
<event>
 8    1  0.7102339E-009  0.1190281E+03  0.7561462E-02  0.1244709E+00
         -2   -1    0    0    0  501 -0.00000000000E+00  0.00000000000E+00  0.28078199894E+03  0.28078199894E+03  0.00000000000E+00 0.  1.
          2   -1    0    0  501    0  0.00000000000E+00 -0.00000000000E+00 -0.79819815906E+02  0.79819815906E+02  0.00000000000E+00 0. -1.
         25    2    1    2    0    0 -0.40467813195E+02 -0.60825831245E+02  0.19710073770E+03  0.24461077581E+03  0.12509318602E+03 0.  0.
         23    2    1    2    0    0  0.40467813195E+02  0.60825831245E+02  0.38614453274E+01  0.11599103903E+03  0.90008803593E+02 0.  0.
          5    1    3    3  502    0 -0.59952840920E+02  0.97283083063E+01  0.44816591087E+02  0.75597502297E+02  0.41800000000E+01 0. -1.
         -5    1    3    3    0  502  0.19485027725E+02 -0.70554139551E+02  0.15228414662E+03  0.16901327351E+03  0.41800000000E+01 0. -1.
        -11    1    4    4    0    0 -0.44831144353E+01  0.58688215934E+02  0.27715444713E+02  0.65058057765E+02  0.00000000000E+00 0.  1.
         11    1    4    4    0    0  0.44950927630E+02  0.21376153108E+01 -0.23853999385E+02  0.50932981266E+02  0.00000000000E+00 0. -1.
</event>
<event>
 8    1  0.7102339E-009  0.8345759E+02  0.7561462E-02  0.1319516E+00
          1   -1    0    0  501    0  0.00000000000E+00  0.00000000000E+00  0.30052072322E+03  0.30052072322E+03  0.00000000000E+00 0. -1.
         -1   -1    0    0    0  501 -0.00000000000E+00 -0.00000000000E+00 -0.43396842068E+02  0.43396842068E+02  0.00000000000E+00 0.  1.
         25    2    1    2    0    0 -0.34161252948E+02 -0.29900485739E+02  0.12111492950E+03  0.17993778240E+03  0.12509096346E+03 0.  0.
         23    2    1    2    0    0  0.34161252948E+02  0.29900485739E+02  0.13600895166E+03  0.16397978288E+03  0.79560693896E+02 0.  0.
          5    1    3    3  502    0 -0.21073780022E+02  0.42427256504E+02  0.13294419802E+02  0.49380059707E+02  0.41800000000E+01 0. -1.
         -5    1    3    3    0  502 -0.13087472926E+02 -0.72327742243E+02  0.10782050969E+03  0.13055772270E+03  0.41800000000E+01 0. -1.
        -11    1    4    4    0    0  0.18580238847E+02  0.12571317546E+02 -0.33531172361E+01  0.22682740038E+02  0.00000000000E+00 0.  1.
         11    1    4    4    0    0  0.15581014101E+02  0.17329168194E+02  0.13936206889E+03  0.14129704284E+03  0.00000000000E+00 0. -1.
</event>
<event>
 8    1  0.7102339E-009  0.1785377E+03  0.7561462E-02  0.1169226E+00
         -2   -1    0    0    0  501 -0.00000000000E+00  0.00000000000E+00  0.60664355286E+02  0.60664355286E+02  0.00000000000E+00 0.  1.
          2   -1    0    0  501    0  0.00000000000E+00 -0.00000000000E+00 -0.95427129977E+03  0.95427129977E+03  0.00000000000E+00 0. -1.
         25    2    1    2    0    0  0.28097431588E+02 -0.17478686077E+03 -0.71775582719E+03  0.74977471196E+03  0.12509507930E+03 0.  0.
         23    2    1    2    0    0 -0.28097431588E+02  0.17478686077E+03 -0.17585111730E+03  0.26516094310E+03  0.89703946038E+02 0.  0.
          5    1    3    3  502    0  0.29905385929E+02 -0.10386697184E+03 -0.20192693291E+03  0.22907343491E+03  0.41800000000E+01 0.  1.
         -5    1    3    3    0  502 -0.18079543413E+01 -0.70919888929E+02 -0.51582889428E+03  0.52070127705E+03  0.41800000000E+01 0.  1.
        -11    1    4    4    0    0  0.90623909443E+00  0.38155348569E+02 -0.98189711891E+02  0.10534643523E+03  0.00000000000E+00 0. -1.
         11    1    4    4    0    0 -0.29003670682E+02  0.13663151220E+03 -0.77661405404E+02  0.15981450788E+03  0.00000000000E+00 0.  1.
</event>
<event>
 8    1  0.7102339E-009  0.1151981E+03  0.7561462E-02  0.1251236E+00
          2   -1    0    0  501    0  0.00000000000E+00  0.00000000000E+00  0.17752364974E+03  0.17752364974E+03  0.00000000000E+00 0. -1.
         -2   -1    0    0    0  501 -0.00000000000E+00 -0.00000000000E+00 -0.17835794084E+03  0.17835794084E+03  0.00000000000E+00 0.  1.
         25    2    1    2    0    0  0.79557741069E+02 -0.20413041589E+02  0.11396955246E+03  0.18809305946E+03  0.12507523215E+03 0.  0.
         23    2    1    2    0    0 -0.79557741069E+02  0.20413041589E+02 -0.11480384355E+03  0.16778853112E+03  0.90702493080E+02 0.  0.
          5    1    3    3  502    0  0.10210744452E+02  0.27499265979E+02  0.97768398774E+02  0.10215968447E+03  0.41800000000E+01 0. -1.
         -5    1    3    3    0  502  0.69346996617E+02 -0.47912307568E+02  0.16201153685E+02  0.85933374989E+02  0.41800000000E+01 0. -1.
        -11    1    4    4    0    0 -0.19934611515E+02  0.47029026690E+02 -0.76813332423E+02  0.92246442347E+02  0.00000000000E+00 0.  1.
         11    1    4    4    0    0 -0.59623129555E+02 -0.26615985101E+02 -0.37990511129E+02  0.75542088776E+02  0.00000000000E+00 0. -1.
</event>
<event>
 8    1  0.7102339E-009  0.1541096E+03  0.7561462E-02  0.1195512E+00
          2   -1    0    0  501    0  0.00000000000E+00  0.00000000000E+00  0.83765116528E+03  0.83765116528E+03  0.00000000000E+00 0. -1.
         -2   -1    0    0    0  501 -0.00000000000E+00 -0.00000000000E+00 -0.41361017688E+02  0.41361017688E+02  0.00000000000E+00 0.  1.
         25    2    1    2    0    0  0.46574769830E+02  0.10280028548E+03  0.65588179769E+03  0.67717474399E+03  0.12509034126E+03 0.  0.
         23    2    1    2    0    0 -0.46574769830E+02 -0.10280028548E+03  0.14040834991E+03  0.20183743899E+03  0.91031528450E+02 0.  0.
          5    1    3    3  502    0  0.89238606044E+02  0.63933444067E+02  0.39820543257E+03  0.41308117000E+03  0.41800000000E+01 0.  1.
         -5    1    3    3    0  502 -0.42663836214E+02  0.38866841417E+02  0.25767636512E+03  0.26409357399E+03  0.41800000000E+01 0.  1.
        -11    1    4    4    0    0 -0.68618753451E+02 -0.55287842607E+02  0.62801746695E+02  0.10820969574E+03  0.00000000000E+00 0. -1.
         11    1    4    4    0    0  0.22043983621E+02 -0.47512442877E+02  0.77606603214E+02  0.93627743241E+02  0.00000000000E+00 0.  1.
</event>
<event>
 8    1  0.7102339E-009  0.1850426E+03  0.7561462E-02  0.1163010E+00
         -1   -1    0    0    0  501 -0.00000000000E+00  0.00000000000E+00  0.17828519027E+02  0.17828519027E+02  0.00000000000E+00 0.  1.
          1   -1    0    0  501    0  0.00000000000E+00 -0.00000000000E+00 -0.26327928296E+04  0.26327928296E+04  0.00000000000E+00 0. -1.
         25    2    1    2    0    0 -0.72338035331E+02 -0.14536676306E+03 -0.19324173817E+04  0.19432581058E+04  0.12510332390E+03 0.  0.
         23    2    1    2    0    0  0.72338035331E+02  0.14536676306E+03 -0.68254692884E+03  0.70736324276E+03  0.90156308578E+02 0.  0.
          5    1    3    3  502    0 -0.34122142319E+02 -0.30585234118E+00 -0.12562105647E+03  0.13024030240E+03  0.41800000000E+01 0.  1.
         -5    1    3    3    0  502 -0.38215893013E+02 -0.14506091071E+03 -0.18067963252E+04  0.18130178034E+04  0.41800000000E+01 0.  1.
        -11    1    4    4    0    0 -0.12856257278E+02  0.72205016701E+02 -0.25935897942E+03  0.26952908561E+03  0.00000000000E+00 0.  1.
         11    1    4    4    0    0  0.85194292609E+02  0.73161746355E+02 -0.42318794942E+03  0.43783415714E+03  0.00000000000E+00 0. -1.
</event>
<event>
 8    1  0.7102339E-009  0.8948622E+02  0.7561462E-02  0.1304101E+00
         -2   -1    0    0    0  501 -0.00000000000E+00  0.00000000000E+00  0.17994222016E+03  0.17994222016E+03  0.00000000000E+00 0.  1.
          2   -1    0    0  501    0  0.00000000000E+00 -0.00000000000E+00 -0.88293181827E+02  0.88293181827E+02  0.00000000000E+00 0. -1.
         25    2    1    2    0    0  0.18045431956E+02  0.27049754981E+02  0.11174460507E+03  0.17085638639E+03  0.12509085158E+03 0.  0.
         23    2    1    2    0    0 -0.18045431956E+02 -0.27049754981E+02 -0.20095566731E+02  0.97379015605E+02  0.89562905373E+02 0.  0.
          5    1    3    3  502    0  0.45540620879E+01  0.60256642134E+02  0.11947413241E+03  0.13395201797E+03  0.41800000000E+01 0.  1.
         -5    1    3    3    0  502  0.13491369868E+02 -0.33206887152E+02 -0.77295273443E+01  0.36904368417E+02  0.41800000000E+01 0.  1.
        -11    1    4    4    0    0  0.28911459273E+02 -0.19197821092E+02 -0.33170495847E+02  0.48007401583E+02  0.00000000000E+00 0. -1.
         11    1    4    4    0    0 -0.46956891230E+02 -0.78519338893E+01  0.13074929116E+02  0.49371614022E+02  0.00000000000E+00 0.  1.
</event>
<event>
 8    1  0.7102339E-009  0.1015791E+03  0.7561462E-02  0.1277010E+00
         -1   -1    0    0    0  501 -0.00000000000E+00  0.00000000000E+00  0.13994157715E+03  0.13994157715E+03  0.00000000000E+00 0.  1.
          1   -1    0    0  501    0  0.00000000000E+00 -0.00000000000E+00 -0.12755858348E+03  0.12755858348E+03  0.00000000000E+00 0. -1.
         25    2    1    2    0    0  0.94145235318E+01  0.16317491180E+01  0.77947270805E+02  0.14769658644E+03  0.12508880351E+03 0.  0.
         23    2    1    2    0    0 -0.94145235318E+01 -0.16317491180E+01 -0.65564277133E+02  0.11980357419E+03  0.99814458339E+02 0.  0.
          5    1    3    3  502    0 -0.34974204709E+02  0.37891697585E+02  0.11108386809E+01  0.51746324541E+02  0.41800000000E+01 0. -1.
         -5    1    3    3    0  502  0.44388728240E+02 -0.36259948467E+02  0.76836432124E+02  0.95950261903E+02  0.41800000000E+01 0. -1.
        -11    1    4    4    0    0 -0.27048432570E+02  0.40260604342E+02 -0.54629719490E+02  0.73054364811E+02  0.00000000000E+00 0. -1.
         11    1    4    4    0    0  0.17633909038E+02 -0.41892353460E+02 -0.10934557644E+02  0.46749209376E+02  0.00000000000E+00 0.  1.
</event>
<event>
 8    1  0.7102339E-009  0.1520804E+03  0.7561462E-02  0.1197940E+00
         -2   -1    0    0    0  501 -0.00000000000E+00  0.00000000000E+00  0.43714095235E+02  0.43714095235E+02  0.00000000000E+00 0.  1.
          2   -1    0    0  501    0  0.00000000000E+00 -0.00000000000E+00 -0.69470031791E+03  0.69470031791E+03  0.00000000000E+00 0. -1.
         25    2    1    2    0    0  0.55535850998E+02  0.10126834984E+03 -0.49737309713E+03  0.52570667689E+03  0.12509197797E+03 0.  0.
         23    2    1    2    0    0 -0.55535850998E+02 -0.10126834984E+03 -0.15361312555E+03  0.21270773626E+03  0.91148665919E+02 0.  0.
          5    1    3    3  502    0  0.17424277841E+02  0.12375118516E+03 -0.34388809909E+03  0.36591591709E+03  0.41800000000E+01 0.  1.
         -5    1    3    3    0  502  0.38111573157E+02 -0.22482835326E+02 -0.15348499804E+03  0.15979075980E+03  0.41800000000E+01 0.  1.
        -11    1    4    4    0    0 -0.66921668124E+02 -0.53821875881E+02 -0.13597436917E+03  0.16082391943E+03  0.00000000000E+00 0.  1.
         11    1    4    4    0    0  0.11385817126E+02 -0.47446473955E+02 -0.17638756373E+02  0.51883816829E+02  0.00000000000E+00 0. -1.
</event>
<event>
 8    1  0.7102339E-009  0.1297231E+03  0.7561462E-02  0.1227867E+00
          1   -1    0    0  501    0  0.00000000000E+00  0.00000000000E+00  0.46845271113E+03  0.46845271113E+03  0.00000000000E+00 0. -1.
         -1   -1    0    0    0  501 -0.00000000000E+00 -0.00000000000E+00 -0.50529363832E+02  0.50529363832E+02  0.00000000000E+00 0.  1.
         25    2    1    2    0    0  0.76143490280E+01 -0.89479992674E+02  0.13266286099E+03  0.20325328608E+03  0.12509123158E+03 0.  0.
         23    2    1    2    0    0 -0.76143490280E+01  0.89479992674E+02  0.28526048631E+03  0.31572878888E+03  0.10122487677E+03 0.  0.
          5    1    3    3  502    0 -0.23238873512E+02  0.57780057170E+01  0.91904478982E+02  0.95064905455E+02  0.41800000000E+01 0. -1.
         -5    1    3    3    0  502  0.30853222540E+02 -0.95257998391E+02  0.40758382004E+02  0.10818838062E+03  0.41800000000E+01 0. -1.
        -11    1    4    4    0    0  0.29743301491E+01 -0.22371802524E+02  0.39221320119E+02  0.45251034683E+02  0.00000000000E+00 0.  1.
         11    1    4    4    0    0 -0.10588679177E+02  0.11185179520E+03  0.24603916619E+03  0.27047775420E+03  0.00000000000E+00 0. -1.
</event>
<event>
 8    1  0.7102339E-009  0.9348463E+02  0.7561462E-02  0.1294626E+00
          2   -1    0    0  501    0  0.00000000000E+00  0.00000000000E+00  0.89990919403E+03  0.89990919403E+03  0.00000000000E+00 0.  1.
         -2   -1    0    0    0  501 -0.00000000000E+00 -0.00000000000E+00 -0.17705494342E+02  0.17705494342E+02  0.00000000000E+00 0. -1.
         25    2    1    2    0    0  0.32208042952E+02 -0.97310387932E+01  0.70288456717E+03  0.71472088709E+03  0.12508869066E+03 0.  0.
         23    2    1    2    0    0 -0.32208042952E+02  0.97310387932E+01  0.17931913252E+03  0.20289380128E+03  0.88760870684E+02 0.  0.
          5    1    3    3  502    0 -0.39262884235E+01  0.44099979451E+02  0.49322592545E+03  0.49522672572E+03  0.41800000000E+01 0.  1.
         -5    1    3    3    0  502  0.36134331376E+02 -0.53831018244E+02  0.20965864171E+03  0.21949416137E+03  0.41800000000E+01 0.  1.
        -11    1    4    4    0    0  0.11036001686E+02 -0.21513342661E+02  0.12285633602E+03  0.12521300470E+03  0.00000000000E+00 0.  1.
         11    1    4    4    0    0 -0.43244044638E+02  0.31244381454E+02  0.56462796496E+02  0.77680796580E+02  0.00000000000E+00 0. -1.
</event>
<event>
 8    1  0.7102339E-009  0.3451927E+03  0.7561462E-02  0.1064606E+00
         -2   -1    0    0    0  501 -0.00000000000E+00  0.00000000000E+00  0.25410386830E+03  0.25410386830E+03  0.00000000000E+00 0.  1.
          2   -1    0    0  501    0  0.00000000000E+00 -0.00000000000E+00 -0.54470772315E+03  0.54470772315E+03  0.00000000000E+00 0. -1.
         25    2    1    2    0    0  0.23404509247E+03  0.22984581574E+03 -0.35484552741E+00  0.35107616600E+03  0.12509254212E+03 0.  0.
         23    2    1    2    0    0 -0.23404509247E+03 -0.22984581574E+03 -0.29024900933E+03  0.44773542545E+03  0.92824131887E+02 0.  0.
          5    1    3    3  502    0  0.63679274664E+02  0.35130417490E+00  0.12106895271E+02  0.64955544409E+02  0.41800000000E+01 0. -1.
         -5    1    3    3    0  502  0.17036581781E+03  0.22949451157E+03 -0.12461740798E+02  0.28612062159E+03  0.41800000000E+01 0. -1.
        -11    1    4    4    0    0 -0.14403610172E+03 -0.76965422077E+02 -0.13155638504E+03  0.20970731327E+03  0.00000000000E+00 0. -1.
         11    1    4    4    0    0 -0.90008990752E+02 -0.15288039366E+03 -0.15869262429E+03  0.23802811218E+03  0.00000000000E+00 0.  1.
</event>
<event>
 8    1  0.7102339E-009  0.1000623E+03  0.7561462E-02  0.1280165E+00
          2   -1    0    0  501    0  0.00000000000E+00  0.00000000000E+00  0.23010591454E+03  0.23010591454E+03  0.00000000000E+00 0.  1.
         -2   -1    0    0    0  501 -0.00000000000E+00 -0.00000000000E+00 -0.84049487679E+02  0.84049487679E+02  0.00000000000E+00 0. -1.
         25    2    1    2    0    0 -0.23734105839E+02 -0.32738716217E+02  0.16563923272E+03  0.21146803855E+03  0.12508894672E+03 0.  0.
         23    2    1    2    0    0  0.23734105839E+02  0.32738716217E+02 -0.19582805861E+02  0.10268736367E+03  0.92336758947E+02 0.  0.
          5    1    3    3  502    0 -0.12562848240E+02 -0.66800735565E+02  0.16133920084E+03  0.17512273854E+03  0.41800000000E+01 0. -1.
         -5    1    3    3    0  502 -0.11171257599E+02  0.34062019348E+02  0.43000318883E+01  0.36345300007E+02  0.41800000000E+01 0. -1.
        -11    1    4    4    0    0 -0.14451158396E+01 -0.29115687745E+02 -0.20936370241E+02  0.35890712330E+02  0.00000000000E+00 0.  1.
         11    1    4    4    0    0  0.25179221678E+02  0.61854403963E+02  0.13535643794E+01  0.66796651342E+02  0.00000000000E+00 0. -1.
</event>
<event>
 8    1  0.7102339E-009  0.1020493E+03  0.7561462E-02  0.1276045E+00
          2   -1    0    0  501    0  0.00000000000E+00  0.00000000000E+00  0.54465539817E+03  0.54465539817E+03  0.00000000000E+00 0. -1.
         -2   -1    0    0    0  501 -0.00000000000E+00 -0.00000000000E+00 -0.28144076320E+02  0.28144076320E+02  0.00000000000E+00 0.  1.
         25    2    1    2    0    0 -0.35972785981E+02  0.31590692660E+02  0.36949221967E+03  0.39301328710E+03  0.12507170041E+03 0.  0.
         23    2    1    2    0    0  0.35972785981E+02 -0.31590692660E+02  0.14701910218E+03  0.17978618739E+03  0.91741177113E+02 0.  0.
          5    1    3    3  502    0 -0.19542087993E+02  0.62992918825E+02  0.34100782517E+03  0.34735257341E+03  0.41800000000E+01 0.  1.
         -5    1    3    3    0  502 -0.16430697988E+02 -0.31402226165E+02  0.28484394500E+02  0.45660713688E+02  0.41800000000E+01 0.  1.
        -11    1    4    4    0    0 -0.41660607217E+01 -0.55465922385E+02  0.93127799755E+02  0.10847401392E+03  0.00000000000E+00 0. -1.
         11    1    4    4    0    0  0.40138846702E+02  0.23875229725E+02  0.53891302424E+02  0.71312173477E+02  0.00000000000E+00 0.  1.
</event>
<event>
 8    1  0.7102339E-009  0.8897101E+02  0.7561462E-02  0.1305363E+00
         -2   -1    0    0    0  501 -0.00000000000E+00  0.00000000000E+00  0.62274528883E+03  0.62274528883E+03  0.00000000000E+00 0.  1.
          2   -1    0    0  501    0  0.00000000000E+00 -0.00000000000E+00 -0.25633917979E+02  0.25633917979E+02  0.00000000000E+00 0. -1.
         25    2    1    2    0    0  0.45228491454E+02  0.31285981695E+02  0.26436359370E+03  0.29759128157E+03  0.12509209449E+03 0.  0.
         23    2    1    2    0    0 -0.45228491454E+02 -0.31285981695E+02  0.33274777715E+03  0.35078792523E+03  0.96471012238E+02 0.  0.
          5    1    3    3  502    0  0.48671975321E+02  0.17062065104E+02  0.27448061183E+03  0.27931550963E+03  0.41800000000E+01 0. -1.
         -5    1    3    3    0  502 -0.34434838675E+01  0.14223916590E+02 -0.10117018132E+02  0.18275771945E+02  0.41800000000E+01 0. -1.
        -11    1    4    4    0    0  0.25954031994E+02  0.10992044068E+02  0.89973699635E+02  0.94285223845E+02  0.00000000000E+00 0. -1.
         11    1    4    4    0    0 -0.71182523448E+02 -0.42278025762E+02  0.24277407751E+03  0.25650270138E+03  0.00000000000E+00 0.  1.
</event>
<event>
 8    1  0.7102339E-009  0.1963792E+03  0.7561462E-02  0.1152830E+00
         -1   -1    0    0    0  501 -0.00000000000E+00  0.00000000000E+00  0.14627094583E+03  0.14627094583E+03  0.00000000000E+00 0.  1.
          1   -1    0    0  501    0  0.00000000000E+00 -0.00000000000E+00 -0.39585874642E+03  0.39585874642E+03  0.00000000000E+00 0. -1.
         25    2    1    2    0    0 -0.14689573087E+03 -0.78952670945E+02 -0.28201778520E+03  0.35070268082E+03  0.12508580721E+03 0.  0.
         23    2    1    2    0    0  0.14689573087E+03  0.78952670945E+02  0.32429984604E+02  0.19142701143E+03  0.88208371517E+02 0.  0.
          5    1    3    3  502    0 -0.15075646123E+03 -0.28688071992E+02 -0.17814574441E+03  0.23516780122E+03  0.41800000000E+01 0. -1.
         -5    1    3    3    0  502  0.38607303603E+01 -0.50264598953E+02 -0.10387204079E+03  0.11553487960E+03  0.41800000000E+01 0. -1.
        -11    1    4    4    0    0  0.75608369458E+02  0.88868804452E+02  0.19316631017E+02  0.11826843269E+03  0.00000000000E+00 0. -1.
         11    1    4    4    0    0  0.71287361413E+02 -0.99161335066E+01  0.13113353586E+02  0.73158578740E+02  0.00000000000E+00 0.  1.
</event>
<event>
 8    1  0.7102339E-009  0.1237041E+03  0.7561462E-02  0.1237109E+00
          1   -1    0    0  501    0  0.00000000000E+00  0.00000000000E+00  0.46144588703E+03  0.46144588703E+03  0.00000000000E+00 0. -1.
         -1   -1    0    0    0  501 -0.00000000000E+00 -0.00000000000E+00 -0.41942421491E+02  0.41942421491E+02  0.00000000000E+00 0.  1.
         25    2    1    2    0    0  0.45950366077E+02 -0.71765117849E+02  0.21776108962E+03  0.26519672480E+03  0.12509093656E+03 0.  0.
         23    2    1    2    0    0 -0.45950366077E+02  0.71765117849E+02  0.20174237591E+03  0.23819158371E+03  0.93667369081E+02 0.  0.
          5    1    3    3  502    0  0.41176051676E+02  0.78114465510E+01  0.16309106322E+03  0.16844183931E+03  0.41800000000E+01 0. -1.
         -5    1    3    3    0  502  0.47743144002E+01 -0.79576564400E+02  0.54670026406E+02  0.96754885494E+02  0.41800000000E+01 0. -1.
        -11    1    4    4    0    0 -0.72107658249E+02  0.34511532215E+02  0.11249484925E+03  0.13800598299E+03  0.00000000000E+00 0.  1.
         11    1    4    4    0    0  0.26157292173E+02  0.37253585634E+02  0.89247526661E+02  0.10018560072E+03  0.00000000000E+00 0. -1.
</event>
<event>
 8    1  0.7102339E-009  0.1077860E+03  0.7561462E-02  0.1264726E+00
         -1   -1    0    0    0  501 -0.00000000000E+00  0.00000000000E+00  0.28123565550E+02  0.28123565550E+02  0.00000000000E+00 0.  1.
          1   -1    0    0  501    0  0.00000000000E+00 -0.00000000000E+00 -0.58840395639E+03  0.58840395639E+03  0.00000000000E+00 0. -1.
         25    2    1    2    0    0  0.32766538267E+02  0.84366300461E+01 -0.45527476821E+03  0.47335786248E+03  0.12509088156E+03 0.  0.
         23    2    1    2    0    0 -0.32766538267E+02 -0.84366300461E+01 -0.10500562263E+03  0.14316965946E+03  0.91249919720E+02 0.  0.
          5    1    3    3  502    0 -0.38700601120E+02  0.23389962046E+02 -0.89711247699E+02  0.10055052071E+03  0.41800000000E+01 0. -1.
         -5    1    3    3    0  502  0.71467139387E+02 -0.14953332000E+02 -0.36556352051E+03  0.37280734177E+03  0.41800000000E+01 0. -1.
        -11    1    4    4    0    0  0.11239219457E+02  0.34049616842E+02 -0.33503610842E+02  0.49073296206E+02  0.00000000000E+00 0.  1.
         11    1    4    4    0    0 -0.44005757724E+02 -0.42486246888E+02 -0.71502011788E+02  0.94096363252E+02  0.00000000000E+00 0. -1.
</event>
<event>
 8    1  0.7102339E-009  0.2307823E+03  0.7561462E-02  0.1126090E+00
          2   -1    0    0  501    0  0.00000000000E+00  0.00000000000E+00  0.74748821559E+03  0.74748821559E+03  0.00000000000E+00 0. -1.
         -2   -1    0    0    0  501 -0.00000000000E+00 -0.00000000000E+00 -0.74358338092E+02  0.74358338092E+02  0.00000000000E+00 0.  1.
         25    2    1    2    0    0 -0.20401322316E+03 -0.27754960399E+00  0.41965769686E+03  0.48309569232E+03  0.12508954050E+03 0.  0.
         23    2    1    2    0    0  0.20401322316E+03  0.27754960399E+00  0.25347218064E+03  0.33875086137E+03  0.94247161564E+02 0.  0.
          5    1    3    3  502    0 -0.10916401387E+03  0.61457512374E+02  0.20174736667E+03  0.23751479977E+03  0.41800000000E+01 0.  1.
         -5    1    3    3    0  502 -0.94849209286E+02 -0.61735061978E+02  0.21791033019E+03  0.24558089255E+03  0.41800000000E+01 0.  1.
        -11    1    4    4    0    0  0.49056393758E+02  0.39667219047E+02  0.53488565681E+02  0.82710608111E+02  0.00000000000E+00 0.  1.
         11    1    4    4    0    0  0.15495682940E+03 -0.39389669443E+02  0.19998361496E+03  0.25604025326E+03  0.00000000000E+00 0. -1.
</event>
<event>
 8    1  0.7102339E-009  0.4186500E+03  0.7561462E-02  0.1037507E+00
          1   -1    0    0  501    0  0.00000000000E+00  0.00000000000E+00  0.11887729211E+04  0.11887729211E+04  0.00000000000E+00 0. -1.
         -1   -1    0    0    0  501 -0.00000000000E+00 -0.00000000000E+00 -0.15666494540E+03  0.15666494540E+03  0.00000000000E+00 0.  1.
         25    2    1    2    0    0  0.28198562716E+03 -0.30149888508E+03  0.42200904722E+03  0.60345447121E+03  0.12509273064E+03 0.  0.
         23    2    1    2    0    0 -0.28198562716E+03  0.30149888508E+03  0.61009892852E+03  0.74198339534E+03  0.88888608651E+02 0.  0.
          5    1    3    3  502    0  0.62006944057E+02 -0.10586913284E+03  0.59412603431E+02  0.13638351896E+03  0.41800000000E+01 0. -1.
         -5    1    3    3    0  502  0.21997868311E+03 -0.19562975224E+03  0.36259644379E+03  0.46707095225E+03  0.41800000000E+01 0. -1.
        -11    1    4    4    0    0 -0.64261883779E+02  0.12223424789E+03  0.23678464564E+03  0.27411269484E+03  0.00000000000E+00 0. -1.
         11    1    4    4    0    0 -0.21772374338E+03  0.17926463719E+03  0.37331428288E+03  0.46787070049E+03  0.00000000000E+00 0.  1.
</event>
<event>
 8    1  0.7102339E-009  0.1053229E+03  0.7561462E-02  0.1269485E+00
          2   -1    0    0  501    0  0.00000000000E+00  0.00000000000E+00  0.36628000295E+03  0.36628000295E+03  0.00000000000E+00 0. -1.
         -2   -1    0    0    0  501 -0.00000000000E+00 -0.00000000000E+00 -0.39372698094E+02  0.39372698094E+02  0.00000000000E+00 0.  1.
         25    2    1    2    0    0  0.40298958803E+02  0.18777875684E+01  0.23976752055E+03  0.27342917781E+03  0.12509004436E+03 0.  0.
         23    2    1    2    0    0 -0.40298958803E+02 -0.18777875684E+01  0.87139784310E+02  0.13222352324E+03  0.90896567165E+02 0.  0.
          5    1    3    3  502    0  0.68229767569E+02 -0.25320060309E+02  0.77108466446E+02  0.10611123708E+03  0.41800000000E+01 0.  1.
         -5    1    3    3    0  502 -0.27930808766E+02  0.27197847877E+02  0.16265905410E+03  0.16731794073E+03  0.41800000000E+01 0.  1.
        -11    1    4    4    0    0 -0.18526938560E+02 -0.45862067644E+02  0.34831910362E+02  0.60496600570E+02  0.00000000000E+00 0. -1.
         11    1    4    4    0    0 -0.21772020243E+02  0.43984280076E+02  0.52307873948E+02  0.71726922673E+02  0.00000000000E+00 0.  1.
</event>
<event>
 8    1  0.7102339E-009  0.1151216E+03  0.7561462E-02  0.1251369E+00
          2   -1    0    0  501    0  0.00000000000E+00  0.00000000000E+00  0.14836327108E+03  0.14836327108E+03  0.00000000000E+00 0. -1.
         -2   -1    0    0    0  501 -0.00000000000E+00 -0.00000000000E+00 -0.14415714042E+03  0.14415714042E+03  0.00000000000E+00 0.  1.
         25    2    1    2    0    0 -0.98191264726E+02  0.12411159824E+00 -0.20355854630E+02  0.16032082172E+03  0.12508743017E+03 0.  0.
         23    2    1    2    0    0  0.98191264726E+02 -0.12411159824E+00  0.24561985290E+02  0.13219958979E+03  0.85040581758E+02 0.  0.
          5    1    3    3  502    0 -0.51633690790E+01  0.27544024470E+01  0.45608707728E+02  0.46172218202E+02  0.41800000000E+01 0.  1.
         -5    1    3    3    0  502 -0.93027895647E+02 -0.26302908488E+01 -0.65964562358E+02  0.11414860352E+03  0.41800000000E+01 0.  1.
        -11    1    4    4    0    0  0.12404524359E+02  0.35045871496E+02  0.75652305200E+01  0.37938345330E+02  0.00000000000E+00 0. -1.
         11    1    4    4    0    0  0.85786740367E+02 -0.35169983095E+02  0.16996754770E+02  0.94261244456E+02  0.00000000000E+00 0.  1.
</event>
<event>
 8    1  0.7102339E-009  0.8222185E+02  0.7561462E-02  0.1322862E+00
         -2   -1    0    0    0  501 -0.00000000000E+00  0.00000000000E+00  0.39365908129E+02  0.39365908129E+02  0.00000000000E+00 0.  1.
          2   -1    0    0  501    0  0.00000000000E+00 -0.00000000000E+00 -0.28187228176E+03  0.28187228176E+03  0.00000000000E+00 0. -1.
         25    2    1    2    0    0 -0.29908546893E+01  0.51333417587E+01 -0.16146267381E+03  0.20432871467E+03  0.12507890387E+03 0.  0.
         23    2    1    2    0    0  0.29908546893E+01 -0.51333417587E+01 -0.81043699821E+02  0.11690947523E+03  0.84050268931E+02 0.  0.
          5    1    3    3  502    0 -0.31681185451E+02 -0.36388574428E+02 -0.14207468753E+03  0.15010168252E+03  0.41800000000E+01 0. -1.
         -5    1    3    3    0  502  0.28690330761E+02  0.41521916187E+02 -0.19387986288E+02  0.54227032146E+02  0.41800000000E+01 0. -1.
        -11    1    4    4    0    0 -0.81337685710E+01  0.28661882925E+02 -0.15698492986E+01  0.29834981997E+02  0.00000000000E+00 0.  1.
         11    1    4    4    0    0  0.11124623260E+02 -0.33795224683E+02 -0.79473850522E+02  0.87074493228E+02  0.00000000000E+00 0. -1.
</event>
<event>
 8    1  0.7102339E-009  0.1105716E+03  0.7561462E-02  0.1259515E+00
          4   -1    0    0  501    0  0.00000000000E+00  0.00000000000E+00  0.35954570696E+03  0.35954570696E+03  0.00000000000E+00 0. -1.
         -4   -1    0    0    0  501 -0.00000000000E+00 -0.00000000000E+00 -0.35913720760E+02  0.35913720760E+02  0.00000000000E+00 0.  1.
         25    2    1    2    0    0  0.28306327298E+02 -0.17510583034E+02  0.16605104938E+03  0.21054258158E+03  0.12508940393E+03 0.  0.
         23    2    1    2    0    0 -0.28306327298E+02  0.17510583034E+02  0.15758093682E+03  0.18491684613E+03  0.90854937412E+02 0.  0.
          5    1    3    3  502    0  0.74752203352E+02 -0.30786260536E+02  0.10305116398E+03  0.13104465095E+03  0.41800000000E+01 0. -1.
         -5    1    3    3    0  502 -0.46445876053E+02  0.13275677502E+02  0.62999885398E+02  0.79497930637E+02  0.41800000000E+01 0. -1.
        -11    1    4    4    0    0 -0.46453563886E+02  0.41043412594E+02  0.13149966973E+03  0.14537764084E+03  0.00000000000E+00 0.  1.
         11    1    4    4    0    0  0.18147236587E+02 -0.23532829560E+02  0.26081267086E+02  0.39539205299E+02  0.00000000000E+00 0. -1.
</event>
<event>
 8    1  0.7102339E-009  0.1259601E+03  0.7561462E-02  0.1233576E+00
          2   -1    0    0  501    0  0.00000000000E+00  0.00000000000E+00  0.45261201339E+03  0.45261201339E+03  0.00000000000E+00 0. -1.
         -2   -1    0    0    0  501 -0.00000000000E+00 -0.00000000000E+00 -0.37495282390E+02  0.37495282390E+02  0.00000000000E+00 0.  1.
         25    2    1    2    0    0 -0.72058673280E+02 -0.17310069873E+01  0.21410475474E+03  0.25823275428E+03  0.12509140898E+03 0.  0.
         23    2    1    2    0    0  0.72058673280E+02  0.17310069873E+01  0.20101197627E+03  0.23187454151E+03  0.90357842029E+02 0.  0.
          5    1    3    3  502    0  0.34902775400E+02 -0.56646438569E+01  0.37719137865E+02  0.51870007537E+02  0.41800000000E+01 0. -1.
         -5    1    3    3    0  502 -0.10696144868E+03  0.39336368697E+01  0.17638561687E+03  0.20636274674E+03  0.41800000000E+01 0. -1.
        -11    1    4    4    0    0  0.90498833269E+02  0.41905739676E+01  0.12991576307E+03  0.15838467485E+03  0.00000000000E+00 0.  1.
         11    1    4    4    0    0 -0.18440159989E+02 -0.24595669804E+01  0.71096213201E+02  0.73489866660E+02  0.00000000000E+00 0. -1.
</event>
<event>
 8    1  0.7102339E-009  0.2816690E+03  0.7561462E-02  0.1094781E+00
          1   -1    0    0  501    0  0.00000000000E+00  0.00000000000E+00  0.88402596081E+02  0.88402596081E+02  0.00000000000E+00 0. -1.
         -1   -1    0    0    0  501 -0.00000000000E+00 -0.00000000000E+00 -0.13205611260E+04  0.13205611260E+04  0.00000000000E+00 0.  1.
         25    2    1    2    0    0 -0.96909937549E+02  0.25863258580E+03 -0.97456590363E+03  0.10206407847E+04  0.12508621197E+03 0.  0.
         23    2    1    2    0    0  0.96909937549E+02 -0.25863258580E+03 -0.25759262624E+03  0.38832293734E+03  0.90323818210E+02 0.  0.
          5    1    3    3  502    0 -0.10970201390E+03  0.23068258443E+03 -0.71583252089E+03  0.76005437765E+03  0.41800000000E+01 0.  1.
         -5    1    3    3    0  502  0.12792076347E+02  0.27950001369E+02 -0.25873338274E+03  0.26058640705E+03  0.41800000000E+01 0.  1.
        -11    1    4    4    0    0  0.79105938168E+01 -0.99261565436E+01 -0.52185605201E+02  0.53707015077E+02  0.00000000000E+00 0.  1.
         11    1    4    4    0    0  0.88999343732E+02 -0.24870642926E+03 -0.20540702104E+03  0.33461592226E+03  0.00000000000E+00 0. -1.
</event>
<event>
 8    1  0.7102339E-009  0.1264430E+03  0.7561462E-02  0.1232831E+00
          2   -1    0    0  501    0  0.00000000000E+00  0.00000000000E+00  0.33600891311E+03  0.33600891311E+03  0.00000000000E+00 0. -1.
         -2   -1    0    0    0  501 -0.00000000000E+00 -0.00000000000E+00 -0.72869436639E+02  0.72869436639E+02  0.00000000000E+00 0.  1.
         25    2    1    2    0    0 -0.92329878054E+02  0.25093166867E+02  0.19295095873E+03  0.24906596006E+03  0.12509718855E+03 0.  0.
         23    2    1    2    0    0  0.92329878054E+02 -0.25093166867E+02  0.70188517738E+02  0.15981238968E+03  0.10704717871E+03 0.  0.
          5    1    3    3  502    0 -0.27568994029E+01 -0.43805733997E+02  0.61406024512E+02  0.75595734481E+02  0.41800000000E+01 0.  1.
         -5    1    3    3    0  502 -0.89572978651E+02  0.68898900865E+02  0.13154493422E+03  0.17347022558E+03  0.41800000000E+01 0.  1.
        -11    1    4    4    0    0  0.56415176077E+02 -0.14068051432E+02  0.97392859688E+02  0.11342817675E+03  0.00000000000E+00 0. -1.
         11    1    4    4    0    0  0.35914701977E+02 -0.11025115435E+02 -0.27204341950E+02  0.46384212933E+02  0.00000000000E+00 0.  1.
</event>
<event>
 8    1  0.7102339E-009  0.9693159E+02  0.7561462E-02  0.1286884E+00
          2   -1    0    0  501    0  0.00000000000E+00  0.00000000000E+00  0.90443449550E+02  0.90443449550E+02  0.00000000000E+00 0.  1.
         -2   -1    0    0    0  501 -0.00000000000E+00 -0.00000000000E+00 -0.28386766080E+03  0.28386766080E+03  0.00000000000E+00 0. -1.
         25    2    1    2    0    0  0.64632000108E+02 -0.24570580751E+02 -0.20799425458E+03  0.25236974182E+03  0.12509143764E+03 0.  0.
         23    2    1    2    0    0 -0.64632000108E+02  0.24570580751E+02  0.14570043332E+02  0.12194136853E+03  0.99380090158E+02 0.  0.
          5    1    3    3  502    0  0.71665716278E+02  0.23037872602E+02 -0.18312447685E+03  0.19803728156E+03  0.41800000000E+01 0.  1.
         -5    1    3    3    0  502 -0.70337161703E+01 -0.47608453352E+02 -0.24869777725E+02  0.54332460259E+02  0.41800000000E+01 0.  1.
        -11    1    4    4    0    0 -0.48001170076E+02  0.23639163677E+02 -0.38760299019E+02  0.66070289602E+02  0.00000000000E+00 0. -1.
         11    1    4    4    0    0 -0.16630830032E+02  0.93141707336E+00  0.53330342351E+02  0.55871078928E+02  0.00000000000E+00 0.  1.
</event>
<event>
 8    1  0.7102339E-009  0.7935902E+02  0.7561462E-02  0.1330880E+00
         -1   -1    0    0    0  501 -0.00000000000E+00  0.00000000000E+00  0.20018766209E+02  0.20018766209E+02  0.00000000000E+00 0.  1.
          1   -1    0    0  501    0  0.00000000000E+00 -0.00000000000E+00 -0.81582809592E+03  0.81582809592E+03  0.00000000000E+00 0. -1.
         25    2    1    2    0    0  0.66426067572E+02 -0.11748382547E+02 -0.43510694316E+03  0.45772827905E+03  0.12508668402E+03 0.  0.
         23    2    1    2    0    0 -0.66426067572E+02  0.11748382547E+02 -0.36070238655E+03  0.37811858307E+03  0.91197611013E+02 0.  0.
          5    1    3    3  502    0  0.22800545668E+02  0.17705206957E+02 -0.12331679756E+02  0.31668311634E+02  0.41800000000E+01 0.  1.
         -5    1    3    3    0  502  0.43625521904E+02 -0.29453589504E+02 -0.42277526340E+03  0.42605996742E+03  0.41800000000E+01 0.  1.
        -11    1    4    4    0    0 -0.44371256765E+01  0.14030371270E+02 -0.29244590489E+01  0.15003061787E+02  0.00000000000E+00 0.  1.
         11    1    4    4    0    0 -0.61988941895E+02 -0.22819887228E+01 -0.35777792750E+03  0.36311552129E+03  0.00000000000E+00 0. -1.
</event>
<event>
 8    1  0.7102339E-009  0.1259545E+03  0.7561462E-02  0.1233585E+00
         -2   -1    0    0    0  501 -0.00000000000E+00  0.00000000000E+00  0.78172742997E+03  0.78172742997E+03  0.00000000000E+00 0.  1.
          2   -1    0    0  501    0  0.00000000000E+00 -0.00000000000E+00 -0.20768251594E+02  0.20768251594E+02  0.00000000000E+00 0. -1.
         25    2    1    2    0    0 -0.49750533428E+01  0.66500263035E+02  0.46406228721E+03  0.48523185301E+03  0.12509639735E+03 0.  0.
         23    2    1    2    0    0  0.49750533428E+01 -0.66500263035E+02  0.29689689117E+03  0.31726382856E+03  0.89786061180E+02 0.  0.
          5    1    3    3  502    0  0.26470434897E+02  0.94430797003E+02  0.35318498731E+03  0.36657191247E+03  0.41800000000E+01 0. -1.
         -5    1    3    3    0  502 -0.31445488240E+02 -0.27930533967E+02  0.11087729990E+03  0.11865994055E+03  0.41800000000E+01 0. -1.
        -11    1    4    4    0    0  0.11562299855E+02  0.20873415962E+02  0.74514168309E+02  0.78241597317E+02  0.00000000000E+00 0. -1.
         11    1    4    4    0    0 -0.65872465120E+01 -0.87373678998E+02  0.22238272286E+03  0.23902223124E+03  0.00000000000E+00 0.  1.
</event>
<event>
 8    1  0.7102339E-009  0.9727439E+02  0.7561462E-02  0.1286134E+00
          1   -1    0    0  501    0  0.00000000000E+00  0.00000000000E+00  0.21705307164E+03  0.21705307164E+03  0.00000000000E+00 0. -1.
         -1   -1    0    0    0  501 -0.00000000000E+00 -0.00000000000E+00 -0.74750755067E+02  0.74750755067E+02  0.00000000000E+00 0.  1.
         25    2    1    2    0    0  0.30522080620E+02  0.39439547912E+02  0.27522980385E+02  0.13744635945E+03  0.12508761703E+03 0.  0.
         23    2    1    2    0    0 -0.30522080620E+02 -0.39439547912E+02  0.11477933618E+03  0.15435746725E+03  0.90359594595E+02 0.  0.
          5    1    3    3  502    0 -0.12542197058E+02 -0.24705458090E+02 -0.29987079829E+02  0.41041000513E+02  0.41800000000E+01 0.  1.
         -5    1    3    3    0  502  0.43064277678E+02  0.64145006002E+02  0.57510060214E+02  0.96405358942E+02  0.41800000000E+01 0.  1.
        -11    1    4    4    0    0  0.16677209307E+02  0.11076505054E+02 -0.39761411901E+00  0.20024394410E+02  0.00000000000E+00 0.  1.
         11    1    4    4    0    0 -0.47199289927E+02 -0.50516052966E+02  0.11517695030E+03  0.13433307284E+03  0.00000000000E+00 0. -1.
</event>
<event>
 8    1  0.7102339E-009  0.9246491E+02  0.7561462E-02  0.1296990E+00
         -3   -1    0    0    0  501 -0.00000000000E+00  0.00000000000E+00  0.35379523244E+02  0.35379523244E+02  0.00000000000E+00 0.  1.
          3   -1    0    0  501    0  0.00000000000E+00 -0.00000000000E+00 -0.34412751785E+03  0.34412751785E+03  0.00000000000E+00 0. -1.
         25    2    1    2    0    0 -0.17057810145E+02 -0.86289709088E+00 -0.19326243073E+03  0.23084334047E+03  0.12508623918E+03 0.  0.
         23    2    1    2    0    0  0.17057810145E+02  0.86289709088E+00 -0.11548556388E+03  0.14866370062E+03  0.92044918055E+02 0.  0.
          5    1    3    3  502    0  0.27136476646E+02  0.36446533360E+02 -0.15448810670E+03  0.16108626779E+03  0.41800000000E+01 0. -1.
         -5    1    3    3    0  502 -0.44194286791E+02 -0.37309430451E+02 -0.38774324024E+02  0.69757072681E+02  0.41800000000E+01 0. -1.
        -11    1    4    4    0    0  0.34379501431E+02  0.31167863852E+02 -0.27343293979E+02  0.53861318043E+02  0.00000000000E+00 0.  1.
         11    1    4    4    0    0 -0.17321691286E+02 -0.30304966761E+02 -0.88142269901E+02  0.94802382579E+02  0.00000000000E+00 0. -1.
</event>
<event>
 8    1  0.7102339E-009  0.1398924E+03  0.7561462E-02  0.1213474E+00
         -1   -1    0    0    0  501 -0.00000000000E+00  0.00000000000E+00  0.25672083323E+02  0.25672083323E+02  0.00000000000E+00 0.  1.
          1   -1    0    0  501    0  0.00000000000E+00 -0.00000000000E+00 -0.12247650030E+04  0.12247650030E+04  0.00000000000E+00 0. -1.
         25    2    1    2    0    0 -0.84780120683E+02  0.11039388986E+03 -0.63022979466E+03  0.65742802910E+03  0.12509012588E+03 0.  0.
         23    2    1    2    0    0  0.84780120683E+02 -0.11039388986E+03 -0.56886312499E+03  0.59300905719E+03  0.93166556007E+02 0.  0.
          5    1    3    3  502    0 -0.25317903923E+02  0.26474149872E+02 -0.43645645566E+03  0.43801094388E+03  0.41800000000E+01 0. -1.
         -5    1    3    3    0  502 -0.59462216760E+02  0.83919739986E+02 -0.19377333900E+03  0.21941708523E+03  0.41800000000E+01 0. -1.
        -11    1    4    4    0    0  0.41817854532E+02 -0.66530495946E+02 -0.47078294522E+03  0.47729615687E+03  0.00000000000E+00 0. -1.
         11    1    4    4    0    0  0.42962266151E+02 -0.43863393912E+02 -0.98080179765E+02  0.11571290032E+03  0.00000000000E+00 0.  1.
</event>
<event>
 8    1  0.7102339E-009  0.8486503E+02  0.7561462E-02  0.1315786E+00
          2   -1    0    0  501    0  0.00000000000E+00  0.00000000000E+00  0.28525562715E+03  0.28525562715E+03  0.00000000000E+00 0. -1.
         -2   -1    0    0    0  501 -0.00000000000E+00 -0.00000000000E+00 -0.45608132612E+02  0.45608132612E+02  0.00000000000E+00 0.  1.
         25    2    1    2    0    0  0.13854831401E+02 -0.13903652052E+01  0.92427618855E+02  0.15616729162E+03  0.12510583031E+03 0.  0.
         23    2    1    2    0    0 -0.13854831401E+02  0.13903652052E+01  0.14721987569E+03  0.17469646814E+03  0.93012228851E+02 0.  0.
          5    1    3    3  502    0  0.16227947655E+02 -0.36858885316E+02 -0.14810828936E+02  0.43113301493E+02  0.41800000000E+01 0.  1.
         -5    1    3    3    0  502 -0.23731162539E+01  0.35468520110E+02  0.10723844779E+03  0.11305399013E+03  0.41800000000E+01 0.  1.
        -11    1    4    4    0    0  0.33936890206E+02  0.23001181147E+02  0.74487420798E+02  0.85024365379E+02  0.00000000000E+00 0.  1.
         11    1    4    4    0    0 -0.47791721607E+02 -0.21610815942E+02  0.72732454888E+02  0.89672102763E+02  0.00000000000E+00 0. -1.
</event>
<event>
 8    1  0.7102339E-009  0.1587350E+03  0.7561462E-02  0.1190132E+00
         -1   -1    0    0    0  501 -0.00000000000E+00  0.00000000000E+00  0.62025769046E+03  0.62025769046E+03  0.00000000000E+00 0.  1.
          1   -1    0    0  501    0  0.00000000000E+00 -0.00000000000E+00 -0.10922394376E+03  0.10922394376E+03  0.00000000000E+00 0. -1.
         25    2    1    2    0    0 -0.90744709000E+02 -0.10564717983E+03  0.52953895430E+03  0.56165544986E+03  0.12509760759E+03 0.  0.
         23    2    1    2    0    0  0.90744709000E+02  0.10564717983E+03 -0.18505207596E+02  0.16782618436E+03  0.91800090577E+02 0.  0.
          5    1    3    3  502    0 -0.55529678618E+02 -0.22034123613E+02  0.65250437231E+02  0.88567148366E+02  0.41800000000E+01 0. -1.
         -5    1    3    3    0  502 -0.35215030382E+02 -0.83613056221E+02  0.46428851707E+03  0.47308830150E+03  0.41800000000E+01 0. -1.
        -11    1    4    4    0    0  0.71647688275E+02  0.13820326553E+02 -0.99833740216E+01  0.73648220739E+02  0.00000000000E+00 0.  1.
         11    1    4    4    0    0  0.19097020724E+02  0.91826853281E+02 -0.85218335742E+01  0.94177963619E+02  0.00000000000E+00 0. -1.
</event>
<event>
 8    1  0.7102339E-009  0.1204176E+03  0.7561462E-02  0.1242410E+00
         -3   -1    0    0    0  501 -0.00000000000E+00  0.00000000000E+00  0.25139462891E+02  0.25139462891E+02  0.00000000000E+00 0.  1.
          3   -1    0    0  501    0  0.00000000000E+00 -0.00000000000E+00 -0.87907114546E+03  0.87907114546E+03  0.00000000000E+00 0. -1.
         25    2    1    2    0    0  0.83056451825E+01  0.61821565716E+02 -0.70472887696E+03  0.71845735786E+03  0.12508914947E+03 0.  0.
         23    2    1    2    0    0 -0.83056451825E+01 -0.61821565716E+02 -0.14920280561E+03  0.18575325049E+03  0.91388747317E+02 0.  0.
          5    1    3    3  502    0 -0.22932425628E+02 -0.30355143839E+02 -0.28580169072E+03  0.28835292564E+03  0.41800000000E+01 0.  1.
         -5    1    3    3    0  502  0.31238070810E+02  0.92176709555E+02 -0.41892718624E+03  0.43010443223E+03  0.41800000000E+01 0.  1.
        -11    1    4    4    0    0 -0.16767567559E+02 -0.81773252773E+02 -0.13818665928E+03  0.16144215371E+03  0.00000000000E+00 0. -1.
         11    1    4    4    0    0  0.84619223761E+01  0.19951687057E+02 -0.11016146326E+02  0.24311096779E+02  0.00000000000E+00 0.  1.
</event>
<event>
 8    1  0.7102339E-009  0.1390621E+03  0.7561462E-02  0.1214597E+00
         -2   -1    0    0    0  501 -0.00000000000E+00  0.00000000000E+00  0.70131390302E+02  0.70131390302E+02  0.00000000000E+00 0. -1.
          2   -1    0    0  501    0  0.00000000000E+00 -0.00000000000E+00 -0.39744059160E+03  0.39744059160E+03  0.00000000000E+00 0.  1.
         25    2    1    2    0    0 -0.90907396581E+02 -0.51638642144E+02 -0.26817712278E+03  0.31383851328E+03  0.12507973103E+03 0.  0.
         23    2    1    2    0    0  0.90907396581E+02  0.51638642144E+02 -0.59132078517E+02  0.15373346863E+03  0.95951407241E+02 0.  0.
          5    1    3    3  502    0  0.23302117902E+02  0.11694164934E+02 -0.19161254114E+02  0.32624657109E+02  0.41800000000E+01 0. -1.
         -5    1    3    3    0  502 -0.11420951448E+03 -0.63332807079E+02 -0.24901586867E+03  0.28121385617E+03  0.41800000000E+01 0. -1.
        -11    1    4    4    0    0  0.35026668550E+02  0.54856060697E+02  0.88384281640E+01  0.65682362300E+02  0.00000000000E+00 0. -1.
         11    1    4    4    0    0  0.55880728031E+02 -0.32174185524E+01 -0.67970506681E+02  0.88051106330E+02  0.00000000000E+00 0.  1.
</event>
<event>
 8    1  0.7102339E-009  0.1392849E+03  0.7561462E-02  0.1214294E+00
         -1   -1    0    0    0  501 -0.00000000000E+00  0.00000000000E+00  0.20685502730E+02  0.20685502730E+02  0.00000000000E+00 0.  1.
          1   -1    0    0  501    0  0.00000000000E+00 -0.00000000000E+00 -0.12523028605E+04  0.12523028605E+04  0.00000000000E+00 0. -1.
         25    2    1    2    0    0  0.10591499623E+03  0.72584219291E+01 -0.88596226324E+03  0.90103151122E+03  0.12513185527E+03 0.  0.
         23    2    1    2    0    0 -0.10591499623E+03 -0.72584219291E+01 -0.34565509454E+03  0.37195685203E+03  0.87199680460E+02 0.  0.
          5    1    3    3  502    0  0.14060362184E+02  0.40804874621E+02 -0.53265710920E+03  0.53441912388E+03  0.41800000000E+01 0.  1.
         -5    1    3    3    0  502  0.91854634042E+02 -0.33546452692E+02 -0.35330515404E+03  0.36661238734E+03  0.41800000000E+01 0.  1.
        -11    1    4    4    0    0 -0.84284501940E+02 -0.43709756990E+02 -0.24373521866E+03  0.26157461066E+03  0.00000000000E+00 0.  1.
         11    1    4    4    0    0 -0.21630494287E+02  0.36451335061E+02 -0.10191987588E+03  0.11038224137E+03  0.00000000000E+00 0. -1.
</event>
<event>
 8    1  0.7102339E-009  0.7115541E+02  0.7561462E-02  0.1356208E+00
         -1   -1    0    0    0  501 -0.00000000000E+00  0.00000000000E+00  0.33843477846E+02  0.33843477846E+02  0.00000000000E+00 0.  1.
          1   -1    0    0  501    0  0.00000000000E+00 -0.00000000000E+00 -0.36499723759E+03  0.36499723759E+03  0.00000000000E+00 0. -1.
         25    2    1    2    0    0 -0.36635728555E+00  0.24610624508E+02 -0.18822516059E+03  0.22733777652E+03  0.12509171235E+03 0.  0.
         23    2    1    2    0    0  0.36635728555E+00 -0.24610624508E+02 -0.14292859916E+03  0.17150293891E+03  0.91536094209E+02 0.  0.
          5    1    3    3  502    0  0.39760581142E+02  0.33254402395E+02 -0.17713950256E+03  0.18461482839E+03  0.41800000000E+01 0.  1.
         -5    1    3    3    0  502 -0.40126938428E+02 -0.86437778868E+01 -0.11085658027E+02  0.42722948138E+02  0.41800000000E+01 0.  1.
        -11    1    4    4    0    0 -0.53026579321E+01 -0.35967235410E+02 -0.15175088336E+03  0.15604515630E+03  0.00000000000E+00 0. -1.
         11    1    4    4    0    0  0.56690152177E+01  0.11356610903E+02  0.88222842045E+01  0.15457782613E+02  0.00000000000E+00 0.  1.
</event>
<event>
 8    1  0.7102339E-009  0.9211399E+02  0.7561462E-02  0.1297812E+00
         -2   -1    0    0    0  501 -0.00000000000E+00  0.00000000000E+00  0.18523976039E+02  0.18523976039E+02  0.00000000000E+00 0.  1.
          2   -1    0    0  501    0  0.00000000000E+00 -0.00000000000E+00 -0.75799441818E+03  0.75799441818E+03  0.00000000000E+00 0. -1.
         25    2    1    2    0    0 -0.46464814857E+02  0.12330590969E-01 -0.45469528832E+03  0.47387201173E+03  0.12509156288E+03 0.  0.
         23    2    1    2    0    0  0.46464814857E+02 -0.12330590969E-01 -0.28477515382E+03  0.30264638249E+03  0.91317935980E+02 0.  0.
          5    1    3    3  502    0  0.15957710739E+02 -0.19333692602E+02 -0.15387040353E+02  0.29709823502E+02  0.41800000000E+01 0.  1.
         -5    1    3    3    0  502 -0.62422525596E+02  0.19346023193E+02 -0.43930824797E+03  0.44416218823E+03  0.41800000000E+01 0.  1.
        -11    1    4    4    0    0  0.37963064214E+02 -0.38407344039E+02 -0.99163824424E+02  0.11291493433E+03  0.00000000000E+00 0.  1.
         11    1    4    4    0    0  0.85017506426E+01  0.38395013448E+02 -0.18561132939E+03  0.18973144816E+03  0.00000000000E+00 0. -1.
</event>
<event>
 8    1  0.7102339E-009  0.1153307E+03  0.7561462E-02  0.1251005E+00
          2   -1    0    0  501    0  0.00000000000E+00  0.00000000000E+00  0.26010558192E+02  0.26010558192E+02  0.00000000000E+00 0. -1.
         -2   -1    0    0    0  501 -0.00000000000E+00 -0.00000000000E+00 -0.54072165530E+03  0.54072165530E+03  0.00000000000E+00 0.  1.
         25    2    1    2    0    0  0.34073511982E+02  0.31156889373E+02 -0.33172359081E+03  0.35751856285E+03  0.12508887283E+03 0.  0.
         23    2    1    2    0    0 -0.34073511982E+02 -0.31156889373E+02 -0.18298750630E+03  0.20921365064E+03  0.90300432891E+02 0.  0.
          5    1    3    3  502    0  0.66599404010E+02  0.58946768187E+02 -0.19907420226E+03  0.21807845492E+03  0.41800000000E+01 0.  1.
         -5    1    3    3    0  502 -0.32525892029E+02 -0.27789878815E+02 -0.13264938855E+03  0.13944010793E+03  0.41800000000E+01 0.  1.
        -11    1    4    4    0    0 -0.95065042716E+01  0.30670408251E+02 -0.84175921519E+02  0.90092359995E+02  0.00000000000E+00 0.  1.
         11    1    4    4    0    0 -0.24567007710E+02 -0.61827297624E+02 -0.98811584777E+02  0.11912129065E+03  0.00000000000E+00 0. -1.
</event>
<event>
 8    1  0.7102339E-009  0.1598364E+03  0.7561462E-02  0.1188882E+00
         -3   -1    0    0    0  501 -0.00000000000E+00  0.00000000000E+00  0.90630155535E+02  0.90630155535E+02  0.00000000000E+00 0.  1.
          3   -1    0    0  501    0  0.00000000000E+00 -0.00000000000E+00 -0.30993735303E+03  0.30993735303E+03  0.00000000000E+00 0. -1.
         25    2    1    2    0    0 -0.15705764759E+01  0.11822359303E+03 -0.57796396693E+02  0.18156731062E+03  0.12508788972E+03 0.  0.
         23    2    1    2    0    0  0.15705764759E+01 -0.11822359303E+03 -0.16151080080E+03  0.21900019795E+03  0.88859795553E+02 0.  0.
          5    1    3    3  502    0  0.50027775180E+02  0.10790622806E+03 -0.34851869259E+02  0.12401071540E+03  0.41800000000E+01 0. -1.
         -5    1    3    3    0  502 -0.51598351656E+02  0.10317364970E+02 -0.22944527434E+02  0.57556595214E+02  0.41800000000E+01 0. -1.
        -11    1    4    4    0    0  0.38322700451E+02 -0.99506458643E+02 -0.11452498187E+03  0.15648046573E+03  0.00000000000E+00 0. -1.
         11    1    4    4    0    0 -0.36752123975E+02 -0.18717134388E+02 -0.46985818933E+02  0.62519732223E+02  0.00000000000E+00 0.  1.
</event>
<event>
 8    1  0.7102339E-009  0.1476216E+03  0.7561462E-02  0.1203426E+00
         -1   -1    0    0    0  501 -0.00000000000E+00  0.00000000000E+00  0.11108655345E+03  0.11108655345E+03  0.00000000000E+00 0.  1.
          1   -1    0    0  501    0  0.00000000000E+00 -0.00000000000E+00 -0.25099444909E+03  0.25099444909E+03  0.00000000000E+00 0. -1.
         25    2    1    2    0    0  0.15519837964E+02 -0.12311289014E+03 -0.10262242002E+03  0.20390328807E+03  0.12509013033E+03 0.  0.
         23    2    1    2    0    0 -0.15519837964E+02  0.12311289014E+03 -0.37285475625E+02  0.15817771447E+03  0.90732208029E+02 0.  0.
          5    1    3    3  502    0 -0.40952906283E+01 -0.13843716659E+03 -0.11075445495E+03  0.17738557492E+03  0.41800000000E+01 0.  1.
         -5    1    3    3    0  502  0.19615128593E+02  0.15324276451E+02  0.81320349321E+01  0.26517713148E+02  0.41800000000E+01 0.  1.
        -11    1    4    4    0    0  0.10700207342E+02  0.81897935809E+02 -0.62149922793E+02  0.10336527091E+03  0.00000000000E+00 0. -1.
         11    1    4    4    0    0 -0.26220045306E+02  0.41214954331E+02  0.24864447168E+02  0.54812443563E+02  0.00000000000E+00 0.  1.
</event>
<event>
 8    1  0.7102339E-009  0.1233607E+03  0.7561462E-02  0.1237654E+00
          2   -1    0    0  501    0  0.00000000000E+00  0.00000000000E+00  0.45582965611E+02  0.45582965611E+02  0.00000000000E+00 0. -1.
         -2   -1    0    0    0  501 -0.00000000000E+00 -0.00000000000E+00 -0.41146928483E+03  0.41146928483E+03  0.00000000000E+00 0.  1.
         25    2    1    2    0    0  0.27136263441E+02  0.58505376022E+02 -0.27390253833E+03  0.30794491510E+03  0.12509282318E+03 0.  0.
         23    2    1    2    0    0 -0.27136263441E+02 -0.58505376022E+02 -0.91983780888E+02  0.14910733535E+03  0.98044508727E+02 0.  0.
          5    1    3    3  502    0  0.36751982086E+02 -0.28973529326E+02 -0.13984309917E+03  0.14752538213E+03  0.41800000000E+01 0. -1.
         -5    1    3    3    0  502 -0.96157186451E+01  0.87478905348E+02 -0.13405943917E+03  0.16041953296E+03  0.41800000000E+01 0. -1.
        -11    1    4    4    0    0  0.84346339714E+01 -0.72805972687E+02 -0.80977298630E+02  0.10922076544E+03  0.00000000000E+00 0.  1.
         11    1    4    4    0    0 -0.35570897413E+02  0.14300596665E+02 -0.11006482258E+02  0.39886569913E+02  0.00000000000E+00 0. -1.
</event>
<event>
 8    1  0.7102339E-009  0.1048455E+03  0.7561462E-02  0.1270424E+00
         -1   -1    0    0    0  501 -0.00000000000E+00  0.00000000000E+00  0.27834122221E+03  0.27834122221E+03  0.00000000000E+00 0.  1.
          1   -1    0    0  501    0  0.00000000000E+00 -0.00000000000E+00 -0.68332607934E+02  0.68332607934E+02  0.00000000000E+00 0. -1.
         25    2    1    2    0    0  0.79602123290E+02 -0.24776700648E+02  0.91851384624E+02  0.17616429835E+03  0.12508717052E+03 0.  0.
         23    2    1    2    0    0 -0.79602123290E+02  0.24776700648E+02  0.11815722965E+03  0.17050953179E+03  0.90343713591E+02 0.  0.
          5    1    3    3  502    0  0.48054762427E+00  0.17201258947E+02  0.84346737731E+02  0.86185606694E+02  0.41800000000E+01 0. -1.
         -5    1    3    3    0  502  0.79121575666E+02 -0.41977959595E+02  0.75046468938E+01  0.89978691659E+02  0.41800000000E+01 0. -1.
        -11    1    4    4    0    0 -0.37904688183E+02  0.42554653100E+02  0.11078715339E+03  0.12458514054E+03  0.00000000000E+00 0.  1.
         11    1    4    4    0    0 -0.41697435107E+02 -0.17777952453E+02  0.73700762622E+01  0.45924391254E+02  0.00000000000E+00 0. -1.
</event>
<event>
 8    1  0.7102339E-009  0.1011206E+03  0.7561462E-02  0.1277957E+00
          2   -1    0    0  501    0  0.00000000000E+00  0.00000000000E+00  0.59817952866E+03  0.59817952866E+03  0.00000000000E+00 0. -1.
         -2   -1    0    0    0  501 -0.00000000000E+00 -0.00000000000E+00 -0.34588193585E+02  0.34588193585E+02  0.00000000000E+00 0.  1.
         25    2    1    2    0    0  0.81922383904E+02  0.23411395387E+02  0.39990278203E+03  0.42758489784E+03  0.12508892585E+03 0.  0.
         23    2    1    2    0    0 -0.81922383904E+02 -0.23411395387E+02  0.16368855305E+03  0.20518282440E+03  0.89703280946E+02 0.  0.
          5    1    3    3  502    0  0.93564801395E+02  0.36619484107E+01  0.15190593921E+03  0.17849557052E+03  0.41800000000E+01 0.  1.
         -5    1    3    3    0  502 -0.11642417491E+02  0.19749446976E+02  0.24799684281E+03  0.24908932732E+03  0.41800000000E+01 0.  1.
        -11    1    4    4    0    0 -0.34910721708E+02 -0.10496317420E+02  0.15025286721E+03  0.15461195062E+03  0.00000000000E+00 0. -1.
         11    1    4    4    0    0 -0.47011662196E+02 -0.12915077967E+02  0.13435685839E+02  0.50570873784E+02  0.00000000000E+00 0.  1.
</event>
<event>
 8    1  0.7102339E-009  0.1061579E+03  0.7561462E-02  0.1267855E+00
         -2   -1    0    0    0  501 -0.00000000000E+00  0.00000000000E+00  0.64380369453E+02  0.64380369453E+02  0.00000000000E+00 0.  1.
          2   -1    0    0  501    0  0.00000000000E+00 -0.00000000000E+00 -0.25678410379E+03  0.25678410379E+03  0.00000000000E+00 0. -1.
         25    2    1    2    0    0 -0.57613194915E+02  0.11910650778E+02 -0.14941531311E+03  0.20355120259E+03  0.12508801884E+03 0.  0.
         23    2    1    2    0    0  0.57613194915E+02 -0.11910650778E+02 -0.42988421229E+02  0.11761327065E+03  0.92324066431E+02 0.  0.
          5    1    3    3  502    0 -0.76556340373E+02  0.37371863187E+02 -0.14882812683E+03  0.17153662334E+03  0.41800000000E+01 0.  1.
         -5    1    3    3    0  502  0.18943145458E+02 -0.25461212409E+02 -0.58718627280E+00  0.32014579255E+02  0.41800000000E+01 0.  1.
        -11    1    4    4    0    0 -0.14854655676E+02 -0.16744658495E+02  0.13021430541E+02  0.25895984953E+02  0.00000000000E+00 0.  1.
         11    1    4    4    0    0  0.72467850591E+02  0.48340077164E+01 -0.56009851770E+02  0.91717285695E+02  0.00000000000E+00 0. -1.
</event>
<event>
 8    1  0.7102339E-009  0.1433886E+03  0.7561462E-02  0.1208841E+00
          2   -1    0    0  501    0  0.00000000000E+00  0.00000000000E+00  0.12375281334E+04  0.12375281334E+04  0.00000000000E+00 0. -1.
         -2   -1    0    0    0  501 -0.00000000000E+00 -0.00000000000E+00 -0.25051605480E+02  0.25051605480E+02  0.00000000000E+00 0.  1.
         25    2    1    2    0    0 -0.11367560485E+03  0.76267016798E+02  0.71384997183E+03  0.73754225266E+03  0.12509193090E+03 0.  0.
         23    2    1    2    0    0  0.11367560485E+03 -0.76267016798E+02  0.49862655609E+03  0.52503748623E+03  0.91088520224E+02 0.  0.
          5    1    3    3  502    0 -0.49006619706E+02  0.62870193527E+02  0.15086106795E+03  0.17067760319E+03  0.41800000000E+01 0.  1.
         -5    1    3    3    0  502 -0.64668985145E+02  0.13396823272E+02  0.56298890388E+03  0.56686464946E+03  0.41800000000E+01 0.  1.
        -11    1    4    4    0    0  0.49097258014E+02 -0.13959293490E+02  0.67256168974E+02  0.84432191043E+02  0.00000000000E+00 0.  1.
         11    1    4    4    0    0  0.64578346836E+02 -0.62307723308E+02  0.43137038712E+03  0.44060529519E+03  0.00000000000E+00 0. -1.
</event>
<event>
 8    1  0.7102339E-009  0.9450840E+02  0.7561462E-02  0.1292287E+00
          2   -1    0    0  501    0  0.00000000000E+00  0.00000000000E+00  0.25410226931E+03  0.25410226931E+03  0.00000000000E+00 0.  1.
         -2   -1    0    0    0  501 -0.00000000000E+00 -0.00000000000E+00 -0.61543805527E+02  0.61543805527E+02  0.00000000000E+00 0. -1.
         25    2    1    2    0    0  0.11621482776E+02  0.34545524406E+02  0.53221529535E+02  0.14074458010E+03  0.12509218003E+03 0.  0.
         23    2    1    2    0    0 -0.11621482776E+02 -0.34545524406E+02  0.13933693425E+03  0.17490149474E+03  0.99233560332E+02 0.  0.
          5    1    3    3  502    0  0.49460655655E+02  0.16162681822E+02 -0.20238955245E+02  0.55988181351E+02  0.41800000000E+01 0. -1.
         -5    1    3    3    0  502 -0.37839172879E+02  0.18382842584E+02  0.73460484780E+02  0.84756398754E+02  0.41800000000E+01 0. -1.
        -11    1    4    4    0    0 -0.39759021891E+02  0.10776171959E+02  0.23631299724E+02  0.47490462521E+02  0.00000000000E+00 0. -1.
         11    1    4    4    0    0  0.28137539115E+02 -0.45321696364E+02  0.11570563453E+03  0.12741103221E+03  0.00000000000E+00 0.  1.
</event>
<event>
 8    1  0.7102339E-009  0.1578263E+03  0.7561462E-02  0.1191173E+00
          1   -1    0    0  501    0  0.00000000000E+00  0.00000000000E+00  0.10330289135E+04  0.10330289135E+04  0.00000000000E+00 0. -1.
         -1   -1    0    0    0  501 -0.00000000000E+00 -0.00000000000E+00 -0.63182706640E+02  0.63182706640E+02  0.00000000000E+00 0.  1.
         25    2    1    2    0    0 -0.13614997241E+03 -0.76856241299E+02  0.86386148099E+03  0.88676301660E+03  0.12509313515E+03 0.  0.
         23    2    1    2    0    0  0.13614997241E+03  0.76856241299E+02  0.10598472588E+03  0.20944860355E+03  0.90511096517E+02 0.  0.
          5    1    3    3  502    0 -0.57399774778E+02 -0.20520421970E+02  0.63887532330E+03  0.64179044320E+03  0.41800000000E+01 0.  1.
         -5    1    3    3    0  502 -0.78750197637E+02 -0.56335819329E+02  0.22498615769E+03  0.24497257341E+03  0.41800000000E+01 0.  1.
        -11    1    4    4    0    0  0.43466888006E+02  0.14068214719E+02 -0.11557369949E+02  0.47125978170E+02  0.00000000000E+00 0.  1.
         11    1    4    4    0    0  0.92683084409E+02  0.62788026580E+02  0.11754209583E+03  0.16232262538E+03  0.00000000000E+00 0. -1.
</event>
<event>
 8    1  0.7102339E-009  0.1047747E+03  0.7561462E-02  0.1270564E+00
          1   -1    0    0  501    0  0.00000000000E+00  0.00000000000E+00  0.43585122201E+03  0.43585122201E+03  0.00000000000E+00 0. -1.
         -1   -1    0    0    0  501 -0.00000000000E+00 -0.00000000000E+00 -0.37943362420E+02  0.37943362420E+02  0.00000000000E+00 0.  1.
         25    2    1    2    0    0 -0.63666937768E+02 -0.10781589365E+02  0.26182791240E+03  0.29727338287E+03  0.12509151377E+03 0.  0.
         23    2    1    2    0    0  0.63666937768E+02  0.10781589365E+02  0.13607994718E+03  0.17652120155E+03  0.92044885454E+02 0.  0.
          5    1    3    3  502    0  0.30797260647E+02 -0.26783710058E+02  0.49503085317E+02  0.64295149457E+02  0.41800000000E+01 0. -1.
         -5    1    3    3    0  502 -0.94464198415E+02  0.16002120693E+02  0.21232482709E+03  0.23297823342E+03  0.41800000000E+01 0. -1.
        -11    1    4    4    0    0  0.22777924567E+02  0.20441674018E+02  0.13061481909E+03  0.13415262521E+03  0.00000000000E+00 0. -1.
         11    1    4    4    0    0  0.40889013201E+02 -0.96600846532E+01  0.54651280878E+01  0.42368576340E+02  0.00000000000E+00 0.  1.
</event>
<event>
 8    1  0.7102339E-009  0.1043197E+03  0.7561462E-02  0.1271466E+00
          3   -1    0    0  501    0  0.00000000000E+00  0.00000000000E+00  0.23289101508E+03  0.23289101508E+03  0.00000000000E+00 0. -1.
         -3   -1    0    0    0  501 -0.00000000000E+00 -0.00000000000E+00 -0.23329032826E+03  0.23329032826E+03  0.00000000000E+00 0.  1.
         25    2    1    2    0    0 -0.16059904594E+02 -0.35371864024E+02 -0.20234614445E+03  0.24104011633E+03  0.12508911306E+03 0.  0.
         23    2    1    2    0    0  0.16059904594E+02  0.35371864024E+02  0.20194683128E+03  0.22514122701E+03  0.91634928571E+02 0.  0.
          5    1    3    3  502    0  0.25767487508E+02 -0.63584428052E+02 -0.16307474087E+03  0.17696832037E+03  0.41800000000E+01 0. -1.
         -5    1    3    3    0  502 -0.41827392102E+02  0.28212564028E+02 -0.39271403580E+02  0.64071795966E+02  0.41800000000E+01 0. -1.
        -11    1    4    4    0    0  0.43467184175E+02  0.42676641986E+02  0.17761548115E+03  0.18777100685E+03  0.00000000000E+00 0. -1.
         11    1    4    4    0    0 -0.27407279581E+02 -0.73047779625E+01  0.24331350131E+02  0.37370220153E+02  0.00000000000E+00 0.  1.
</event>
<event>
 8    1  0.7102339E-009  0.1049779E+03  0.7561462E-02  0.1270163E+00
         -2   -1    0    0    0  501 -0.00000000000E+00  0.00000000000E+00  0.35162672785E+02  0.35162672785E+02  0.00000000000E+00 0.  1.
          2   -1    0    0  501    0  0.00000000000E+00 -0.00000000000E+00 -0.50419947258E+03  0.50419947258E+03  0.00000000000E+00 0. -1.
         25    2    1    2    0    0 -0.64485793051E+02 -0.30060513943E+02 -0.33222938675E+03  0.36205742230E+03  0.12508860708E+03 0.  0.
         23    2    1    2    0    0  0.64485793051E+02  0.30060513943E+02 -0.13680741305E+03  0.17730472307E+03  0.87513682087E+02 0.  0.
          5    1    3    3  502    0 -0.66246526098E+02 -0.59612311206E+02 -0.31534218333E+03  0.32771999459E+03  0.41800000000E+01 0.  1.
         -5    1    3    3    0  502  0.17607330464E+01  0.29551797264E+02 -0.16887203414E+02  0.34337427707E+02  0.41800000000E+01 0.  1.
        -11    1    4    4    0    0  0.72101726136E+02  0.36548573179E+02 -0.14389335822E+03  0.16504470804E+03  0.00000000000E+00 0. -1.
         11    1    4    4    0    0 -0.76159330851E+01 -0.64880592365E+01  0.70859451703E+01  0.12260015023E+02  0.00000000000E+00 0.  1.
</event>
<event>
 8    1  0.7102339E-009  0.1446564E+03  0.7561462E-02  0.1207197E+00
          2   -1    0    0  501    0  0.00000000000E+00  0.00000000000E+00  0.55446737978E+03  0.55446737978E+03  0.00000000000E+00 0. -1.
         -2   -1    0    0    0  501 -0.00000000000E+00 -0.00000000000E+00 -0.56079368019E+02  0.56079368019E+02  0.00000000000E+00 0.  1.
         25    2    1    2    0    0 -0.95664984355E+02  0.62196872185E+02  0.12428668795E+03  0.21004246556E+03  0.12510162427E+03 0.  0.
         23    2    1    2    0    0  0.95664984355E+02 -0.62196872185E+02  0.37410132381E+03  0.40050428224E+03  0.86206957223E+02 0.  0.
          5    1    3    3  502    0  0.80107777115E+01  0.41107728833E+02  0.88975151622E+02  0.98427983499E+02  0.41800000000E+01 0.  1.
         -5    1    3    3    0  502 -0.10367576207E+03  0.21089143351E+02  0.35311536325E+02  0.11161448206E+03  0.41800000000E+01 0.  1.
        -11    1    4    4    0    0  0.38502264486E+02 -0.73591349253E+02  0.24910144744E+03  0.26258263875E+03  0.00000000000E+00 0. -1.
         11    1    4    4    0    0  0.57162719869E+02  0.11394477068E+02  0.12499987638E+03  0.13792164350E+03  0.00000000000E+00 0.  1.
</event>
<event>
 8    1  0.7102339E-009  0.2324817E+03  0.7561462E-02  0.1124905E+00
         -2   -1    0    0    0  501 -0.00000000000E+00  0.00000000000E+00  0.32347318717E+02  0.32347318717E+02  0.00000000000E+00 0.  1.
          2   -1    0    0  501    0  0.00000000000E+00 -0.00000000000E+00 -0.18665155348E+04  0.18665155348E+04  0.00000000000E+00 0. -1.
         25    2    1    2    0    0 -0.15433354128E+03 -0.15407124578E+03 -0.10698360932E+04  0.10989778723E+04  0.12508519820E+03 0.  0.
         23    2    1    2    0    0  0.15433354128E+03  0.15407124578E+03 -0.76433212288E+03  0.79988498119E+03  0.89752985028E+02 0.  0.
          5    1    3    3  502    0 -0.15474502879E+03 -0.84587435907E+02 -0.65485010432E+03  0.67819406498E+03  0.41800000000E+01 0. -1.
         -5    1    3    3    0  502  0.41148751115E+00 -0.69483809871E+02 -0.41498598886E+03  0.42078380733E+03  0.41800000000E+01 0. -1.
        -11    1    4    4    0    0  0.62323837552E+02  0.48958083742E+02 -0.14762154640E+03  0.16755081513E+03  0.00000000000E+00 0. -1.
         11    1    4    4    0    0  0.92009703730E+02  0.10511316204E+03 -0.61671057648E+03  0.63233416605E+03  0.00000000000E+00 0.  1.
</event>
<event>
 8    1  0.7102339E-009  0.1417198E+03  0.7561462E-02  0.1211033E+00
          1   -1    0    0  501    0  0.00000000000E+00  0.00000000000E+00  0.92886999835E+03  0.92886999835E+03  0.00000000000E+00 0. -1.
         -1   -1    0    0    0  501 -0.00000000000E+00 -0.00000000000E+00 -0.27449850906E+02  0.27449850906E+02  0.00000000000E+00 0.  1.
         25    2    1    2    0    0 -0.10873047289E+03  0.28224893938E+02  0.58296798726E+03  0.60672616891E+03  0.12508400973E+03 0.  0.
         23    2    1    2    0    0  0.10873047289E+03 -0.28224893938E+02  0.31845216018E+03  0.34959368035E+03  0.90471004431E+02 0.  0.
          5    1    3    3  502    0 -0.37713302718E+02 -0.49611198763E+02  0.20221052597E+03  0.21163679609E+03  0.41800000000E+01 0.  1.
         -5    1    3    3    0  502 -0.71017170174E+02  0.77836092701E+02  0.38075746129E+03  0.39508937282E+03  0.41800000000E+01 0.  1.
        -11    1    4    4    0    0  0.67749283307E+02 -0.30902726918E+02  0.86955342054E+02  0.11448220574E+03  0.00000000000E+00 0.  1.
         11    1    4    4    0    0  0.40981189585E+02  0.26778329801E+01  0.23149681813E+03  0.23511147461E+03  0.00000000000E+00 0. -1.
</event>
<event>
 8    1  0.7102339E-009  0.1081825E+03  0.7561462E-02  0.1263973E+00
         -2   -1    0    0    0  501 -0.00000000000E+00  0.00000000000E+00  0.60653527608E+02  0.60653527608E+02  0.00000000000E+00 0.  1.
          2   -1    0    0  501    0  0.00000000000E+00 -0.00000000000E+00 -0.34026481711E+03  0.34026481711E+03  0.00000000000E+00 0. -1.
         25    2    1    2    0    0 -0.33261943788E+02 -0.80192830049E+01 -0.27577296382E+03  0.30474347127E+03  0.12508872811E+03 0.  0.
         23    2    1    2    0    0  0.33261943788E+02  0.80192830049E+01 -0.38383256800E+01  0.96174873449E+02  0.89800933928E+02 0.  0.
          5    1    3    3  502    0  0.18365056753E+02  0.48568524114E+02 -0.12925619221E+03  0.13935857516E+03  0.41800000000E+01 0.  1.
         -5    1    3    3    0  502 -0.51627000541E+02 -0.56587807119E+02 -0.14651677161E+03  0.16538489611E+03  0.41800000000E+01 0.  1.
        -11    1    4    4    0    0 -0.62879102818E+01  0.37630304503E+02 -0.21395144556E+02  0.43741625979E+02  0.00000000000E+00 0. -1.
         11    1    4    4    0    0  0.39549854070E+02 -0.29611021498E+02  0.17556818876E+02  0.52433247469E+02  0.00000000000E+00 0.  1.
</event>
<event>
 8    1  0.7102339E-009  0.9718250E+02  0.7561462E-02  0.1286335E+00
         -1   -1    0    0    0  501 -0.00000000000E+00  0.00000000000E+00  0.17860812146E+03  0.17860812146E+03  0.00000000000E+00 0.  1.
          1   -1    0    0  501    0  0.00000000000E+00 -0.00000000000E+00 -0.10314957923E+03  0.10314957923E+03  0.00000000000E+00 0. -1.
         25    2    1    2    0    0 -0.59985642582E+02  0.55354776435E+02  0.37476934054E+02  0.15399394406E+03  0.12508871104E+03 0.  0.
         23    2    1    2    0    0  0.59985642582E+02 -0.55354776435E+02  0.37981608177E+02  0.12776375663E+03  0.90656198679E+02 0.  0.
          5    1    3    3  502    0 -0.88233500646E+01 -0.18643850591E+02  0.57935146438E+02  0.61639259113E+02  0.41800000000E+01 0. -1.
         -5    1    3    3    0  502 -0.51162292518E+02  0.73998627026E+02 -0.20458212384E+02  0.92354684945E+02  0.41800000000E+01 0. -1.
        -11    1    4    4    0    0  0.37908251604E+02 -0.23842795448E+02  0.66287553166E+02  0.79997213322E+02  0.00000000000E+00 0.  1.
         11    1    4    4    0    0  0.22077390978E+02 -0.31511980987E+02 -0.28305944989E+02  0.47766543311E+02  0.00000000000E+00 0. -1.
</event>
<event>
 8    1  0.7102339E-009  0.8299007E+02  0.7561462E-02  0.1320774E+00
         -1   -1    0    0    0  501 -0.00000000000E+00  0.00000000000E+00  0.11817937791E+02  0.11817937791E+02  0.00000000000E+00 0.  1.
          1   -1    0    0  501    0  0.00000000000E+00 -0.00000000000E+00 -0.10144083846E+04  0.10144083846E+04  0.00000000000E+00 0. -1.
         25    2    1    2    0    0 -0.10153491207E+02  0.92255886343E+01 -0.58900729267E+03  0.60229853389E+03  0.12508288551E+03 0.  0.
         23    2    1    2    0    0  0.10153491207E+02 -0.92255886343E+01 -0.41358315415E+03  0.42392778851E+03  0.92062693859E+02 0.  0.
          5    1    3    3  502    0  0.19978759388E+02 -0.21563141427E+02 -0.32155662280E+02  0.43767326987E+02  0.41800000000E+01 0.  1.
         -5    1    3    3    0  502 -0.30132250595E+02  0.30788730061E+02 -0.55685163039E+03  0.55853120691E+03  0.41800000000E+01 0.  1.
        -11    1    4    4    0    0  0.40315394240E+02  0.24960049308E+02 -0.20244625265E+03  0.20792503526E+03  0.00000000000E+00 0.  1.
         11    1    4    4    0    0 -0.30161903032E+02 -0.34185637942E+02 -0.21113690150E+03  0.21600275325E+03  0.00000000000E+00 0. -1.
</event>
<event>
 8    1  0.7102339E-009  0.9040230E+02  0.7561462E-02  0.1301880E+00
          1   -1    0    0  501    0  0.00000000000E+00  0.00000000000E+00  0.11042721978E+03  0.11042721978E+03  0.00000000000E+00 0. -1.
         -1   -1    0    0    0  501 -0.00000000000E+00 -0.00000000000E+00 -0.12962053891E+03  0.12962053891E+03  0.00000000000E+00 0.  1.
         25    2    1    2    0    0 -0.35118333180E+02 -0.16111454475E+02 -0.37942692849E+02  0.13630561363E+03  0.12508675419E+03 0.  0.
         23    2    1    2    0    0  0.35118333180E+02  0.16111454475E+02  0.18749373715E+02  0.10374214506E+03  0.94435254843E+02 0.  0.
          5    1    3    3  502    0  0.36439230943E+02  0.22954147526E+02  0.58578809094E+01  0.43663458511E+02  0.41800000000E+01 0.  1.
         -5    1    3    3    0  502 -0.71557564124E+02 -0.39065602001E+02 -0.43800573758E+02  0.92642155116E+02  0.41800000000E+01 0.  1.
        -11    1    4    4    0    0  0.66898045448E+00  0.21084938779E+02 -0.34315109158E+02  0.40280875049E+02  0.00000000000E+00 0.  1.
         11    1    4    4    0    0  0.34449352726E+02 -0.49734843037E+01  0.53064482873E+02  0.63461270015E+02  0.00000000000E+00 0. -1.
</event>
<event>
 8    1  0.7102339E-009  0.1601928E+03  0.7561462E-02  0.1188479E+00
         -4   -1    0    0    0  501 -0.00000000000E+00  0.00000000000E+00  0.36255976288E+03  0.36255976288E+03  0.00000000000E+00 0.  1.
          4   -1    0    0  501    0  0.00000000000E+00 -0.00000000000E+00 -0.73534052262E+02  0.73534052262E+02  0.00000000000E+00 0. -1.
         25    2    1    2    0    0  0.11409554196E+03 -0.36128520164E+02  0.12705382263E+03  0.21473563444E+03  0.12508259747E+03 0.  0.
         23    2    1    2    0    0 -0.11409554196E+03  0.36128520164E+02  0.16197188799E+03  0.22135818070E+03  0.91877576163E+02 0.  0.
          5    1    3    3  502    0  0.11134027439E+03  0.20282411997E+02  0.10343094326E+03  0.15337361364E+03  0.41800000000E+01 0.  1.
         -5    1    3    3    0  502  0.27552675659E+01 -0.56410932161E+02  0.23622879372E+02  0.61362020798E+02  0.41800000000E+01 0.  1.
        -11    1    4    4    0    0  0.85436274599E+01 -0.15294741019E+02  0.24191229365E+02  0.29868683453E+02  0.00000000000E+00 0. -1.
         11    1    4    4    0    0 -0.12263916942E+03  0.51423261183E+02  0.13778065863E+03  0.19148949725E+03  0.00000000000E+00 0.  1.
</event>
<event>
 8    1  0.7102339E-009  0.7062752E+02  0.7561462E-02  0.1357972E+00
          3   -1    0    0  501    0  0.00000000000E+00  0.00000000000E+00  0.15316753833E+03  0.15316753833E+03  0.00000000000E+00 0. -1.
         -3   -1    0    0    0  501 -0.00000000000E+00 -0.00000000000E+00 -0.80300932570E+02  0.80300932570E+02  0.00000000000E+00 0.  1.
         25    2    1    2    0    0  0.22296003331E+02  0.80241384437E+01  0.61100493901E+02  0.14121106374E+03  0.12508315476E+03 0.  0.
         23    2    1    2    0    0 -0.22296003331E+02 -0.80241384437E+01  0.11766111861E+02  0.92257407159E+02  0.88382629657E+02 0.  0.
          5    1    3    3  502    0  0.41283609995E+02  0.13992367926E+02  0.93334906189E+02  0.10309704131E+03  0.41800000000E+01 0. -1.
         -5    1    3    3    0  502 -0.18987606664E+02 -0.59682294824E+01 -0.32234412289E+02  0.38114022427E+02  0.41800000000E+01 0. -1.
        -11    1    4    4    0    0 -0.20928355606E+02  0.31369314948E+02 -0.19027010904E+02  0.42238100486E+02  0.00000000000E+00 0.  1.
         11    1    4    4    0    0 -0.13676477255E+01 -0.39393453392E+02  0.30793122765E+02  0.50019306673E+02  0.00000000000E+00 0. -1.
</event>
<event>
 8    1  0.7102339E-009  0.1323155E+03  0.7561462E-02  0.1224060E+00
         -1   -1    0    0    0  501 -0.00000000000E+00  0.00000000000E+00  0.73183480809E+02  0.73183480809E+02  0.00000000000E+00 0.  1.
          1   -1    0    0  501    0  0.00000000000E+00 -0.00000000000E+00 -0.30491645165E+03  0.30491645165E+03  0.00000000000E+00 0. -1.
         25    2    1    2    0    0 -0.11103736915E+02 -0.10437382867E+03 -0.10907062448E+03  0.19636888375E+03  0.12508856182E+03 0.  0.
         23    2    1    2    0    0  0.11103736915E+02  0.10437382867E+03 -0.12266234636E+03  0.18173104870E+03  0.83444195510E+02 0.  0.
          5    1    3    3  502    0 -0.44437929409E+02 -0.68014327787E+02 -0.54548052834E+01  0.81534689888E+02  0.41800000000E+01 0. -1.
         -5    1    3    3    0  502  0.33334192493E+02 -0.36359500879E+02 -0.10361581919E+03  0.11483419387E+03  0.41800000000E+01 0. -1.
        -11    1    4    4    0    0 -0.29534273098E+02  0.82493109372E+02 -0.74332899107E+02  0.11490329095E+03  0.00000000000E+00 0.  1.
         11    1    4    4    0    0  0.40638010013E+02  0.21880719294E+02 -0.48329447256E+02  0.66827757756E+02  0.00000000000E+00 0. -1.
</event>
<event>
 8    1  0.7102339E-009  0.9113103E+02  0.7561462E-02  0.1300136E+00
          1   -1    0    0  501    0  0.00000000000E+00  0.00000000000E+00  0.99938722047E+03  0.99938722047E+03  0.00000000000E+00 0. -1.
         -1   -1    0    0    0  501 -0.00000000000E+00 -0.00000000000E+00 -0.20339126906E+02  0.20339126906E+02  0.00000000000E+00 0.  1.
         25    2    1    2    0    0  0.36731105338E+02 -0.25894065520E+02  0.75920710789E+03  0.77075436159E+03  0.12508867460E+03 0.  0.
         23    2    1    2    0    0 -0.36731105338E+02  0.25894065520E+02  0.21984098567E+03  0.24897198578E+03  0.10787638293E+03 0.  0.
          5    1    3    3  502    0  0.55442933543E+02 -0.12716551956E+02  0.14085260006E+03  0.15196235362E+03  0.41800000000E+01 0.  1.
         -5    1    3    3    0  502 -0.18711828205E+02 -0.13177513564E+02  0.61835450783E+03  0.61879200797E+03  0.41800000000E+01 0.  1.
        -11    1    4    4    0    0 -0.66975296002E+02  0.97599154409E+01  0.19562472149E+03  0.20700236202E+03  0.00000000000E+00 0.  1.
         11    1    4    4    0    0  0.30244190664E+02  0.16134150079E+02  0.24216264180E+02  0.41969623759E+02  0.00000000000E+00 0. -1.
</event>
<event>
 7    1  0.7102339E-009  0.1323921E+03  0.7561462E-02  0.1223949E+00
          2   -1    0    0  501    0  0.00000000000E+00  0.00000000000E+00  0.18118126817E+03  0.18118126817E+03  0.00000000000E+00 0. -1.
         -2   -1    0    0    0  501 -0.00000000000E+00 -0.00000000000E+00 -0.19668742126E+03  0.19668742126E+03  0.00000000000E+00 0.  1.
         25    2    1    2    0    0 -0.45033779636E+02  0.10417997813E+03 -0.39722498215E+02  0.17350882014E+03  0.12508367060E+03 0.  0.
          5    1    3    3  502    0  0.22442180921E+02  0.72504086991E+02 -0.59206309395E+02  0.96350161324E+02  0.41800000000E+01 0.  1.
         -5    1    3    3    0  502 -0.67475960557E+02  0.31675891137E+02  0.19483811179E+02  0.77158658817E+02  0.41800000000E+01 0.  1.
        -11    1    1    2    0    0  0.38071018656E+02 -0.74945718139E+02  0.95364936692E+02  0.12712487671E+03  0.00000000000E+00 0. -1.
         11    1    1    2    0    0  0.69627609798E+01 -0.29234259989E+02 -0.71148591561E+02  0.77234992579E+02  0.00000000000E+00 0.  1.
</event>
<event>
 8    1  0.7102339E-009  0.1267784E+03  0.7561462E-02  0.1232316E+00
          1   -1    0    0  501    0  0.00000000000E+00  0.00000000000E+00  0.43008118643E+02  0.43008118643E+02  0.00000000000E+00 0.  1.
         -1   -1    0    0    0  501 -0.00000000000E+00 -0.00000000000E+00 -0.45397751173E+03  0.45397751173E+03  0.00000000000E+00 0. -1.
         25    2    1    2    0    0  0.27782851927E+01 -0.86352983245E+02 -0.25175319559E+03  0.29409405387E+03  0.12508830660E+03 0.  0.
         23    2    1    2    0    0 -0.27782851927E+01  0.86352983245E+02 -0.15921619750E+03  0.20289157650E+03  0.91381823610E+02 0.  0.
          5    1    3    3  502    0  0.32022360745E+02 -0.92578413059E+02 -0.10260326342E+03  0.14191932996E+03  0.41800000000E+01 0.  1.
         -5    1    3    3    0  502 -0.29244075552E+02  0.62254298140E+01 -0.14914993216E+03  0.15217472390E+03  0.41800000000E+01 0.  1.
        -11    1    4    4    0    0  0.18485298036E+02  0.98910156854E+02 -0.13427185221E+03  0.16779110724E+03  0.00000000000E+00 0.  1.
         11    1    4    4    0    0 -0.21263583229E+02 -0.12557173609E+02 -0.24944345291E+02  0.35100469267E+02  0.00000000000E+00 0. -1.
</event>
<event>
 8    1  0.7102339E-009  0.9708460E+02  0.7561462E-02  0.1286549E+00
         -2   -1    0    0    0  501 -0.00000000000E+00  0.00000000000E+00  0.61743998054E+02  0.61743998054E+02  0.00000000000E+00 0.  1.
          2   -1    0    0  501    0  0.00000000000E+00 -0.00000000000E+00 -0.24188666060E+03  0.24188666060E+03  0.00000000000E+00 0. -1.
         25    2    1    2    0    0  0.41879873771E+02 -0.13691842210E+02 -0.10729247533E+03  0.17058918778E+03  0.12509038874E+03 0.  0.
         23    2    1    2    0    0 -0.41879873771E+02  0.13691842210E+02 -0.72850187215E+02  0.13304147087E+03  0.10223254288E+03 0.  0.
          5    1    3    3  502    0 -0.13035904678E+02 -0.23336689015E+02  0.18604343396E+02  0.32834887821E+02  0.41800000000E+01 0. -1.
         -5    1    3    3    0  502  0.54915778450E+02  0.96448468055E+01 -0.12589681873E+03  0.13775429996E+03  0.41800000000E+01 0. -1.
        -11    1    4    4    0    0 -0.42171505709E+02 -0.39634648179E+02 -0.41028767775E+02  0.70941532371E+02  0.00000000000E+00 0.  1.
         11    1    4    4    0    0  0.29163193731E+00  0.53326490389E+02 -0.31821419441E+02  0.62099938499E+02  0.00000000000E+00 0. -1.
</event>
<event>
 8    1  0.7102339E-009  0.1054640E+03  0.7561462E-02  0.1269208E+00
         -2   -1    0    0    0  501 -0.00000000000E+00  0.00000000000E+00  0.65871604204E+02  0.65871604204E+02  0.00000000000E+00 0.  1.
          2   -1    0    0  501    0  0.00000000000E+00 -0.00000000000E+00 -0.30818636541E+03  0.30818636541E+03  0.00000000000E+00 0. -1.
         25    2    1    2    0    0  0.44940953923E+02  0.79878677399E+02 -0.12734241591E+03  0.20064460087E+03  0.12506747188E+03 0.  0.
         23    2    1    2    0    0 -0.44940953923E+02 -0.79878677399E+02 -0.11497234529E+03  0.17341336875E+03  0.91941632767E+02 0.  0.
          5    1    3    3  502    0 -0.11229843464E+02  0.22498876142E+02 -0.11680176347E+03  0.11955096471E+03  0.41800000000E+01 0.  1.
         -5    1    3    3    0  502  0.56170797387E+02  0.57379801256E+02 -0.10540652438E+02  0.81093636157E+02  0.41800000000E+01 0.  1.
        -11    1    4    4    0    0  0.81328160552E+01 -0.33740476596E+02 -0.93731722241E+02  0.99950979046E+02  0.00000000000E+00 0. -1.
         11    1    4    4    0    0 -0.53073769978E+02 -0.46138200803E+02 -0.21240623050E+02  0.73462389701E+02  0.00000000000E+00 0.  1.
</event>
<event>
 8    1  0.7102339E-009  0.1059684E+03  0.7561462E-02  0.1268223E+00
          1   -1    0    0  501    0  0.00000000000E+00  0.00000000000E+00  0.15865849125E+03  0.15865849125E+03  0.00000000000E+00 0. -1.
         -1   -1    0    0    0  501 -0.00000000000E+00 -0.00000000000E+00 -0.12487515258E+03  0.12487515258E+03  0.00000000000E+00 0.  1.
         25    2    1    2    0    0 -0.42749752730E+02 -0.60112343610E+02 -0.34144991918E+02  0.14918131909E+03  0.12509256684E+03 0.  0.
         23    2    1    2    0    0  0.42749752730E+02  0.60112343610E+02  0.67928330591E+02  0.13435232474E+03  0.89416183403E+02 0.  0.
          5    1    3    3  502    0 -0.41918291763E+00  0.33956963123E+02  0.11781507993E+02  0.36187392687E+02  0.41800000000E+01 0. -1.
         -5    1    3    3    0  502 -0.42330569812E+02 -0.94069306733E+02 -0.45926499911E+02  0.11299392640E+03  0.41800000000E+01 0. -1.
        -11    1    4    4    0    0  0.30667554883E+01  0.10568595336E+02 -0.21812248618E+02  0.24431012798E+02  0.00000000000E+00 0.  1.
         11    1    4    4    0    0  0.39682997241E+02  0.49543748274E+02  0.89740579208E+02  0.10992131195E+03  0.00000000000E+00 0. -1.
</event>
<event>
 8    1  0.7102339E-009  0.1280340E+03  0.7561462E-02  0.1230402E+00
          2   -1    0    0  501    0  0.00000000000E+00  0.00000000000E+00  0.46768383302E+03  0.46768383302E+03  0.00000000000E+00 0. -1.
         -2   -1    0    0    0  501 -0.00000000000E+00 -0.00000000000E+00 -0.46563315676E+02  0.46563315676E+02  0.00000000000E+00 0.  1.
         25    2    1    2    0    0  0.92689452702E+02  0.33535232592E+02  0.25501904359E+03  0.30064303728E+03  0.12504230005E+03 0.  0.
         23    2    1    2    0    0 -0.92689452702E+02 -0.33535232592E+02  0.16610147375E+03  0.21360411142E+03  0.91219901147E+02 0.  0.
          5    1    3    3  502    0  0.89309233807E+02  0.74310146827E+02  0.16690520765E+03  0.20340343631E+03  0.41800000000E+01 0. -1.
         -5    1    3    3    0  502  0.33802188954E+01 -0.40774914236E+02  0.88113835946E+02  0.97239600965E+02  0.41800000000E+01 0. -1.
        -11    1    4    4    0    0 -0.13625808542E+02 -0.67490237223E+01 -0.10355858323E+02  0.18397167750E+02  0.00000000000E+00 0.  1.
         11    1    4    4    0    0 -0.79063644161E+02 -0.26786208869E+02  0.17645733207E+03  0.19520694367E+03  0.00000000000E+00 0. -1.
</event>
<event>
 8    1  0.7102339E-009  0.1457316E+03  0.7561462E-02  0.1205818E+00
         -4   -1    0    0    0  501 -0.00000000000E+00  0.00000000000E+00  0.68902135603E+02  0.68902135603E+02  0.00000000000E+00 0. -1.
          4   -1    0    0  501    0  0.00000000000E+00 -0.00000000000E+00 -0.32998163703E+03  0.32998163703E+03  0.00000000000E+00 0.  1.
         25    2    1    2    0    0  0.10230732365E+03 -0.99911151847E+01 -0.12030327156E+03  0.20171089246E+03  0.12509115130E+03 0.  0.
         23    2    1    2    0    0 -0.10230732365E+03  0.99911151847E+01 -0.14077622986E+03  0.19717288017E+03  0.92155232769E+02 0.  0.
          5    1    3    3  502    0  0.51177567566E+02  0.52926601954E+02 -0.86781902885E+02  0.11388125256E+03  0.41800000000E+01 0. -1.
         -5    1    3    3    0  502  0.51129756081E+02 -0.62917717139E+02 -0.33521368680E+02  0.87829639900E+02  0.41800000000E+01 0. -1.
        -11    1    4    4    0    0 -0.42852029760E+02 -0.40181905173E+02 -0.75204603337E+02  0.95428582307E+02  0.00000000000E+00 0. -1.
         11    1    4    4    0    0 -0.59455293887E+02  0.50173020358E+02 -0.65571626525E+02  0.10174429787E+03  0.00000000000E+00 0.  1.
</event>
<event>
 8    1  0.7102339E-009  0.9651143E+02  0.7561462E-02  0.1287808E+00
          1   -1    0    0  501    0  0.00000000000E+00  0.00000000000E+00  0.24997968862E+03  0.24997968862E+03  0.00000000000E+00 0. -1.
         -1   -1    0    0    0  501 -0.00000000000E+00 -0.00000000000E+00 -0.56369683906E+02  0.56369683906E+02  0.00000000000E+00 0.  1.
         25    2    1    2    0    0 -0.19322764190E+02  0.15333263751E+02  0.73968459987E+02  0.14740815413E+03  0.12509737262E+03 0.  0.
         23    2    1    2    0    0  0.19322764190E+02 -0.15333263751E+02  0.11964154472E+03  0.15894121840E+03  0.10168448008E+03 0.  0.
          5    1    3    3  502    0 -0.67189461963E+02  0.42826138098E+01  0.71121199179E+02  0.98022762421E+02  0.41800000000E+01 0. -1.
         -5    1    3    3    0  502  0.47866697773E+02  0.11050649942E+02  0.28472608084E+01  0.49385391706E+02  0.41800000000E+01 0. -1.
        -11    1    4    4    0    0 -0.47452128057E+01  0.27082830737E+02 -0.23174331821E+01  0.27592884261E+02  0.00000000000E+00 0.  1.
         11    1    4    4    0    0  0.24067976996E+02 -0.42416094488E+02  0.12195897790E+03  0.13134833413E+03  0.00000000000E+00 0. -1.
</event>
<event>
 8    1  0.7102339E-009  0.1566533E+03  0.7561462E-02  0.1192528E+00
          1   -1    0    0  501    0  0.00000000000E+00  0.00000000000E+00  0.10724181765E+03  0.10724181765E+03  0.00000000000E+00 0. -1.
         -1   -1    0    0    0  501 -0.00000000000E+00 -0.00000000000E+00 -0.36123632563E+03  0.36123632563E+03  0.00000000000E+00 0.  1.
         25    2    1    2    0    0  0.67008175975E+02  0.11460784375E+03 -0.20306567685E+02  0.18353468678E+03  0.12509025168E+03 0.  0.
         23    2    1    2    0    0 -0.67008175975E+02 -0.11460784375E+03 -0.23368794029E+03  0.28494345650E+03  0.94644949510E+02 0.  0.
          5    1    3    3  502    0 -0.26251993313E+02  0.63124202910E+02 -0.33260020823E+02  0.76141536175E+02  0.41800000000E+01 0.  1.
         -5    1    3    3    0  502  0.93260169288E+02  0.51483640837E+02  0.12953453139E+02  0.10739315061E+03  0.41800000000E+01 0.  1.
        -11    1    4    4    0    0 -0.11042932375E+02 -0.43363844143E+00  0.67530050264E+01  0.12951350301E+02  0.00000000000E+00 0. -1.
         11    1    4    4    0    0 -0.55965243600E+02 -0.11417420531E+03 -0.24044094532E+03  0.27199210620E+03  0.00000000000E+00 0.  1.
</event>
<event>
 8    1  0.7102339E-009  0.2364566E+03  0.7561462E-02  0.1122176E+00
         -2   -1    0    0    0  501 -0.00000000000E+00  0.00000000000E+00  0.29433287302E+02  0.29433287302E+02  0.00000000000E+00 0.  1.
          2   -1    0    0  501    0  0.00000000000E+00 -0.00000000000E+00 -0.22400756557E+04  0.22400756557E+04  0.00000000000E+00 0. -1.
         25    2    1    2    0    0 -0.12367837788E+03 -0.19170650077E+03 -0.13753243944E+04  0.13997192575E+04  0.12509630775E+03 0.  0.
         23    2    1    2    0    0  0.12367837788E+03  0.19170650077E+03 -0.83531797392E+03  0.86978968549E+03  0.82038136456E+02 0.  0.
          5    1    3    3  502    0 -0.10251614039E+03 -0.82379826204E+02 -0.98667532204E+03  0.99541029648E+03  0.41800000000E+01 0.  1.
         -5    1    3    3    0  502 -0.21162237491E+02 -0.10932667457E+03 -0.38864907240E+03  0.40430896100E+03  0.41800000000E+01 0.  1.
        -11    1    4    4    0    0  0.46759646128E+02  0.98620110843E+02 -0.26077571222E+03  0.28269482283E+03  0.00000000000E+00 0.  1.
         11    1    4    4    0    0  0.76918731751E+02  0.93086389931E+02 -0.57454226170E+03  0.58709486266E+03  0.00000000000E+00 0. -1.
</event>
<event>
 7    1  0.7102339E-009  0.9843655E+02  0.7561462E-02  0.1283618E+00
         -2   -1    0    0    0  501 -0.00000000000E+00  0.00000000000E+00  0.32505167086E+03  0.32505167086E+03  0.00000000000E+00 0.  1.
          2   -1    0    0  501    0  0.00000000000E+00 -0.00000000000E+00 -0.58309340008E+02  0.58309340008E+02  0.00000000000E+00 0. -1.
         23    2    1    2    0    0  0.62985720855E+02 -0.55226616088E+02  0.10143324934E+03  0.15959126554E+03  0.90352021604E+02 0.  0.
          5    1    1    2  502    0 -0.71547537084E+02  0.66892842300E+02  0.17856349822E+03  0.20370590986E+03  0.41800000000E+01 0.  1.
         -5    1    1    2    0  502  0.85618162290E+01 -0.11666226211E+02 -0.13254416716E+02  0.20063835467E+02  0.41800000000E+01 0.  1.
        -11    1    3    3    0    0  0.39686648062E+02 -0.34184140988E+02  0.11424716304E+03  0.12568213792E+03  0.00000000000E+00 0.  1.
         11    1    3    3    0    0  0.23299072794E+02 -0.21042475100E+02 -0.12813913700E+02  0.33909127617E+02  0.00000000000E+00 0. -1.
</event>
<event>
 8    1  0.7102339E-009  0.1029573E+03  0.7561462E-02  0.1274197E+00
         -4   -1    0    0    0  501 -0.00000000000E+00  0.00000000000E+00  0.19759691024E+02  0.19759691024E+02  0.00000000000E+00 0.  1.
          4   -1    0    0  501    0  0.00000000000E+00 -0.00000000000E+00 -0.69914721310E+03  0.69914721310E+03  0.00000000000E+00 0. -1.
         25    2    1    2    0    0  0.12303324788E+02 -0.11112994355E+02 -0.51957513488E+03  0.53467766567E+03  0.12508802875E+03 0.  0.
         23    2    1    2    0    0 -0.12303324788E+02  0.11112994355E+02 -0.15981238719E+03  0.18422923845E+03  0.90141792502E+02 0.  0.
          5    1    3    3  502    0  0.17246073419E+02 -0.66199091760E+02 -0.33545301175E+03  0.34238274240E+03  0.41800000000E+01 0. -1.
         -5    1    3    3    0  502 -0.49427486316E+01  0.55086097405E+02 -0.18412212313E+03  0.19229492328E+03  0.41800000000E+01 0. -1.
        -11    1    4    4    0    0 -0.11187722213E+02  0.45831224795E+02 -0.48657875825E+02  0.67773558076E+02  0.00000000000E+00 0.  1.
         11    1    4    4    0    0 -0.11156025750E+01 -0.34718230440E+02 -0.11115451137E+03  0.11645568037E+03  0.00000000000E+00 0. -1.
</event>
<event>
 8    1  0.7102339E-009  0.1820312E+03  0.7561462E-02  0.1165852E+00
         -1   -1    0    0    0  501 -0.00000000000E+00  0.00000000000E+00  0.35392491084E+03  0.35392491084E+03  0.00000000000E+00 0.  1.
          1   -1    0    0  501    0  0.00000000000E+00 -0.00000000000E+00 -0.12940042009E+03  0.12940042009E+03  0.00000000000E+00 0. -1.
         25    2    1    2    0    0  0.11621384448E+03  0.10420102264E+03  0.23785880537E+03  0.31078600693E+03  0.12509044746E+03 0.  0.
         23    2    1    2    0    0 -0.11621384448E+03 -0.10420102264E+03 -0.13334314615E+02  0.17253932399E+03  0.72308392392E+02 0.  0.
          5    1    3    3  502    0  0.10401794958E+03  0.13229196292E+03  0.19036394362E+03  0.25411965826E+03  0.41800000000E+01 0.  1.
         -5    1    3    3    0  502  0.12195894904E+02 -0.28090940283E+02  0.47494861750E+02  0.56666348666E+02  0.41800000000E+01 0.  1.
        -11    1    4    4    0    0 -0.67079099953E+02 -0.24952789857E+02 -0.30378127196E+02  0.77750099576E+02  0.00000000000E+00 0. -1.
         11    1    4    4    0    0 -0.49134744528E+02 -0.79248232778E+02  0.17043812581E+02  0.94789224417E+02  0.00000000000E+00 0.  1.
</event>
<event>
 8    1  0.7102339E-009  0.1735208E+03  0.7561462E-02  0.1174225E+00
          1   -1    0    0  501    0  0.00000000000E+00  0.00000000000E+00  0.61048124668E+03  0.61048124668E+03  0.00000000000E+00 0. -1.
         -1   -1    0    0    0  501 -0.00000000000E+00 -0.00000000000E+00 -0.13267936295E+03  0.13267936295E+03  0.00000000000E+00 0.  1.
         25    2    1    2    0    0  0.11241550114E+03  0.92574517406E+02  0.53111311118E+03  0.56474407852E+03  0.12508977250E+03 0.  0.
         23    2    1    2    0    0 -0.11241550114E+03 -0.92574517406E+02 -0.53311227451E+02  0.17841653111E+03  0.88221796798E+02 0.  0.
          5    1    3    3  502    0  0.10680685013E+03  0.86942164221E+01  0.27592622220E+03  0.29603385809E+03  0.41800000000E+01 0. -1.
         -5    1    3    3    0  502  0.56086510148E+01  0.83880300984E+02  0.25518688898E+03  0.26871022044E+03  0.41800000000E+01 0. -1.
        -11    1    4    4    0    0 -0.47648397844E+01 -0.31502451078E+02 -0.43965834530E+02  0.54296433842E+02  0.00000000000E+00 0.  1.
         11    1    4    4    0    0 -0.10765066136E+03 -0.61072066328E+02 -0.93453929212E+01  0.12412009727E+03  0.00000000000E+00 0. -1.
</event>
<event>
 8    1  0.7102339E-009  0.9131807E+02  0.7561462E-02  0.1299691E+00
         -3   -1    0    0    0  501 -0.00000000000E+00  0.00000000000E+00  0.22342936292E+02  0.22342936292E+02  0.00000000000E+00 0.  1.
          3   -1    0    0  501    0  0.00000000000E+00 -0.00000000000E+00 -0.58655306095E+03  0.58655306095E+03  0.00000000000E+00 0. -1.
         25    2    1    2    0    0 -0.23710002652E+02  0.32288288350E+02 -0.30663730321E+03  0.33358542138E+03  0.12509236526E+03 0.  0.
         23    2    1    2    0    0  0.23710002652E+02 -0.32288288350E+02 -0.25757282145E+03  0.27531057587E+03  0.88585873836E+02 0.  0.
          5    1    3    3  502    0 -0.51223841627E+02  0.77863163787E+01 -0.43305839143E+02  0.67656313657E+02  0.41800000000E+01 0.  1.
         -5    1    3    3    0  502  0.27513838975E+02  0.24501971972E+02 -0.26333146407E+03  0.26592910772E+03  0.41800000000E+01 0.  1.
        -11    1    4    4    0    0  0.14040854019E+02  0.28634418183E+02 -0.12634404869E+03  0.13030692279E+03  0.00000000000E+00 0. -1.
         11    1    4    4    0    0  0.96691486333E+01 -0.60922706533E+02 -0.13122877276E+03  0.14500365308E+03  0.00000000000E+00 0.  1.
</event>
<event>
 8    1  0.7102339E-009  0.1838778E+03  0.7561462E-02  0.1164102E+00
         -2   -1    0    0    0  501 -0.00000000000E+00  0.00000000000E+00  0.10403933382E+03  0.10403933382E+03  0.00000000000E+00 0.  1.
          2   -1    0    0  501    0  0.00000000000E+00 -0.00000000000E+00 -0.41679917143E+03  0.41679917143E+03  0.00000000000E+00 0. -1.
         25    2    1    2    0    0 -0.30351553484E+02  0.17412942897E+03 -0.15466710221E+03  0.26610519619E+03  0.12509111920E+03 0.  0.
         23    2    1    2    0    0  0.30351553484E+02 -0.17412942897E+03 -0.15809273539E+03  0.25473330905E+03  0.93024034130E+02 0.  0.
          5    1    3    3  502    0 -0.38611360319E+02  0.73771097936E+02 -0.22745750615E+01  0.83400588296E+02  0.41800000000E+01 0. -1.
         -5    1    3    3    0  502  0.82598068346E+01  0.10035833103E+03 -0.15239252715E+03  0.18270460790E+03  0.41800000000E+01 0. -1.
        -11    1    4    4    0    0 -0.82801130791E+01 -0.96859766722E+02 -0.32904021946E+02  0.10263064524E+03  0.00000000000E+00 0.  1.
         11    1    4    4    0    0  0.38631666563E+02 -0.77269662247E+02 -0.12518871345E+03  0.15210266381E+03  0.00000000000E+00 0. -1.
</event>
<event>
 8    1  0.7102339E-009  0.1125181E+03  0.7561462E-02  0.1255976E+00
          2   -1    0    0  501    0  0.00000000000E+00  0.00000000000E+00  0.76264229191E+03  0.76264229191E+03  0.00000000000E+00 0. -1.
         -2   -1    0    0    0  501 -0.00000000000E+00 -0.00000000000E+00 -0.23064318629E+02  0.23064318629E+02  0.00000000000E+00 0.  1.
         25    2    1    2    0    0 -0.38810785819E+02  0.11499780096E+02  0.21835207722E+03  0.25488111075E+03  0.12509288130E+03 0.  0.
         23    2    1    2    0    0  0.38810785819E+02 -0.11499780096E+02  0.52122589606E+03  0.53082549979E+03  0.91982359523E+02 0.  0.
          5    1    3    3  502    0 -0.78386392259E+02  0.25243901147E+02  0.17975156767E+03  0.19776192635E+03  0.41800000000E+01 0. -1.
         -5    1    3    3    0  502  0.39575606440E+02 -0.13744121050E+02  0.38600509558E+02  0.57119184401E+02  0.41800000000E+01 0. -1.
        -11    1    4    4    0    0  0.82055222316E+01 -0.50353111084E+02  0.26969169734E+03  0.27447473109E+03  0.00000000000E+00 0. -1.
         11    1    4    4    0    0  0.30605263587E+02  0.38853330988E+02  0.25153419872E+03  0.25635076870E+03  0.00000000000E+00 0.  1.
</event>
<event>
 8    1  0.7102339E-009  0.1322527E+03  0.7561462E-02  0.1224151E+00
          1   -1    0    0  501    0  0.00000000000E+00  0.00000000000E+00  0.66711937346E+02  0.66711937346E+02  0.00000000000E+00 0. -1.
         -1   -1    0    0    0  501 -0.00000000000E+00 -0.00000000000E+00 -0.37852103222E+03  0.37852103222E+03  0.00000000000E+00 0.  1.
         25    2    1    2    0    0 -0.83994616734E+02 -0.20266505270E+02 -0.27350047403E+03  0.31291492959E+03  0.12508963582E+03 0.  0.
         23    2    1    2    0    0  0.83994616734E+02  0.20266505270E+02 -0.38308620843E+02  0.13231803997E+03  0.92599602566E+02 0.  0.
          5    1    3    3  502    0 -0.42359784871E+02 -0.68945640876E+02 -0.19723819940E+03  0.21323281284E+03  0.41800000000E+01 0.  1.
         -5    1    3    3    0  502 -0.41634831864E+02  0.48679135606E+02 -0.76262274631E+02  0.99682116749E+02  0.41800000000E+01 0.  1.
        -11    1    4    4    0    0  0.73761341253E+02  0.49154956828E+02 -0.76512423095E+01  0.88969021311E+02  0.00000000000E+00 0.  1.
         11    1    4    4    0    0  0.10233275482E+02 -0.28888451558E+02 -0.30657378533E+02  0.43349018663E+02  0.00000000000E+00 0. -1.
</event>
<event>
 8    1  0.7102339E-009  0.1186789E+03  0.7561462E-02  0.1245292E+00
          1   -1    0    0  501    0  0.00000000000E+00  0.00000000000E+00  0.47274241750E+02  0.47274241750E+02  0.00000000000E+00 0. -1.
         -1   -1    0    0    0  501 -0.00000000000E+00 -0.00000000000E+00 -0.34288185134E+03  0.34288185134E+03  0.00000000000E+00 0.  1.
         25    2    1    2    0    0 -0.41961434018E+02  0.51514272842E+02 -0.16205139465E+03  0.21522725380E+03  0.12509050332E+03 0.  0.
         23    2    1    2    0    0  0.41961434018E+02 -0.51514272842E+02 -0.13355621494E+03  0.17492883929E+03  0.91369327535E+02 0.  0.
          5    1    3    3  502    0 -0.62925118917E+02 -0.63075638772E+01 -0.13246969428E+03  0.14685042817E+03  0.41800000000E+01 0. -1.
         -5    1    3    3    0  502  0.20963684899E+02  0.57821836720E+02 -0.29581700371E+02  0.68376825628E+02  0.41800000000E+01 0. -1.
        -11    1    4    4    0    0 -0.28536492829E+02 -0.86165631842E+01 -0.27572553594E+02  0.40605692899E+02  0.00000000000E+00 0. -1.
         11    1    4    4    0    0  0.70497926847E+02 -0.42897709658E+02 -0.10598366135E+03  0.13432314639E+03  0.00000000000E+00 0.  1.
</event>
<event>
 8    1  0.7102339E-009  0.1301024E+03  0.7561462E-02  0.1227304E+00
         -2   -1    0    0    0  501 -0.00000000000E+00  0.00000000000E+00  0.56542198270E+03  0.56542198270E+03  0.00000000000E+00 0.  1.
          2   -1    0    0  501    0  0.00000000000E+00 -0.00000000000E+00 -0.45097464884E+02  0.45097464884E+02  0.00000000000E+00 0. -1.
         25    2    1    2    0    0  0.47661726709E+02 -0.10382552634E+03  0.32825704010E+03  0.36939238940E+03  0.12508666140E+03 0.  0.
         23    2    1    2    0    0 -0.47661726709E+02  0.10382552634E+03  0.19206747772E+03  0.24112705819E+03  0.90559163429E+02 0.  0.
          5    1    3    3  502    0  0.51582529944E+02 -0.65123739351E+02  0.71550184816E+02  0.10972128403E+03  0.41800000000E+01 0.  1.
         -5    1    3    3    0  502 -0.39208032352E+01 -0.38701786984E+02  0.25670685528E+03  0.25967110537E+03  0.41800000000E+01 0.  1.
        -11    1    4    4    0    0 -0.61458199775E+02  0.10731508685E+03  0.13838836046E+03  0.18559357882E+03  0.00000000000E+00 0. -1.
         11    1    4    4    0    0  0.13796473067E+02 -0.34895605184E+01  0.53679117256E+02  0.55533479371E+02  0.00000000000E+00 0.  1.
</event>
<event>
 8    1  0.7102339E-009  0.1049199E+03  0.7561462E-02  0.1270277E+00
          2   -1    0    0  501    0  0.00000000000E+00  0.00000000000E+00  0.70614242610E+02  0.70614242610E+02  0.00000000000E+00 0. -1.
         -2   -1    0    0    0  501 -0.00000000000E+00 -0.00000000000E+00 -0.21143149573E+03  0.21143149573E+03  0.00000000000E+00 0.  1.
         25    2    1    2    0    0  0.25752416358E+02  0.19854501120E+02 -0.13369353233E+03  0.18595347998E+03  0.12508935992E+03 0.  0.
         23    2    1    2    0    0 -0.25752416358E+02 -0.19854501120E+02 -0.71237207854E+01  0.96092258358E+02  0.90142035452E+02 0.  0.
          5    1    3    3  502    0 -0.13198582439E+02 -0.47397653996E+02 -0.36318692717E+02  0.61296492750E+02  0.41800000000E+01 0.  1.
         -5    1    3    3    0  502  0.38950998797E+02  0.67252155116E+02 -0.97374839616E+02  0.12465698723E+03  0.41800000000E+01 0.  1.
        -11    1    4    4    0    0 -0.12751057272E+02  0.29211046110E+02  0.20897279638E+02  0.38112609103E+02  0.00000000000E+00 0. -1.
         11    1    4    4    0    0 -0.13001359086E+02 -0.49065547230E+02 -0.28021000423E+02  0.57979649255E+02  0.00000000000E+00 0.  1.
</event>
<event>
 8    1  0.7102339E-009  0.8004070E+02  0.7561462E-02  0.1328936E+00
         -1   -1    0    0    0  501 -0.00000000000E+00  0.00000000000E+00  0.22288121591E+03  0.22288121591E+03  0.00000000000E+00 0.  1.
          1   -1    0    0  501    0  0.00000000000E+00 -0.00000000000E+00 -0.69594836661E+02  0.69594836661E+02  0.00000000000E+00 0. -1.
         25    2    1    2    0    0 -0.37392595651E+02  0.47533270263E+02  0.70012655956E+02  0.15558572795E+03  0.12509008256E+03 0.  0.
         23    2    1    2    0    0  0.37392595651E+02 -0.47533270263E+02  0.83273723297E+02  0.13689032463E+03  0.90259791682E+02 0.  0.
          5    1    3    3  502    0 -0.19255901004E+02  0.57014144431E+01 -0.35257102387E+02  0.40790090939E+02  0.41800000000E+01 0. -1.
         -5    1    3    3    0  502 -0.18136694647E+02  0.41831855819E+02  0.10526975834E+03  0.11479563701E+03  0.41800000000E+01 0. -1.
        -11    1    4    4    0    0  0.60467342782E+01 -0.59813006933E+02  0.83904815636E+02  0.10321907227E+03  0.00000000000E+00 0. -1.
         11    1    4    4    0    0  0.31345861373E+02  0.12279736671E+02 -0.63109233853E+00  0.33671252359E+02  0.00000000000E+00 0.  1.
</event>
<event>
 8    1  0.7102339E-009  0.1378000E+03  0.7561462E-02  0.1216320E+00
          2   -1    0    0  501    0  0.00000000000E+00  0.00000000000E+00  0.79070269750E+03  0.79070269750E+03  0.00000000000E+00 0. -1.
         -2   -1    0    0    0  501 -0.00000000000E+00 -0.00000000000E+00 -0.31754679987E+02  0.31754679987E+02  0.00000000000E+00 0.  1.
         25    2    1    2    0    0  0.58217510783E+02 -0.85560375316E+02  0.27344998010E+03  0.31799718044E+03  0.12504982513E+03 0.  0.
         23    2    1    2    0    0 -0.58217510783E+02  0.85560375316E+02  0.48549803742E+03  0.50446019705E+03  0.89788026410E+02 0.  0.
          5    1    3    3  502    0  0.86140213450E+02 -0.42923465198E+02  0.10750462391E+03  0.14435122722E+03  0.41800000000E+01 0.  1.
         -5    1    3    3    0  502 -0.27922702666E+02 -0.42636910118E+02  0.16594535619E+03  0.17364595322E+03  0.41800000000E+01 0.  1.
        -11    1    4    4    0    0  0.15813392107E+02  0.35212230470E+02  0.75433128681E+02  0.84735597285E+02  0.00000000000E+00 0.  1.
         11    1    4    4    0    0 -0.74030902890E+02  0.50348144846E+02  0.41006490873E+03  0.41972459976E+03  0.00000000000E+00 0. -1.
</event>
<event>
 8    1  0.7102339E-009  0.1036486E+03  0.7561462E-02  0.1272805E+00
          3   -1    0    0  501    0  0.00000000000E+00  0.00000000000E+00  0.82623341143E+02  0.82623341143E+02  0.00000000000E+00 0. -1.
         -3   -1    0    0    0  501 -0.00000000000E+00 -0.00000000000E+00 -0.16934139848E+03  0.16934139848E+03  0.00000000000E+00 0.  1.
         25    2    1    2    0    0 -0.21287745788E+02  0.74975567741E+01 -0.93527695699E+02  0.15780939443E+03  0.12508794358E+03 0.  0.
         23    2    1    2    0    0  0.21287745788E+02 -0.74975567741E+01  0.68096383599E+01  0.94155345195E+02  0.91156329325E+02 0.  0.
          5    1    3    3  502    0 -0.37771074866E+02 -0.45279997487E+02 -0.82144807778E+02  0.10120362698E+03  0.41800000000E+01 0. -1.
         -5    1    3    3    0  502  0.16483329078E+02  0.52777554261E+02 -0.11382887921E+02  0.56605767451E+02  0.41800000000E+01 0. -1.
        -11    1    4    4    0    0  0.80795798423E+01  0.41350272880E+02 -0.42905514491E+01  0.42350129981E+02  0.00000000000E+00 0.  1.
         11    1    4    4    0    0  0.13208165945E+02 -0.48847829654E+02  0.11100189809E+02  0.51805215214E+02  0.00000000000E+00 0. -1.
</event>
<event>
 8    1  0.7102339E-009  0.1801713E+03  0.7561462E-02  0.1167637E+00
         -2   -1    0    0    0  501 -0.00000000000E+00  0.00000000000E+00  0.37808588698E+02  0.37808588698E+02  0.00000000000E+00 0.  1.
          2   -1    0    0  501    0  0.00000000000E+00 -0.00000000000E+00 -0.10773093658E+04  0.10773093658E+04  0.00000000000E+00 0. -1.
         25    2    1    2    0    0  0.84622008864E+02  0.12842533189E+03 -0.34712949356E+03  0.39975035235E+03  0.12509000219E+03 0.  0.
         23    2    1    2    0    0 -0.84622008864E+02 -0.12842533189E+03 -0.69237128351E+03  0.71536760212E+03  0.93374845010E+02 0.  0.
          5    1    3    3  502    0 -0.24627527794E+02  0.55558208654E+02 -0.68314509172E+02  0.91529089570E+02  0.41800000000E+01 0. -1.
         -5    1    3    3    0  502  0.10924953666E+03  0.72867123232E+02 -0.27881498439E+03  0.30822126278E+03  0.41800000000E+01 0. -1.
        -11    1    4    4    0    0  0.14367549415E+01 -0.54702014147E+02 -0.12001650527E+03  0.13190275263E+03  0.00000000000E+00 0.  1.
         11    1    4    4    0    0 -0.86058763805E+02 -0.73723317738E+02 -0.57235477825E+03  0.58346484949E+03  0.00000000000E+00 0. -1.
</event>
<event>
 8    1  0.7102339E-009  0.7489716E+02  0.7561462E-02  0.1344190E+00
          2   -1    0    0  501    0  0.00000000000E+00  0.00000000000E+00  0.52746471435E+02  0.52746471435E+02  0.00000000000E+00 0. -1.
         -2   -1    0    0    0  501 -0.00000000000E+00 -0.00000000000E+00 -0.23927825497E+03  0.23927825497E+03  0.00000000000E+00 0.  1.
         25    2    1    2    0    0 -0.13891419122E+02 -0.12096887846E+02 -0.12135784709E+03  0.17525092062E+03  0.12508337982E+03 0.  0.
         23    2    1    2    0    0  0.13891419122E+02  0.12096887846E+02 -0.65173936442E+02  0.11677380578E+03  0.95127143886E+02 0.  0.
          5    1    3    3  502    0  0.81451764594E+01 -0.32560620773E+02 -0.13698811642E+03  0.14110192899E+03  0.41800000000E+01 0.  1.
         -5    1    3    3    0  502 -0.22036595581E+02  0.20463732927E+02  0.15630269330E+02  0.34148991632E+02  0.41800000000E+01 0.  1.
        -11    1    4    4    0    0  0.11557909300E+02  0.48131138869E+02 -0.94813443745E+01  0.50399282608E+02  0.00000000000E+00 0. -1.
         11    1    4    4    0    0  0.23335098221E+01 -0.36034251023E+02 -0.55692592068E+02  0.66374523171E+02  0.00000000000E+00 0.  1.
</event>
<event>
 8    1  0.7102339E-009  0.1050979E+03  0.7561462E-02  0.1269927E+00
          1   -1    0    0  501    0  0.00000000000E+00  0.00000000000E+00  0.48103039715E+03  0.48103039715E+03  0.00000000000E+00 0. -1.
         -1   -1    0    0    0  501 -0.00000000000E+00 -0.00000000000E+00 -0.37757408575E+02  0.37757408575E+02  0.00000000000E+00 0.  1.
         25    2    1    2    0    0  0.41879400266E+02  0.59868285188E+02  0.17156928265E+03  0.22454814781E+03  0.12509099168E+03 0.  0.
         23    2    1    2    0    0 -0.41879400266E+02 -0.59868285188E+02  0.27170370593E+03  0.29423965791E+03  0.86116065489E+02 0.  0.
          5    1    3    3  502    0  0.62754701165E+02  0.12848443195E+02  0.24542211647E+02  0.68724286561E+02  0.41800000000E+01 0. -1.
         -5    1    3    3    0  502 -0.20875300899E+02  0.47019841993E+02  0.14702707100E+03  0.15582386125E+03  0.41800000000E+01 0. -1.
        -11    1    4    4    0    0 -0.20164192661E+02 -0.68208281768E+02  0.25713847198E+03  0.26679422433E+03  0.00000000000E+00 0.  1.
         11    1    4    4    0    0 -0.21715207606E+02  0.83399965795E+01  0.14565233953E+02  0.27445433580E+02  0.00000000000E+00 0. -1.
</event>
<event>
 7    1  0.7102339E-009  0.1353158E+03  0.7561462E-02  0.1219775E+00
         -1   -1    0    0    0  501 -0.00000000000E+00  0.00000000000E+00  0.49872250137E+02  0.49872250137E+02  0.00000000000E+00 0.  1.
          1   -1    0    0  501    0  0.00000000000E+00 -0.00000000000E+00 -0.38809040202E+03  0.38809040202E+03  0.00000000000E+00 0. -1.
         25    2    1    2    0    0 -0.53512914166E+02  0.89662068389E+02 -0.23296593395E+03  0.28429438538E+03  0.12508897907E+03 0.  0.
          5    1    3    3  502    0 -0.37482678937E+02 -0.23823550568E+02 -0.94495960015E+02  0.10449627573E+03  0.41800000000E+01 0. -1.
         -5    1    3    3    0  502 -0.16030235229E+02  0.11348561896E+03 -0.13846997393E+03  0.17979810965E+03  0.41800000000E+01 0. -1.
        -11    1    1    2    0    0  0.22691900829E+02 -0.72688531035E+02 -0.64196491764E+02  0.99597863742E+02  0.00000000000E+00 0. -1.
         11    1    1    2    0    0  0.30821013337E+02 -0.16973537354E+02 -0.41055726171E+02  0.54070403039E+02  0.00000000000E+00 0.  1.
</event>
<event>
 8    1  0.7102339E-009  0.1252108E+03  0.7561462E-02  0.1234740E+00
         -4   -1    0    0    0  501 -0.00000000000E+00  0.00000000000E+00  0.20679239553E+03  0.20679239553E+03  0.00000000000E+00 0.  1.
          4   -1    0    0  501    0  0.00000000000E+00 -0.00000000000E+00 -0.83412234861E+02  0.83412234861E+02  0.00000000000E+00 0. -1.
         25    2    1    2    0    0  0.67270077362E+02 -0.16301039994E+01  0.10155515842E+03  0.17461585609E+03  0.12509726796E+03 0.  0.
         23    2    1    2    0    0 -0.67270077362E+02  0.16301039994E+01  0.21825002246E+02  0.11558877430E+03  0.91413967605E+02 0.  0.
          5    1    3    3  502    0  0.10255099601E+03  0.91226918762E+01  0.61467062015E+02  0.11998167528E+03  0.41800000000E+01 0.  1.
         -5    1    3    3    0  502 -0.35280918649E+02 -0.10752795876E+02  0.40088096407E+02  0.54634180815E+02  0.41800000000E+01 0.  1.
        -11    1    4    4    0    0 -0.13405173144E+02 -0.39998748651E+02  0.21859350018E+02  0.47512416734E+02  0.00000000000E+00 0. -1.
         11    1    4    4    0    0 -0.53864904218E+02  0.41628852650E+02 -0.34347771961E-01  0.68076357564E+02  0.00000000000E+00 0.  1.
</event>
<event>
 8    1  0.7102339E-009  0.1152412E+03  0.7561462E-02  0.1251161E+00
          1   -1    0    0  501    0  0.00000000000E+00  0.00000000000E+00  0.20253411850E+02  0.20253411850E+02  0.00000000000E+00 0. -1.
         -1   -1    0    0    0  501 -0.00000000000E+00 -0.00000000000E+00 -0.86983935460E+03  0.86983935460E+03  0.00000000000E+00 0.  1.
         25    2    1    2    0    0 -0.64341906418E+02 -0.19582205201E+02 -0.55474777981E+03  0.57263955060E+03  0.12509041541E+03 0.  0.
         23    2    1    2    0    0  0.64341906418E+02  0.19582205201E+02 -0.29483816294E+03  0.31745321585E+03  0.96559091983E+02 0.  0.
          5    1    3    3  502    0 -0.68327678262E+01  0.33620126049E+02 -0.37406879231E+03  0.37566199352E+03  0.41800000000E+01 0. -1.
         -5    1    3    3    0  502 -0.57509138592E+02 -0.53202331250E+02 -0.18067898750E+03  0.19697755709E+03  0.41800000000E+01 0. -1.
        -11    1    4    4    0    0 -0.25371646647E+02 -0.11136808163E+01 -0.71801298496E+02  0.76160273136E+02  0.00000000000E+00 0. -1.
         11    1    4    4    0    0  0.89713553065E+02  0.20695886017E+02 -0.22303686444E+03  0.24129294271E+03  0.00000000000E+00 0.  1.
</event>
<event>
 8    1  0.7102339E-009  0.2101880E+03  0.7561462E-02  0.1141417E+00
         -2   -1    0    0    0  501 -0.00000000000E+00  0.00000000000E+00  0.52303752983E+02  0.52303752983E+02  0.00000000000E+00 0.  1.
          2   -1    0    0  501    0  0.00000000000E+00 -0.00000000000E+00 -0.88829070570E+03  0.88829070570E+03  0.00000000000E+00 0. -1.
         25    2    1    2    0    0  0.16684879983E+03  0.80576234994E+02 -0.40597269699E+03  0.46345700687E+03  0.12509002701E+03 0.  0.
         23    2    1    2    0    0 -0.16684879983E+03 -0.80576234994E+02 -0.43001425572E+03  0.47713745181E+03  0.91743316635E+02 0.  0.
          5    1    3    3  502    0  0.11823773925E+03  0.11345918846E+03 -0.28078128267E+03  0.32512882297E+03  0.41800000000E+01 0. -1.
         -5    1    3    3    0  502  0.48611060588E+02 -0.32882953466E+02 -0.12519141432E+03  0.13832818389E+03  0.41800000000E+01 0. -1.
        -11    1    4    4    0    0 -0.95245159594E+02 -0.78682901529E+01 -0.13845758489E+03  0.16823808496E+03  0.00000000000E+00 0.  1.
         11    1    4    4    0    0 -0.71603640241E+02 -0.72707944841E+02 -0.29155667083E+03  0.30889936686E+03  0.00000000000E+00 0. -1.
</event>
<event>
 8    1  0.7102339E-009  0.1148177E+03  0.7561462E-02  0.1251900E+00
         -2   -1    0    0    0  501 -0.00000000000E+00  0.00000000000E+00  0.26528174810E+02  0.26528174810E+02  0.00000000000E+00 0.  1.
          2   -1    0    0  501    0  0.00000000000E+00 -0.00000000000E+00 -0.69639292574E+03  0.69639292574E+03  0.00000000000E+00 0. -1.
         25    2    1    2    0    0  0.57144103880E+02 -0.24687437387E+02 -0.51095005636E+03  0.52970996152E+03  0.12509102712E+03 0.  0.
         23    2    1    2    0    0 -0.57144103880E+02  0.24687437387E+02 -0.15891469457E+03  0.19321113903E+03  0.90563491109E+02 0.  0.
          5    1    3    3  502    0  0.45632354513E+01  0.46411395791E+02 -0.11885749708E+03  0.12774747665E+03  0.41800000000E+01 0. -1.
         -5    1    3    3    0  502  0.52580868429E+02 -0.71098833178E+02 -0.39209255928E+03  0.40196248487E+03  0.41800000000E+01 0. -1.
        -11    1    4    4    0    0 -0.14418492407E+02 -0.24934662832E+02 -0.99227048815E+01  0.30464576249E+02  0.00000000000E+00 0.  1.
         11    1    4    4    0    0 -0.42725611473E+02  0.49622100219E+02 -0.14899198969E+03  0.16274656278E+03  0.00000000000E+00 0. -1.
</event>
<event>
 8    1  0.7102339E-009  0.1459756E+03  0.7561462E-02  0.1205507E+00
          2   -1    0    0  501    0  0.00000000000E+00  0.00000000000E+00  0.17982192794E+03  0.17982192794E+03  0.00000000000E+00 0. -1.
         -2   -1    0    0    0  501 -0.00000000000E+00 -0.00000000000E+00 -0.17040653492E+03  0.17040653492E+03  0.00000000000E+00 0.  1.
         25    2    1    2    0    0 -0.32807956576E+02  0.93285261161E+02 -0.79511754289E+02  0.17818647360E+03  0.12509915403E+03 0.  0.
         23    2    1    2    0    0  0.32807956576E+02 -0.93285261161E+02  0.88927147309E+02  0.17204198926E+03  0.10914168120E+03 0.  0.
          5    1    3    3  502    0 -0.43962526880E+02 -0.14219969397E+02 -0.46132626386E+01  0.46622589927E+02  0.41800000000E+01 0.  1.
         -5    1    3    3    0  502  0.11154570304E+02  0.10750523056E+03 -0.74898491651E+02  0.13156388367E+03  0.41800000000E+01 0.  1.
        -11    1    4    4    0    0 -0.30169531722E+02 -0.57565282187E+02  0.11436320040E+02  0.65990543062E+02  0.00000000000E+00 0.  1.
         11    1    4    4    0    0  0.62977488297E+02 -0.35719978973E+02  0.77490827269E+02  0.10605144620E+03  0.00000000000E+00 0. -1.
</event>
<event>
 7    1  0.7102339E-009  0.1783703E+03  0.7561462E-02  0.1169390E+00
          1   -1    0    0  501    0  0.00000000000E+00  0.00000000000E+00  0.23134511355E+03  0.23134511355E+03  0.00000000000E+00 0. -1.
         -1   -1    0    0    0  501 -0.00000000000E+00 -0.00000000000E+00 -0.15074929839E+03  0.15074929839E+03  0.00000000000E+00 0.  1.
         23    2    1    2    0    0 -0.14483880846E+03 -0.22322741541E+02  0.69480091748E+01  0.17593683842E+03  0.97102580072E+02 0.  0.
          5    1    1    2  502    0 -0.15294992890E+02 -0.12611704440E+02 -0.94414396160E+01  0.22351847315E+02  0.41800000000E+01 0. -1.
         -5    1    1    2    0  502  0.16013380135E+03  0.34934445981E+02  0.83089245602E+02  0.18380572621E+03  0.41800000000E+01 0. -1.
        -11    1    3    3    0    0 -0.10589828545E+03  0.27385908181E+02  0.20669899572E+02  0.11131792118E+03  0.00000000000E+00 0. -1.
         11    1    3    3    0    0 -0.38940523018E+02 -0.49708649722E+02 -0.13721890397E+02  0.64618917247E+02  0.00000000000E+00 0.  1.
</event>
<event>
 8    1  0.7102339E-009  0.1173749E+03  0.7561462E-02  0.1247492E+00
          2   -1    0    0  501    0  0.00000000000E+00  0.00000000000E+00  0.20137490557E+03  0.20137490557E+03  0.00000000000E+00 0. -1.
         -2   -1    0    0    0  501 -0.00000000000E+00 -0.00000000000E+00 -0.72748682755E+02  0.72748682755E+02  0.00000000000E+00 0.  1.
         25    2    1    2    0    0 -0.28303590633E+02 -0.45693862097E+02  0.53413505696E+02  0.14625121696E+03  0.12508954231E+03 0.  0.
         23    2    1    2    0    0  0.28303590633E+02  0.45693862097E+02  0.75212717120E+02  0.12787237136E+03  0.88347995255E+02 0.  0.
          5    1    3    3  502    0  0.35526994055E+02  0.22805207595E+02  0.16212403573E+02  0.45415407404E+02  0.41800000000E+01 0.  1.
         -5    1    3    3    0  502 -0.63830584688E+02 -0.68499069691E+02  0.37201102124E+02  0.10083580956E+03  0.41800000000E+01 0.  1.
        -11    1    4    4    0    0 -0.22480620764E+02 -0.87756986043E+01  0.33177323432E+01  0.24359773066E+02  0.00000000000E+00 0.  1.
         11    1    4    4    0    0  0.50784211397E+02  0.54469560701E+02  0.71894984777E+02  0.10351259830E+03  0.00000000000E+00 0. -1.
</event>
<event>
 8    1  0.7102339E-009  0.1596253E+03  0.7561462E-02  0.1189120E+00
          1   -1    0    0  501    0  0.00000000000E+00  0.00000000000E+00  0.16245628775E+04  0.16245628775E+04  0.00000000000E+00 0. -1.
         -1   -1    0    0    0  501 -0.00000000000E+00 -0.00000000000E+00 -0.20561663710E+02  0.20561663710E+02  0.00000000000E+00 0.  1.
         25    2    1    2    0    0  0.14500631895E+03  0.19383612652E+02  0.88666175050E+03  0.90731470022E+03  0.12509335895E+03 0.  0.
         23    2    1    2    0    0 -0.14500631895E+03 -0.19383612652E+02  0.71733946333E+03  0.73780984104E+03  0.91569093588E+02 0.  0.
          5    1    3    3  502    0  0.77313903372E+02 -0.94259666874E+01  0.17193953804E+03  0.18880404032E+03  0.41800000000E+01 0. -1.
         -5    1    3    3    0  502  0.67692415582E+02  0.28809579339E+02  0.71472221247E+03  0.71851065990E+03  0.41800000000E+01 0. -1.
        -11    1    4    4    0    0 -0.14065083698E+03  0.69998067242E+01  0.65516271887E+03  0.67012673684E+03  0.00000000000E+00 0. -1.
         11    1    4    4    0    0 -0.43554819781E+01 -0.26383419376E+02  0.62176744465E+02  0.67683104195E+02  0.00000000000E+00 0.  1.
</event>
<event>
 8    1  0.7102339E-009  0.1191875E+03  0.7561462E-02  0.1244443E+00
         -2   -1    0    0    0  501 -0.00000000000E+00  0.00000000000E+00  0.84093272509E+02  0.84093272509E+02  0.00000000000E+00 0.  1.
          2   -1    0    0  501    0  0.00000000000E+00 -0.00000000000E+00 -0.34794800541E+03  0.34794800541E+03  0.00000000000E+00 0. -1.
         25    2    1    2    0    0 -0.79519531624E+02 -0.58091848318E+02 -0.24984094934E+03  0.29625351579E+03  0.12509047485E+03 0.  0.
         23    2    1    2    0    0  0.79519531624E+02  0.58091848318E+02 -0.14013783567E+02  0.13578776214E+03  0.92433281158E+02 0.  0.
          5    1    3    3  502    0 -0.71781249307E+02  0.83406372597E+01 -0.20012370780E+03  0.21281232297E+03  0.41800000000E+01 0. -1.
         -5    1    3    3    0  502 -0.77382823170E+01 -0.66432485578E+02 -0.49717241535E+02  0.83441192820E+02  0.41800000000E+01 0. -1.
        -11    1    4    4    0    0  0.70105015999E+01  0.90222408110E+01 -0.42271459455E+02  0.43788403104E+02  0.00000000000E+00 0. -1.
         11    1    4    4    0    0  0.72509030024E+02  0.49069607507E+02  0.28257675888E+02  0.91999359033E+02  0.00000000000E+00 0.  1.
</event>
<event>
 8    1  0.7102339E-009  0.9739711E+02  0.7561462E-02  0.1285867E+00
         -1   -1    0    0    0  501 -0.00000000000E+00  0.00000000000E+00  0.46646741149E+02  0.46646741149E+02  0.00000000000E+00 0.  1.
          1   -1    0    0  501    0  0.00000000000E+00 -0.00000000000E+00 -0.31640879063E+03  0.31640879063E+03  0.00000000000E+00 0. -1.
         25    2    1    2    0    0 -0.14044902863E+01 -0.86489160586E+01 -0.23873272776E+03  0.26966271792E+03  0.12509152564E+03 0.  0.
         23    2    1    2    0    0  0.14044902863E+01  0.86489160586E+01 -0.31029321722E+02  0.93392813868E+02  0.87650570641E+02 0.  0.
          5    1    3    3  502    0 -0.61877292945E+02  0.67998731806E+01 -0.13066406834E+03  0.14479505797E+03  0.41800000000E+01 0. -1.
         -5    1    3    3    0  502  0.60472802659E+02 -0.15448789239E+02 -0.10806865942E+03  0.12486765994E+03  0.41800000000E+01 0. -1.
        -11    1    4    4    0    0 -0.32773218245E+02 -0.47961705404E+01  0.13416091852E+02  0.35736236603E+02  0.00000000000E+00 0.  1.
         11    1    4    4    0    0  0.34177708532E+02  0.13445086599E+02 -0.44445413574E+02  0.57656577265E+02  0.00000000000E+00 0. -1.
</event>
<event>
 8    1  0.7102339E-009  0.1157093E+03  0.7561462E-02  0.1250348E+00
          2   -1    0    0  501    0  0.00000000000E+00  0.00000000000E+00  0.16816920763E+03  0.16816920763E+03  0.00000000000E+00 0. -1.
         -2   -1    0    0    0  501 -0.00000000000E+00 -0.00000000000E+00 -0.87858859744E+02  0.87858859744E+02  0.00000000000E+00 0.  1.
         25    2    1    2    0    0 -0.14599496496E+02  0.41849029370E+02  0.62013953064E+02  0.14648334639E+03  0.12508858397E+03 0.  0.
         23    2    1    2    0    0  0.14599496496E+02 -0.41849029370E+02  0.18296394824E+02  0.10954472098E+03  0.98492645789E+02 0.  0.
          5    1    3    3  502    0  0.28651348172E+02  0.72444928745E+02  0.47709328142E+02  0.91448454578E+02  0.41800000000E+01 0. -1.
         -5    1    3    3    0  502 -0.43250844668E+02 -0.30595899375E+02  0.14304624922E+02  0.55034891816E+02  0.41800000000E+01 0. -1.
        -11    1    4    4    0    0  0.45667085689E+02  0.29259189852E+01 -0.11842645979E+02  0.47268297844E+02  0.00000000000E+00 0.  1.
         11    1    4    4    0    0 -0.31067589193E+02 -0.44774948355E+02  0.30139040803E+02  0.62276423139E+02  0.00000000000E+00 0. -1.
</event>
<event>
 8    1  0.7102339E-009  0.1195804E+03  0.7561462E-02  0.1243791E+00
          2   -1    0    0  501    0  0.00000000000E+00  0.00000000000E+00  0.31276452167E+03  0.31276452167E+03  0.00000000000E+00 0. -1.
         -2   -1    0    0    0  501 -0.00000000000E+00 -0.00000000000E+00 -0.73795307993E+02  0.73795307993E+02  0.00000000000E+00 0.  1.
         25    2    1    2    0    0 -0.57917277357E+02 -0.36307430668E+02  0.22696195495E+03  0.26801434229E+03  0.12508924072E+03 0.  0.
         23    2    1    2    0    0  0.57917277357E+02  0.36307430668E+02  0.12007258728E+02  0.11854548737E+03  0.96105243223E+02 0.  0.
          5    1    3    3  502    0 -0.40757839632E+01 -0.73132102891E+02  0.88915284854E+02  0.11527496159E+03  0.41800000000E+01 0. -1.
         -5    1    3    3    0  502 -0.53841493394E+02  0.36824672223E+02  0.13804667009E+03  0.15273938071E+03  0.41800000000E+01 0. -1.
        -11    1    4    4    0    0  0.46490350183E+02 -0.14229734101E+02  0.36925649713E+02  0.61051958195E+02  0.00000000000E+00 0.  1.
         11    1    4    4    0    0  0.11426927174E+02  0.50537164769E+02 -0.24918390985E+02  0.57493529173E+02  0.00000000000E+00 0. -1.
</event>
<event>
 8    1  0.7102339E-009  0.1659923E+03  0.7561462E-02  0.1182093E+00
         -1   -1    0    0    0  501 -0.00000000000E+00  0.00000000000E+00  0.22680691715E+02  0.22680691715E+02  0.00000000000E+00 0.  1.
          1   -1    0    0  501    0  0.00000000000E+00 -0.00000000000E+00 -0.13177907050E+04  0.13177907050E+04  0.00000000000E+00 0. -1.
         25    2    1    2    0    0  0.97306690201E+02  0.91026807034E+02 -0.72796895657E+03  0.75056056415E+03  0.12509151517E+03 0.  0.
         23    2    1    2    0    0 -0.97306690201E+02 -0.91026807034E+02 -0.56714105675E+03  0.58991083260E+03  0.92689484919E+02 0.  0.
          5    1    3    3  502    0  0.10737704936E+03  0.31123014483E+02 -0.34239563539E+03  0.36020926737E+03  0.41800000000E+01 0. -1.
         -5    1    3    3    0  502 -0.10070359159E+02  0.59903792551E+02 -0.38557332118E+03  0.39035129679E+03  0.41800000000E+01 0. -1.
        -11    1    4    4    0    0 -0.47534857004E+02  0.81765977048E+01 -0.22886275495E+03  0.23389010237E+03  0.00000000000E+00 0.  1.
         11    1    4    4    0    0 -0.49771833197E+02 -0.99203404739E+02 -0.33827830180E+03  0.35602073024E+03  0.00000000000E+00 0. -1.
</event>
<event>
 8    1  0.7102339E-009  0.9826322E+02  0.7561462E-02  0.1283991E+00
         -1   -1    0    0    0  501 -0.00000000000E+00  0.00000000000E+00  0.11755755207E+03  0.11755755207E+03  0.00000000000E+00 0.  1.
          1   -1    0    0  501    0  0.00000000000E+00 -0.00000000000E+00 -0.98861294935E+02  0.98861294935E+02  0.00000000000E+00 0. -1.
         25    2    1    2    0    0  0.50377144265E+01 -0.15436620551E+01  0.12733903345E+02  0.12584810588E+03  0.12509129466E+03 0.  0.
         23    2    1    2    0    0 -0.50377144265E+01  0.15436620551E+01  0.59623537861E+01  0.90570741123E+02  0.90220552125E+02 0.  0.
          5    1    3    3  502    0 -0.39369687754E+02  0.41052338393E+02 -0.13844650353E+02  0.58689126291E+02  0.41800000000E+01 0. -1.
         -5    1    3    3    0  502  0.44407402181E+02 -0.42596000448E+02  0.26578553698E+02  0.67158979588E+02  0.41800000000E+01 0. -1.
        -11    1    4    4    0    0  0.36352770788E+02  0.22367267847E+01 -0.20152863211E+02  0.41625290224E+02  0.00000000000E+00 0. -1.
         11    1    4    4    0    0 -0.41390485214E+02 -0.69306472962E+00  0.26115216997E+02  0.48945450900E+02  0.00000000000E+00 0.  1.
</event>
<event>
 8    1  0.7102339E-009  0.2040161E+03  0.7561462E-02  0.1146394E+00
         -4   -1    0    0    0  501 -0.00000000000E+00  0.00000000000E+00  0.13797117283E+04  0.13797117283E+04  0.00000000000E+00 0.  1.
          4   -1    0    0  501    0  0.00000000000E+00 -0.00000000000E+00 -0.33578524152E+02  0.33578524152E+02  0.00000000000E+00 0. -1.
         25    2    1    2    0    0 -0.17632342385E+03  0.39226848384E+02  0.64696010933E+03  0.68325209977E+03  0.12508938139E+03 0.  0.
         23    2    1    2    0    0  0.17632342385E+03 -0.39226848384E+02  0.69917309480E+03  0.73003815267E+03  0.10716339126E+03 0.  0.
          5    1    3    3  502    0 -0.13401150026E+03 -0.95824685519E+01  0.55334068809E+03  0.56943331076E+03  0.41800000000E+01 0.  1.
         -5    1    3    3    0  502 -0.42311923593E+02  0.48809316935E+02  0.93619421242E+02  0.11381878901E+03  0.41800000000E+01 0.  1.
        -11    1    4    4    0    0  0.84251065112E+02 -0.72329950318E+02  0.40946850655E+03  0.42425737653E+03  0.00000000000E+00 0.  1.
         11    1    4    4    0    0  0.92072358740E+02  0.33103101935E+02  0.28970458826E+03  0.30578077614E+03  0.00000000000E+00 0. -1.
</event>
<event>
 8    1  0.7102339E-009  0.2098240E+03  0.7561462E-02  0.1141705E+00
          1   -1    0    0  501    0  0.00000000000E+00  0.00000000000E+00  0.10879288224E+03  0.10879288224E+03  0.00000000000E+00 0. -1.
         -1   -1    0    0    0  501 -0.00000000000E+00 -0.00000000000E+00 -0.44203514962E+03  0.44203514962E+03  0.00000000000E+00 0.  1.
         25    2    1    2    0    0 -0.36388785643E+02  0.18541126642E+03 -0.20223284724E+03  0.30372219570E+03  0.12509023230E+03 0.  0.
         23    2    1    2    0    0  0.36388785643E+02 -0.18541126642E+03 -0.13100942014E+03  0.24710583617E+03  0.90533665930E+02 0.  0.
          5    1    3    3  502    0 -0.33974790650E+02 -0.30776744341E+01 -0.53419371213E+02  0.63520548647E+02  0.41800000000E+01 0.  1.
         -5    1    3    3    0  502 -0.24139949924E+01  0.18848894086E+03 -0.14881347603E+03  0.24020164705E+03  0.41800000000E+01 0.  1.
        -11    1    4    4    0    0 -0.79792333228E+01 -0.10146509215E+03 -0.10999352493E+03  0.14985796147E+03  0.00000000000E+00 0.  1.
         11    1    4    4    0    0  0.44368018965E+02 -0.83946174275E+02 -0.21015895210E+02  0.97247874701E+02  0.00000000000E+00 0. -1.
</event>
<event>
 8    1  0.7102339E-009  0.1668290E+03  0.7561462E-02  0.1181196E+00
          1   -1    0    0  501    0  0.00000000000E+00  0.00000000000E+00  0.11624617545E+04  0.11624617545E+04  0.00000000000E+00 0. -1.
         -1   -1    0    0    0  501 -0.00000000000E+00 -0.00000000000E+00 -0.26576474207E+02  0.26576474207E+02  0.00000000000E+00 0.  1.
         25    2    1    2    0    0  0.47402897080E+02  0.12634770904E+03  0.67198360049E+03  0.69672002832E+03  0.12508421282E+03 0.  0.
         23    2    1    2    0    0 -0.47402897080E+02 -0.12634770904E+03  0.46390167980E+03  0.49231820039E+03  0.94666064031E+02 0.  0.
          5    1    3    3  502    0  0.71513486105E+02  0.19575542371E+02  0.25571140589E+03  0.26627650301E+03  0.41800000000E+01 0.  1.
         -5    1    3    3    0  502 -0.24110589024E+02  0.10677216667E+03  0.41627219460E+03  0.43044352531E+03  0.41800000000E+01 0.  1.
        -11    1    4    4    0    0 -0.39352547378E+02 -0.21778339928E+02  0.59786886913E+02  0.74815713068E+02  0.00000000000E+00 0.  1.
         11    1    4    4    0    0 -0.80503497024E+01 -0.10456936912E+03  0.40411479289E+03  0.41750248732E+03  0.00000000000E+00 0. -1.
</event>
<event>
 8    1  0.7102339E-009  0.7030615E+02  0.7561462E-02  0.1359055E+00
         -1   -1    0    0    0  501 -0.00000000000E+00  0.00000000000E+00  0.82564906239E+02  0.82564906239E+02  0.00000000000E+00 0.  1.
          1   -1    0    0  501    0  0.00000000000E+00 -0.00000000000E+00 -0.16615162595E+03  0.16615162595E+03  0.00000000000E+00 0. -1.
         25    2    1    2    0    0 -0.38429357711E+02  0.22196510412E+02 -0.58828837155E+02  0.14518196834E+03  0.12508985268E+03 0.  0.
         23    2    1    2    0    0  0.38429357711E+02 -0.22196510412E+02 -0.24757882555E+02  0.10353456384E+03  0.90205058357E+02 0.  0.
          5    1    3    3  502    0 -0.93472959769E+01  0.22642936511E+02  0.37211816810E+02  0.44746689556E+02  0.41800000000E+01 0. -1.
         -5    1    3    3    0  502 -0.29082061734E+02 -0.44642609931E+00 -0.96040653965E+02  0.10043527879E+03  0.41800000000E+01 0. -1.
        -11    1    4    4    0    0 -0.17899248630E+02 -0.24096238058E+02  0.15967727991E+02  0.33999707752E+02  0.00000000000E+00 0.  1.
         11    1    4    4    0    0  0.56328606341E+02  0.18997276459E+01 -0.40725610545E+02  0.69534856092E+02  0.00000000000E+00 0. -1.
</event>
<event>
 8    1  0.7102339E-009  0.1079266E+03  0.7561462E-02  0.1264458E+00
         -2   -1    0    0    0  501 -0.00000000000E+00  0.00000000000E+00  0.16111329149E+02  0.16111329149E+02  0.00000000000E+00 0.  1.
          2   -1    0    0  501    0  0.00000000000E+00 -0.00000000000E+00 -0.96721056713E+03  0.96721056713E+03  0.00000000000E+00 0. -1.
         25    2    1    2    0    0 -0.53790693667E+02 -0.26112162584E+02 -0.58293673199E+03  0.59919567102E+03  0.12507971419E+03 0.  0.
         23    2    1    2    0    0  0.53790693667E+02  0.26112162584E+02 -0.36816250599E+03  0.38412622526E+03  0.91837042395E+02 0.  0.
          5    1    3    3  502    0 -0.62316271090E+02  0.37635650609E+02 -0.34943878831E+03  0.35696596338E+03  0.41800000000E+01 0. -1.
         -5    1    3    3    0  502  0.85255774228E+01 -0.63747813193E+02 -0.23349794368E+03  0.24222970763E+03  0.41800000000E+01 0. -1.
        -11    1    4    4    0    0  0.57429166184E+02  0.36113475486E+02 -0.36722910941E+03  0.37344278148E+03  0.00000000000E+00 0. -1.
         11    1    4    4    0    0 -0.36384725172E+01 -0.10001312902E+02 -0.93339658783E+00  0.10683443790E+02  0.00000000000E+00 0.  1.
</event>
<event>
 8    1  0.7102339E-009  0.1288153E+03  0.7561462E-02  0.1229224E+00
         -2   -1    0    0    0  501 -0.00000000000E+00  0.00000000000E+00  0.55459706917E+02  0.55459706917E+02  0.00000000000E+00 0.  1.
          2   -1    0    0  501    0  0.00000000000E+00 -0.00000000000E+00 -0.54464058419E+03  0.54464058419E+03  0.00000000000E+00 0. -1.
         25    2    1    2    0    0 -0.29755774560E+02 -0.80239882788E+02 -0.79579253584E+02  0.17118450260E+03  0.12508969350E+03 0.  0.
         23    2    1    2    0    0  0.29755774560E+02  0.80239882788E+02 -0.40960162368E+03  0.42891578850E+03  0.94188208352E+02 0.  0.
          5    1    3    3  502    0  0.40139218887E+02 -0.28844638860E+02  0.51168123449E+01  0.49868068465E+02  0.41800000000E+01 0. -1.
         -5    1    3    3    0  502 -0.69894993447E+02 -0.51395243928E+02 -0.84696065929E+02  0.12131643414E+03  0.41800000000E+01 0. -1.
        -11    1    4    4    0    0 -0.69255312243E+01  0.84008716765E+02 -0.21661955991E+03  0.23244238256E+03  0.00000000000E+00 0.  1.
         11    1    4    4    0    0  0.36681305785E+02 -0.37688339773E+01 -0.19298206377E+03  0.19647340594E+03  0.00000000000E+00 0. -1.
</event>
<event>
 8    1  0.7102339E-009  0.7373314E+02  0.7561462E-02  0.1347840E+00
         -3   -1    0    0    0  501 -0.00000000000E+00  0.00000000000E+00  0.13237333009E+03  0.13237333009E+03  0.00000000000E+00 0.  1.
          3   -1    0    0  501    0  0.00000000000E+00 -0.00000000000E+00 -0.14037076957E+03  0.14037076957E+03  0.00000000000E+00 0. -1.
         25    2    1    2    0    0  0.10687363852E+02  0.39133754421E+02 -0.72940305207E+02  0.15037802505E+03  0.12509033462E+03 0.  0.
         23    2    1    2    0    0 -0.10687363852E+02 -0.39133754421E+02  0.64942865729E+02  0.12236607461E+03  0.95447419690E+02 0.  0.
          5    1    3    3  502    0 -0.12843962409E+02 -0.28359719890E+01 -0.95909071604E+02  0.96897020199E+02  0.41800000000E+01 0.  1.
         -5    1    3    3    0  502  0.23531326260E+02  0.41969726410E+02  0.22968766397E+02  0.53481004855E+02  0.41800000000E+01 0.  1.
        -11    1    4    4    0    0  0.21920845912E+02  0.11795837972E+02 -0.93328270712E+01  0.26585088679E+02  0.00000000000E+00 0. -1.
         11    1    4    4    0    0 -0.32608209763E+02 -0.50929592393E+02  0.74275692800E+02  0.95780985932E+02  0.00000000000E+00 0.  1.
</event>
<event>
 8    1  0.7102339E-009  0.2040679E+03  0.7561462E-02  0.1146352E+00
         -2   -1    0    0    0  501 -0.00000000000E+00  0.00000000000E+00  0.11569969718E+03  0.11569969718E+03  0.00000000000E+00 0. -1.
          2   -1    0    0  501    0  0.00000000000E+00 -0.00000000000E+00 -0.40096831687E+03  0.40096831687E+03  0.00000000000E+00 0.  1.
         25    2    1    2    0    0  0.12212576888E+03  0.13986786567E+03 -0.13871528071E+03  0.26337843681E+03  0.12509415894E+03 0.  0.
         23    2    1    2    0    0 -0.12212576888E+03 -0.13986786567E+03 -0.14655333899E+03  0.25328957724E+03  0.90553881746E+02 0.  0.
          5    1    3    3  502    0  0.18239907137E+02 -0.16298828053E+02 -0.50064398620E+02  0.55877208389E+02  0.41800000000E+01 0.  1.
         -5    1    3    3    0  502  0.10388586174E+03  0.15616669373E+03 -0.88650882090E+02  0.20750122842E+03  0.41800000000E+01 0.  1.
        -11    1    4    4    0    0 -0.33969855120E+02 -0.46413689920E+01 -0.62516824077E+02  0.71301098559E+02  0.00000000000E+00 0.  1.
         11    1    4    4    0    0 -0.88155913761E+02 -0.13522649668E+03 -0.84036514909E+02  0.18198847868E+03  0.00000000000E+00 0. -1.
</event>
<event>
 8    1  0.7102339E-009  0.2005523E+03  0.7561462E-02  0.1149274E+00
         -1   -1    0    0    0  501 -0.00000000000E+00  0.00000000000E+00  0.14303778408E+03  0.14303778408E+03  0.00000000000E+00 0.  1.
          1   -1    0    0  501    0  0.00000000000E+00 -0.00000000000E+00 -0.30952232251E+03  0.30952232251E+03  0.00000000000E+00 0. -1.
         25    2    1    2    0    0  0.78065528283E+02  0.15543096937E+03 -0.37529374833E+02  0.21750432553E+03  0.12508662879E+03 0.  0.
         23    2    1    2    0    0 -0.78065528283E+02 -0.15543096937E+03 -0.12895516359E+03  0.23505578106E+03  0.91480998293E+02 0.  0.
          5    1    3    3  502    0  0.86845010979E+02  0.41356847607E+02  0.22383772262E+01  0.96306425064E+02  0.41800000000E+01 0. -1.
         -5    1    3    3    0  502 -0.87794826961E+01  0.11407412177E+03 -0.39767752059E+02  0.12119790046E+03  0.41800000000E+01 0. -1.
        -11    1    4    4    0    0 -0.55188271755E+02 -0.29958314446E+02 -0.16277768286E+02  0.64870730565E+02  0.00000000000E+00 0.  1.
         11    1    4    4    0    0 -0.22877256528E+02 -0.12547265493E+03 -0.11267739530E+03  0.17018505050E+03  0.00000000000E+00 0. -1.
</event>
<event>
 8    1  0.7102339E-009  0.9662836E+02  0.7561462E-02  0.1287550E+00
          2   -1    0    0  501    0  0.00000000000E+00  0.00000000000E+00  0.11102249096E+03  0.11102249096E+03  0.00000000000E+00 0. -1.
         -2   -1    0    0    0  501 -0.00000000000E+00 -0.00000000000E+00 -0.17102982827E+03  0.17102982827E+03  0.00000000000E+00 0.  1.
         25    2    1    2    0    0 -0.47462363003E+00  0.63527431525E+02 -0.95613156467E+02  0.16978268769E+03  0.12509326731E+03 0.  0.
         23    2    1    2    0    0  0.47462363003E+00 -0.63527431525E+02  0.35605819160E+02  0.11226963154E+03  0.85444344360E+02 0.  0.
          5    1    3    3  502    0 -0.26597294094E+01 -0.25931787575E+02  0.12639036170E+02  0.29270281903E+02  0.41800000000E+01 0. -1.
         -5    1    3    3    0  502  0.21851057793E+01  0.89459219101E+02 -0.10825219264E+03  0.14051240579E+03  0.41800000000E+01 0. -1.
        -11    1    4    4    0    0 -0.21534310651E+02 -0.25920713572E+02 -0.21847921189E+02  0.40161444042E+02  0.00000000000E+00 0.  1.
         11    1    4    4    0    0  0.22008934281E+02 -0.37606717954E+02  0.57453740349E+02  0.72108187493E+02  0.00000000000E+00 0. -1.
</event>
<event>
 8    1  0.7102339E-009  0.8369764E+02  0.7561462E-02  0.1318874E+00
          2   -1    0    0  501    0  0.00000000000E+00  0.00000000000E+00  0.44385660608E+03  0.44385660608E+03  0.00000000000E+00 0. -1.
         -2   -1    0    0    0  501 -0.00000000000E+00 -0.00000000000E+00 -0.30235173011E+02  0.30235173011E+02  0.00000000000E+00 0.  1.
         25    2    1    2    0    0  0.24335533328E+01 -0.26843093957E+02  0.29489663429E+03  0.32146296953E+03  0.12509173428E+03 0.  0.
         23    2    1    2    0    0 -0.24335533328E+01  0.26843093957E+02  0.11872479878E+03  0.15262880957E+03  0.92051625679E+02 0.  0.
          5    1    3    3  502    0  0.24727965113E+02 -0.64328647583E+02  0.24735701145E+03  0.25681240365E+03  0.41800000000E+01 0. -1.
         -5    1    3    3    0  502 -0.22294411780E+02  0.37485553626E+02  0.47539622845E+02  0.64650565872E+02  0.41800000000E+01 0. -1.
        -11    1    4    4    0    0 -0.23673589098E+02  0.52511587115E+01 -0.54161325916E+01  0.24846488300E+02  0.00000000000E+00 0.  1.
         11    1    4    4    0    0  0.21240035765E+02  0.21591935246E+02  0.12414093137E+03  0.12778232127E+03  0.00000000000E+00 0. -1.
</event>
<event>
 8    1  0.7102339E-009  0.2689634E+03  0.7561462E-02  0.1101874E+00
          1   -1    0    0  501    0  0.00000000000E+00  0.00000000000E+00  0.37315771762E+03  0.37315771762E+03  0.00000000000E+00 0. -1.
         -1   -1    0    0    0  501 -0.00000000000E+00 -0.00000000000E+00 -0.20169913688E+03  0.20169913688E+03  0.00000000000E+00 0.  1.
         25    2    1    2    0    0 -0.11262197722E+03  0.22213510101E+03  0.12530882922E+03  0.30557712972E+03  0.12508943469E+03 0.  0.
         23    2    1    2    0    0  0.11262197722E+03 -0.22213510101E+03  0.46149751511E+02  0.26927972479E+03  0.91400534798E+02 0.  0.
          5    1    3    3  502    0 -0.99401790082E+02  0.23620596843E+03  0.12643170482E+03  0.28579087420E+03  0.41800000000E+01 0. -1.
         -5    1    3    3    0  502 -0.13220187134E+02 -0.14070867418E+02 -0.11228755921E+01  0.19786255516E+02  0.41800000000E+01 0. -1.
        -11    1    4    4    0    0  0.88858510338E+02 -0.85947026217E+02  0.28256262603E+00  0.12362364667E+03  0.00000000000E+00 0.  1.
         11    1    4    4    0    0  0.23763466879E+02 -0.13618807480E+03  0.45867188885E+02  0.14565607811E+03  0.00000000000E+00 0. -1.
</event>
<event>
 8    1  0.7102339E-009  0.1455720E+03  0.7561462E-02  0.1206022E+00
         -1   -1    0    0    0  501 -0.00000000000E+00  0.00000000000E+00  0.44941040852E+02  0.44941040852E+02  0.00000000000E+00 0.  1.
          1   -1    0    0  501    0  0.00000000000E+00 -0.00000000000E+00 -0.58872544398E+03  0.58872544398E+03  0.00000000000E+00 0. -1.
         25    2    1    2    0    0 -0.97326174035E+02  0.66946373734E+02 -0.33545074051E+03  0.37699933757E+03  0.12508836921E+03 0.  0.
         23    2    1    2    0    0  0.97326174035E+02 -0.66946373734E+02 -0.20833366262E+03  0.25666714727E+03  0.92308766622E+02 0.  0.
          5    1    3    3  502    0 -0.88825155292E+02  0.87741542023E+02 -0.33090474156E+03  0.35370030647E+03  0.41800000000E+01 0.  1.
         -5    1    3    3    0  502 -0.85010187430E+01 -0.20795168289E+02 -0.45459989484E+01  0.23299031102E+02  0.41800000000E+01 0.  1.
        -11    1    4    4    0    0  0.96943221260E+02 -0.82812286435E+02 -0.20338237980E+03  0.24004219493E+03  0.00000000000E+00 0.  1.
         11    1    4    4    0    0  0.38295277528E+00  0.15865912701E+02 -0.49512828249E+01  0.16624952339E+02  0.00000000000E+00 0. -1.
</event>
<event>
 8    1  0.7102339E-009  0.1637539E+03  0.7561462E-02  0.1184523E+00
         -2   -1    0    0    0  501 -0.00000000000E+00  0.00000000000E+00  0.47977125448E+02  0.47977125448E+02  0.00000000000E+00 0.  1.
          2   -1    0    0  501    0  0.00000000000E+00 -0.00000000000E+00 -0.59499665291E+03  0.59499665291E+03  0.00000000000E+00 0. -1.
         25    2    1    2    0    0 -0.12745346915E+03  0.15399858281E+01 -0.33021103685E+03  0.37540716787E+03  0.12507779368E+03 0.  0.
         23    2    1    2    0    0  0.12745346915E+03 -0.15399858281E+01 -0.21680849061E+03  0.26756661049E+03  0.91319281066E+02 0.  0.
          5    1    3    3  502    0  0.22902772176E+02 -0.14092689944E+02 -0.45151796084E+02  0.52719047533E+02  0.41800000000E+01 0.  1.
         -5    1    3    3    0  502 -0.15035624133E+03  0.15632675772E+02 -0.28505924077E+03  0.32268812033E+03  0.41800000000E+01 0.  1.
        -11    1    4    4    0    0  0.89506475830E+02  0.35267143784E+02 -0.97018453736E+02  0.13663001505E+03  0.00000000000E+00 0.  1.
         11    1    4    4    0    0  0.37946993320E+02 -0.36807129612E+02 -0.11979003688E+03  0.13093659545E+03  0.00000000000E+00 0. -1.
</event>
<event>
 8    1  0.7102339E-009  0.1071779E+03  0.7561462E-02  0.1265887E+00
         -2   -1    0    0    0  501 -0.00000000000E+00  0.00000000000E+00  0.31882927748E+02  0.31882927748E+02  0.00000000000E+00 0.  1.
          2   -1    0    0  501    0  0.00000000000E+00 -0.00000000000E+00 -0.49875403311E+03  0.49875403311E+03  0.00000000000E+00 0. -1.
         25    2    1    2    0    0  0.41320717758E+01  0.71980234520E+02 -0.31261030352E+03  0.34434094002E+03  0.12508898004E+03 0.  0.
         23    2    1    2    0    0 -0.41320717758E+01 -0.71980234520E+02 -0.15426080185E+03  0.18629602084E+03  0.75575023760E+02 0.  0.
          5    1    3    3  502    0  0.49354286705E+02 -0.70243663224E+01 -0.78111817974E+02  0.92758373453E+02  0.41800000000E+01 0.  1.
         -5    1    3    3    0  502 -0.45222214930E+02  0.79004600842E+02 -0.23449848555E+03  0.25158256657E+03  0.41800000000E+01 0.  1.
        -11    1    4    4    0    0 -0.84159351743E+01 -0.36179494690E+02 -0.11252505283E+02  0.38812403636E+02  0.00000000000E+00 0.  1.
         11    1    4    4    0    0  0.42838633984E+01 -0.35800739830E+02 -0.14300829656E+03  0.14748361720E+03  0.00000000000E+00 0. -1.
</event>
<event>
 8    1  0.7102339E-009  0.1629554E+03  0.7561462E-02  0.1185400E+00
          1   -1    0    0  501    0  0.00000000000E+00  0.00000000000E+00  0.30582879462E+03  0.30582879462E+03  0.00000000000E+00 0. -1.
         -1   -1    0    0    0  501 -0.00000000000E+00 -0.00000000000E+00 -0.99794632286E+02  0.99794632286E+02  0.00000000000E+00 0.  1.
         25    2    1    2    0    0  0.34681375309E+02 -0.13199497597E+03  0.11287251430E+03  0.21682573243E+03  0.12509085612E+03 0.  0.
         23    2    1    2    0    0 -0.34681375309E+02  0.13199497597E+03  0.93161648033E+02  0.18879769447E+03  0.91323629475E+02 0.  0.
          5    1    3    3  502    0  0.65513747344E+02 -0.93189168448E+02  0.26304516146E+02  0.11698577767E+03  0.41800000000E+01 0.  1.
         -5    1    3    3    0  502 -0.30832372035E+02 -0.38805807520E+02  0.86567998151E+02  0.99839954760E+02  0.41800000000E+01 0.  1.
        -11    1    4    4    0    0 -0.56905298133E+01  0.13304966928E+03  0.87202656011E+02  0.15918197084E+03  0.00000000000E+00 0. -1.
         11    1    4    4    0    0 -0.28990845495E+02 -0.10546933114E+01  0.59589920224E+01  0.29615723635E+02  0.00000000000E+00 0.  1.
</event>
<event>
 8    1  0.7102339E-009  0.1468799E+03  0.7561462E-02  0.1204360E+00
         -1   -1    0    0    0  501 -0.00000000000E+00  0.00000000000E+00  0.45045226331E+02  0.45045226331E+02  0.00000000000E+00 0.  1.
          1   -1    0    0  501    0  0.00000000000E+00 -0.00000000000E+00 -0.80689510064E+03  0.80689510064E+03  0.00000000000E+00 0. -1.
         25    2    1    2    0    0  0.10066180827E+03 -0.60416477193E+02 -0.61743675914E+03  0.64082585357E+03  0.12508666077E+03 0.  0.
         23    2    1    2    0    0 -0.10066180827E+03  0.60416477193E+02 -0.14441311516E+03  0.21111447340E+03  0.99655520093E+02 0.  0.
          5    1    3    3  502    0  0.22005723069E+02  0.26994655379E+02 -0.48538163539E+02  0.59886467474E+02  0.41800000000E+01 0.  1.
         -5    1    3    3    0  502  0.78656085206E+02 -0.87411132572E+02 -0.56889859560E+03  0.58093938609E+03  0.41800000000E+01 0.  1.
        -11    1    4    4    0    0 -0.61815865670E+02  0.77031491765E+02 -0.13592567641E+03  0.16802036031E+03  0.00000000000E+00 0. -1.
         11    1    4    4    0    0 -0.38845942604E+02 -0.16615014571E+02 -0.84874387543E+01  0.43094113085E+02  0.00000000000E+00 0.  1.
</event>
<event>
 8    1  0.7102339E-009  0.1163528E+03  0.7561462E-02  0.1249238E+00
          1   -1    0    0  501    0  0.00000000000E+00  0.00000000000E+00  0.19832524134E+03  0.19832524134E+03  0.00000000000E+00 0. -1.
         -1   -1    0    0    0  501 -0.00000000000E+00 -0.00000000000E+00 -0.81666852776E+02  0.81666852776E+02  0.00000000000E+00 0.  1.
         25    2    1    2    0    0  0.32961590037E+02  0.32809312620E+02  0.11688193009E+03  0.17738042323E+03  0.12505803274E+03 0.  0.
         23    2    1    2    0    0 -0.32961590037E+02 -0.32809312620E+02 -0.22354152504E+00  0.10261167088E+03  0.91466866231E+02 0.  0.
          5    1    3    3  502    0  0.67150755968E+00 -0.46815162355E+02  0.34878125688E+02  0.58532609717E+02  0.41800000000E+01 0. -1.
         -5    1    3    3    0  502  0.32290082478E+02  0.79624474975E+02  0.82003804399E+02  0.11884781352E+03  0.41800000000E+01 0. -1.
        -11    1    4    4    0    0  0.16934779296E+02 -0.45195805690E+02 -0.12288432050E+02  0.49804148061E+02  0.00000000000E+00 0.  1.
         11    1    4    4    0    0 -0.49896369333E+02  0.12386493070E+02  0.12064890525E+02  0.52807522822E+02  0.00000000000E+00 0. -1.
</event>
<event>
 8    1  0.7102339E-009  0.1752657E+03  0.7561462E-02  0.1172465E+00
          1   -1    0    0  501    0  0.00000000000E+00  0.00000000000E+00  0.52752244127E+02  0.52752244127E+02  0.00000000000E+00 0. -1.
         -1   -1    0    0    0  501 -0.00000000000E+00 -0.00000000000E+00 -0.66397926794E+03  0.66397926794E+03  0.00000000000E+00 0.  1.
         25    2    1    2    0    0  0.90864072413E+02 -0.12185895807E+03 -0.32989010961E+03  0.38416278830E+03  0.12509067983E+03 0.  0.
         23    2    1    2    0    0 -0.90864072413E+02  0.12185895807E+03 -0.28133691420E+03  0.33256872377E+03  0.91354318002E+02 0.  0.
          5    1    3    3  502    0 -0.75323191883E+01  0.71748580820E+01  0.47929831521E+01  0.12192600557E+02  0.41800000000E+01 0. -1.
         -5    1    3    3    0  502  0.98396391602E+02 -0.12903381615E+03 -0.33468309276E+03  0.37197018774E+03  0.41800000000E+01 0. -1.
        -11    1    4    4    0    0 -0.10862262536E+03  0.11434431929E+03 -0.25677383818E+03  0.30134084035E+03  0.00000000000E+00 0.  1.
         11    1    4    4    0    0  0.17758552942E+02  0.75146387753E+01 -0.24563076029E+02  0.31227883415E+02  0.00000000000E+00 0. -1.
</event>
<event>
 8    1  0.7102339E-009  0.1157786E+03  0.7561462E-02  0.1250228E+00
          1   -1    0    0  501    0  0.00000000000E+00  0.00000000000E+00  0.54340244781E+03  0.54340244781E+03  0.00000000000E+00 0. -1.
         -1   -1    0    0    0  501 -0.00000000000E+00 -0.00000000000E+00 -0.34532929556E+02  0.34532929556E+02  0.00000000000E+00 0.  1.
         25    2    1    2    0    0 -0.77819601702E+02 -0.25030767512E+02  0.31783738804E+03  0.35121291088E+03  0.12508986290E+03 0.  0.
         23    2    1    2    0    0  0.77819601702E+02  0.25030767512E+02  0.19103213021E+03  0.22672246648E+03  0.90704863734E+02 0.  0.
          5    1    3    3  502    0 -0.84651054740E+02 -0.50855213326E+02  0.14025370870E+03  0.17158271765E+03  0.41800000000E+01 0. -1.
         -5    1    3    3    0  502  0.68314530376E+01  0.25824445814E+02  0.17758367934E+03  0.17963019323E+03  0.41800000000E+01 0. -1.
        -11    1    4    4    0    0  0.16995340643E+02  0.39635314299E+02  0.26296753183E+02  0.50510582764E+02  0.00000000000E+00 0.  1.
         11    1    4    4    0    0  0.60824261059E+02 -0.14604546787E+02  0.16473537703E+03  0.17621188372E+03  0.00000000000E+00 0. -1.
</event>
<event>
 8    1  0.7102339E-009  0.1006185E+03  0.7561462E-02  0.1279001E+00
         -1   -1    0    0    0  501 -0.00000000000E+00  0.00000000000E+00  0.49369458218E+02  0.49369458218E+02  0.00000000000E+00 0.  1.
          1   -1    0    0  501    0  0.00000000000E+00 -0.00000000000E+00 -0.28025192251E+03  0.28025192251E+03  0.00000000000E+00 0. -1.
         25    2    1    2    0    0 -0.34365949206E+02 -0.18136680515E+02 -0.12150611483E+03  0.17866392427E+03  0.12508838575E+03 0.  0.
         23    2    1    2    0    0  0.34365949206E+02  0.18136680515E+02 -0.10937634946E+03  0.15095745646E+03  0.96514300469E+02 0.  0.
          5    1    3    3  502    0 -0.40511177433E+01 -0.56010012049E+02 -0.10273819560E+02  0.57241215685E+02  0.41800000000E+01 0. -1.
         -5    1    3    3    0  502 -0.30314831462E+02  0.37873331535E+02 -0.11123229527E+03  0.12142270858E+03  0.41800000000E+01 0. -1.
        -11    1    4    4    0    0  0.14864241857E+02  0.53675660237E+02 -0.33673599290E+02  0.65084049329E+02  0.00000000000E+00 0.  1.
         11    1    4    4    0    0  0.19501707349E+02 -0.35538979722E+02 -0.75702750171E+02  0.85873407133E+02  0.00000000000E+00 0. -1.
</event>
<event>
 8    1  0.7102339E-009  0.1421010E+03  0.7561462E-02  0.1210530E+00
         -2   -1    0    0    0  501 -0.00000000000E+00  0.00000000000E+00  0.20172712161E+02  0.20172712161E+02  0.00000000000E+00 0.  1.
          2   -1    0    0  501    0  0.00000000000E+00 -0.00000000000E+00 -0.11103264050E+04  0.11103264050E+04  0.00000000000E+00 0. -1.
         25    2    1    2    0    0 -0.58102881366E+02  0.78927852292E+02 -0.44682909595E+03  0.47424553792E+03  0.12508812318E+03 0.  0.
         23    2    1    2    0    0  0.58102881366E+02 -0.78927852292E+02 -0.64332459689E+03  0.65625357924E+03  0.84833204653E+02 0.  0.
          5    1    3    3  502    0 -0.84745402748E+02  0.15794684389E+02 -0.19538463213E+03  0.21359747708E+03  0.41800000000E+01 0.  1.
         -5    1    3    3    0  502  0.26642521382E+02  0.63133167903E+02 -0.25144446383E+03  0.26064806085E+03  0.41800000000E+01 0.  1.
        -11    1    4    4    0    0 -0.11527297435E+02  0.10713068273E+02 -0.63281636547E+02  0.65209002002E+02  0.00000000000E+00 0.  1.
         11    1    4    4    0    0  0.69630178801E+02 -0.89640920566E+02 -0.58004296034E+03  0.59104457724E+03  0.00000000000E+00 0. -1.
</event>
<event>
 8    1  0.7102339E-009  0.1339162E+03  0.7561462E-02  0.1221758E+00
          2   -1    0    0  501    0  0.00000000000E+00  0.00000000000E+00  0.10791270692E+04  0.10791270692E+04  0.00000000000E+00 0. -1.
         -2   -1    0    0    0  501 -0.00000000000E+00 -0.00000000000E+00 -0.22158909329E+02  0.22158909329E+02  0.00000000000E+00 0.  1.
         25    2    1    2    0    0  0.10915549590E+03 -0.12984057396E+02  0.45932917204E+03  0.48858435616E+03  0.12509147361E+03 0.  0.
         23    2    1    2    0    0 -0.10915549590E+03  0.12984057396E+02  0.59763898785E+03  0.61270162238E+03  0.78405422261E+02 0.  0.
          5    1    3    3  502    0  0.75280245367E+02 -0.61649307149E+02  0.35892747716E+03  0.37190611541E+03  0.41800000000E+01 0.  1.
         -5    1    3    3    0  502  0.33875250535E+02  0.48665249753E+02  0.10040169488E+03  0.11667824076E+03  0.41800000000E+01 0.  1.
        -11    1    4    4    0    0 -0.96855000012E+02  0.16397607705E+02  0.58935107252E+03  0.59748176478E+03  0.00000000000E+00 0. -1.
         11    1    4    4    0    0 -0.12300495890E+02 -0.34135503094E+01  0.82879153269E+01  0.15219857598E+02  0.00000000000E+00 0.  1.
</event>
<event>
 8    1  0.7102339E-009  0.3189197E+03  0.7561462E-02  0.1076148E+00
          1   -1    0    0  501    0  0.00000000000E+00  0.00000000000E+00  0.19259218546E+03  0.19259218546E+03  0.00000000000E+00 0. -1.
         -1   -1    0    0    0  501 -0.00000000000E+00 -0.00000000000E+00 -0.60399615054E+03  0.60399615054E+03  0.00000000000E+00 0.  1.
         25    2    1    2    0    0  0.17896075800E+03 -0.26272632338E+03 -0.27359158865E+03  0.43766528306E+03  0.12508584538E+03 0.  0.
         23    2    1    2    0    0 -0.17896075800E+03  0.26272632338E+03 -0.13781237644E+03  0.35892305294E+03  0.93709300135E+02 0.  0.
          5    1    3    3  502    0  0.76148899837E+02 -0.96716371958E+02 -0.18723279173E+03  0.22411225368E+03  0.41800000000E+01 0.  1.
         -5    1    3    3    0  502  0.10281185816E+03 -0.16600995142E+03 -0.86358796916E+02  0.21355302937E+03  0.41800000000E+01 0.  1.
        -11    1    4    4    0    0 -0.94238421225E+02  0.11124625758E+03 -0.15555101256E+02  0.14662391017E+03  0.00000000000E+00 0.  1.
         11    1    4    4    0    0 -0.84722336775E+02  0.15148006580E+03 -0.12225727518E+03  0.21229914277E+03  0.00000000000E+00 0. -1.
</event>
<event>
 8    1  0.7102339E-009  0.1082577E+03  0.7561462E-02  0.1263831E+00
          2   -1    0    0  501    0  0.00000000000E+00  0.00000000000E+00  0.40203936645E+03  0.40203936645E+03  0.00000000000E+00 0. -1.
         -2   -1    0    0    0  501 -0.00000000000E+00 -0.00000000000E+00 -0.37629541606E+02  0.37629541606E+02  0.00000000000E+00 0.  1.
         25    2    1    2    0    0 -0.57018037850E+02 -0.57239063414E+01  0.22467482132E+03  0.26345321413E+03  0.12507997823E+03 0.  0.
         23    2    1    2    0    0  0.57018037850E+02  0.57239063414E+01  0.13973500352E+03  0.17621569393E+03  0.90787002560E+02 0.  0.
          5    1    3    3  502    0 -0.78009725883E+02  0.20946507216E+02  0.76308391463E+02  0.11119674683E+03  0.41800000000E+01 0.  1.
         -5    1    3    3    0  502  0.20991688033E+02 -0.26670413557E+02  0.14836642986E+03  0.15225646730E+03  0.41800000000E+01 0.  1.
        -11    1    4    4    0    0  0.13214786236E+02 -0.37583926219E+02  0.28228435909E+02  0.48826495667E+02  0.00000000000E+00 0. -1.
         11    1    4    4    0    0  0.43803251614E+02  0.43307832560E+02  0.11150656762E+03  0.12738919826E+03  0.00000000000E+00 0.  1.
</event>
<event>
 8    1  0.7102339E-009  0.9995904E+02  0.7561462E-02  0.1280382E+00
          1   -1    0    0  501    0  0.00000000000E+00  0.00000000000E+00  0.83323848246E+02  0.83323848246E+02  0.00000000000E+00 0. -1.
         -1   -1    0    0    0  501 -0.00000000000E+00 -0.00000000000E+00 -0.15113621152E+03  0.15113621152E+03  0.00000000000E+00 0.  1.
         25    2    1    2    0    0  0.16230097202E+02 -0.23164489832E+02 -0.26551304978E+02  0.13096669423E+03  0.12508914244E+03 0.  0.
         23    2    1    2    0    0 -0.16230097202E+02  0.23164489832E+02 -0.41261058300E+02  0.10349336554E+03  0.90600177347E+02 0.  0.
          5    1    3    3  502    0 -0.54616484071E+02 -0.14955097868E+02 -0.10526900920E+02  0.57748621867E+02  0.41800000000E+01 0.  1.
         -5    1    3    3    0  502  0.70846581273E+02 -0.82093919642E+01 -0.16024404058E+02  0.73218072359E+02  0.41800000000E+01 0.  1.
        -11    1    4    4    0    0  0.24750844376E+02  0.17524548713E+02 -0.52497218168E+02  0.60627320741E+02  0.00000000000E+00 0.  1.
         11    1    4    4    0    0 -0.40980941578E+02  0.56399411190E+01  0.11236159868E+02  0.42866044803E+02  0.00000000000E+00 0. -1.
</event>
<event>
 8    1  0.7102339E-009  0.9766820E+02  0.7561462E-02  0.1285277E+00
         -2   -1    0    0    0  501 -0.00000000000E+00  0.00000000000E+00  0.38536979225E+02  0.38536979225E+02  0.00000000000E+00 0. -1.
          2   -1    0    0  501    0  0.00000000000E+00 -0.00000000000E+00 -0.36069823532E+03  0.36069823532E+03  0.00000000000E+00 0.  1.
         25    2    1    2    0    0 -0.67530081783E+01  0.24918591429E+02 -0.12373074062E+03  0.17782875144E+03  0.12508888577E+03 0.  0.
         23    2    1    2    0    0  0.67530081783E+01 -0.24918591429E+02 -0.19843051547E+03  0.22140646311E+03  0.94760820586E+02 0.  0.
          5    1    3    3  502    0 -0.48229184778E+02 -0.27107079377E+02 -0.30799287699E+02  0.63457990352E+02  0.41800000000E+01 0.  1.
         -5    1    3    3    0  502  0.41476176600E+02  0.52025670807E+02 -0.92931452924E+02  0.11437076108E+03  0.41800000000E+01 0.  1.
        -11    1    4    4    0    0 -0.20898957178E+02 -0.37404602477E+02 -0.18185338110E+03  0.18683287429E+03  0.00000000000E+00 0.  1.
         11    1    4    4    0    0  0.27651965356E+02  0.12486011047E+02 -0.16577134370E+02  0.34573588820E+02  0.00000000000E+00 0. -1.
</event>
<event>
 8    1  0.7102339E-009  0.1114429E+03  0.7561462E-02  0.1257921E+00
          1   -1    0    0  501    0  0.00000000000E+00  0.00000000000E+00  0.75847468264E+03  0.75847468264E+03  0.00000000000E+00 0. -1.
         -1   -1    0    0    0  501 -0.00000000000E+00 -0.00000000000E+00 -0.21982352445E+02  0.21982352445E+02  0.00000000000E+00 0.  1.
         25    2    1    2    0    0 -0.57663915720E+01 -0.68235969900E+02  0.45597320379E+03  0.47775399280E+03  0.12509163120E+03 0.  0.
         23    2    1    2    0    0  0.57663915720E+01  0.68235969900E+02  0.28051912641E+03  0.30270304229E+03  0.90822644056E+02 0.  0.
          5    1    3    3  502    0  0.26737737993E+01 -0.89687080463E+02  0.44076097266E+03  0.44982066303E+03  0.41800000000E+01 0.  1.
         -5    1    3    3    0  502 -0.84401653714E+01  0.21451110563E+02  0.15212231135E+02  0.27933329769E+02  0.41800000000E+01 0.  1.
        -11    1    4    4    0    0  0.42332638826E+02  0.57730969402E+02  0.21866087907E+03  0.23008150115E+03  0.00000000000E+00 0. -1.
         11    1    4    4    0    0 -0.36566247253E+02  0.10505000498E+02  0.61858247338E+02  0.72621541139E+02  0.00000000000E+00 0.  1.
</event>
<event>
 8    1  0.7102339E-009  0.5504346E+02  0.7561462E-02  0.1419893E+00
          4   -1    0    0  501    0  0.00000000000E+00  0.00000000000E+00  0.26069499063E+03  0.26069499063E+03  0.00000000000E+00 0.  1.
         -4   -1    0    0    0  501 -0.00000000000E+00 -0.00000000000E+00 -0.45938750342E+02  0.45938750342E+02  0.00000000000E+00 0. -1.
         25    2    1    2    0    0  0.64348472577E+01  0.14695640629E+02  0.12828246448E+03  0.17988785036E+03  0.12508348773E+03 0.  0.
         23    2    1    2    0    0 -0.64348472577E+01 -0.14695640629E+02  0.86473775814E+02  0.12674589061E+03  0.91265753549E+02 0.  0.
          5    1    3    3  502    0  0.14195855243E+02  0.14140737371E+02 -0.21592897969E+02  0.29752452036E+02  0.41800000000E+01 0. -1.
         -5    1    3    3    0  502 -0.77610079849E+01  0.55490325848E+00  0.14987536244E+03  0.15013539833E+03  0.41800000000E+01 0. -1.
        -11    1    4    4    0    0 -0.31521210286E+02  0.20473466008E+02  0.99674571050E+01  0.38885726294E+02  0.00000000000E+00 0. -1.
         11    1    4    4    0    0  0.25086363028E+02 -0.35169106637E+02  0.76506318709E+02  0.87860164318E+02  0.00000000000E+00 0.  1.
</event>
<event>
 8    1  0.7102339E-009  0.1257689E+03  0.7561462E-02  0.1233873E+00
          1   -1    0    0  501    0  0.00000000000E+00  0.00000000000E+00  0.67776390761E+02  0.67776390761E+02  0.00000000000E+00 0.  1.
         -1   -1    0    0    0  501 -0.00000000000E+00 -0.00000000000E+00 -0.28429642290E+03  0.28429642290E+03  0.00000000000E+00 0. -1.
         25    2    1    2    0    0 -0.80432923687E+02  0.17691032008E+02 -0.16894991212E+03  0.22577806186E+03  0.12509689278E+03 0.  0.
         23    2    1    2    0    0  0.80432923687E+02 -0.17691032008E+02 -0.47570120015E+02  0.12629475180E+03  0.83096451112E+02 0.  0.
          5    1    3    3  502    0 -0.14681043815E+02 -0.51556712640E+02 -0.69074367017E+02  0.87534954416E+02  0.41800000000E+01 0.  1.
         -5    1    3    3    0  502 -0.65751879872E+02  0.69247744648E+02 -0.99875545104E+02  0.13824310744E+03  0.41800000000E+01 0.  1.
        -11    1    4    4    0    0  0.67230297492E+02 -0.38551178231E+02 -0.60600751569E+02  0.98379659151E+02  0.00000000000E+00 0.  1.
         11    1    4    4    0    0  0.13202626196E+02  0.20860146223E+02  0.13030631554E+02  0.27915092649E+02  0.00000000000E+00 0. -1.
</event>
<event>
 8    1  0.7102339E-009  0.1421760E+03  0.7561462E-02  0.1210431E+00
         -2   -1    0    0    0  501 -0.00000000000E+00  0.00000000000E+00  0.20199797905E+03  0.20199797905E+03  0.00000000000E+00 0.  1.
          2   -1    0    0  501    0  0.00000000000E+00 -0.00000000000E+00 -0.11917596392E+03  0.11917596392E+03  0.00000000000E+00 0. -1.
         25    2    1    2    0    0 -0.10121573288E+03  0.42381745258E+02  0.57855105871E+02  0.17616905782E+03  0.12508991465E+03 0.  0.
         23    2    1    2    0    0  0.10121573288E+03 -0.42381745258E+02  0.24966909251E+02  0.14500488515E+03  0.91445247256E+02 0.  0.
          5    1    3    3  502    0 -0.11998749836E+03  0.40326449464E+02  0.77596198467E+02  0.14853236922E+03  0.41800000000E+01 0. -1.
         -5    1    3    3    0  502  0.18771765484E+02  0.20552957946E+01 -0.19741092596E+02  0.27636688605E+02  0.41800000000E+01 0. -1.
        -11    1    4    4    0    0  0.79864543691E+02  0.11231728922E+02  0.32207930990E+02  0.86843813207E+02  0.00000000000E+00 0. -1.
         11    1    4    4    0    0  0.21351189187E+02 -0.53613474180E+02 -0.72410217391E+01  0.58161071940E+02  0.00000000000E+00 0.  1.
</event>
<event>
 8    1  0.7102339E-009  0.1325775E+03  0.7561462E-02  0.1223681E+00
          2   -1    0    0  501    0  0.00000000000E+00  0.00000000000E+00  0.18617693008E+03  0.18617693008E+03  0.00000000000E+00 0. -1.
         -2   -1    0    0    0  501 -0.00000000000E+00 -0.00000000000E+00 -0.14760096333E+03  0.14760096333E+03  0.00000000000E+00 0.  1.
         25    2    1    2    0    0 -0.11980378402E+03 -0.32840318959E+01  0.56548160561E+02  0.18223116904E+03  0.12508706159E+03 0.  0.
         23    2    1    2    0    0  0.11980378402E+03  0.32840318959E+01 -0.17972193811E+02  0.15154672436E+03  0.90992738079E+02 0.  0.
          5    1    3    3  502    0 -0.12607331044E+03 -0.13412171264E+02  0.26572129092E+01  0.12688143727E+03  0.41800000000E+01 0. -1.
         -5    1    3    3    0  502  0.62695264160E+01  0.10128139368E+02  0.53890947652E+02  0.55349731773E+02  0.41800000000E+01 0. -1.
        -11    1    4    4    0    0  0.42277808802E+02 -0.16958900952E+02  0.33295519918E+02  0.56423479911E+02  0.00000000000E+00 0. -1.
         11    1    4    4    0    0  0.77525975222E+02  0.20242932847E+02 -0.51267713729E+02  0.95123244454E+02  0.00000000000E+00 0.  1.
</event>
<event>
 8    1  0.7102339E-009  0.3726844E+03  0.7561462E-02  0.1053671E+00
         -2   -1    0    0    0  501 -0.00000000000E+00  0.00000000000E+00  0.14773321310E+03  0.14773321310E+03  0.00000000000E+00 0. -1.
          2   -1    0    0  501    0  0.00000000000E+00 -0.00000000000E+00 -0.23241800907E+04  0.23241800907E+04  0.00000000000E+00 0.  1.
         25    2    1    2    0    0  0.31252941355E+03 -0.17929857948E+03 -0.20412874658E+04  0.20766137315E+04  0.12508979579E+03 0.  0.
         23    2    1    2    0    0 -0.31252941355E+03  0.17929857948E+03 -0.13515941175E+03  0.39529957222E+03  0.90393972573E+02 0.  0.
          5    1    3    3  502    0  0.43398156845E+02 -0.82190260174E+02 -0.41039101151E+03  0.42080505417E+03  0.41800000000E+01 0.  1.
         -5    1    3    3    0  502  0.26913125670E+03 -0.97108319308E+02 -0.16308964543E+04  0.16558086774E+04  0.41800000000E+01 0.  1.
        -11    1    4    4    0    0 -0.22643477424E+03  0.94566069481E+02 -0.12123416776E+03  0.27370270718E+03  0.00000000000E+00 0.  1.
         11    1    4    4    0    0 -0.86094639305E+02  0.84732510002E+02 -0.13925243984E+02  0.12159686504E+03  0.00000000000E+00 0. -1.
</event>
<event>
 8    1  0.7102339E-009  0.1793316E+03  0.7561462E-02  0.1168451E+00
         -1   -1    0    0    0  501 -0.00000000000E+00  0.00000000000E+00  0.32583274621E+03  0.32583274621E+03  0.00000000000E+00 0.  1.
          1   -1    0    0  501    0  0.00000000000E+00 -0.00000000000E+00 -0.13079209255E+03  0.13079209255E+03  0.00000000000E+00 0. -1.
         25    2    1    2    0    0 -0.65402325281E+02 -0.15658796105E+03  0.14832435906E+03  0.25776950279E+03  0.12509095644E+03 0.  0.
         23    2    1    2    0    0  0.65402325281E+02  0.15658796105E+03  0.46716294601E+02  0.19885533596E+03  0.92540687067E+02 0.  0.
          5    1    3    3  502    0 -0.48311947243E+02 -0.39879614542E+02  0.12145417954E+03  0.13672241232E+03  0.41800000000E+01 0.  1.
         -5    1    3    3    0  502 -0.17090378037E+02 -0.11670834650E+03  0.26870179523E+02  0.12104709048E+03  0.41800000000E+01 0.  1.
        -11    1    4    4    0    0  0.30313466532E+02  0.13090193144E+03 -0.90181157859E+00  0.13436902609E+03  0.00000000000E+00 0. -1.
         11    1    4    4    0    0  0.35088858748E+02  0.25686029608E+02  0.47618106180E+02  0.64486309876E+02  0.00000000000E+00 0.  1.
</event>
<event>
 8    1  0.7102339E-009  0.1053707E+03  0.7561462E-02  0.1269391E+00
         -3   -1    0    0    0  501 -0.00000000000E+00  0.00000000000E+00  0.63012704424E+02  0.63012704424E+02  0.00000000000E+00 0.  1.
          3   -1    0    0  501    0  0.00000000000E+00 -0.00000000000E+00 -0.21948926348E+03  0.21948926348E+03  0.00000000000E+00 0. -1.
         25    2    1    2    0    0  0.23440429492E+02 -0.38695660602E+02 -0.89214739828E+02  0.16016647060E+03  0.12508885090E+03 0.  0.
         23    2    1    2    0    0 -0.23440429492E+02  0.38695660602E+02 -0.67261819226E+02  0.12233549730E+03  0.91624307308E+02 0.  0.
          5    1    3    3  502    0 -0.14172238193E+02 -0.76840097835E+02 -0.42947761172E+02  0.89259372396E+02  0.41800000000E+01 0.  1.
         -5    1    3    3    0  502  0.37612667685E+02  0.38144437233E+02 -0.46266978655E+02  0.70907098207E+02  0.41800000000E+01 0.  1.
        -11    1    4    4    0    0 -0.44691579476E+02  0.15501979241E+02  0.84879752656E+00  0.47311405535E+02  0.00000000000E+00 0.  1.
         11    1    4    4    0    0  0.21251149983E+02  0.23193681361E+02 -0.68110616752E+02  0.75024091764E+02  0.00000000000E+00 0. -1.
</event>
<event>
 8    1  0.7102339E-009  0.1668020E+03  0.7561462E-02  0.1181224E+00
         -1   -1    0    0    0  501 -0.00000000000E+00  0.00000000000E+00  0.63237006666E+03  0.63237006666E+03  0.00000000000E+00 0.  1.
          1   -1    0    0  501    0  0.00000000000E+00 -0.00000000000E+00 -0.48354801633E+02  0.48354801633E+02  0.00000000000E+00 0. -1.
         25    2    1    2    0    0 -0.22621563704E+02 -0.13375987250E+03  0.27819507238E+03  0.33383190724E+03  0.12509118818E+03 0.  0.
         23    2    1    2    0    0  0.22621563704E+02  0.13375987250E+03  0.30582019265E+03  0.34689296105E+03  0.91680409895E+02 0.  0.
          5    1    3    3  502    0 -0.46775569664E+02 -0.13993238259E+02  0.30793861583E+02  0.57874855901E+02  0.41800000000E+01 0. -1.
         -5    1    3    3    0  502  0.24154005960E+02 -0.11976663424E+03  0.24740121079E+03  0.27595705134E+03  0.41800000000E+01 0. -1.
        -11    1    4    4    0    0  0.49678639399E+02  0.12401237617E+03  0.23271583539E+03  0.26833504560E+03  0.00000000000E+00 0. -1.
         11    1    4    4    0    0 -0.27057075694E+02  0.97474963350E+01  0.73104357260E+02  0.78557915453E+02  0.00000000000E+00 0.  1.
</event>
<event>
 8    1  0.7102339E-009  0.1228713E+03  0.7561462E-02  0.1238434E+00
          2   -1    0    0  501    0  0.00000000000E+00  0.00000000000E+00  0.56465177441E+03  0.56465177441E+03  0.00000000000E+00 0.  1.
         -2   -1    0    0    0  501 -0.00000000000E+00 -0.00000000000E+00 -0.44364830652E+02  0.44364830652E+02  0.00000000000E+00 0. -1.
         25    2    1    2    0    0 -0.83077082541E+02  0.62033379721E+02  0.37192225759E+03  0.40585968150E+03  0.12508386600E+03 0.  0.
         23    2    1    2    0    0  0.83077082541E+02 -0.62033379721E+02  0.14836468617E+03  0.20315692357E+03  0.92253529185E+02 0.  0.
          5    1    3    3  502    0 -0.75766936417E+02  0.26403743393E+01  0.31186771259E+03  0.32097748019E+03  0.41800000000E+01 0.  1.
         -5    1    3    3    0  502 -0.73101461232E+01  0.59393005382E+02  0.60054544998E+02  0.84882201312E+02  0.41800000000E+01 0.  1.
        -11    1    4    4    0    0  0.81287874980E+02 -0.45417045371E+02  0.15834287757E+03  0.18369238827E+03  0.00000000000E+00 0.  1.
         11    1    4    4    0    0  0.17892075603E+01 -0.16616334350E+02 -0.99781913987E+01  0.19464535302E+02  0.00000000000E+00 0. -1.
</event>
<event>
 8    1  0.7102339E-009  0.1192142E+03  0.7561462E-02  0.1244399E+00
          1   -1    0    0  501    0  0.00000000000E+00  0.00000000000E+00  0.14306164861E+03  0.14306164861E+03  0.00000000000E+00 0.  1.
         -1   -1    0    0    0  501 -0.00000000000E+00 -0.00000000000E+00 -0.20179567450E+03  0.20179567450E+03  0.00000000000E+00 0. -1.
         25    2    1    2    0    0 -0.91059541853E+02 -0.29873940346E+02  0.58626743813E+02  0.16813455175E+03  0.12509132635E+03 0.  0.
         23    2    1    2    0    0  0.91059541853E+02  0.29873940346E+02 -0.11736076971E+03  0.17672277136E+03  0.90956556539E+02 0.  0.
          5    1    3    3  502    0 -0.10781464553E+03 -0.21614242517E+02  0.38469622735E+01  0.11010651565E+03  0.41800000000E+01 0.  1.
         -5    1    3    3    0  502  0.16755103680E+02 -0.82596978289E+01  0.54779781540E+02  0.58028036095E+02  0.41800000000E+01 0.  1.
        -11    1    4    4    0    0  0.11015300889E+02 -0.14120589608E+02  0.96007523808E+01  0.20319998790E+02  0.00000000000E+00 0.  1.
         11    1    4    4    0    0  0.80044240965E+02  0.43994529954E+02 -0.12696152209E+03  0.15640277257E+03  0.00000000000E+00 0. -1.
</event>
<event>
 8    1  0.7102339E-009  0.1261626E+03  0.7561462E-02  0.1233263E+00
          2   -1    0    0  501    0  0.00000000000E+00  0.00000000000E+00  0.63012637693E+02  0.63012637693E+02  0.00000000000E+00 0.  1.
         -2   -1    0    0    0  501 -0.00000000000E+00 -0.00000000000E+00 -0.31757461800E+03  0.31757461800E+03  0.00000000000E+00 0. -1.
         25    2    1    2    0    0 -0.69409743006E+02  0.33643693582E+02 -0.20427838291E+03  0.25164854049E+03  0.12509084565E+03 0.  0.
         23    2    1    2    0    0  0.69409743006E+02 -0.33643693582E+02 -0.50283597399E+02  0.12893871520E+03  0.90261517652E+02 0.  0.
          5    1    3    3  502    0  0.19820271371E+02 -0.30719661155E+02 -0.54405334582E+02  0.65680694040E+02  0.41800000000E+01 0.  1.
         -5    1    3    3    0  502 -0.89230014377E+02  0.64363354737E+02 -0.14987304833E+03  0.18596784645E+03  0.41800000000E+01 0.  1.
        -11    1    4    4    0    0  0.84634240398E+02 -0.29781214081E+02 -0.62242767094E+02  0.10919724088E+03  0.00000000000E+00 0.  1.
         11    1    4    4    0    0 -0.15224497393E+02 -0.38624795012E+01  0.11959169694E+02  0.19741474325E+02  0.00000000000E+00 0. -1.
</event>
<event>
 8    1  0.7102339E-009  0.2080716E+03  0.7561462E-02  0.1143102E+00
          2   -1    0    0  501    0  0.00000000000E+00  0.00000000000E+00  0.70675973311E+03  0.70675973311E+03  0.00000000000E+00 0. -1.
         -2   -1    0    0    0  501 -0.00000000000E+00 -0.00000000000E+00 -0.71832121394E+02  0.71832121394E+02  0.00000000000E+00 0.  1.
         25    2    1    2    0    0  0.15554544091E+03 -0.95496324774E+02  0.45333729862E+03  0.50445675978E+03  0.12509190193E+03 0.  0.
         23    2    1    2    0    0 -0.15554544091E+03  0.95496324774E+02  0.18159031309E+03  0.27413509473E+03  0.94133289121E+02 0.  0.
          5    1    3    3  502    0  0.10460181750E+03 -0.12417459932E+03  0.32231989250E+03  0.36092721820E+03  0.41800000000E+01 0.  1.
         -5    1    3    3    0  502  0.50943623409E+02  0.28678274544E+02  0.13101740612E+03  0.14352954157E+03  0.41800000000E+01 0.  1.
        -11    1    4    4    0    0 -0.14287607573E+03  0.10660871383E+03  0.13216484829E+03  0.22191561009E+03  0.00000000000E+00 0.  1.
         11    1    4    4    0    0 -0.12669365176E+02 -0.11112389054E+02  0.49425464804E+02  0.52219484635E+02  0.00000000000E+00 0. -1.
</event>
<event>
 8    1  0.7102339E-009  0.1767918E+03  0.7561462E-02  0.1170945E+00
         -2   -1    0    0    0  501 -0.00000000000E+00  0.00000000000E+00  0.20047975555E+03  0.20047975555E+03  0.00000000000E+00 0.  1.
          2   -1    0    0  501    0  0.00000000000E+00 -0.00000000000E+00 -0.18187749666E+03  0.18187749666E+03  0.00000000000E+00 0. -1.
         25    2    1    2    0    0 -0.85435800958E+02 -0.10987269904E+03 -0.61861116691E+02  0.19709234216E+03  0.12508919817E+03 0.  0.
         23    2    1    2    0    0  0.85435800958E+02  0.10987269904E+03  0.80463375587E+02  0.18526491005E+03  0.92073047114E+02 0.  0.
          5    1    3    3  502    0 -0.53950382088E+01 -0.10670074400E+03 -0.35692571296E+02  0.11271906340E+03  0.41800000000E+01 0. -1.
         -5    1    3    3    0  502 -0.80040762750E+02 -0.31719550438E+01 -0.26168545395E+02  0.84373278758E+02  0.41800000000E+01 0. -1.
        -11    1    4    4    0    0  0.24681148102E+02  0.10229096268E+03  0.57200858070E+02  0.11976868656E+03  0.00000000000E+00 0.  1.
         11    1    4    4    0    0  0.60754652857E+02  0.75817363675E+01  0.23262517517E+02  0.65496223489E+02  0.00000000000E+00 0. -1.
</event>
<event>
 8    1  0.7102339E-009  0.1266471E+03  0.7561462E-02  0.1232517E+00
          2   -1    0    0  501    0  0.00000000000E+00  0.00000000000E+00  0.17395935329E+04  0.17395935329E+04  0.00000000000E+00 0. -1.
         -2   -1    0    0    0  501 -0.00000000000E+00 -0.00000000000E+00 -0.13799164974E+02  0.13799164974E+02  0.00000000000E+00 0.  1.
         25    2    1    2    0    0 -0.98404734368E+02  0.15849779642E+02  0.11896422873E+04  0.12003464797E+04  0.12509273478E+03 0.  0.
         23    2    1    2    0    0  0.98404734368E+02 -0.15849779642E+02  0.53615208057E+03  0.55304621813E+03  0.92012817761E+02 0.  0.
          5    1    3    3  502    0 -0.11155607436E+03  0.40800144344E+02  0.71186954732E+03  0.72172372436E+03  0.41800000000E+01 0.  1.
         -5    1    3    3    0  502  0.13151339996E+02 -0.24950364702E+02  0.47777274002E+03  0.47862275536E+03  0.41800000000E+01 0.  1.
        -11    1    4    4    0    0  0.95519176092E+02 -0.60510561571E+01  0.53412468233E+03  0.54263220008E+03  0.00000000000E+00 0. -1.
         11    1    4    4    0    0  0.28855582756E+01 -0.97987234849E+01  0.20273982363E+01  0.10414018058E+02  0.00000000000E+00 0.  1.
</event>
<event>
 8    1  0.7102339E-009  0.2518645E+03  0.7561462E-02  0.1112132E+00
          1   -1    0    0  501    0  0.00000000000E+00  0.00000000000E+00  0.84945396213E+03  0.84945396213E+03  0.00000000000E+00 0. -1.
         -1   -1    0    0    0  501 -0.00000000000E+00 -0.00000000000E+00 -0.82199568181E+02  0.82199568181E+02  0.00000000000E+00 0.  1.
         25    2    1    2    0    0  0.15868035772E+03  0.17546292394E+03  0.31230231354E+03  0.41127781469E+03  0.12510000882E+03 0.  0.
         23    2    1    2    0    0 -0.15868035772E+03 -0.17546292394E+03  0.45495208041E+03  0.52037571562E+03  0.88559563775E+02 0.  0.
          5    1    3    3  502    0  0.17734324386E+03  0.13836819342E+03  0.25040955808E+03  0.33662858208E+03  0.41800000000E+01 0.  1.
         -5    1    3    3    0  502 -0.18662886133E+02  0.37094730521E+02  0.61892755462E+02  0.74649232614E+02  0.41800000000E+01 0.  1.
        -11    1    4    4    0    0 -0.14402340627E+03 -0.15234878212E+03  0.31919974245E+03  0.38189182833E+03  0.00000000000E+00 0.  1.
         11    1    4    4    0    0 -0.14656951455E+02 -0.23114141827E+02  0.13575233796E+03  0.13848388730E+03  0.00000000000E+00 0. -1.
</event>
<event>
 8    1  0.7102339E-009  0.1900875E+03  0.7561462E-02  0.1158382E+00
         -2   -1    0    0    0  501 -0.00000000000E+00  0.00000000000E+00  0.68461999917E+02  0.68461999917E+02  0.00000000000E+00 0.  1.
          2   -1    0    0  501    0  0.00000000000E+00 -0.00000000000E+00 -0.68040453012E+03  0.68040453012E+03  0.00000000000E+00 0. -1.
         25    2    1    2    0    0 -0.11631531392E+03  0.13591698891E+03 -0.40902736636E+03  0.46363024035E+03  0.12508770207E+03 0.  0.
         23    2    1    2    0    0  0.11631531392E+03 -0.13591698891E+03 -0.20291516384E+03  0.28523628968E+03  0.90457156206E+02 0.  0.
          5    1    3    3  502    0 -0.12012429206E+03  0.13135212918E+03 -0.26404476985E+03  0.31846560295E+03  0.41800000000E+01 0. -1.
         -5    1    3    3    0  502  0.38089781322E+01  0.45648597304E+01 -0.14498259652E+03  0.14516463740E+03  0.41800000000E+01 0. -1.
        -11    1    4    4    0    0  0.80879177845E+02 -0.13735136154E+03 -0.13611223007E+03  0.20960290337E+03  0.00000000000E+00 0.  1.
         11    1    4    4    0    0  0.35436136079E+02  0.14343726345E+01 -0.66802933767E+02  0.75633386311E+02  0.00000000000E+00 0. -1.
</event>
<event>
 8    1  0.7102339E-009  0.9841158E+02  0.7561462E-02  0.1283672E+00
         -4   -1    0    0    0  501 -0.00000000000E+00  0.00000000000E+00  0.91204234770E+02  0.91204234770E+02  0.00000000000E+00 0.  1.
          4   -1    0    0  501    0  0.00000000000E+00 -0.00000000000E+00 -0.32840245210E+03  0.32840245210E+03  0.00000000000E+00 0. -1.
         25    2    1    2    0    0 -0.97389827898E+01  0.38086022069E+02 -0.28143809829E+03  0.31048398330E+03  0.12508999901E+03 0.  0.
         23    2    1    2    0    0  0.97389827898E+01 -0.38086022069E+02  0.44239880965E+02  0.10912270357E+03  0.91679902395E+02 0.  0.
          5    1    3    3  502    0 -0.52108982215E+02  0.16351085520E+02 -0.50008080708E+02  0.74168622484E+02  0.41800000000E+01 0.  1.
         -5    1    3    3    0  502  0.42369999425E+02  0.21734936550E+02 -0.23143001758E+03  0.23631536082E+03  0.41800000000E+01 0.  1.
        -11    1    4    4    0    0  0.32157647428E+02  0.15839250418E+02  0.34808524097E+02  0.49966283549E+02  0.00000000000E+00 0.  1.
         11    1    4    4    0    0 -0.22418664638E+02 -0.53925272487E+02  0.94313568673E+01  0.59156420018E+02  0.00000000000E+00 0. -1.
</event>
<event>
 8    1  0.7102339E-009  0.1141064E+03  0.7561462E-02  0.1253149E+00
         -2   -1    0    0    0  501 -0.00000000000E+00  0.00000000000E+00  0.34418989990E+02  0.34418989990E+02  0.00000000000E+00 0.  1.
          2   -1    0    0  501    0  0.00000000000E+00 -0.00000000000E+00 -0.60317453939E+03  0.60317453939E+03  0.00000000000E+00 0. -1.
         25    2    1    2    0    0 -0.74647641076E+01  0.58008906089E+02 -0.47534408606E+03  0.49499694824E+03  0.12509685337E+03 0.  0.
         23    2    1    2    0    0  0.74647641076E+01 -0.58008906089E+02 -0.93411463340E+02  0.14259658114E+03  0.90483852598E+02 0.  0.
          5    1    3    3  502    0 -0.64555183127E+02  0.44859703343E+02 -0.24841120177E+03  0.26058657336E+03  0.41800000000E+01 0.  1.
         -5    1    3    3    0  502  0.57090419019E+02  0.13149202746E+02 -0.22693288430E+03  0.23441037488E+03  0.41800000000E+01 0.  1.
        -11    1    4    4    0    0  0.49940565597E+01  0.15971705246E+02 -0.58328770406E+02  0.60681804740E+02  0.00000000000E+00 0. -1.
         11    1    4    4    0    0  0.24707075479E+01 -0.73980611336E+02 -0.35082692934E+02  0.81914776402E+02  0.00000000000E+00 0.  1.
</event>
<event>
 8    1  0.7102339E-009  0.9757040E+02  0.7561462E-02  0.1285490E+00
          1   -1    0    0  501    0  0.00000000000E+00  0.00000000000E+00  0.51876966180E+03  0.51876966180E+03  0.00000000000E+00 0. -1.
         -1   -1    0    0    0  501 -0.00000000000E+00 -0.00000000000E+00 -0.30439771615E+02  0.30439771615E+02  0.00000000000E+00 0.  1.
         25    2    1    2    0    0  0.28531077140E+02  0.30115871981E+02  0.35729897250E+03  0.38082977933E+03  0.12509107469E+03 0.  0.
         23    2    1    2    0    0 -0.28531077140E+02 -0.30115871981E+02  0.13103091769E+03  0.16837965409E+03  0.97270850786E+02 0.  0.
          5    1    3    3  502    0  0.73693820004E+02  0.41442805757E+02  0.21583655284E+03  0.23184299687E+03  0.41800000000E+01 0.  1.
         -5    1    3    3    0  502 -0.45162742864E+02 -0.11326933776E+02  0.14146241965E+03  0.14898678245E+03  0.41800000000E+01 0.  1.
        -11    1    4    4    0    0 -0.25582594169E+01 -0.36826716358E+02  0.13615343316E+03  0.14106916421E+03  0.00000000000E+00 0. -1.
         11    1    4    4    0    0 -0.25972817723E+02  0.67108443768E+01 -0.51225154716E+01  0.27310489880E+02  0.00000000000E+00 0.  1.
</event>
<event>
 8    1  0.7102339E-009  0.1810176E+03  0.7561462E-02  0.1166822E+00
          1   -1    0    0  501    0  0.00000000000E+00  0.00000000000E+00  0.80436991423E+02  0.80436991423E+02  0.00000000000E+00 0. -1.
         -1   -1    0    0    0  501 -0.00000000000E+00 -0.00000000000E+00 -0.70094940628E+03  0.70094940628E+03  0.00000000000E+00 0.  1.
         25    2    1    2    0    0 -0.90886582909E+02 -0.12667051391E+03 -0.53764557115E+03  0.57359919605E+03  0.12508991759E+03 0.  0.
         23    2    1    2    0    0  0.90886582909E+02  0.12667051391E+03 -0.82866843713E+02  0.20778720166E+03  0.10955737009E+03 0.  0.
          5    1    3    3  502    0 -0.38215829486E+02 -0.13810975670E+03 -0.34729348418E+03  0.37571929825E+03  0.41800000000E+01 0.  1.
         -5    1    3    3    0  502 -0.52670753422E+02  0.11439242790E+02 -0.19035208697E+03  0.19787989780E+03  0.41800000000E+01 0.  1.
        -11    1    4    4    0    0  0.27576411539E+02  0.83629979076E+02  0.86377709826E+01  0.88481879281E+02  0.00000000000E+00 0. -1.
         11    1    4    4    0    0  0.63310171370E+02  0.43040534830E+02 -0.91504614695E+02  0.11930532238E+03  0.00000000000E+00 0.  1.
</event>
<event>
 8    1  0.7102339E-009  0.1166682E+03  0.7561462E-02  0.1248697E+00
          1   -1    0    0  501    0  0.00000000000E+00  0.00000000000E+00  0.61234623051E+02  0.61234623051E+02  0.00000000000E+00 0. -1.
         -1   -1    0    0    0  501 -0.00000000000E+00 -0.00000000000E+00 -0.28904007040E+03  0.28904007040E+03  0.00000000000E+00 0.  1.
         25    2    1    2    0    0  0.50314064391E+02  0.32443417438E+02 -0.62918710806E+02  0.15228411191E+03  0.12509039196E+03 0.  0.
         23    2    1    2    0    0 -0.50314064391E+02 -0.32443417438E+02 -0.16488673654E+03  0.19799058154E+03  0.91807157012E+02 0.  0.
          5    1    3    3  502    0  0.18348450662E+02  0.78822415934E+02 -0.27318878171E+02  0.85518608501E+02  0.41800000000E+01 0. -1.
         -5    1    3    3    0  502  0.31965613728E+02 -0.46378998496E+02 -0.35599832635E+02  0.66765503414E+02  0.41800000000E+01 0. -1.
        -11    1    4    4    0    0 -0.56728989966E+02 -0.50937086771E+02 -0.16084978549E+03  0.17800398479E+03  0.00000000000E+00 0.  1.
         11    1    4    4    0    0  0.64149255754E+01  0.18493669333E+02 -0.40369510577E+01  0.19986596744E+02  0.00000000000E+00 0. -1.
</event>
<event>
 8    1  0.7102339E-009  0.1819096E+03  0.7561462E-02  0.1165968E+00
         -2   -1    0    0    0  501 -0.00000000000E+00  0.00000000000E+00  0.19906014614E+03  0.19906014614E+03  0.00000000000E+00 0. -1.
          2   -1    0    0  501    0  0.00000000000E+00 -0.00000000000E+00 -0.22603278277E+03  0.22603278277E+03  0.00000000000E+00 0.  1.
         25    2    1    2    0    0 -0.15984883046E+03 -0.67563105374E+02 -0.67040100044E+02  0.22418393409E+03  0.12509052515E+03 0.  0.
         23    2    1    2    0    0  0.15984883046E+03  0.67563105374E+02  0.40067463412E+02  0.20090899482E+03  0.92965589161E+02 0.  0.
          5    1    3    3  502    0 -0.14406100620E+03 -0.32358322667E+02 -0.11497004222E+01  0.14771401005E+03  0.41800000000E+01 0. -1.
         -5    1    3    3    0  502 -0.15787824259E+02 -0.35204782707E+02 -0.65890399621E+02  0.76469924039E+02  0.41800000000E+01 0. -1.
        -11    1    4    4    0    0  0.19046675988E+02  0.22466000406E+02 -0.25703491550E+02  0.39091770468E+02  0.00000000000E+00 0.  1.
         11    1    4    4    0    0  0.14080215447E+03  0.45097104968E+02  0.65770954962E+02  0.16181722435E+03  0.00000000000E+00 0. -1.
</event>
<event>
 8    1  0.7102339E-009  0.1079640E+03  0.7561462E-02  0.1264387E+00
          2   -1    0    0  501    0  0.00000000000E+00  0.00000000000E+00  0.51888604182E+03  0.51888604182E+03  0.00000000000E+00 0. -1.
         -2   -1    0    0    0  501 -0.00000000000E+00 -0.00000000000E+00 -0.27388928377E+02  0.27388928377E+02  0.00000000000E+00 0.  1.
         25    2    1    2    0    0  0.34862317517E+01  0.40045725819E+02  0.20895557353E+03  0.24683255085E+03  0.12509221590E+03 0.  0.
         23    2    1    2    0    0 -0.34862317517E+01 -0.40045725819E+02  0.28254153992E+03  0.29944241935E+03  0.90665466205E+02 0.  0.
          5    1    3    3  502    0 -0.52844074248E+02  0.25480631963E+02  0.48932262342E+02  0.76508806593E+02  0.41800000000E+01 0. -1.
         -5    1    3    3    0  502  0.56330306000E+02  0.14565093856E+02  0.16002331119E+03  0.17032374425E+03  0.41800000000E+01 0. -1.
        -11    1    4    4    0    0  0.27750291444E+02 -0.56885488183E+02  0.16787540063E+03  0.17941066740E+03  0.00000000000E+00 0. -1.
         11    1    4    4    0    0 -0.31236523195E+02  0.16839762364E+02  0.11466613929E+03  0.12003175195E+03  0.00000000000E+00 0.  1.
</event>
<event>
 8    1  0.7102339E-009  0.1508511E+03  0.7561462E-02  0.1199431E+00
          2   -1    0    0  501    0  0.00000000000E+00  0.00000000000E+00  0.16817155792E+03  0.16817155792E+03  0.00000000000E+00 0. -1.
         -2   -1    0    0    0  501 -0.00000000000E+00 -0.00000000000E+00 -0.16899955726E+03  0.16899955726E+03  0.00000000000E+00 0.  1.
         25    2    1    2    0    0 -0.76603935299E+02 -0.10018915706E+03 -0.25764554022E+02  0.17949309154E+03  0.12509167667E+03 0.  0.
         23    2    1    2    0    0  0.76603935299E+02  0.10018915706E+03  0.24936554678E+02  0.15767802364E+03  0.91293467910E+02 0.  0.
          5    1    3    3  502    0 -0.49749527737E+02 -0.10693961971E+03 -0.62305141364E+02  0.13345598830E+03  0.41800000000E+01 0.  1.
         -5    1    3    3    0  502 -0.26854407562E+02  0.67504626504E+01  0.36540587342E+02  0.46037103241E+02  0.41800000000E+01 0.  1.
        -11    1    4    4    0    0  0.66871225187E+02  0.13217898443E+02  0.11986746654E+02  0.69210950669E+02  0.00000000000E+00 0.  1.
         11    1    4    4    0    0  0.97327101125E+01  0.86971258616E+02  0.12949808024E+02  0.88467072967E+02  0.00000000000E+00 0. -1.
</event>
<event>
 8    1  0.7102339E-009  0.2955636E+03  0.7561462E-02  0.1087480E+00
         -1   -1    0    0    0  501 -0.00000000000E+00  0.00000000000E+00  0.30310241973E+03  0.30310241973E+03  0.00000000000E+00 0.  1.
          1   -1    0    0  501    0  0.00000000000E+00 -0.00000000000E+00 -0.30508260716E+03  0.30508260716E+03  0.00000000000E+00 0. -1.
         25    2    1    2    0    0 -0.14743882873E+03  0.24147059565E+03 -0.11437259556E+02  0.30955594303E+03  0.12509122343E+03 0.  0.
         23    2    1    2    0    0  0.14743882873E+03 -0.24147059565E+03  0.94570721305E+01  0.29862908387E+03  0.95098037510E+02 0.  0.
          5    1    3    3  502    0 -0.14536121900E+03  0.25297994747E+03 -0.22846216201E+02  0.29269123629E+03  0.41800000000E+01 0. -1.
         -5    1    3    3    0  502 -0.20776097302E+01 -0.11509351818E+02  0.11408956645E+02  0.16864706733E+02  0.41800000000E+01 0. -1.
        -11    1    4    4    0    0  0.12363266713E+03 -0.16101029559E+03  0.44292929756E+02  0.20777684013E+03  0.00000000000E+00 0.  1.
         11    1    4    4    0    0  0.23806161595E+02 -0.80460300061E+02 -0.34835857625E+02  0.90852243738E+02  0.00000000000E+00 0. -1.
</event>
<event>
 8    1  0.7102339E-009  0.1466455E+03  0.7561462E-02  0.1204657E+00
          1   -1    0    0  501    0  0.00000000000E+00  0.00000000000E+00  0.12821407489E+03  0.12821407489E+03  0.00000000000E+00 0. -1.
         -1   -1    0    0    0  501 -0.00000000000E+00 -0.00000000000E+00 -0.29471071608E+03  0.29471071608E+03  0.00000000000E+00 0.  1.
         25    2    1    2    0    0 -0.63939824017E+01  0.10113347903E+03 -0.22173426944E+03  0.27401079977E+03  0.12508784335E+03 0.  0.
         23    2    1    2    0    0  0.63939824017E+01 -0.10113347903E+03  0.55237628257E+02  0.14891399119E+03  0.94102697123E+02 0.  0.
          5    1    3    3  502    0 -0.63021971064E+02  0.34696402750E+02 -0.11913381819E+03  0.13923343075E+03  0.41800000000E+01 0. -1.
         -5    1    3    3    0  502  0.56627988662E+02  0.66437076279E+02 -0.10260045125E+03  0.13477736902E+03  0.41800000000E+01 0. -1.
        -11    1    4    4    0    0 -0.40470994392E+02 -0.41225374236E+02  0.42672679760E+02  0.71821935827E+02  0.00000000000E+00 0. -1.
         11    1    4    4    0    0  0.46864976793E+02 -0.59908104793E+02  0.12564948497E+02  0.77092055366E+02  0.00000000000E+00 0.  1.
</event>
<event>
 8    1  0.7102339E-009  0.8517848E+02  0.7561462E-02  0.1314966E+00
         -1   -1    0    0    0  501 -0.00000000000E+00  0.00000000000E+00  0.12437966202E+02  0.12437966202E+02  0.00000000000E+00 0.  1.
          1   -1    0    0  501    0  0.00000000000E+00 -0.00000000000E+00 -0.15949772053E+04  0.15949772053E+04  0.00000000000E+00 0. -1.
         25    2    1    2    0    0  0.45248395496E+02  0.43528683211E+02 -0.12416099549E+04  0.12494741983E+04  0.12509327949E+03 0.  0.
         23    2    1    2    0    0 -0.45248395496E+02 -0.43528683211E+02 -0.34092928414E+03  0.35794097314E+03  0.89144825472E+02 0.  0.
          5    1    3    3  502    0  0.17359128639E+02  0.59496606669E+02 -0.11600440240E+04  0.11617059850E+04  0.41800000000E+01 0. -1.
         -5    1    3    3    0  502  0.27889266857E+02 -0.15967923457E+02 -0.81565930943E+02  0.87768213358E+02  0.41800000000E+01 0. -1.
        -11    1    4    4    0    0 -0.26751105848E+02 -0.49607471221E+02 -0.33159129088E+03  0.33634700393E+03  0.00000000000E+00 0. -1.
         11    1    4    4    0    0 -0.18497289648E+02  0.60787880103E+01 -0.93379932617E+01  0.21593969208E+02  0.00000000000E+00 0.  1.
</event>
<event>
 8    1  0.7102339E-009  0.1565637E+03  0.7561462E-02  0.1192632E+00
          1   -1    0    0  501    0  0.00000000000E+00  0.00000000000E+00  0.18960053316E+03  0.18960053316E+03  0.00000000000E+00 0. -1.
         -1   -1    0    0    0  501 -0.00000000000E+00 -0.00000000000E+00 -0.13477918643E+03  0.13477918643E+03  0.00000000000E+00 0.  1.
         25    2    1    2    0    0 -0.80120219534E+02 -0.81702239899E+02  0.15634758996E+01  0.16954211390E+03  0.12509028078E+03 0.  0.
         23    2    1    2    0    0  0.80120219534E+02  0.81702239899E+02  0.53257870831E+02  0.15483760568E+03  0.89687110248E+02 0.  0.
          5    1    3    3  502    0  0.10176319853E+02 -0.76400672421E+02  0.12994575175E+02  0.78274846637E+02  0.41800000000E+01 0. -1.
         -5    1    3    3    0  502 -0.90296539387E+02 -0.53015674776E+01 -0.11431099275E+02  0.91267267263E+02  0.41800000000E+01 0. -1.
        -11    1    4    4    0    0 -0.16111257186E+02  0.34775850196E+02  0.14038015620E+02  0.40816641796E+02  0.00000000000E+00 0. -1.
         11    1    4    4    0    0  0.96231476720E+02  0.46926389703E+02  0.39219855211E+02  0.11402096388E+03  0.00000000000E+00 0.  1.
</event>
<event>
 8    1  0.7102339E-009  0.1217642E+03  0.7561462E-02  0.1240215E+00
          2   -1    0    0  501    0  0.00000000000E+00  0.00000000000E+00  0.68867967487E+02  0.68867967487E+02  0.00000000000E+00 0. -1.
         -2   -1    0    0    0  501 -0.00000000000E+00 -0.00000000000E+00 -0.35498135693E+03  0.35498135693E+03  0.00000000000E+00 0.  1.
         25    2    1    2    0    0 -0.74062001119E+02 -0.64087197196E+00 -0.39108091145E+02  0.15054165476E+03  0.12509099208E+03 0.  0.
         23    2    1    2    0    0  0.74062001119E+02  0.64087197196E+00 -0.24700529830E+03  0.27330766965E+03  0.90553156640E+02 0.  0.
          5    1    3    3  502    0 -0.81910249891E+02 -0.37737192364E+02 -0.58670321737E+02  0.10767109072E+03  0.41800000000E+01 0.  1.
         -5    1    3    3    0  502  0.78482487716E+01  0.37096320392E+02  0.19562230592E+02  0.42870564040E+02  0.41800000000E+01 0.  1.
        -11    1    4    4    0    0  0.63707934403E+02 -0.38617412667E+02 -0.18210139754E+03  0.19675091982E+03  0.00000000000E+00 0.  1.
         11    1    4    4    0    0  0.10354066716E+02  0.39258284639E+02 -0.64903900761E+02  0.76556749829E+02  0.00000000000E+00 0. -1.
</event>
<event>
 8    1  0.7102339E-009  0.1701761E+03  0.7561462E-02  0.1177664E+00
          3   -1    0    0  501    0  0.00000000000E+00  0.00000000000E+00  0.36397158007E+03  0.36397158007E+03  0.00000000000E+00 0. -1.
         -3   -1    0    0    0  501 -0.00000000000E+00 -0.00000000000E+00 -0.91680965675E+02  0.91680965675E+02  0.00000000000E+00 0.  1.
         25    2    1    2    0    0 -0.84879247470E+02 -0.12232675586E+03  0.12986639872E+03  0.23383354283E+03  0.12507806517E+03 0.  0.
         23    2    1    2    0    0  0.84879247470E+02  0.12232675586E+03  0.14242421568E+03  0.22181900291E+03  0.82162588754E+02 0.  0.
          5    1    3    3  502    0 -0.65013608814E+02 -0.14336536179E+03  0.13060807872E+03  0.20458821794E+03  0.41800000000E+01 0. -1.
         -5    1    3    3    0  502 -0.19865638656E+02  0.21038605932E+02 -0.74168000487E+00  0.29245324892E+02  0.41800000000E+01 0. -1.
        -11    1    4    4    0    0  0.73022713320E+02  0.12150288234E+03  0.89659286583E+02  0.16773209219E+03  0.00000000000E+00 0.  1.
         11    1    4    4    0    0  0.11856534150E+02  0.82387351828E+00  0.52764929094E+02  0.54086910726E+02  0.00000000000E+00 0. -1.
</event>
<event>
 8    1  0.7102339E-009  0.9556676E+02  0.7561462E-02  0.1289905E+00
          2   -1    0    0  501    0  0.00000000000E+00  0.00000000000E+00  0.94800759384E+03  0.94800759384E+03  0.00000000000E+00 0. -1.
         -2   -1    0    0    0  501 -0.00000000000E+00 -0.00000000000E+00 -0.16507471042E+02  0.16507471042E+02  0.00000000000E+00 0.  1.
         25    2    1    2    0    0 -0.39898120206E+02  0.20705125237E+02  0.69444240835E+03  0.70704799877E+03  0.12508417898E+03 0.  0.
         23    2    1    2    0    0  0.39898120206E+02 -0.20705125237E+02  0.23705771444E+03  0.25746706612E+03  0.89846357468E+02 0.  0.
          5    1    3    3  502    0 -0.81103757725E+02  0.15930324789E+02  0.32959784570E+03  0.33982908507E+03  0.41800000000E+01 0. -1.
         -5    1    3    3    0  502  0.41205637519E+02  0.47748004481E+01  0.36484456265E+03  0.36721891370E+03  0.41800000000E+01 0. -1.
        -11    1    4    4    0    0  0.94984651283E+01  0.16255204258E+02  0.36166176795E+01  0.19171135300E+02  0.00000000000E+00 0.  1.
         11    1    4    4    0    0  0.30399655078E+02 -0.36960329495E+02  0.23344109676E+03  0.23829593081E+03  0.00000000000E+00 0. -1.
</event>
<event>
 8    1  0.7102339E-009  0.1177585E+03  0.7561462E-02  0.1246841E+00
          3   -1    0    0  501    0  0.00000000000E+00  0.00000000000E+00  0.34177912749E+03  0.34177912749E+03  0.00000000000E+00 0. -1.
         -3   -1    0    0    0  501 -0.00000000000E+00 -0.00000000000E+00 -0.67640257053E+02  0.67640257053E+02  0.00000000000E+00 0.  1.
         25    2    1    2    0    0 -0.48867022180E+02 -0.28477517354E+02  0.26664520713E+03  0.29991580124E+03  0.12510342321E+03 0.  0.
         23    2    1    2    0    0  0.48867022180E+02  0.28477517354E+02  0.74936633101E+01  0.10950358330E+03  0.93466169898E+02 0.  0.
          5    1    3    3  502    0 -0.83323199048E+02 -0.42484192477E+02  0.22620135935E+03  0.24481051751E+03  0.41800000000E+01 0.  1.
         -5    1    3    3    0  502  0.34456176868E+02  0.14006675123E+02  0.40443847780E+02  0.55105283736E+02  0.41800000000E+01 0.  1.
        -11    1    4    4    0    0 -0.56911756946E+00  0.50388732558E+02 -0.12384226026E+02  0.51891399267E+02  0.00000000000E+00 0.  1.
         11    1    4    4    0    0  0.49436139750E+02 -0.21911215204E+02  0.19877889337E+02  0.57612184037E+02  0.00000000000E+00 0. -1.
</event>
<event>
 8    1  0.7102339E-009  0.9672102E+02  0.7561462E-02  0.1287346E+00
         -1   -1    0    0    0  501 -0.00000000000E+00  0.00000000000E+00  0.78103360502E+02  0.78103360502E+02  0.00000000000E+00 0.  1.
          1   -1    0    0  501    0  0.00000000000E+00 -0.00000000000E+00 -0.17506340846E+03  0.17506340846E+03  0.00000000000E+00 0. -1.
         25    2    1    2    0    0 -0.35329124137E+02 -0.23437039741E+02 -0.64572930853E+02  0.14701880542E+03  0.12508966346E+03 0.  0.
         23    2    1    2    0    0  0.35329124137E+02  0.23437039741E+02 -0.32387117101E+02  0.10614796354E+03  0.91766131904E+02 0.  0.
          5    1    3    3  502    0  0.35413623899E+02  0.76520574949E+01 -0.59090147531E+02  0.69439158094E+02  0.41800000000E+01 0. -1.
         -5    1    3    3    0  502 -0.70742748036E+02 -0.31089097236E+02 -0.54827833226E+01  0.77579647328E+02  0.41800000000E+01 0. -1.
        -11    1    4    4    0    0  0.44645691256E+02  0.40413455875E+02 -0.51278475607E+02  0.79094672539E+02  0.00000000000E+00 0. -1.
         11    1    4    4    0    0 -0.93165671191E+01 -0.16976416134E+02  0.18891358505E+02  0.27053290998E+02  0.00000000000E+00 0.  1.
</event>
<event>
 8    1  0.7102339E-009  0.1416941E+03  0.7561462E-02  0.1211067E+00
         -2   -1    0    0    0  501 -0.00000000000E+00  0.00000000000E+00  0.93216224644E+01  0.93216224644E+01  0.00000000000E+00 0.  1.
          2   -1    0    0  501    0  0.00000000000E+00 -0.00000000000E+00 -0.23115948688E+04  0.23115948688E+04  0.00000000000E+00 0. -1.
         25    2    1    2    0    0 -0.43734209668E+02 -0.79581141015E+02 -0.15454686438E+04  0.15531798355E+04  0.12509369829E+03 0.  0.
         23    2    1    2    0    0  0.43734209668E+02  0.79581141015E+02 -0.75680460252E+03  0.76773665575E+03  0.91763429949E+02 0.  0.
          5    1    3    3  502    0  0.42131611239E+02 -0.95162553272E+01 -0.47789100477E+03  0.47985718357E+03  0.41800000000E+01 0.  1.
         -5    1    3    3    0  502 -0.85865820907E+02 -0.70064885688E+02 -0.10675776390E+04  0.10733226519E+04  0.41800000000E+01 0.  1.
        -11    1    4    4    0    0 -0.26636070700E+02  0.40846544656E+02 -0.29000246994E+03  0.29407372042E+03  0.00000000000E+00 0. -1.
         11    1    4    4    0    0  0.70370280368E+02  0.38734596359E+02 -0.46680213258E+03  0.47366293532E+03  0.00000000000E+00 0.  1.
</event>
<event>
 8    1  0.7102339E-009  0.8094891E+02  0.7561462E-02  0.1326380E+00
         -2   -1    0    0    0  501 -0.00000000000E+00  0.00000000000E+00  0.27820409715E+03  0.27820409715E+03  0.00000000000E+00 0. -1.
          2   -1    0    0  501    0  0.00000000000E+00 -0.00000000000E+00 -0.45213546521E+02  0.45213546521E+02  0.00000000000E+00 0.  1.
         25    2    1    2    0    0 -0.18049774784E+02  0.12437677541E+02  0.10618486944E+03  0.16553825823E+03  0.12508876148E+03 0.  0.
         23    2    1    2    0    0  0.18049774784E+02 -0.12437677541E+02  0.12680568119E+03  0.15787938544E+03  0.91464361214E+02 0.  0.
          5    1    3    3  502    0 -0.25796847555E+02 -0.29958323739E+02 -0.10466636886E+02  0.41109626522E+02  0.41800000000E+01 0.  1.
         -5    1    3    3    0  502  0.77470727709E+01  0.42396001281E+02  0.11665150633E+03  0.12442863171E+03  0.41800000000E+01 0.  1.
        -11    1    4    4    0    0  0.24733209081E+01 -0.43776489297E+02  0.11125542248E+03  0.11958372532E+03  0.00000000000E+00 0. -1.
         11    1    4    4    0    0  0.15576453875E+02  0.31338811756E+02  0.15550258708E+02  0.38295660113E+02  0.00000000000E+00 0.  1.
</event>
<event>
 7    1  0.7102339E-009  0.2676180E+03  0.7561462E-02  0.1102651E+00
         -2   -1    0    0    0  501 -0.00000000000E+00  0.00000000000E+00  0.17101040899E+03  0.17101040899E+03  0.00000000000E+00 0.  1.
          2   -1    0    0  501    0  0.00000000000E+00 -0.00000000000E+00 -0.50262495701E+03  0.50262495701E+03  0.00000000000E+00 0. -1.
         25    2    1    2    0    0  0.22470232720E+03 -0.12007063316E+03 -0.21216034337E+03  0.35435538171E+03  0.12509049704E+03 0.  0.
          5    1    3    3  502    0  0.97120673313E+00 -0.23760662138E+02 -0.65952186982E+02  0.70233009870E+02  0.41800000000E+01 0.  1.
         -5    1    3    3    0  502  0.22373112047E+03 -0.96309971027E+02 -0.14620815639E+03  0.28412237184E+03  0.41800000000E+01 0.  1.
        -11    1    1    2    0    0 -0.13897337435E+03  0.11704100380E+03 -0.12425916519E+02  0.18211699193E+03  0.00000000000E+00 0.  1.
         11    1    1    2    0    0 -0.85728952856E+02  0.30296293602E+01 -0.10702828813E+03  0.13716299236E+03  0.00000000000E+00 0. -1.
</event>
<event>
 8    1  0.7102339E-009  0.1282813E+03  0.7561462E-02  0.1230028E+00
         -1   -1    0    0    0  501 -0.00000000000E+00  0.00000000000E+00  0.44126920387E+02  0.44126920387E+02  0.00000000000E+00 0.  1.
          1   -1    0    0  501    0  0.00000000000E+00 -0.00000000000E+00 -0.45268374829E+03  0.45268374829E+03  0.00000000000E+00 0. -1.
         25    2    1    2    0    0  0.79966162999E+02 -0.35403063239E+02 -0.18383012229E+03  0.23893346934E+03  0.12509086617E+03 0.  0.
         23    2    1    2    0    0 -0.79966162999E+02  0.35403063239E+02 -0.22472670562E+03  0.25787719934E+03  0.91381582450E+02 0.  0.
          5    1    3    3  502    0  0.60092910773E+02 -0.68953034383E+02 -0.61061234652E+02  0.11005283119E+03  0.41800000000E+01 0. -1.
         -5    1    3    3    0  502  0.19873252225E+02  0.33549971144E+02 -0.12276888764E+03  0.12888063815E+03  0.41800000000E+01 0. -1.
        -11    1    4    4    0    0 -0.97973649741E+02  0.15926022726E+02 -0.18770038998E+03  0.21232972152E+03  0.00000000000E+00 0. -1.
         11    1    4    4    0    0  0.18007486742E+02  0.19477040513E+02 -0.37026315634E+02  0.45547477815E+02  0.00000000000E+00 0.  1.
</event>
<event>
 8    1  0.7102339E-009  0.1189847E+03  0.7561462E-02  0.1244781E+00
          2   -1    0    0  501    0  0.00000000000E+00  0.00000000000E+00  0.19964921812E+03  0.19964921812E+03  0.00000000000E+00 0. -1.
         -2   -1    0    0    0  501 -0.00000000000E+00 -0.00000000000E+00 -0.75393628876E+02  0.75393628876E+02  0.00000000000E+00 0.  1.
         25    2    1    2    0    0  0.44161153138E+02 -0.28413518280E+02  0.47730762317E+02  0.14381579477E+03  0.12508885517E+03 0.  0.
         23    2    1    2    0    0 -0.44161153138E+02  0.28413518280E+02  0.76524826930E+02  0.13122705223E+03  0.92773674239E+02 0.  0.
          5    1    3    3  502    0  0.74010536277E+02 -0.54104830368E+02  0.16198948920E+02  0.93192116058E+02  0.41800000000E+01 0. -1.
         -5    1    3    3    0  502 -0.29849383140E+02  0.25691312088E+02  0.31531813397E+02  0.50623678716E+02  0.41800000000E+01 0. -1.
        -11    1    4    4    0    0  0.29168832832E+02  0.48534770046E+01  0.22138629311E+02  0.36939084390E+02  0.00000000000E+00 0.  1.
         11    1    4    4    0    0 -0.73329985970E+02  0.23560041276E+02  0.54386197619E+02  0.94287967836E+02  0.00000000000E+00 0. -1.
</event>
<event>
 8    1  0.7102339E-009  0.2064037E+03  0.7561462E-02  0.1144446E+00
         -1   -1    0    0    0  501 -0.00000000000E+00  0.00000000000E+00  0.18442810029E+03  0.18442810029E+03  0.00000000000E+00 0.  1.
          1   -1    0    0  501    0  0.00000000000E+00 -0.00000000000E+00 -0.31022706156E+03  0.31022706156E+03  0.00000000000E+00 0. -1.
         25    2    1    2    0    0  0.17297398704E+03  0.84646731037E+02 -0.15852575589E+03  0.27903912021E+03  0.12508935231E+03 0.  0.
         23    2    1    2    0    0 -0.17297398704E+03 -0.84646731037E+02  0.32726794616E+02  0.21561604164E+03  0.91291648352E+02 0.  0.
          5    1    3    3  502    0  0.12235504202E+03  0.10501135834E+03 -0.15579517183E+03  0.22424930246E+03  0.41800000000E+01 0.  1.
         -5    1    3    3    0  502  0.50618945013E+02 -0.20364627305E+02 -0.27305840597E+01  0.54789817748E+02  0.41800000000E+01 0.  1.
        -11    1    4    4    0    0 -0.73028239064E+01 -0.15760478430E+02  0.31750484489E+02  0.36191396528E+02  0.00000000000E+00 0.  1.
         11    1    4    4    0    0 -0.16567116313E+03 -0.68886252608E+02  0.97631012667E+00  0.17942464511E+03  0.00000000000E+00 0. -1.
</event>
<event>
 8    1  0.7102339E-009  0.1470685E+03  0.7561462E-02  0.1204122E+00
         -1   -1    0    0    0  501 -0.00000000000E+00  0.00000000000E+00  0.35155066898E+03  0.35155066898E+03  0.00000000000E+00 0.  1.
          1   -1    0    0  501    0  0.00000000000E+00 -0.00000000000E+00 -0.11030655206E+03  0.11030655206E+03  0.00000000000E+00 0. -1.
         25    2    1    2    0    0 -0.12396218706E+03  0.52785726811E+02  0.16807583003E+02  0.18462015150E+03  0.12509655757E+03 0.  0.
         23    2    1    2    0    0  0.12396218706E+03 -0.52785726811E+02  0.22443653392E+03  0.27723706955E+03  0.91299935376E+02 0.  0.
          5    1    3    3  502    0 -0.33908997746E+02 -0.71213707890E+01 -0.47329043285E+02  0.58805142533E+02  0.41800000000E+01 0. -1.
         -5    1    3    3    0  502 -0.90053189318E+02  0.59907097600E+02  0.64136626288E+02  0.12581500896E+03  0.41800000000E+01 0. -1.
        -11    1    4    4    0    0  0.48352449772E+02 -0.57635758358E+02  0.60150347500E+02  0.96321878848E+02  0.00000000000E+00 0. -1.
         11    1    4    4    0    0  0.75609737292E+02  0.48500315475E+01  0.16428618642E+03  0.18091519070E+03  0.00000000000E+00 0.  1.
</event>
<event>
 8    1  0.7102339E-009  0.1106645E+03  0.7561462E-02  0.1259344E+00
         -1   -1    0    0    0  501 -0.00000000000E+00  0.00000000000E+00  0.55378298791E+02  0.55378298791E+02  0.00000000000E+00 0.  1.
          1   -1    0    0  501    0  0.00000000000E+00 -0.00000000000E+00 -0.26155175699E+03  0.26155175699E+03  0.00000000000E+00 0. -1.
         25    2    1    2    0    0 -0.34357826651E+02  0.16892671025E+02 -0.16587081939E+03  0.21124936044E+03  0.12508933198E+03 0.  0.
         23    2    1    2    0    0  0.34357826651E+02 -0.16892671025E+02 -0.40302638814E+02  0.10568069534E+03  0.89879275064E+02 0.  0.
          5    1    3    3  502    0  0.40590723828E+02  0.30648616315E+02 -0.43625693267E+02  0.67138796950E+02  0.41800000000E+01 0.  1.
         -5    1    3    3    0  502 -0.74948550479E+02 -0.13755945290E+02 -0.12224512612E+03  0.14411056349E+03  0.41800000000E+01 0.  1.
        -11    1    4    4    0    0 -0.29029323252E+02 -0.64815184476E+01 -0.26807661368E+02  0.40042007915E+02  0.00000000000E+00 0.  1.
         11    1    4    4    0    0  0.63387149904E+02 -0.10411152577E+02 -0.13494977447E+02  0.65638687427E+02  0.00000000000E+00 0. -1.
</event>
<event>
 8    1  0.7102339E-009  0.1225992E+03  0.7561462E-02  0.1238870E+00
         -1   -1    0    0    0  501 -0.00000000000E+00  0.00000000000E+00  0.77114712891E+02  0.77114712891E+02  0.00000000000E+00 0.  1.
          1   -1    0    0  501    0  0.00000000000E+00 -0.00000000000E+00 -0.21450742130E+03  0.21450742130E+03  0.00000000000E+00 0. -1.
         25    2    1    2    0    0  0.10337653942E+02  0.65969822461E+02 -0.49263704603E+02  0.15010977377E+03  0.12508855673E+03 0.  0.
         23    2    1    2    0    0 -0.10337653942E+02 -0.65969822461E+02 -0.88129003803E+02  0.14151236042E+03  0.88318414137E+02 0.  0.
          5    1    3    3  502    0  0.61503650728E+02  0.63153005291E+02 -0.18420613800E+02  0.90154270797E+02  0.41800000000E+01 0.  1.
         -5    1    3    3    0  502 -0.51165996787E+02  0.28168171695E+01 -0.30843090803E+02  0.59955502971E+02  0.41800000000E+01 0.  1.
        -11    1    4    4    0    0 -0.19497082143E+02 -0.83504046540E+02 -0.86279291013E+02  0.12164365194E+03  0.00000000000E+00 0. -1.
         11    1    4    4    0    0  0.91594282017E+01  0.17534224079E+02 -0.18497127899E+01  0.19868708475E+02  0.00000000000E+00 0.  1.
</event>
<event>
 8    1  0.7102339E-009  0.1013103E+03  0.7561462E-02  0.1277564E+00
          1   -1    0    0  501    0  0.00000000000E+00  0.00000000000E+00  0.38095006094E+03  0.38095006094E+03  0.00000000000E+00 0. -1.
         -1   -1    0    0    0  501 -0.00000000000E+00 -0.00000000000E+00 -0.48061781324E+02  0.48061781324E+02  0.00000000000E+00 0.  1.
         25    2    1    2    0    0 -0.42643004094E+02  0.54101760443E+02  0.12022575586E+03  0.18667394502E+03  0.12508997999E+03 0.  0.
         23    2    1    2    0    0  0.42643004094E+02 -0.54101760443E+02  0.21266252375E+03  0.24233789725E+03  0.93578208740E+02 0.  0.
          5    1    3    3  502    0 -0.69832724016E+02  0.27612422002E+02  0.12727825551E+03  0.14783870237E+03  0.41800000000E+01 0.  1.
         -5    1    3    3    0  502  0.27189719921E+02  0.26489338441E+02 -0.70524996465E+01  0.38835242650E+02  0.41800000000E+01 0.  1.
        -11    1    4    4    0    0  0.14090917214E+01 -0.47430213393E+02  0.32788198857E+02  0.57677349682E+02  0.00000000000E+00 0.  1.
         11    1    4    4    0    0  0.41233912373E+02 -0.66715470499E+01  0.17987432490E+03  0.18466054756E+03  0.00000000000E+00 0. -1.
</event>
<event>
 8    1  0.7102339E-009  0.1142133E+03  0.7561462E-02  0.1252961E+00
          4   -1    0    0  501    0  0.00000000000E+00  0.00000000000E+00  0.29347190098E+03  0.29347190098E+03  0.00000000000E+00 0. -1.
         -4   -1    0    0    0  501 -0.00000000000E+00 -0.00000000000E+00 -0.85366963436E+02  0.85366963436E+02  0.00000000000E+00 0.  1.
         25    2    1    2    0    0 -0.44538921311E+02  0.55743474738E+02  0.21895599432E+03  0.26206943095E+03  0.12509040210E+03 0.  0.
         23    2    1    2    0    0  0.44538921311E+02 -0.55743474738E+02 -0.10851056777E+02  0.11676943348E+03  0.91794905488E+02 0.  0.
          5    1    3    3  502    0  0.26852396261E+02  0.15306010651E+02  0.33832239609E+01  0.31372659298E+02  0.41800000000E+01 0. -1.
         -5    1    3    3    0  502 -0.71391317573E+02  0.40437464087E+02  0.21557277036E+03  0.23069677165E+03  0.41800000000E+01 0. -1.
        -11    1    4    4    0    0 -0.78107706255E+01 -0.61882779496E+02 -0.14147143285E+02  0.63958019036E+02  0.00000000000E+00 0.  1.
         11    1    4    4    0    0  0.52349691937E+02  0.61393047579E+01  0.32960865080E+01  0.52811414439E+02  0.00000000000E+00 0. -1.
</event>
<event>
 8    1  0.7102339E-009  0.1291376E+03  0.7561462E-02  0.1228741E+00
          1   -1    0    0  501    0  0.00000000000E+00  0.00000000000E+00  0.43617005272E+03  0.43617005272E+03  0.00000000000E+00 0. -1.
         -1   -1    0    0    0  501 -0.00000000000E+00 -0.00000000000E+00 -0.49332435475E+02  0.49332435475E+02  0.00000000000E+00 0.  1.
         25    2    1    2    0    0 -0.66759101226E+02  0.67209467382E+02  0.16570833702E+03  0.22821229411E+03  0.12509079951E+03 0.  0.
         23    2    1    2    0    0  0.66759101226E+02 -0.67209467382E+02  0.22112928022E+03  0.25729019409E+03  0.91247987914E+02 0.  0.
          5    1    3    3  502    0 -0.93927956831E+02  0.45924645905E+02  0.16253157577E+03  0.19330162880E+03  0.41800000000E+01 0.  1.
         -5    1    3    3    0  502  0.27168855605E+02  0.21284821477E+02  0.31767612540E+01  0.34910665308E+02  0.41800000000E+01 0.  1.
        -11    1    4    4    0    0  0.46954867837E+02  0.18876055081E+01  0.37588873931E+02  0.60176790473E+02  0.00000000000E+00 0.  1.
         11    1    4    4    0    0  0.19804233388E+02 -0.69097072890E+02  0.18354040629E+03  0.19711340361E+03  0.00000000000E+00 0. -1.
</event>
<event>
 8    1  0.7102339E-009  0.9154664E+02  0.7561462E-02  0.1299149E+00
          1   -1    0    0  501    0  0.00000000000E+00  0.00000000000E+00  0.26758921030E+03  0.26758921030E+03  0.00000000000E+00 0. -1.
         -1   -1    0    0    0  501 -0.00000000000E+00 -0.00000000000E+00 -0.48630887533E+02  0.48630887533E+02  0.00000000000E+00 0.  1.
         25    2    1    2    0    0 -0.27742355188E+02  0.99536550745E+01  0.96121486123E+02  0.16048540945E+03  0.12509001971E+03 0.  0.
         23    2    1    2    0    0  0.27742355188E+02 -0.99536550745E+01  0.12283683664E+03  0.15573468839E+03  0.91080685159E+02 0.  0.
          5    1    3    3  502    0 -0.63070934052E+02  0.53726665076E+01  0.10577574933E+03  0.12334013870E+03  0.41800000000E+01 0. -1.
         -5    1    3    3    0  502  0.35328578864E+02  0.45809885670E+01 -0.96542632109E+01  0.37145270748E+02  0.41800000000E+01 0. -1.
        -11    1    4    4    0    0  0.49325337773E+02 -0.27048122232E+02  0.11347537836E+03  0.12665406174E+03  0.00000000000E+00 0. -1.
         11    1    4    4    0    0 -0.21582982585E+02  0.17094467158E+02  0.93614582879E+01  0.29080626643E+02  0.00000000000E+00 0.  1.
</event>
<event>
 8    1  0.7102339E-009  0.6615612E+02  0.7561462E-02  0.1373675E+00
          1   -1    0    0  501    0  0.00000000000E+00  0.00000000000E+00  0.99988124268E+02  0.99988124268E+02  0.00000000000E+00 0. -1.
         -1   -1    0    0    0  501 -0.00000000000E+00 -0.00000000000E+00 -0.13187064909E+03  0.13187064909E+03  0.00000000000E+00 0.  1.
         25    2    1    2    0    0 -0.36478647204E+02  0.27057546382E+01 -0.25462746381E+02  0.13278676197E+03  0.12508381146E+03 0.  0.
         23    2    1    2    0    0  0.36478647204E+02 -0.27057546382E+01 -0.64197784364E+01  0.99072011388E+02  0.91847901855E+02 0.  0.
          5    1    3    3  502    0 -0.55132761857E+02 -0.10275614699E+02  0.36237272189E+02  0.66901584309E+02  0.41800000000E+01 0.  1.
         -5    1    3    3    0  502  0.18654114652E+02  0.12981369338E+02 -0.61700018570E+02  0.65885177657E+02  0.41800000000E+01 0.  1.
        -11    1    4    4    0    0  0.41414777954E+02 -0.11412285814E+02  0.35652394608E+02  0.55825776678E+02  0.00000000000E+00 0. -1.
         11    1    4    4    0    0 -0.49361307492E+01  0.87065311763E+01 -0.42072173044E+02  0.43246234710E+02  0.00000000000E+00 0.  1.
</event>
<event>
 8    1  0.7102339E-009  0.1659211E+03  0.7561462E-02  0.1182169E+00
         -2   -1    0    0    0  501 -0.00000000000E+00  0.00000000000E+00  0.12955529016E+03  0.12955529016E+03  0.00000000000E+00 0.  1.
          2   -1    0    0  501    0  0.00000000000E+00 -0.00000000000E+00 -0.26294855744E+03  0.26294855744E+03  0.00000000000E+00 0. -1.
         25    2    1    2    0    0 -0.13933016237E+02  0.14583862270E+03 -0.52847134443E+02  0.19975007379E+03  0.12507693451E+03 0.  0.
         23    2    1    2    0    0  0.13933016237E+02 -0.14583862270E+03 -0.80546132843E+02  0.19275377381E+03  0.95933857360E+02 0.  0.
          5    1    3    3  502    0  0.19689498396E+02  0.14614589450E+03 -0.13978277469E+02  0.14818624588E+03  0.41800000000E+01 0.  1.
         -5    1    3    3    0  502 -0.33622514633E+02 -0.30727179899E+00 -0.38868856974E+02  0.51563827909E+02  0.41800000000E+01 0.  1.
        -11    1    4    4    0    0  0.17001464580E+02 -0.29451642287E+02  0.19539537482E+02  0.39220435442E+02  0.00000000000E+00 0.  1.
         11    1    4    4    0    0 -0.30684483430E+01 -0.11638698042E+03 -0.10008567032E+03  0.15353333837E+03  0.00000000000E+00 0. -1.
</event>
<event>
 8    1  0.7102339E-009  0.1184067E+03  0.7561462E-02  0.1245749E+00
          1   -1    0    0  501    0  0.00000000000E+00  0.00000000000E+00  0.93710523427E+02  0.93710523427E+02  0.00000000000E+00 0. -1.
         -1   -1    0    0    0  501 -0.00000000000E+00 -0.00000000000E+00 -0.21036182933E+03  0.21036182933E+03  0.00000000000E+00 0.  1.
         25    2    1    2    0    0 -0.74339618235E+02 -0.37460192689E+02 -0.97404858407E+02  0.17906708279E+03  0.12509064242E+03 0.  0.
         23    2    1    2    0    0  0.74339618235E+02  0.37460192689E+02 -0.19246447499E+02  0.12500526997E+03  0.91248270689E+02 0.  0.
          5    1    3    3  502    0 -0.67734609257E+02 -0.81176065087E+02 -0.66668568902E+02  0.12505879143E+03  0.41800000000E+01 0.  1.
         -5    1    3    3    0  502 -0.66050089787E+01  0.43715872398E+02 -0.30736289505E+02  0.54008291361E+02  0.41800000000E+01 0.  1.
        -11    1    4    4    0    0  0.39969514172E+02  0.68083626193E+01 -0.53845574400E+02  0.67403722057E+02  0.00000000000E+00 0.  1.
         11    1    4    4    0    0  0.34370104064E+02  0.30651830070E+02  0.34599126900E+02  0.57601547915E+02  0.00000000000E+00 0. -1.
</event>
<event>
 8    1  0.7102339E-009  0.1233149E+03  0.7561462E-02  0.1237727E+00
         -1   -1    0    0    0  501 -0.00000000000E+00  0.00000000000E+00  0.63884907510E+02  0.63884907510E+02  0.00000000000E+00 0.  1.
          1   -1    0    0  501    0  0.00000000000E+00 -0.00000000000E+00 -0.30142333977E+03  0.30142333977E+03  0.00000000000E+00 0. -1.
         25    2    1    2    0    0 -0.52301983321E+02  0.67843888094E+02 -0.10809931178E+03  0.18620256452E+03  0.12509054006E+03 0.  0.
         23    2    1    2    0    0  0.52301983321E+02 -0.67843888094E+02 -0.12943912048E+03  0.17910568277E+03  0.89364808944E+02 0.  0.
          5    1    3    3  502    0  0.16290769234E+02  0.80044478413E+02 -0.59983765295E+02  0.10142993732E+03  0.41800000000E+01 0. -1.
         -5    1    3    3    0  502 -0.68592752555E+02 -0.12200590320E+02 -0.48115546485E+02  0.84772627191E+02  0.41800000000E+01 0. -1.
        -11    1    4    4    0    0  0.44069099153E+02 -0.23504112206E+02 -0.12400067008E+03  0.13368131871E+03  0.00000000000E+00 0. -1.
         11    1    4    4    0    0  0.82328841682E+01 -0.44339775887E+02 -0.54384503996E+01  0.45424364059E+02  0.00000000000E+00 0.  1.
</event>
<event>
 8    1  0.7102339E-009  0.9153521E+02  0.7561462E-02  0.1299176E+00
         -2   -1    0    0    0  501 -0.00000000000E+00  0.00000000000E+00  0.36219131539E+02  0.36219131539E+02  0.00000000000E+00 0.  1.
          2   -1    0    0  501    0  0.00000000000E+00 -0.00000000000E+00 -0.34985475451E+03  0.34985475451E+03  0.00000000000E+00 0. -1.
         25    2    1    2    0    0  0.25794615330E+02 -0.59138124838E+01 -0.15737475603E+03  0.20276647378E+03  0.12508834356E+03 0.  0.
         23    2    1    2    0    0 -0.25794615330E+02  0.59138124838E+01 -0.15626086694E+03  0.18330741226E+03  0.92107619107E+02 0.  0.
          5    1    3    3  502    0 -0.32550476613E+02 -0.19656534817E+01  0.20129759131E+01  0.32938151032E+02  0.41800000000E+01 0. -1.
         -5    1    3    3    0  502  0.58345091943E+02 -0.39481590021E+01 -0.15938773194E+03  0.16982832275E+03  0.41800000000E+01 0. -1.
        -11    1    4    4    0    0  0.31717552226E+02  0.11602951293E+02 -0.33236298098E+02  0.47384418422E+02  0.00000000000E+00 0.  1.
         11    1    4    4    0    0 -0.57512167556E+02 -0.56891388088E+01 -0.12302456884E+03  0.13592299384E+03  0.00000000000E+00 0. -1.
</event>
<event>
 8    1  0.7102339E-009  0.9742167E+02  0.7561462E-02  0.1285813E+00
          4   -1    0    0  501    0  0.00000000000E+00  0.00000000000E+00  0.12486833785E+03  0.12486833785E+03  0.00000000000E+00 0.  1.
         -4   -1    0    0    0  501 -0.00000000000E+00 -0.00000000000E+00 -0.10899791003E+03  0.10899791003E+03  0.00000000000E+00 0. -1.
         25    2    1    2    0    0 -0.31254648833E+02 -0.20750456244E+02 -0.12162174162E+02  0.13116462680E+03  0.12509518910E+03 0.  0.
         23    2    1    2    0    0  0.31254648833E+02  0.20750456244E+02  0.28032601983E+02  0.10270162107E+03  0.91402197398E+02 0.  0.
          5    1    3    3  502    0  0.46438241654E+02 -0.22018314752E+02 -0.13632658537E+02  0.53335150241E+02  0.41800000000E+01 0.  1.
         -5    1    3    3    0  502 -0.77692890487E+02  0.12678585078E+01  0.14704843753E+01  0.77829476560E+02  0.41800000000E+01 0.  1.
        -11    1    4    4    0    0  0.30400939487E+02 -0.12014004222E+02  0.52469325624E+02  0.61818957857E+02  0.00000000000E+00 0.  1.
         11    1    4    4    0    0  0.85370934542E+00  0.32764460467E+02 -0.24436723641E+02  0.40882663216E+02  0.00000000000E+00 0. -1.
</event>
<event>
 7    1  0.7102339E-009  0.1025763E+03  0.7561462E-02  0.1274970E+00
          2   -1    0    0  501    0  0.00000000000E+00  0.00000000000E+00  0.12282558255E+03  0.12282558255E+03  0.00000000000E+00 0. -1.
         -2   -1    0    0    0  501 -0.00000000000E+00 -0.00000000000E+00 -0.12182211017E+03  0.12182211017E+03  0.00000000000E+00 0.  1.
         23    2    1    2    0    0 -0.26498629483E+02 -0.48786896879E+02 -0.59446435862E+01  0.10778383821E+03  0.92193700006E+02 0.  0.
          5    1    1    2  502    0  0.74109842599E+01  0.81354170080E+02  0.35679748265E+02  0.89240912778E+02  0.41800000000E+01 0. -1.
         -5    1    1    2    0  502  0.19087645223E+02 -0.32567273201E+02 -0.28731632305E+02  0.47622941728E+02  0.41800000000E+01 0. -1.
        -11    1    3    3    0    0 -0.75169218804E+01 -0.61867842203E+02  0.26715595970E+02  0.67807500186E+02  0.00000000000E+00 0. -1.
         11    1    3    3    0    0 -0.18981707603E+02  0.13080945325E+02 -0.32660239556E+02  0.39976338026E+02  0.00000000000E+00 0.  1.
</event>
<event>
 8    1  0.7102339E-009  0.1623581E+03  0.7561462E-02  0.1186060E+00
          1   -1    0    0  501    0  0.00000000000E+00  0.00000000000E+00  0.10795495040E+04  0.10795495040E+04  0.00000000000E+00 0. -1.
         -1   -1    0    0    0  501 -0.00000000000E+00 -0.00000000000E+00 -0.37234584137E+02  0.37234584137E+02  0.00000000000E+00 0.  1.
         25    2    1    2    0    0  0.28759241917E+02 -0.14472405693E+03  0.76045332241E+03  0.78467665062E+03  0.12512411360E+03 0.  0.
         23    2    1    2    0    0 -0.28759241917E+02  0.14472405693E+03  0.28186159746E+03  0.33210743753E+03  0.95274567906E+02 0.  0.
          5    1    3    3  502    0  0.39316554016E+02 -0.13747378017E+03  0.75749549953E+03  0.77088373693E+03  0.41800000000E+01 0. -1.
         -5    1    3    3    0  502 -0.10557312099E+02 -0.72502767564E+01  0.29578228846E+01  0.13792913688E+02  0.41800000000E+01 0. -1.
        -11    1    4    4    0    0  0.21863291549E+01  0.13603873192E+03  0.18222066015E+03  0.22741083000E+03  0.00000000000E+00 0.  1.
         11    1    4    4    0    0 -0.30945571072E+02  0.86853250115E+01  0.99640937309E+02  0.10469660753E+03  0.00000000000E+00 0. -1.
</event>
<event>
 8    1  0.7102339E-009  0.1041330E+03  0.7561462E-02  0.1271837E+00
         -1   -1    0    0    0  501 -0.00000000000E+00  0.00000000000E+00  0.46065838818E+02  0.46065838818E+02  0.00000000000E+00 0. -1.
          1   -1    0    0  501    0  0.00000000000E+00 -0.00000000000E+00 -0.34628480700E+03  0.34628480700E+03  0.00000000000E+00 0.  1.
         25    2    1    2    0    0 -0.61089613090E+02 -0.22124252624E+02 -0.15294182608E+03  0.20798841437E+03  0.12508619016E+03 0.  0.
         23    2    1    2    0    0  0.61089613090E+02  0.22124252624E+02 -0.14727714210E+03  0.18436223145E+03  0.89874648348E+02 0.  0.
          5    1    3    3  502    0  0.45941389704E+00 -0.64702211473E+02 -0.84292122631E+02  0.10634482389E+03  0.41800000000E+01 0.  1.
         -5    1    3    3    0  502 -0.61549026987E+02  0.42577958849E+02 -0.68649703449E+02  0.10164359048E+03  0.41800000000E+01 0.  1.
        -11    1    4    4    0    0  0.20169019563E+02  0.18534710251E+02 -0.13998800857E+03  0.14264279645E+03  0.00000000000E+00 0.  1.
         11    1    4    4    0    0  0.40920593527E+02  0.35895423729E+01 -0.72891335332E+01  0.41719435000E+02  0.00000000000E+00 0. -1.
</event>
<event>
 8    1  0.7102339E-009  0.2202368E+03  0.7561462E-02  0.1133707E+00
         -2   -1    0    0    0  501 -0.00000000000E+00  0.00000000000E+00  0.88626782345E+02  0.88626782345E+02  0.00000000000E+00 0.  1.
          2   -1    0    0  501    0  0.00000000000E+00 -0.00000000000E+00 -0.60381763567E+03  0.60381763567E+03  0.00000000000E+00 0. -1.
         25    2    1    2    0    0  0.20267259803E+03 -0.43711971763E+01 -0.28864327460E+03  0.37424416103E+03  0.12509381574E+03 0.  0.
         23    2    1    2    0    0 -0.20267259803E+03  0.43711971763E+01 -0.22654757872E+03  0.31820025698E+03  0.93980363697E+02 0.  0.
          5    1    3    3  502    0  0.13184889971E+03  0.36856039118E+02 -0.24650464346E+03  0.28200090713E+03  0.41800000000E+01 0.  1.
         -5    1    3    3    0  502  0.70823698316E+02 -0.41227236295E+02 -0.42138631139E+02  0.92243253900E+02  0.41800000000E+01 0.  1.
        -11    1    4    4    0    0 -0.15221284650E+02 -0.27382678845E+02 -0.18572329897E+02  0.36420187327E+02  0.00000000000E+00 0. -1.
         11    1    4    4    0    0 -0.18745131338E+03  0.31753876021E+02 -0.20797524882E+03  0.28178006965E+03  0.00000000000E+00 0.  1.
</event>
<event>
 8    1  0.7102339E-009  0.1042773E+03  0.7561462E-02  0.1271550E+00
          2   -1    0    0  501    0  0.00000000000E+00  0.00000000000E+00  0.37673581968E+02  0.37673581968E+02  0.00000000000E+00 0. -1.
         -2   -1    0    0    0  501 -0.00000000000E+00 -0.00000000000E+00 -0.36789800544E+03  0.36789800544E+03  0.00000000000E+00 0.  1.
         25    2    1    2    0    0 -0.26064500039E+02 -0.22863197436E+02 -0.13540961976E+03  0.18757225766E+03  0.12508198416E+03 0.  0.
         23    2    1    2    0    0  0.26064500039E+02  0.22863197436E+02 -0.19481480371E+03  0.21799932975E+03  0.91481233404E+02 0.  0.
          5    1    3    3  502    0 -0.51717117777E+01 -0.73708626254E+02 -0.86854398003E+02  0.11410901384E+03  0.41800000000E+01 0. -1.
         -5    1    3    3    0  502 -0.20892788261E+02  0.50845428818E+02 -0.48555221755E+02  0.73463243821E+02  0.41800000000E+01 0. -1.
        -11    1    4    4    0    0  0.45020589995E+02 -0.54447445135E+01 -0.16975183862E+03  0.17570482486E+03  0.00000000000E+00 0.  1.
         11    1    4    4    0    0 -0.18956089957E+02  0.28307941949E+02 -0.25062965093E+02  0.42294504881E+02  0.00000000000E+00 0. -1.
</event>
<event>
 8    1  0.7102339E-009  0.2017947E+03  0.7561462E-02  0.1148234E+00
          2   -1    0    0  501    0  0.00000000000E+00  0.00000000000E+00  0.17265192731E+03  0.17265192731E+03  0.00000000000E+00 0. -1.
         -2   -1    0    0    0  501 -0.00000000000E+00 -0.00000000000E+00 -0.26655065860E+03  0.26655065860E+03  0.00000000000E+00 0.  1.
         25    2    1    2    0    0  0.17800361501E+03 -0.45549681774E+02 -0.27051767125E+02  0.22391975891E+03  0.12509276501E+03 0.  0.
         23    2    1    2    0    0 -0.17800361501E+03  0.45549681774E+02 -0.66846964167E+02  0.21528282700E+03  0.90100602184E+02 0.  0.
          5    1    3    3  502    0  0.19120440130E+03 -0.36807837016E+02 -0.29511042871E+01  0.19478224087E+03  0.41800000000E+01 0.  1.
         -5    1    3    3    0  502 -0.13200786285E+02 -0.87418447575E+01 -0.24100662838E+02  0.29137518040E+02  0.41800000000E+01 0.  1.
        -11    1    4    4    0    0 -0.12495870408E+03  0.39131399579E+01 -0.77382329870E+02  0.14703066131E+03  0.00000000000E+00 0.  1.
         11    1    4    4    0    0 -0.53044910938E+02  0.41636541816E+02  0.10535365702E+02  0.68252165689E+02  0.00000000000E+00 0. -1.
</event>
<event>
 8    1  0.7102339E-009  0.1328175E+03  0.7561462E-02  0.1223334E+00
          2   -1    0    0  501    0  0.00000000000E+00  0.00000000000E+00  0.23448237812E+03  0.23448237812E+03  0.00000000000E+00 0. -1.
         -2   -1    0    0    0  501 -0.00000000000E+00 -0.00000000000E+00 -0.92703459298E+02  0.92703459298E+02  0.00000000000E+00 0.  1.
         25    2    1    2    0    0  0.43499208700E+02  0.67372669074E+02  0.14288689646E+03  0.20614677920E+03  0.12509425127E+03 0.  0.
         23    2    1    2    0    0 -0.43499208700E+02 -0.67372669074E+02 -0.11079776359E+01  0.12103905822E+03  0.90653010450E+02 0.  0.
          5    1    3    3  502    0  0.51345853620E+02  0.99235753189E+02  0.12774534344E+03  0.16976594642E+03  0.41800000000E+01 0. -1.
         -5    1    3    3    0  502 -0.78466449197E+01 -0.31863084115E+02  0.15141553017E+02  0.36380832777E+02  0.41800000000E+01 0. -1.
        -11    1    4    4    0    0 -0.29668256473E+02 -0.89700557532E+02 -0.43227074408E+01  0.94578439738E+02  0.00000000000E+00 0. -1.
         11    1    4    4    0    0 -0.13830952227E+02  0.22327888458E+02  0.32147298049E+01  0.26460618478E+02  0.00000000000E+00 0.  1.
</event>
<event>
 8    1  0.7102339E-009  0.1710034E+03  0.7561462E-02  0.1176806E+00
          1   -1    0    0  501    0  0.00000000000E+00  0.00000000000E+00  0.23500357162E+03  0.23500357162E+03  0.00000000000E+00 0. -1.
         -1   -1    0    0    0  501 -0.00000000000E+00 -0.00000000000E+00 -0.25138510847E+03  0.25138510847E+03  0.00000000000E+00 0.  1.
         25    2    1    2    0    0  0.97747041535E+02  0.99680818878E+02  0.15750699748E+03  0.24484100232E+03  0.12509161595E+03 0.  0.
         23    2    1    2    0    0 -0.97747041535E+02 -0.99680818878E+02 -0.17388853432E+03  0.24154767777E+03  0.92829459151E+02 0.  0.
          5    1    3    3  502    0  0.98027212073E+02  0.20490777713E+02  0.52189484186E+02  0.11300628716E+03  0.41800000000E+01 0. -1.
         -5    1    3    3    0  502 -0.28017053742E+00  0.79190041165E+02  0.10531751329E+03  0.13183471516E+03  0.41800000000E+01 0. -1.
        -11    1    4    4    0    0 -0.10581971000E+03 -0.10777537089E+03 -0.14060940110E+03  0.20635974722E+03  0.00000000000E+00 0. -1.
         11    1    4    4    0    0  0.80726684618E+01  0.80945520125E+01 -0.33279133227E+02  0.35187930555E+02  0.00000000000E+00 0.  1.
</event>
<event>
 8    1  0.7102339E-009  0.1698769E+03  0.7561462E-02  0.1177976E+00
          2   -1    0    0  501    0  0.00000000000E+00  0.00000000000E+00  0.41012522353E+03  0.41012522353E+03  0.00000000000E+00 0.  1.
         -2   -1    0    0    0  501 -0.00000000000E+00 -0.00000000000E+00 -0.20330228772E+03  0.20330228772E+03  0.00000000000E+00 0. -1.
         25    2    1    2    0    0 -0.14383982169E+03  0.81228248378E+01  0.34480289289E+03  0.39407277603E+03  0.12509373794E+03 0.  0.
         23    2    1    2    0    0  0.14383982169E+03 -0.81228248378E+01 -0.13797995709E+03  0.21935473522E+03  0.91225855527E+02 0.  0.
          5    1    3    3  502    0 -0.11504870491E+03  0.59141396145E+02  0.26574314849E+03  0.29558552503E+03  0.41800000000E+01 0.  1.
         -5    1    3    3    0  502 -0.28791116784E+02 -0.51018571307E+02  0.79059744408E+02  0.98487251001E+02  0.41800000000E+01 0.  1.
        -11    1    4    4    0    0  0.34681917165E+02  0.18402055409E+02  0.26682509954E+01  0.39352135710E+02  0.00000000000E+00 0.  1.
         11    1    4    4    0    0  0.10915790453E+03 -0.26524880247E+02 -0.14064820808E+03  0.18000259951E+03  0.00000000000E+00 0. -1.
</event>
<event>
 8    1  0.7102339E-009  0.7643326E+02  0.7561462E-02  0.1339489E+00
         -1   -1    0    0    0  501 -0.00000000000E+00  0.00000000000E+00  0.34247642138E+02  0.34247642138E+02  0.00000000000E+00 0.  1.
          1   -1    0    0  501    0  0.00000000000E+00 -0.00000000000E+00 -0.37188126139E+03  0.37188126139E+03  0.00000000000E+00 0. -1.
         25    2    1    2    0    0 -0.28922300292E+02  0.11397054683E+01 -0.15231507322E+03  0.19920998833E+03  0.12508772736E+03 0.  0.
         23    2    1    2    0    0  0.28922300292E+02 -0.11397054683E+01 -0.18531854604E+03  0.20691891520E+03  0.87376630636E+02 0.  0.
          5    1    3    3  502    0 -0.19656181785E+02  0.28973693458E+02 -0.16370862066E+03  0.16746290716E+03  0.41800000000E+01 0.  1.
         -5    1    3    3    0  502 -0.92661185066E+01 -0.27833987989E+02  0.11393547441E+02  0.31747081171E+02  0.41800000000E+01 0.  1.
        -11    1    4    4    0    0  0.20867281673E+02  0.40501231705E+02 -0.65272814991E+02  0.79601090388E+02  0.00000000000E+00 0.  1.
         11    1    4    4    0    0  0.80550186184E+01 -0.41640937173E+02 -0.12004573105E+03  0.12731782482E+03  0.00000000000E+00 0. -1.
</event>
<event>
 8    1  0.7102339E-009  0.2092312E+03  0.7561462E-02  0.1142176E+00
          1   -1    0    0  501    0  0.00000000000E+00  0.00000000000E+00  0.75466105759E+03  0.75466105759E+03  0.00000000000E+00 0. -1.
         -1   -1    0    0    0  501 -0.00000000000E+00 -0.00000000000E+00 -0.62241479670E+02  0.62241479670E+02  0.00000000000E+00 0.  1.
         25    2    1    2    0    0 -0.17014564912E+03 -0.77208988178E+02  0.37712777814E+03  0.43906812992E+03  0.12507874280E+03 0.  0.
         23    2    1    2    0    0  0.17014564912E+03  0.77208988178E+02  0.31529179978E+03  0.37783440733E+03  0.91864849590E+02 0.  0.
          5    1    3    3  502    0 -0.75585584356E+02 -0.87140476086E+02  0.28105784291E+03  0.30383815856E+03  0.41800000000E+01 0.  1.
         -5    1    3    3    0  502 -0.94560064761E+02  0.99314879083E+01  0.96069935225E+02  0.13522997136E+03  0.41800000000E+01 0.  1.
        -11    1    4    4    0    0  0.81314085582E+02 -0.11731895822E+02  0.11407801968E+03  0.14058240455E+03  0.00000000000E+00 0. -1.
         11    1    4    4    0    0  0.88831563535E+02  0.88940884000E+02  0.20121378009E+03  0.23725200278E+03  0.00000000000E+00 0.  1.
</event>
<event>
 8    1  0.7102339E-009  0.1207281E+03  0.7561462E-02  0.1241901E+00
          1   -1    0    0  501    0  0.00000000000E+00  0.00000000000E+00  0.49900142391E+03  0.49900142391E+03  0.00000000000E+00 0. -1.
         -1   -1    0    0    0  501 -0.00000000000E+00 -0.00000000000E+00 -0.40500047907E+02  0.40500047907E+02  0.00000000000E+00 0.  1.
         25    2    1    2    0    0 -0.20600823068E+02 -0.85492992097E+02  0.30003478171E+03  0.33675162718E+03  0.12508933834E+03 0.  0.
         23    2    1    2    0    0  0.20600823068E+02  0.85492992097E+02  0.15846659430E+03  0.20274984464E+03  0.90897702848E+02 0.  0.
          5    1    3    3  502    0 -0.59553512421E+02 -0.12049961723E+02  0.73775350324E+02  0.95666593619E+02  0.41800000000E+01 0.  1.
         -5    1    3    3    0  502  0.38952689353E+02 -0.73443030374E+02  0.22625943138E+03  0.24108503356E+03  0.41800000000E+01 0.  1.
        -11    1    4    4    0    0  0.21767881022E+02  0.14153500805E+02 -0.30818980564E+01  0.26146898954E+02  0.00000000000E+00 0.  1.
         11    1    4    4    0    0 -0.11670579549E+01  0.71339491292E+02  0.16154849235E+03  0.17660294568E+03  0.00000000000E+00 0. -1.
</event>
<event>
 7    1  0.7102339E-009  0.7014403E+02  0.7561462E-02  0.1359604E+00
          1   -1    0    0  501    0  0.00000000000E+00  0.00000000000E+00  0.26186632567E+03  0.26186632567E+03  0.00000000000E+00 0. -1.
         -1   -1    0    0    0  501 -0.00000000000E+00 -0.00000000000E+00 -0.48230742669E+02  0.48230742669E+02  0.00000000000E+00 0.  1.
         23    2    1    2    0    0 -0.10541804631E+02  0.11569091194E+02  0.11608507092E+03  0.15058709432E+03  0.94634854951E+02 0.  0.
          5    1    1    2  502    0  0.38363710143E+02 -0.16557539147E+02  0.11742293216E+03  0.12470582887E+03  0.41800000000E+01 0. -1.
         -5    1    1    2    0  502 -0.27821905512E+02  0.49884479539E+01 -0.19872420074E+02  0.34804145140E+02  0.41800000000E+01 0. -1.
        -11    1    3    3    0    0 -0.25045360040E+02  0.34474135688E+02  0.11588999849E+03  0.12347561639E+03  0.00000000000E+00 0. -1.
         11    1    3    3    0    0  0.14503555408E+02 -0.22905044494E+02  0.19507242203E+00  0.27111477939E+02  0.00000000000E+00 0.  1.
</event>
<event>
 8    1  0.7102339E-009  0.1033732E+03  0.7561462E-02  0.1273358E+00
          2   -1    0    0  501    0  0.00000000000E+00  0.00000000000E+00  0.21060534135E+03  0.21060534135E+03  0.00000000000E+00 0. -1.
         -2   -1    0    0    0  501 -0.00000000000E+00 -0.00000000000E+00 -0.59680906152E+02  0.59680906152E+02  0.00000000000E+00 0.  1.
         25    2    1    2    0    0 -0.44354209890E+01  0.37932001145E+01  0.11150496407E+03  0.16767595588E+03  0.12509119809E+03 0.  0.
         23    2    1    2    0    0  0.44354209890E+01 -0.37932001145E+01  0.39419471119E+02  0.10261029162E+03  0.94556416580E+02 0.  0.
          5    1    3    3  502    0  0.83094368857E+01 -0.59148460663E+02  0.43222739871E+02  0.73846223886E+02  0.41800000000E+01 0. -1.
         -5    1    3    3    0  502 -0.12744857875E+02  0.62941660778E+02  0.68282224203E+02  0.93829731993E+02  0.41800000000E+01 0. -1.
        -11    1    4    4    0    0  0.39974395590E+02  0.14528061270E+02  0.45367126854E+02  0.62186759572E+02  0.00000000000E+00 0.  1.
         11    1    4    4    0    0 -0.35538974601E+02 -0.18321261385E+02 -0.59476557349E+01  0.40423532047E+02  0.00000000000E+00 0. -1.
</event>
<event>
 8    1  0.7102339E-009  0.1197155E+03  0.7561462E-02  0.1243567E+00
         -4   -1    0    0    0  501 -0.00000000000E+00  0.00000000000E+00  0.82091538526E+02  0.82091538526E+02  0.00000000000E+00 0.  1.
          4   -1    0    0  501    0  0.00000000000E+00 -0.00000000000E+00 -0.23339095106E+03  0.23339095106E+03  0.00000000000E+00 0. -1.
         25    2    1    2    0    0 -0.78215765570E+02 -0.22799056462E+02 -0.11293626946E+03  0.18718965813E+03  0.12509142333E+03 0.  0.
         23    2    1    2    0    0  0.78215765570E+02  0.22799056462E+02 -0.38363143077E+02  0.12829283146E+03  0.91377332522E+02 0.  0.
          5    1    3    3  502    0 -0.19235086462E+01 -0.55248480150E+02 -0.12396664579E+02  0.56808838547E+02  0.41800000000E+01 0.  1.
         -5    1    3    3    0  502 -0.76292256923E+02  0.32449423688E+02 -0.10053960488E+03  0.13038081958E+03  0.41800000000E+01 0.  1.
        -11    1    4    4    0    0  0.86787324259E+02  0.12665024908E+02 -0.85562385880E-02  0.87706570913E+02  0.00000000000E+00 0.  1.
         11    1    4    4    0    0 -0.85715586899E+01  0.10134031554E+02 -0.38354586838E+02  0.40586260550E+02  0.00000000000E+00 0. -1.
</event>
<event>
 8    1  0.7102339E-009  0.2011819E+03  0.7561462E-02  0.1148746E+00
          1   -1    0    0  501    0  0.00000000000E+00  0.00000000000E+00  0.25079852171E+03  0.25079852171E+03  0.00000000000E+00 0. -1.
         -1   -1    0    0    0  501 -0.00000000000E+00 -0.00000000000E+00 -0.21062040565E+03  0.21062040565E+03  0.00000000000E+00 0.  1.
         25    2    1    2    0    0  0.46243789337E+02  0.17642733395E+03  0.10926476991E+03  0.24667998078E+03  0.12508849171E+03 0.  0.
         23    2    1    2    0    0 -0.46243789337E+02 -0.17642733395E+03 -0.69086653846E+02  0.21473894658E+03  0.89859652896E+02 0.  0.
          5    1    3    3  502    0 -0.10747373792E+02 -0.15728942643E+02  0.28392791689E+01  0.19708870752E+02  0.41800000000E+01 0. -1.
         -5    1    3    3    0  502  0.56991163129E+02  0.19215627660E+03  0.10642549074E+03  0.22697111003E+03  0.41800000000E+01 0. -1.
        -11    1    4    4    0    0 -0.25053669424E+02 -0.95763583477E+02 -0.84231728233E+02  0.12997436021E+03  0.00000000000E+00 0.  1.
         11    1    4    4    0    0 -0.21190119913E+02 -0.80663750477E+02  0.15145074387E+02  0.84764586362E+02  0.00000000000E+00 0. -1.
</event>
<event>
 8    1  0.7102339E-009  0.1175358E+03  0.7561462E-02  0.1247218E+00
         -1   -1    0    0    0  501 -0.00000000000E+00  0.00000000000E+00  0.40165293604E+03  0.40165293604E+03  0.00000000000E+00 0.  1.
          1   -1    0    0  501    0  0.00000000000E+00 -0.00000000000E+00 -0.45901138519E+02  0.45901138519E+02  0.00000000000E+00 0. -1.
         25    2    1    2    0    0  0.57249064918E+01  0.74074463943E+02  0.15430733138E+03  0.21207886549E+03  0.12508753699E+03 0.  0.
         23    2    1    2    0    0 -0.57249064918E+01 -0.74074463943E+02  0.20144446615E+03  0.23547520907E+03  0.96689711872E+02 0.  0.
          5    1    3    3  502    0 -0.45515110362E+02  0.89628377228E+01  0.10671306398E+03  0.11643499540E+03  0.41800000000E+01 0.  1.
         -5    1    3    3    0  502  0.51240016854E+02  0.65111626221E+02  0.47594267400E+02  0.95643870089E+02  0.41800000000E+01 0.  1.
        -11    1    4    4    0    0  0.32497297759E+02 -0.16551653343E+02  0.20585640718E+02  0.41878397698E+02  0.00000000000E+00 0. -1.
         11    1    4    4    0    0 -0.38222204251E+02 -0.57522810600E+02  0.18085882543E+03  0.19359681137E+03  0.00000000000E+00 0.  1.
</event>
<event>
 8    1  0.7102339E-009  0.1163452E+03  0.7561462E-02  0.1249251E+00
          2   -1    0    0  501    0  0.00000000000E+00  0.00000000000E+00  0.26629109993E+03  0.26629109993E+03  0.00000000000E+00 0. -1.
         -2   -1    0    0    0  501 -0.00000000000E+00 -0.00000000000E+00 -0.76176170567E+02  0.76176170567E+02  0.00000000000E+00 0.  1.
         25    2    1    2    0    0  0.55504793993E+02  0.62910370304E+02  0.89327782133E+02  0.17511707308E+03  0.12509212516E+03 0.  0.
         23    2    1    2    0    0 -0.55504793993E+02 -0.62910370304E+02  0.10078714723E+03  0.16735019742E+03  0.10396895056E+03 0.  0.
          5    1    3    3  502    0  0.67535130135E+02  0.89883696822E+02  0.91771882336E+02  0.14518823487E+03  0.41800000000E+01 0.  1.
         -5    1    3    3    0  502 -0.12030336142E+02 -0.26973326518E+02 -0.24441002029E+01  0.29928838215E+02  0.41800000000E+01 0.  1.
        -11    1    4    4    0    0 -0.18160229663E+00 -0.20872083623E+02  0.95402272889E+02  0.97658950059E+02  0.00000000000E+00 0. -1.
         11    1    4    4    0    0 -0.55323191696E+02 -0.42038286682E+02  0.53848743445E+01  0.69691247358E+02  0.00000000000E+00 0.  1.
</event>
<event>
 7    1  0.7102339E-009  0.9567133E+02  0.7561462E-02  0.1289671E+00
          1   -1    0    0  501    0  0.00000000000E+00  0.00000000000E+00  0.23588858268E+03  0.23588858268E+03  0.00000000000E+00 0. -1.
         -1   -1    0    0    0  501 -0.00000000000E+00 -0.00000000000E+00 -0.10077161490E+03  0.10077161490E+03  0.00000000000E+00 0.  1.
         25    2    1    2    0    0  0.36587587432E+02  0.50462482913E+02  0.55156086768E+02  0.15024789602E+03  0.12508845916E+03 0.  0.
          5    1    3    3  502    0  0.29540026515E+02  0.54805814587E+01  0.88568155044E+02  0.93618590181E+02  0.41800000000E+01 0.  1.
         -5    1    3    3    0  502  0.70475609162E+01  0.44981901454E+02 -0.33412068276E+02  0.56629305838E+02  0.41800000000E+01 0.  1.
        -11    1    1    2    0    0 -0.66004468720E+02 -0.54496631136E+02  0.11315109344E+03  0.14187897182E+03  0.00000000000E+00 0. -1.
         11    1    1    2    0    0  0.29416881289E+02  0.40341482234E+01 -0.33190212434E+02  0.44533329744E+02  0.00000000000E+00 0.  1.
</event>
<event>
 8    1  0.7102339E-009  0.1178693E+03  0.7561462E-02  0.1246654E+00
          1   -1    0    0  501    0  0.00000000000E+00  0.00000000000E+00  0.85633212134E+03  0.85633212134E+03  0.00000000000E+00 0. -1.
         -1   -1    0    0    0  501 -0.00000000000E+00 -0.00000000000E+00 -0.19403733746E+02  0.19403733746E+02  0.00000000000E+00 0.  1.
         25    2    1    2    0    0  0.68140319241E+02 -0.22356870557E+02  0.48553158345E+03  0.50648942766E+03  0.12509072321E+03 0.  0.
         23    2    1    2    0    0 -0.68140319241E+02  0.22356870557E+02  0.35139680414E+03  0.36924642742E+03  0.87865109341E+02 0.  0.
          5    1    3    3  502    0  0.93399695905E+02 -0.49487673159E+02  0.38468843110E+03  0.39896766086E+03  0.41800000000E+01 0. -1.
         -5    1    3    3    0  502 -0.25259376664E+02  0.27130802602E+02  0.10084315235E+03  0.10752176680E+03  0.41800000000E+01 0. -1.
        -11    1    4    4    0    0 -0.17960231951E+02 -0.20074922143E+02  0.26558360931E+02  0.37827489556E+02  0.00000000000E+00 0.  1.
         11    1    4    4    0    0 -0.50180087290E+02  0.42431792700E+02  0.32483844321E+03  0.33141893787E+03  0.00000000000E+00 0. -1.
</event>
<event>
 8    1  0.7102339E-009  0.8353516E+02  0.7561462E-02  0.1319308E+00
          2   -1    0    0  501    0  0.00000000000E+00  0.00000000000E+00  0.18431811542E+02  0.18431811542E+02  0.00000000000E+00 0. -1.
         -2   -1    0    0    0  501 -0.00000000000E+00 -0.00000000000E+00 -0.73563631611E+03  0.73563631611E+03  0.00000000000E+00 0.  1.
         25    2    1    2    0    0  0.40448341039E+02  0.44798991809E+01 -0.37170039475E+03  0.39429121962E+03  0.12509294394E+03 0.  0.
         23    2    1    2    0    0 -0.40448341039E+02 -0.44798991809E+01 -0.34550410982E+03  0.35977690803E+03  0.91707120013E+02 0.  0.
          5    1    3    3  502    0 -0.11974783831E+02  0.70853933853E+01 -0.32056209787E+03  0.32089114858E+03  0.41800000000E+01 0. -1.
         -5    1    3    3    0  502  0.52423124870E+02 -0.26054942044E+01 -0.51138296886E+02  0.73400071046E+02  0.41800000000E+01 0. -1.
        -11    1    4    4    0    0  0.28945095692E+02  0.64072022420E+01 -0.87717615363E+02  0.92591850884E+02  0.00000000000E+00 0. -1.
         11    1    4    4    0    0 -0.69393436731E+02 -0.10887101423E+02 -0.25778649445E+03  0.26718505714E+03  0.00000000000E+00 0.  1.
</event>
<event>
 8    1  0.7102339E-009  0.6293075E+02  0.7561462E-02  0.1385929E+00
         -2   -1    0    0    0  501 -0.00000000000E+00  0.00000000000E+00  0.50445745007E+02  0.50445745007E+02  0.00000000000E+00 0.  1.
          2   -1    0    0  501    0  0.00000000000E+00 -0.00000000000E+00 -0.44783998287E+03  0.44783998287E+03  0.00000000000E+00 0. -1.
         25    2    1    2    0    0 -0.10822275632E+02  0.17066903182E+02 -0.40881048231E+03  0.42799913112E+03  0.12509534347E+03 0.  0.
         23    2    1    2    0    0  0.10822275632E+02 -0.17066903182E+02  0.11416244444E+02  0.70286596761E+02  0.66343607175E+02 0.  0.
          5    1    3    3  502    0 -0.38448239895E+02  0.12565287126E+01 -0.33103587490E+02  0.50923137375E+02  0.41800000000E+01 0. -1.
         -5    1    3    3    0  502  0.27625964263E+02  0.15810374469E+02 -0.37570689482E+03  0.37707599374E+03  0.41800000000E+01 0. -1.
        -11    1    4    4    0    0  0.91299809288E+01  0.17879376846E+02  0.25600653980E+02  0.32533400565E+02  0.00000000000E+00 0.  1.
         11    1    4    4    0    0  0.16922947027E+01 -0.34946280027E+02 -0.14184409536E+02  0.37753196196E+02  0.00000000000E+00 0. -1.
</event>
<event>
 8    1  0.7102339E-009  0.9187856E+02  0.7561462E-02  0.1298365E+00
          1   -1    0    0  501    0  0.00000000000E+00  0.00000000000E+00  0.64506034597E+02  0.64506034597E+02  0.00000000000E+00 0. -1.
         -1   -1    0    0    0  501 -0.00000000000E+00 -0.00000000000E+00 -0.19881990869E+03  0.19881990869E+03  0.00000000000E+00 0.  1.
         25    2    1    2    0    0 -0.29791616863E+02  0.92299580259E+01 -0.58104512947E+02  0.14140553522E+03  0.12508660362E+03 0.  0.
         23    2    1    2    0    0  0.29791616863E+02 -0.92299580259E+01 -0.76209361150E+02  0.12192040807E+03  0.89910992752E+02 0.  0.
          5    1    3    3  502    0  0.32637336933E+02 -0.19498772690E+02 -0.61555221578E+02  0.72470101435E+02  0.41800000000E+01 0.  1.
         -5    1    3    3    0  502 -0.62428953796E+02  0.28728730716E+02  0.34507086315E+01  0.68935433781E+02  0.41800000000E+01 0.  1.
        -11    1    4    4    0    0  0.15894071445E+02  0.30596770187E+02 -0.71623097759E+02  0.79489948959E+02  0.00000000000E+00 0.  1.
         11    1    4    4    0    0  0.13897545418E+02 -0.39826728213E+02 -0.45862633907E+01  0.42430459115E+02  0.00000000000E+00 0. -1.
</event>
<event>
 8    1  0.7102339E-009  0.2995856E+03  0.7561462E-02  0.1085448E+00
         -1   -1    0    0    0  501 -0.00000000000E+00  0.00000000000E+00  0.50783725396E+02  0.50783725396E+02  0.00000000000E+00 0.  1.
          1   -1    0    0  501    0  0.00000000000E+00 -0.00000000000E+00 -0.20164087073E+04  0.20164087073E+04  0.00000000000E+00 0. -1.
         25    2    1    2    0    0  0.28402336594E+03 -0.67592353349E+02 -0.12103137819E+04  0.12512969826E+04  0.12508672710E+03 0.  0.
         23    2    1    2    0    0 -0.28402336594E+03  0.67592353349E+02 -0.75531120003E+03  0.81589545015E+03  0.99761606120E+02 0.  0.
          5    1    3    3  502    0  0.12069877212E+02 -0.19272665950E+00 -0.48026316211E+01  0.13647591361E+02  0.41800000000E+01 0. -1.
         -5    1    3    3    0  502  0.27195348873E+03 -0.67399626689E+02 -0.12055111503E+04  0.12376493912E+04  0.41800000000E+01 0. -1.
        -11    1    4    4    0    0 -0.24968245374E+03  0.89741338084E+02 -0.68475654604E+03  0.73436119369E+03  0.00000000000E+00 0. -1.
         11    1    4    4    0    0 -0.34340912204E+02 -0.22148984735E+02 -0.70554653995E+02  0.81534256459E+02  0.00000000000E+00 0.  1.
</event>
<event>
 8    1  0.7102339E-009  0.1043005E+03  0.7561462E-02  0.1271504E+00
          2   -1    0    0  501    0  0.00000000000E+00  0.00000000000E+00  0.27554589215E+03  0.27554589215E+03  0.00000000000E+00 0. -1.
         -2   -1    0    0    0  501 -0.00000000000E+00 -0.00000000000E+00 -0.45903082989E+02  0.45903082989E+02  0.00000000000E+00 0.  1.
         25    2    1    2    0    0  0.86703130055E+01 -0.28122025813E+02  0.12842317315E+03  0.18167569880E+03  0.12509006942E+03 0.  0.
         23    2    1    2    0    0 -0.86703130055E+01  0.28122025813E+02  0.10121963600E+03  0.13977327634E+03  0.91788514543E+02 0.  0.
          5    1    3    3  502    0  0.56736193734E+02 -0.32010297287E+02  0.29682138799E+02  0.71708831921E+02  0.41800000000E+01 0. -1.
         -5    1    3    3    0  502 -0.48065880729E+02  0.38882714739E+01  0.98741034356E+02  0.10996686688E+03  0.41800000000E+01 0. -1.
        -11    1    4    4    0    0 -0.18977329019E+02 -0.30214458383E+02  0.26635397288E+02  0.44525238919E+02  0.00000000000E+00 0. -1.
         11    1    4    4    0    0  0.10307016014E+02  0.58336484195E+02  0.74584238716E+02  0.95248037420E+02  0.00000000000E+00 0.  1.
</event>
<event>
 8    1  0.7102339E-009  0.9169099E+02  0.7561462E-02  0.1298808E+00
         -2   -1    0    0    0  501 -0.00000000000E+00  0.00000000000E+00  0.21428720474E+03  0.21428720474E+03  0.00000000000E+00 0.  1.
          2   -1    0    0  501    0  0.00000000000E+00 -0.00000000000E+00 -0.73398138105E+02  0.73398138105E+02  0.00000000000E+00 0. -1.
         25    2    1    2    0    0  0.31231400711E+02 -0.53953545202E+02  0.84161264542E+02  0.16315254130E+03  0.12509695381E+03 0.  0.
         23    2    1    2    0    0 -0.31231400711E+02  0.53953545202E+02  0.56727802091E+02  0.12453280154E+03  0.91673276913E+02 0.  0.
          5    1    3    3  502    0  0.55343875823E+02 -0.54462056817E+02  0.10523928338E+03  0.13085044666E+03  0.41800000000E+01 0. -1.
         -5    1    3    3    0  502 -0.24112475112E+02  0.50851161530E+00 -0.21078018840E+02  0.32302094643E+02  0.41800000000E+01 0. -1.
        -11    1    4    4    0    0 -0.39184407973E+02  0.15929921542E+02 -0.13394919800E+02  0.44368954292E+02  0.00000000000E+00 0. -1.
         11    1    4    4    0    0  0.79530072619E+01  0.38023623659E+02  0.70122721891E+02  0.80163847251E+02  0.00000000000E+00 0.  1.
</event>
<event>
 8    1  0.7102339E-009  0.1006729E+03  0.7561462E-02  0.1278887E+00
         -3   -1    0    0    0  501 -0.00000000000E+00  0.00000000000E+00  0.85410615859E+03  0.85410615859E+03  0.00000000000E+00 0.  1.
          3   -1    0    0  501    0  0.00000000000E+00 -0.00000000000E+00 -0.19909175270E+02  0.19909175270E+02  0.00000000000E+00 0. -1.
         25    2    1    2    0    0 -0.24129435628E+02  0.68113140497E+02  0.45322717117E+03  0.47569237787E+03  0.12508693020E+03 0.  0.
         23    2    1    2    0    0  0.24129435628E+02 -0.68113140497E+02  0.38096981214E+03  0.39832295598E+03  0.91112841723E+02 0.  0.
          5    1    3    3  502    0  0.21508652589E+02  0.39550510084E+02  0.38970229576E+03  0.39231647519E+03  0.41800000000E+01 0.  1.
         -5    1    3    3    0  502 -0.45638088217E+02  0.28562630413E+02  0.63524875411E+02  0.83375902683E+02  0.41800000000E+01 0.  1.
        -11    1    4    4    0    0  0.45227413298E+02 -0.19723065196E+02  0.90324032255E+02  0.10292205311E+03  0.00000000000E+00 0. -1.
         11    1    4    4    0    0 -0.21097977670E+02 -0.48390075301E+02  0.29064577989E+03  0.29540090287E+03  0.00000000000E+00 0.  1.
</event>
<event>
 8    1  0.7102339E-009  0.1985266E+03  0.7561462E-02  0.1150988E+00
          2   -1    0    0  501    0  0.00000000000E+00  0.00000000000E+00  0.56499305400E+03  0.56499305400E+03  0.00000000000E+00 0. -1.
         -2   -1    0    0    0  501 -0.00000000000E+00 -0.00000000000E+00 -0.71582253037E+02  0.71582253037E+02  0.00000000000E+00 0.  1.
         25    2    1    2    0    0  0.14654129442E+03  0.81274882161E+02  0.28642077197E+03  0.35463287241E+03  0.12509059971E+03 0.  0.
         23    2    1    2    0    0 -0.14654129442E+03 -0.81274882161E+02  0.20699002899E+03  0.28194243463E+03  0.92556506533E+02 0.  0.
          5    1    3    3  502    0  0.14363156722E+03  0.20802215893E+02  0.22860417473E+03  0.27081377438E+03  0.41800000000E+01 0.  1.
         -5    1    3    3    0  502  0.29097272002E+01  0.60472666268E+02  0.57816597238E+02  0.83819098028E+02  0.41800000000E+01 0.  1.
        -11    1    4    4    0    0 -0.58557617418E+02  0.15308827664E+02  0.58838428812E+02  0.84411583726E+02  0.00000000000E+00 0.  1.
         11    1    4    4    0    0 -0.87983677005E+02 -0.96583709825E+02  0.14815160018E+03  0.19753085091E+03  0.00000000000E+00 0. -1.
</event>
<event>
 8    1  0.7102339E-009  0.1006065E+03  0.7561462E-02  0.1279026E+00
          1   -1    0    0  501    0  0.00000000000E+00  0.00000000000E+00  0.47275627759E+03  0.47275627759E+03  0.00000000000E+00 0. -1.
         -1   -1    0    0    0  501 -0.00000000000E+00 -0.00000000000E+00 -0.37393666698E+02  0.37393666698E+02  0.00000000000E+00 0.  1.
         25    2    1    2    0    0 -0.82823694955E+01  0.57882716580E+02  0.33503147286E+03  0.36237745341E+03  0.12510924991E+03 0.  0.
         23    2    1    2    0    0  0.82823694955E+01 -0.57882716580E+02  0.10033113803E+03  0.14777249088E+03  0.91385804575E+02 0.  0.
          5    1    3    3  502    0  0.29634356279E+02 -0.18108580160E+02  0.31199973462E+02  0.46872449173E+02  0.41800000000E+01 0.  1.
         -5    1    3    3    0  502 -0.37916725774E+02  0.75991296740E+02  0.30383149940E+03  0.31550500424E+03  0.41800000000E+01 0.  1.
        -11    1    4    4    0    0  0.30762619738E+02 -0.18611392069E+02  0.95765326040E+02  0.10229232796E+03  0.00000000000E+00 0. -1.
         11    1    4    4    0    0 -0.22480250243E+02 -0.39271324511E+02  0.45658119941E+01  0.45480162918E+02  0.00000000000E+00 0.  1.
</event>
<event>
 8    1  0.7102339E-009  0.1236924E+03  0.7561462E-02  0.1237127E+00
         -2   -1    0    0    0  501 -0.00000000000E+00  0.00000000000E+00  0.23764429730E+02  0.23764429730E+02  0.00000000000E+00 0.  1.
          2   -1    0    0  501    0  0.00000000000E+00 -0.00000000000E+00 -0.10641098812E+04  0.10641098812E+04  0.00000000000E+00 0. -1.
         25    2    1    2    0    0  0.26604114377E+02  0.10672669664E+03 -0.42581377258E+03  0.45723183977E+03  0.12508085267E+03 0.  0.
         23    2    1    2    0    0 -0.26604114377E+02 -0.10672669664E+03 -0.61453167891E+03  0.63064247118E+03  0.89232143276E+02 0.  0.
          5    1    3    3  502    0 -0.12742244388E+02  0.33677291539E+02 -0.32309525698E+03  0.32512234965E+03  0.41800000000E+01 0.  1.
         -5    1    3    3    0  502  0.39346358765E+02  0.73049405100E+02 -0.10271851560E+03  0.13210949012E+03  0.41800000000E+01 0.  1.
        -11    1    4    4    0    0  0.12349909615E+02  0.20484996615E+01 -0.12745641760E+02  0.17865273640E+02  0.00000000000E+00 0.  1.
         11    1    4    4    0    0 -0.38954023992E+02 -0.10877519630E+03 -0.60178603715E+03  0.61277719754E+03  0.00000000000E+00 0. -1.
</event>
<event>
 8    1  0.7102339E-009  0.1587046E+03  0.7561462E-02  0.1190167E+00
         -2   -1    0    0    0  501 -0.00000000000E+00  0.00000000000E+00  0.33228165394E+02  0.33228165394E+02  0.00000000000E+00 0.  1.
          2   -1    0    0  501    0  0.00000000000E+00 -0.00000000000E+00 -0.81757083815E+03  0.81757083815E+03  0.00000000000E+00 0. -1.
         25    2    1    2    0    0 -0.10315034915E+03 -0.67941477690E+02 -0.39678780679E+03  0.43398509893E+03  0.12508582476E+03 0.  0.
         23    2    1    2    0    0  0.10315034915E+03  0.67941477690E+02 -0.38755486597E+03  0.41681390461E+03  0.90989109366E+02 0.  0.
          5    1    3    3  502    0 -0.78732478902E+02 -0.98070561143E+02 -0.22472731753E+03  0.25755868815E+03  0.41800000000E+01 0.  1.
         -5    1    3    3    0  502 -0.24417870250E+02  0.30129083453E+02 -0.17206048925E+03  0.17642641077E+03  0.41800000000E+01 0.  1.
        -11    1    4    4    0    0  0.44605513904E+02  0.81106208341E+02 -0.25598100122E+03  0.27220239140E+03  0.00000000000E+00 0.  1.
         11    1    4    4    0    0  0.58544835248E+02 -0.13164730651E+02 -0.13157386475E+03  0.14461151321E+03  0.00000000000E+00 0. -1.
</event>
<event>
 8    1  0.7102339E-009  0.1142190E+03  0.7561462E-02  0.1252951E+00
          1   -1    0    0  501    0  0.00000000000E+00  0.00000000000E+00  0.77031949281E+03  0.77031949281E+03  0.00000000000E+00 0. -1.
         -1   -1    0    0    0  501 -0.00000000000E+00 -0.00000000000E+00 -0.30778634331E+02  0.30778634331E+02  0.00000000000E+00 0.  1.
         25    2    1    2    0    0 -0.23779046935E+02 -0.56651676184E+02  0.65311335817E+03  0.66781675022E+03  0.12508915927E+03 0.  0.
         23    2    1    2    0    0  0.23779046935E+02  0.56651676184E+02  0.86427500305E+02  0.13328137692E+03  0.80742536105E+02 0.  0.
          5    1    3    3  502    0  0.11133925041E+01 -0.90530912925E+02  0.52904403396E+03  0.53675147704E+03  0.41800000000E+01 0. -1.
         -5    1    3    3    0  502 -0.24892439439E+02  0.33879236742E+02  0.12406932422E+03  0.13106527318E+03  0.41800000000E+01 0. -1.
        -11    1    4    4    0    0 -0.21607642892E+02 -0.16497425584E+01  0.41477057534E+02  0.46796989043E+02  0.00000000000E+00 0. -1.
         11    1    4    4    0    0  0.45386689826E+02  0.58301418742E+02  0.44950442771E+02  0.86484387874E+02  0.00000000000E+00 0.  1.
</event>
<event>
 8    1  0.7102339E-009  0.3505386E+03  0.7561462E-02  0.1062394E+00
         -1   -1    0    0    0  501 -0.00000000000E+00  0.00000000000E+00  0.67545083412E+03  0.67545083412E+03  0.00000000000E+00 0.  1.
          1   -1    0    0  501    0  0.00000000000E+00 -0.00000000000E+00 -0.19749392936E+03  0.19749392936E+03  0.00000000000E+00 0. -1.
         25    2    1    2    0    0 -0.33227814917E+03 -0.39927251985E+02  0.35837478609E+03  0.50604609210E+03  0.12508879309E+03 0.  0.
         23    2    1    2    0    0  0.33227814917E+03  0.39927251985E+02  0.11958211867E+03  0.36689867139E+03  0.91169063244E+02 0.  0.
          5    1    3    3  502    0 -0.31903958527E+03 -0.60639485379E+01  0.33471497393E+03  0.46246579832E+03  0.41800000000E+01 0.  1.
         -5    1    3    3    0  502 -0.13238563901E+02 -0.33863303447E+02  0.23659812156E+02  0.43580293778E+02  0.41800000000E+01 0.  1.
        -11    1    4    4    0    0  0.14254115700E+03  0.59804427547E+02  0.70585451598E+02  0.16993191863E+03  0.00000000000E+00 0.  1.
         11    1    4    4    0    0  0.18973699217E+03 -0.19877175562E+02  0.48996667071E+02  0.19696675275E+03  0.00000000000E+00 0. -1.
</event>
<event>
 8    1  0.7102339E-009  0.7291062E+02  0.7561462E-02  0.1350466E+00
         -1   -1    0    0    0  501 -0.00000000000E+00  0.00000000000E+00  0.38393273597E+02  0.38393273597E+02  0.00000000000E+00 0.  1.
          1   -1    0    0  501    0  0.00000000000E+00 -0.00000000000E+00 -0.86699923608E+03  0.86699923608E+03  0.00000000000E+00 0. -1.
         25    2    1    2    0    0  0.21625855929E+02  0.65797112105E+01 -0.76336806662E+03  0.77387957261E+03  0.12509123677E+03 0.  0.
         23    2    1    2    0    0 -0.21625855929E+02 -0.65797112105E+01 -0.65237895861E+02  0.13151293707E+03  0.11193167253E+03 0.  0.
          5    1    3    3  502    0  0.13451546117E+02 -0.27948808834E+02 -0.70324989232E+03  0.70394599470E+03  0.41800000000E+01 0. -1.
         -5    1    3    3    0  502  0.81743098126E+01  0.34528520044E+02 -0.60118174306E+02  0.69933577910E+02  0.41800000000E+01 0. -1.
        -11    1    4    4    0    0 -0.47439702007E+02 -0.17772027368E+02 -0.83716955534E+02  0.97851412495E+02  0.00000000000E+00 0. -1.
         11    1    4    4    0    0  0.25813846078E+02  0.11192316157E+02  0.18479059673E+02  0.33661524575E+02  0.00000000000E+00 0.  1.
</event>
<event>
 8    1  0.7102339E-009  0.9479503E+02  0.7561462E-02  0.1291638E+00
         -1   -1    0    0    0  501 -0.00000000000E+00  0.00000000000E+00  0.24233386952E+02  0.24233386952E+02  0.00000000000E+00 0.  1.
          1   -1    0    0  501    0  0.00000000000E+00 -0.00000000000E+00 -0.54886804171E+03  0.54886804171E+03  0.00000000000E+00 0. -1.
         25    2    1    2    0    0  0.90175614334E+01 -0.34867560218E+02 -0.34854847867E+03  0.37206605870E+03  0.12510014740E+03 0.  0.
         23    2    1    2    0    0 -0.90175614334E+01  0.34867560218E+02 -0.17608617609E+03  0.20103536997E+03  0.90065617182E+02 0.  0.
          5    1    3    3  502    0  0.85426808221E+00  0.44597789968E+02 -0.78123242911E+02  0.90057793261E+02  0.41800000000E+01 0. -1.
         -5    1    3    3    0  502  0.81632933511E+01 -0.79465350186E+02 -0.27042523576E+03  0.28200826543E+03  0.41800000000E+01 0. -1.
        -11    1    4    4    0    0 -0.31572235064E+02  0.16025976575E+02 -0.16634878344E+03  0.17007514722E+03  0.00000000000E+00 0. -1.
         11    1    4    4    0    0  0.22554673630E+02  0.18841583643E+02 -0.97373926538E+01  0.30960222745E+02  0.00000000000E+00 0.  1.
</event>
<event>
 8    1  0.7102339E-009  0.1073096E+03  0.7561462E-02  0.1265635E+00
          2   -1    0    0  501    0  0.00000000000E+00  0.00000000000E+00  0.11365532271E+03  0.11365532271E+03  0.00000000000E+00 0. -1.
         -2   -1    0    0    0  501 -0.00000000000E+00 -0.00000000000E+00 -0.15387728736E+03  0.15387728736E+03  0.00000000000E+00 0.  1.
         25    2    1    2    0    0  0.49634667990E+02 -0.43817231159E+02 -0.60376662105E+02  0.15387130426E+03  0.12508991540E+03 0.  0.
         23    2    1    2    0    0 -0.49634667990E+02  0.43817231159E+02  0.20154697452E+02  0.11366130581E+03  0.90161691401E+02 0.  0.
          5    1    3    3  502    0  0.26169888048E+02  0.24766100688E+02 -0.71732491036E+02  0.80381872671E+02  0.41800000000E+01 0. -1.
         -5    1    3    3    0  502  0.23464779942E+02 -0.68583331847E+02  0.11355828931E+02  0.73489431592E+02  0.41800000000E+01 0. -1.
        -11    1    4    4    0    0 -0.46118906441E+02 -0.13703649529E+02 -0.92061149282E+01  0.48984651615E+02  0.00000000000E+00 0. -1.
         11    1    4    4    0    0 -0.35157615494E+01  0.57520880688E+02  0.29360812380E+02  0.64676654196E+02  0.00000000000E+00 0.  1.
</event>
<event>
 8    1  0.7102339E-009  0.1188397E+03  0.7561462E-02  0.1245024E+00
         -1   -1    0    0    0  501 -0.00000000000E+00  0.00000000000E+00  0.55455970366E+02  0.55455970366E+02  0.00000000000E+00 0.  1.
          1   -1    0    0  501    0  0.00000000000E+00 -0.00000000000E+00 -0.49748465632E+03  0.49748465632E+03  0.00000000000E+00 0. -1.
         25    2    1    2    0    0  0.19128970953E+02  0.89438002477E+02 -0.93904938828E+02  0.18119396053E+03  0.12509212597E+03 0.  0.
         23    2    1    2    0    0 -0.19128970953E+02 -0.89438002477E+02 -0.34812374712E+03  0.37174666615E+03  0.92953572652E+02 0.  0.
          5    1    3    3  502    0 -0.88722602258E+01  0.90565716464E+02 -0.11438979589E+03  0.14623051598E+03  0.41800000000E+01 0.  1.
         -5    1    3    3    0  502  0.28001231179E+02 -0.11277139866E+01  0.20484857057E+02  0.34963444553E+02  0.41800000000E+01 0.  1.
        -11    1    4    4    0    0  0.25970377877E+02 -0.57181136950E+02 -0.10472844487E+03  0.12211547861E+03  0.00000000000E+00 0.  1.
         11    1    4    4    0    0 -0.45099348830E+02 -0.32256865527E+02 -0.24339530225E+03  0.24963118755E+03  0.00000000000E+00 0. -1.
</event>
<event>
 8    1  0.7102339E-009  0.1105918E+03  0.7561462E-02  0.1259478E+00
          2   -1    0    0  501    0  0.00000000000E+00  0.00000000000E+00  0.11688470510E+03  0.11688470510E+03  0.00000000000E+00 0. -1.
         -2   -1    0    0    0  501 -0.00000000000E+00 -0.00000000000E+00 -0.15846737878E+03  0.15846737878E+03  0.00000000000E+00 0.  1.
         25    2    1    2    0    0  0.32283461099E+00  0.49723844763E+02  0.44058049076E+02  0.14163849905E+03  0.12509111784E+03 0.  0.
         23    2    1    2    0    0 -0.32283461099E+00 -0.49723844763E+02 -0.85640722755E+02  0.13371358483E+03  0.89846671691E+02 0.  0.
          5    1    3    3  502    0 -0.12085156534E+02  0.85393098691E+02  0.40168545653E+01  0.86438647798E+02  0.41800000000E+01 0.  1.
         -5    1    3    3    0  502  0.12407991145E+02 -0.35669253928E+02  0.40041194511E+02  0.55199851249E+02  0.41800000000E+01 0.  1.
        -11    1    4    4    0    0 -0.40809184336E+02 -0.14916288385E+02 -0.61043925733E+02  0.74928272729E+02  0.00000000000E+00 0.  1.
         11    1    4    4    0    0  0.40486349725E+02 -0.34807556378E+02 -0.24596797023E+02  0.58785312101E+02  0.00000000000E+00 0. -1.
</event>
<event>
 8    1  0.7102339E-009  0.1320729E+03  0.7561462E-02  0.1224412E+00
          1   -1    0    0  501    0  0.00000000000E+00  0.00000000000E+00  0.23420859395E+03  0.23420859395E+03  0.00000000000E+00 0. -1.
         -1   -1    0    0    0  501 -0.00000000000E+00 -0.00000000000E+00 -0.86807938310E+02  0.86807938310E+02  0.00000000000E+00 0.  1.
         25    2    1    2    0    0 -0.63566242431E+02  0.65635245178E+02  0.95232986941E+02  0.18184120304E+03  0.12509296037E+03 0.  0.
         23    2    1    2    0    0  0.63566242431E+02 -0.65635245178E+02  0.52167668698E+02  0.13917532922E+03  0.91102436960E+02 0.  0.
          5    1    3    3  502    0 -0.82389338343E+02  0.11901296356E+01  0.75253392562E+02  0.11166899737E+03  0.41800000000E+01 0. -1.
         -5    1    3    3    0  502  0.18823095911E+02  0.64445115543E+02  0.19979594379E+02  0.70172205670E+02  0.41800000000E+01 0. -1.
        -11    1    4    4    0    0  0.55284261194E+02 -0.76624990279E+01  0.57794015167E+02  0.80344331575E+02  0.00000000000E+00 0.  1.
         11    1    4    4    0    0  0.82819812372E+01 -0.57972746150E+02 -0.56263464694E+01  0.58830997646E+02  0.00000000000E+00 0. -1.
</event>
<event>
 8    1  0.7102339E-009  0.6100952E+02  0.7561462E-02  0.1393643E+00
         -1   -1    0    0    0  501 -0.00000000000E+00  0.00000000000E+00  0.85953865835E+02  0.85953865835E+02  0.00000000000E+00 0.  1.
          1   -1    0    0  501    0  0.00000000000E+00 -0.00000000000E+00 -0.17127083251E+03  0.17127083251E+03  0.00000000000E+00 0. -1.
         25    2    1    2    0    0 -0.31925633654E+02 -0.11458009709E+02 -0.92724011955E+02  0.15934180090E+03  0.12506612271E+03 0.  0.
         23    2    1    2    0    0  0.31925633654E+02  0.11458009709E+02  0.74070452830E+01  0.97882897443E+02  0.91518660509E+02 0.  0.
          5    1    3    3  502    0  0.34983154615E+01  0.13430039638E+02  0.27722504002E+02  0.31282803645E+02  0.41800000000E+01 0.  1.
         -5    1    3    3    0  502 -0.35423949116E+02 -0.24888049347E+02 -0.12044651596E+03  0.12805899725E+03  0.41800000000E+01 0.  1.
        -11    1    4    4    0    0 -0.13139263989E+02 -0.75130512554E+01  0.37520607781E+02  0.40458400928E+02  0.00000000000E+00 0.  1.
         11    1    4    4    0    0  0.45064897644E+02  0.18971060964E+02 -0.30113562498E+02  0.57424496516E+02  0.00000000000E+00 0. -1.
</event>
<event>
 8    1  0.7102339E-009  0.1731236E+03  0.7561462E-02  0.1174629E+00
          2   -1    0    0  501    0  0.00000000000E+00  0.00000000000E+00  0.12256696704E+03  0.12256696704E+03  0.00000000000E+00 0. -1.
         -2   -1    0    0    0  501 -0.00000000000E+00 -0.00000000000E+00 -0.26641150641E+03  0.26641150641E+03  0.00000000000E+00 0.  1.
         25    2    1    2    0    0 -0.10615050457E+03 -0.93916808381E+02 -0.10295984375E+03  0.21525732875E+03  0.12508673647E+03 0.  0.
         23    2    1    2    0    0  0.10615050457E+03  0.93916808381E+02 -0.40884695614E+02  0.17372114469E+03  0.91756096582E+02 0.  0.
          5    1    3    3  502    0 -0.12703934877E+03 -0.52431831558E+02 -0.54223008274E+02  0.14780290973E+03  0.41800000000E+01 0. -1.
         -5    1    3    3    0  502  0.20888844202E+02 -0.41484976824E+02 -0.48736835477E+02  0.67454419028E+02  0.41800000000E+01 0. -1.
        -11    1    4    4    0    0  0.31878430830E+02 -0.10865554740E+02  0.10663538404E+02  0.35327123904E+02  0.00000000000E+00 0. -1.
         11    1    4    4    0    0  0.74272073741E+02  0.10478236312E+03 -0.51548234019E+02  0.13839402079E+03  0.00000000000E+00 0.  1.
</event>
<event>
 7    1  0.7102339E-009  0.6822508E+02  0.7561462E-02  0.1366235E+00
          2   -1    0    0  501    0  0.00000000000E+00  0.00000000000E+00  0.60411246577E+03  0.60411246577E+03  0.00000000000E+00 0.  1.
         -2   -1    0    0    0  501 -0.00000000000E+00 -0.00000000000E+00 -0.27994309961E+02  0.27994309961E+02  0.00000000000E+00 0. -1.
         23    2    1    2    0    0 -0.21412750322E+02 -0.20960691837E+02  0.11468824198E+03  0.15311174059E+03  0.96912103364E+02 0.  0.
          5    1    1    2  502    0  0.38487648736E+02  0.31908387784E+02  0.45434629758E+03  0.45710772783E+03  0.41800000000E+01 0.  1.
         -5    1    1    2    0  502 -0.17074898414E+02 -0.10947695946E+02  0.70836162494E+01  0.21887307316E+02  0.41800000000E+01 0.  1.
        -11    1    3    3    0    0 -0.10530967258E+02  0.20316948600E+02  0.10739408458E+03  0.10980514138E+03  0.00000000000E+00 0.  1.
         11    1    3    3    0    0 -0.10881783064E+02 -0.41277640438E+02  0.72941574076E+01  0.43306599209E+02  0.00000000000E+00 0. -1.
</event>
<event>
 8    1  0.7102339E-009  0.1554527E+03  0.7561462E-02  0.1193928E+00
          2   -1    0    0  501    0  0.00000000000E+00  0.00000000000E+00  0.14191696444E+03  0.14191696444E+03  0.00000000000E+00 0. -1.
         -2   -1    0    0    0  501 -0.00000000000E+00 -0.00000000000E+00 -0.43351329692E+03  0.43351329692E+03  0.00000000000E+00 0.  1.
         25    2    1    2    0    0 -0.79452643103E+02 -0.90406678730E+02 -0.36694034922E+03  0.40593025501E+03  0.12509221394E+03 0.  0.
         23    2    1    2    0    0  0.79452643103E+02  0.90406678730E+02  0.75344016742E+02  0.16950000635E+03  0.92560473407E+02 0.  0.
          5    1    3    3  502    0 -0.96301423692E+02 -0.16654234775E+02 -0.20545284621E+03  0.22755147145E+03  0.41800000000E+01 0. -1.
         -5    1    3    3    0  502  0.16848780589E+02 -0.73752443954E+02 -0.16148750301E+03  0.17837878356E+03  0.41800000000E+01 0. -1.
        -11    1    4    4    0    0  0.80202147099E+02  0.45116835487E+02  0.82564893563E+02  0.12363201403E+03  0.00000000000E+00 0. -1.
         11    1    4    4    0    0 -0.74950399600E+00  0.45289843243E+02 -0.72208768205E+01  0.45867992318E+02  0.00000000000E+00 0.  1.
</event>
<event>
 8    1  0.7102339E-009  0.1066275E+03  0.7561462E-02  0.1266946E+00
         -2   -1    0    0    0  501 -0.00000000000E+00  0.00000000000E+00  0.16404434272E+02  0.16404434272E+02  0.00000000000E+00 0.  1.
          2   -1    0    0  501    0  0.00000000000E+00 -0.00000000000E+00 -0.72053840103E+03  0.72053840103E+03  0.00000000000E+00 0. -1.
         25    2    1    2    0    0 -0.76833801694E+01  0.90208797541E+01 -0.41240312606E+03  0.43111957783E+03  0.12508933370E+03 0.  0.
         23    2    1    2    0    0  0.76833801694E+01 -0.90208797541E+01 -0.29173084070E+03  0.30582325747E+03  0.90997641680E+02 0.  0.
          5    1    3    3  502    0 -0.50272658022E+02 -0.34715398410E+02 -0.15777034358E+03  0.16923785849E+03  0.41800000000E+01 0.  1.
         -5    1    3    3    0  502  0.42589277852E+02  0.43736278164E+02 -0.25463278248E+03  0.26188171934E+03  0.41800000000E+01 0.  1.
        -11    1    4    4    0    0 -0.34231043739E+02 -0.28562445986E+02 -0.12144804566E+03  0.12937235203E+03  0.00000000000E+00 0.  1.
         11    1    4    4    0    0  0.41914423909E+02  0.19541566232E+02 -0.17028279504E+03  0.17645090543E+03  0.00000000000E+00 0. -1.
</event>
<event>
 8    1  0.7102339E-009  0.1119031E+03  0.7561462E-02  0.1257086E+00
         -1   -1    0    0    0  501 -0.00000000000E+00  0.00000000000E+00  0.38585352666E+03  0.38585352666E+03  0.00000000000E+00 0.  1.
          1   -1    0    0  501    0  0.00000000000E+00 -0.00000000000E+00 -0.43607112379E+02  0.43607112379E+02  0.00000000000E+00 0. -1.
         25    2    1    2    0    0  0.35997121470E+02  0.40783838957E+02  0.26446321615E+03  0.29756923863E+03  0.12509014673E+03 0.  0.
         23    2    1    2    0    0 -0.35997121470E+02 -0.40783838957E+02  0.77783198138E+02  0.13189140041E+03  0.91575112974E+02 0.  0.
          5    1    3    3  502    0  0.73604760624E+02  0.13089911612E+02  0.22207811140E+03  0.23436118820E+03  0.41800000000E+01 0.  1.
         -5    1    3    3    0  502 -0.37607639154E+02  0.27693927345E+02  0.42385104750E+02  0.63208050430E+02  0.41800000000E+01 0.  1.
        -11    1    4    4    0    0 -0.14639300265E+02 -0.66796331061E+02  0.33158172502E+02  0.75996864140E+02  0.00000000000E+00 0. -1.
         11    1    4    4    0    0 -0.21357821204E+02  0.26012492104E+02  0.44625025637E+02  0.55894536273E+02  0.00000000000E+00 0.  1.
</event>
<event>
 8    1  0.7102339E-009  0.9532345E+02  0.7561462E-02  0.1290449E+00
         -3   -1    0    0    0  501 -0.00000000000E+00  0.00000000000E+00  0.46212463004E+02  0.46212463004E+02  0.00000000000E+00 0.  1.
          3   -1    0    0  501    0  0.00000000000E+00 -0.00000000000E+00 -0.36710566917E+03  0.36710566917E+03  0.00000000000E+00 0. -1.
         25    2    1    2    0    0 -0.59756041643E+02 -0.97092113131E+01 -0.23632381542E+03  0.27415631165E+03  0.12509070382E+03 0.  0.
         23    2    1    2    0    0  0.59756041643E+02  0.97092113131E+01 -0.84569390743E+02  0.13916182053E+03  0.92460678911E+02 0.  0.
          5    1    3    3  502    0 -0.58690835472E+02 -0.26229442507E+02 -0.37378529071E+02  0.74479692924E+02  0.41800000000E+01 0. -1.
         -5    1    3    3    0  502 -0.10652061715E+01  0.16520231194E+02 -0.19894528635E+03  0.19967661872E+03  0.41800000000E+01 0. -1.
        -11    1    4    4    0    0  0.35820598596E+02  0.50465925842E+02 -0.58617370741E+02  0.85240372520E+02  0.00000000000E+00 0.  1.
         11    1    4    4    0    0  0.23935443047E+02 -0.40756714529E+02 -0.25952020003E+02  0.53921448008E+02  0.00000000000E+00 0. -1.
</event>
<event>
 8    1  0.7102339E-009  0.1375012E+03  0.7561462E-02  0.1216731E+00
          1   -1    0    0  501    0  0.00000000000E+00  0.00000000000E+00  0.41687132342E+03  0.41687132342E+03  0.00000000000E+00 0. -1.
         -1   -1    0    0    0  501 -0.00000000000E+00 -0.00000000000E+00 -0.46633605377E+02  0.46633605377E+02  0.00000000000E+00 0.  1.
         25    2    1    2    0    0  0.26183013140E+02 -0.81447372068E+02  0.17070625668E+03  0.22827226848E+03  0.12509347662E+03 0.  0.
         23    2    1    2    0    0 -0.26183013140E+02  0.81447372068E+02  0.19953146136E+03  0.23523266032E+03  0.90566968667E+02 0.  0.
          5    1    3    3  502    0  0.34795843933E+02 -0.11310982503E+03  0.13079272390E+03  0.17643353508E+03  0.41800000000E+01 0. -1.
         -5    1    3    3    0  502 -0.86128307932E+01  0.31662452963E+02  0.39913532779E+02  0.51838733403E+02  0.41800000000E+01 0. -1.
        -11    1    4    4    0    0 -0.14305805432E+02  0.10025224098E+03  0.17442746596E+03  0.20169310541E+03  0.00000000000E+00 0.  1.
         11    1    4    4    0    0 -0.11877207708E+02 -0.18804868916E+02  0.25103995401E+02  0.33539554901E+02  0.00000000000E+00 0. -1.
</event>
<event>
 8    1  0.7102339E-009  0.1433514E+03  0.7561462E-02  0.1208889E+00
         -2   -1    0    0    0  501 -0.00000000000E+00  0.00000000000E+00  0.51574968181E+03  0.51574968181E+03  0.00000000000E+00 0.  1.
          2   -1    0    0  501    0  0.00000000000E+00 -0.00000000000E+00 -0.55198549662E+02  0.55198549662E+02  0.00000000000E+00 0. -1.
         25    2    1    2    0    0 -0.50985130087E+01  0.10995741925E+03  0.36038209543E+03  0.39703612100E+03  0.12508316348E+03 0.  0.
         23    2    1    2    0    0  0.50985130087E+01 -0.10995741925E+03  0.10016903672E+03  0.17391211048E+03  0.89971981027E+02 0.  0.
          5    1    3    3  502    0 -0.15907148901E+02 -0.14415238643E+02  0.15585368920E+03  0.15738068919E+03  0.41800000000E+01 0. -1.
         -5    1    3    3    0  502  0.10808635893E+02  0.12437265790E+03  0.20452840623E+03  0.23965543181E+03  0.41800000000E+01 0. -1.
        -11    1    4    4    0    0 -0.40231281041E+02 -0.62192543940E+02  0.68305848790E+02  0.10075791520E+03  0.00000000000E+00 0.  1.
         11    1    4    4    0    0  0.45329794050E+02 -0.47764875312E+02  0.31863187933E+02  0.73154195283E+02  0.00000000000E+00 0. -1.
</event>
<event>
 8    1  0.7102339E-009  0.9383181E+02  0.7561462E-02  0.1293829E+00
         -2   -1    0    0    0  501 -0.00000000000E+00  0.00000000000E+00  0.21143325196E+02  0.21143325196E+02  0.00000000000E+00 0.  1.
          2   -1    0    0  501    0  0.00000000000E+00 -0.00000000000E+00 -0.60887207368E+03  0.60887207368E+03  0.00000000000E+00 0. -1.
         25    2    1    2    0    0 -0.40187012164E+01  0.24236022011E+01 -0.43191937116E+03  0.44969291741E+03  0.12508937996E+03 0.  0.
         23    2    1    2    0    0  0.40187012164E+01 -0.24236022011E+01 -0.15580937733E+03  0.18032248147E+03  0.90651042208E+02 0.  0.
          5    1    3    3  502    0  0.27907032838E+02 -0.41787767193E+02 -0.87755375621E+02  0.10121016905E+03  0.41800000000E+01 0.  1.
         -5    1    3    3    0  502 -0.31925734054E+02  0.44211369394E+02 -0.34416399554E+03  0.34848274836E+03  0.41800000000E+01 0.  1.
        -11    1    4    4    0    0  0.34576065546E+02 -0.26566020022E+02 -0.44087849554E+02  0.62008033405E+02  0.00000000000E+00 0.  1.
         11    1    4    4    0    0 -0.30557364329E+02  0.24142417821E+02 -0.11172152777E+03  0.11831444807E+03  0.00000000000E+00 0. -1.
</event>
<event>
 8    1  0.7102339E-009  0.1302922E+03  0.7561462E-02  0.1227023E+00
          1   -1    0    0  501    0  0.00000000000E+00  0.00000000000E+00  0.59584765069E+03  0.59584765069E+03  0.00000000000E+00 0. -1.
         -1   -1    0    0    0  501 -0.00000000000E+00 -0.00000000000E+00 -0.31844413600E+02  0.31844413600E+02  0.00000000000E+00 0.  1.
         25    2    1    2    0    0  0.77483831275E+02  0.23668854559E+02  0.36190679826E+03  0.39139303110E+03  0.12509202765E+03 0.  0.
         23    2    1    2    0    0 -0.77483831275E+02 -0.23668854559E+02  0.20209643883E+03  0.23629903319E+03  0.91816685378E+02 0.  0.
          5    1    3    3  502    0 -0.29265810476E+02  0.18479186954E+02  0.15030839471E+03  0.15429858694E+03  0.41800000000E+01 0. -1.
         -5    1    3    3    0  502  0.10674964175E+03  0.51896676053E+01  0.21159840356E+03  0.23709444416E+03  0.41800000000E+01 0. -1.
        -11    1    4    4    0    0 -0.71141782818E+02  0.20583192628E+02  0.15247971955E+03  0.16951367483E+03  0.00000000000E+00 0.  1.
         11    1    4    4    0    0 -0.63420484571E+01 -0.44252047187E+02  0.49616719279E+02  0.66785358357E+02  0.00000000000E+00 0. -1.
</event>
<event>
 8    1  0.7102339E-009  0.9763338E+02  0.7561462E-02  0.1285353E+00
         -1   -1    0    0    0  501 -0.00000000000E+00  0.00000000000E+00  0.41366648807E+03  0.41366648807E+03  0.00000000000E+00 0.  1.
          1   -1    0    0  501    0  0.00000000000E+00 -0.00000000000E+00 -0.29569690628E+02  0.29569690628E+02  0.00000000000E+00 0. -1.
         25    2    1    2    0    0 -0.23577209111E+01  0.18566646124E+02  0.21639138231E+03  0.25064434097E+03  0.12508827334E+03 0.  0.
         23    2    1    2    0    0  0.23577209111E+01 -0.18566646124E+02  0.16770541513E+03  0.19259183773E+03  0.92823652687E+02 0.  0.
          5    1    3    3  502    0  0.98906665718E+01  0.58417789816E+02  0.45858810867E+02  0.75039765367E+02  0.41800000000E+01 0.  1.
         -5    1    3    3    0  502 -0.12248387483E+02 -0.39851143693E+02  0.17053257145E+03  0.17560457561E+03  0.41800000000E+01 0.  1.
        -11    1    4    4    0    0 -0.44597346900E+02 -0.38508423806E+01  0.91797720498E+02  0.10213018078E+03  0.00000000000E+00 0. -1.
         11    1    4    4    0    0  0.46955067811E+02 -0.14715803743E+02  0.75907694633E+02  0.90461656946E+02  0.00000000000E+00 0.  1.
</event>
<event>
 7    1  0.7102339E-009  0.1487873E+03  0.7561462E-02  0.1201971E+00
          2   -1    0    0  501    0  0.00000000000E+00  0.00000000000E+00  0.27595897304E+03  0.27595897304E+03  0.00000000000E+00 0. -1.
         -2   -1    0    0    0  501 -0.00000000000E+00 -0.00000000000E+00 -0.14449225866E+03  0.14449225866E+03  0.00000000000E+00 0.  1.
         23    2    1    2    0    0 -0.12017313074E+03  0.17350670526E+02  0.18423904832E+03  0.23763424402E+03  0.88223465626E+02 0.  0.
          5    1    1    2  502    0  0.55655158729E+02  0.40049984952E+02  0.18082332498E+02  0.71034788212E+02  0.41800000000E+01 0.  1.
         -5    1    1    2    0  502  0.64517972010E+02 -0.57400655478E+02 -0.70854666437E+02  0.11178219947E+03  0.41800000000E+01 0.  1.
        -11    1    3    3    0    0 -0.83227883444E+02  0.46523219402E+02  0.84744397470E+02  0.12756529085E+03  0.00000000000E+00 0.  1.
         11    1    3    3    0    0 -0.36945247295E+02 -0.29172548876E+02  0.99494650848E+02  0.11006895318E+03  0.00000000000E+00 0. -1.
</event>
<event>
 8    1  0.7102339E-009  0.8838619E+02  0.7561462E-02  0.1306807E+00
          1   -1    0    0  501    0  0.00000000000E+00  0.00000000000E+00  0.38262865021E+03  0.38262865021E+03  0.00000000000E+00 0. -1.
         -1   -1    0    0    0  501 -0.00000000000E+00 -0.00000000000E+00 -0.49833374421E+02  0.49833374421E+02  0.00000000000E+00 0.  1.
         25    2    1    2    0    0 -0.19573114683E+02 -0.31553215785E+01  0.31071311285E+03  0.33553498702E+03  0.12509207066E+03 0.  0.
         23    2    1    2    0    0  0.19573114683E+02  0.31553215785E+01  0.22082162934E+02  0.96927037609E+02  0.92272237575E+02 0.  0.
          5    1    3    3  502    0  0.30422188641E+02 -0.10674750803E+02  0.15538975071E+02  0.36033207083E+02  0.41800000000E+01 0. -1.
         -5    1    3    3    0  502 -0.49995303324E+02  0.75194292241E+01  0.29517413778E+03  0.29950177994E+03  0.41800000000E+01 0. -1.
        -11    1    4    4    0    0  0.34033337077E+02 -0.37345608060E+02  0.18368342069E+02  0.53762054131E+02  0.00000000000E+00 0.  1.
         11    1    4    4    0    0 -0.14460222394E+02  0.40500929639E+02  0.37138208648E+01  0.43164983478E+02  0.00000000000E+00 0. -1.
</event>
<event>
 8    1  0.7102339E-009  0.1307673E+03  0.7561462E-02  0.1226322E+00
         -2   -1    0    0    0  501 -0.00000000000E+00  0.00000000000E+00  0.82389559568E+03  0.82389559568E+03  0.00000000000E+00 0.  1.
          2   -1    0    0  501    0  0.00000000000E+00 -0.00000000000E+00 -0.29658595651E+02  0.29658595651E+02  0.00000000000E+00 0. -1.
         25    2    1    2    0    0 -0.36249088971E+02  0.93853217133E+02  0.55876462225E+03  0.58136792588E+03  0.12509332256E+03 0.  0.
         23    2    1    2    0    0  0.36249088971E+02 -0.93853217133E+02  0.23547237778E+03  0.27218626545E+03  0.92280548245E+02 0.  0.
          5    1    3    3  502    0 -0.19300645247E+02  0.12381254240E+03  0.41820802233E+03  0.43659762127E+03  0.41800000000E+01 0. -1.
         -5    1    3    3    0  502 -0.16948443725E+02 -0.29959325265E+02  0.14055659992E+03  0.14477030461E+03  0.41800000000E+01 0. -1.
        -11    1    4    4    0    0  0.16524051677E+02 -0.60668657334E+02  0.22288040184E+03  0.23158023186E+03  0.00000000000E+00 0.  1.
         11    1    4    4    0    0  0.19725037295E+02 -0.33184559800E+02  0.12591975940E+02  0.40606033584E+02  0.00000000000E+00 0. -1.
</event>
<event>
 8    1  0.7102339E-009  0.1163937E+03  0.7561462E-02  0.1249168E+00
         -1   -1    0    0    0  501 -0.00000000000E+00  0.00000000000E+00  0.15696048110E+03  0.15696048110E+03  0.00000000000E+00 0.  1.
          1   -1    0    0  501    0  0.00000000000E+00 -0.00000000000E+00 -0.13284314550E+03  0.13284314550E+03  0.00000000000E+00 0. -1.
         25    2    1    2    0    0 -0.24863212007E+02  0.38005550162E+02 -0.71922679403E+02  0.15126913377E+03  0.12508748085E+03 0.  0.
         23    2    1    2    0    0  0.24863212007E+02 -0.38005550162E+02  0.96040014999E+02  0.13853449283E+03  0.88912991563E+02 0.  0.
          5    1    3    3  502    0  0.50420680015E+02  0.25357067115E+02 -0.32214653314E+02  0.65118984283E+02  0.41800000000E+01 0. -1.
         -5    1    3    3    0  502 -0.75283892023E+02  0.12648483046E+02 -0.39708026089E+02  0.86150149491E+02  0.41800000000E+01 0. -1.
        -11    1    4    4    0    0 -0.20484840412E+02  0.18283871868E+02  0.29236243706E+02  0.40108435562E+02  0.00000000000E+00 0.  1.
         11    1    4    4    0    0  0.45348052419E+02 -0.56289422030E+02  0.66803771294E+02  0.98426057270E+02  0.00000000000E+00 0. -1.
</event>
<event>
 8    1  0.7102339E-009  0.1541980E+03  0.7561462E-02  0.1195407E+00
         -2   -1    0    0    0  501 -0.00000000000E+00  0.00000000000E+00  0.11370010982E+03  0.11370010982E+03  0.00000000000E+00 0.  1.
          2   -1    0    0  501    0  0.00000000000E+00 -0.00000000000E+00 -0.22195894669E+03  0.22195894669E+03  0.00000000000E+00 0. -1.
         25    2    1    2    0    0 -0.63908990289E+01 -0.10968952265E+03 -0.19553904168E+02  0.16763287858E+03  0.12508313973E+03 0.  0.
         23    2    1    2    0    0  0.63908990289E+01  0.10968952265E+03 -0.88704932695E+02  0.16802617793E+03  0.91058203449E+02 0.  0.
          5    1    3    3  502    0  0.29716390441E+02 -0.12365340487E+03 -0.10636831593E+02  0.12768650274E+03  0.41800000000E+01 0. -1.
         -5    1    3    3    0  502 -0.36107289470E+02  0.13963882218E+02 -0.89170725748E+01  0.39946375840E+02  0.41800000000E+01 0. -1.
        -11    1    4    4    0    0 -0.19146915972E+02  0.11461770094E+03 -0.77671462626E+02  0.13977366657E+03  0.00000000000E+00 0.  1.
         11    1    4    4    0    0  0.25537815001E+02 -0.49281782908E+01 -0.11033470068E+02  0.28252511358E+02  0.00000000000E+00 0. -1.
</event>
<event>
 8    1  0.7102339E-009  0.9970329E+02  0.7561462E-02  0.1280921E+00
          2   -1    0    0  501    0  0.00000000000E+00  0.00000000000E+00  0.62057629865E+03  0.62057629865E+03  0.00000000000E+00 0. -1.
         -2   -1    0    0    0  501 -0.00000000000E+00 -0.00000000000E+00 -0.19681099524E+02  0.19681099524E+02  0.00000000000E+00 0.  1.
         25    2    1    2    0    0  0.77478695161E+01  0.12174896108E+01  0.42251964062E+03  0.44071785754E+03  0.12509145247E+03 0.  0.
         23    2    1    2    0    0 -0.77478695161E+01 -0.12174896108E+01  0.17837555851E+03  0.19953954063E+03  0.89088027485E+02 0.  0.
          5    1    3    3  502    0  0.26849538976E+02  0.54149455213E+02  0.13887866822E+03  0.15151837556E+03  0.41800000000E+01 0.  1.
         -5    1    3    3    0  502 -0.19101669460E+02 -0.52931965602E+02  0.28364097240E+03  0.28919948199E+03  0.41800000000E+01 0.  1.
        -11    1    4    4    0    0  0.36410831877E+02 -0.91143051471E+01  0.12112522443E+03  0.12680748885E+03  0.00000000000E+00 0. -1.
         11    1    4    4    0    0 -0.44158701393E+02  0.78968155364E+01  0.57250334078E+02  0.72732051782E+02  0.00000000000E+00 0.  1.
</event>
<event>
 8    1  0.7102339E-009  0.1610956E+03  0.7561462E-02  0.1187465E+00
          2   -1    0    0  501    0  0.00000000000E+00  0.00000000000E+00  0.53983925891E+02  0.53983925891E+02  0.00000000000E+00 0. -1.
         -2   -1    0    0    0  501 -0.00000000000E+00 -0.00000000000E+00 -0.62588108031E+03  0.62588108031E+03  0.00000000000E+00 0.  1.
         25    2    1    2    0    0 -0.13188839383E+03  0.65359418774E+02 -0.25832584117E+03  0.32256110899E+03  0.12508807603E+03 0.  0.
         23    2    1    2    0    0  0.13188839383E+03 -0.65359418774E+02 -0.31357131325E+03  0.35730389721E+03  0.87593974810E+02 0.  0.
          5    1    3    3  502    0 -0.99094127387E+02  0.11611159231E+02 -0.64884687323E+02  0.11908803529E+03  0.41800000000E+01 0. -1.
         -5    1    3    3    0  502 -0.32794266445E+02  0.53748259543E+02 -0.19344115385E+03  0.20347307370E+03  0.41800000000E+01 0. -1.
        -11    1    4    4    0    0  0.98611363409E+02 -0.16300048561E+02 -0.25534914802E+03  0.27421356635E+03  0.00000000000E+00 0.  1.
         11    1    4    4    0    0  0.33277030423E+02 -0.49059370212E+02 -0.58222165232E+02  0.83090330868E+02  0.00000000000E+00 0. -1.
</event>
<event>
 8    1  0.7102339E-009  0.1369271E+03  0.7561462E-02  0.1217525E+00
          1   -1    0    0  501    0  0.00000000000E+00  0.00000000000E+00  0.38388623848E+03  0.38388623848E+03  0.00000000000E+00 0. -1.
         -1   -1    0    0    0  501 -0.00000000000E+00 -0.00000000000E+00 -0.52255688456E+02  0.52255688456E+02  0.00000000000E+00 0.  1.
         25    2    1    2    0    0 -0.83934649777E+02  0.32686277722E+02  0.19777730833E+03  0.25074819905E+03  0.12508148326E+03 0.  0.
         23    2    1    2    0    0  0.83934649777E+02 -0.32686277722E+02  0.13385324170E+03  0.18539372789E+03  0.91327574374E+02 0.  0.
          5    1    3    3  502    0 -0.42221401472E+02 -0.45085799687E+02  0.54821603677E+02  0.82693752517E+02  0.41800000000E+01 0. -1.
         -5    1    3    3    0  502 -0.41713248306E+02  0.77772077408E+02  0.14295570465E+03  0.16805444654E+03  0.41800000000E+01 0. -1.
        -11    1    4    4    0    0  0.31971553253E+02  0.28841414196E+02  0.24356527572E+02  0.49469665711E+02  0.00000000000E+00 0.  1.
         11    1    4    4    0    0  0.51963096525E+02 -0.61527691918E+02  0.10949671413E+03  0.13592406217E+03  0.00000000000E+00 0. -1.
</event>
<event>
 8    1  0.7102339E-009  0.1287387E+03  0.7561462E-02  0.1229339E+00
         -2   -1    0    0    0  501 -0.00000000000E+00  0.00000000000E+00  0.74389920663E+02  0.74389920663E+02  0.00000000000E+00 0.  1.
          2   -1    0    0  501    0  0.00000000000E+00 -0.00000000000E+00 -0.37309936302E+03  0.37309936302E+03  0.00000000000E+00 0. -1.
         25    2    1    2    0    0 -0.49805382468E+02  0.72643132255E+02 -0.28095170768E+03  0.31990515009E+03  0.12509133553E+03 0.  0.
         23    2    1    2    0    0  0.49805382468E+02 -0.72643132255E+02 -0.17757734679E+02  0.12758413359E+03  0.90580203220E+02 0.  0.
          5    1    3    3  502    0 -0.88419755695E+02  0.64349599789E+02 -0.17120617713E+03  0.20319436921E+03  0.41800000000E+01 0.  1.
         -5    1    3    3    0  502  0.38614373227E+02  0.82935324662E+01 -0.10974553054E+03  0.11671078089E+03  0.41800000000E+01 0.  1.
        -11    1    4    4    0    0  0.13300029098E+02  0.10873227761E+02  0.22194531079E+02  0.28066262055E+02  0.00000000000E+00 0.  1.
         11    1    4    4    0    0  0.36505353370E+02 -0.83516360015E+02 -0.39952265758E+02  0.99517871531E+02  0.00000000000E+00 0. -1.
</event>
<event>
 8    1  0.7102339E-009  0.1504716E+03  0.7561462E-02  0.1199895E+00
          2   -1    0    0  501    0  0.00000000000E+00  0.00000000000E+00  0.23925430179E+04  0.23925430179E+04  0.00000000000E+00 0. -1.
         -2   -1    0    0    0  501 -0.00000000000E+00 -0.00000000000E+00 -0.10219934860E+02  0.10219934860E+02  0.00000000000E+00 0.  1.
         25    2    1    2    0    0 -0.29494986128E+02  0.10021124534E+03  0.16035786895E+04  0.16118388646E+04  0.12509062371E+03 0.  0.
         23    2    1    2    0    0  0.29494986128E+02 -0.10021124534E+03  0.77874439356E+03  0.79092408817E+03  0.90586063222E+02 0.  0.
          5    1    3    3  502    0  0.33654136567E+02  0.93045833496E+02  0.93208916640E+03  0.93733548666E+03  0.41800000000E+01 0.  1.
         -5    1    3    3    0  502 -0.63149122695E+02  0.71654118445E+01  0.67148952312E+03  0.67450337797E+03  0.41800000000E+01 0.  1.
        -11    1    4    4    0    0 -0.29004101704E+02 -0.61709691897E+02  0.39480554603E+03  0.40065040018E+03  0.00000000000E+00 0.  1.
         11    1    4    4    0    0  0.58499087833E+02 -0.38501553444E+02  0.38393884753E+03  0.39027368799E+03  0.00000000000E+00 0. -1.
</event>
<event>
 8    1  0.7102339E-009  0.2333929E+03  0.7561462E-02  0.1124274E+00
         -1   -1    0    0    0  501 -0.00000000000E+00  0.00000000000E+00  0.14208986162E+03  0.14208986162E+03  0.00000000000E+00 0.  1.
          1   -1    0    0  501    0  0.00000000000E+00 -0.00000000000E+00 -0.44487208648E+03  0.44487208648E+03  0.00000000000E+00 0. -1.
         25    2    1    2    0    0  0.18826431713E+03  0.10969744424E+03 -0.83605950405E+02  0.26479103382E+03  0.12508938513E+03 0.  0.
         23    2    1    2    0    0 -0.18826431713E+03 -0.10969744424E+03 -0.21917627445E+03  0.32217091428E+03  0.90988330831E+02 0.  0.
          5    1    3    3  502    0  0.71537470232E+02  0.17651329161E+01  0.20690418832E+02  0.74607581202E+02  0.41800000000E+01 0.  1.
         -5    1    3    3    0  502  0.11672684690E+03  0.10793231132E+03 -0.10429636924E+03  0.19018345262E+03  0.41800000000E+01 0.  1.
        -11    1    4    4    0    0 -0.95298961849E+02 -0.10669178342E+03 -0.13626085912E+03  0.19756530695E+03  0.00000000000E+00 0.  1.
         11    1    4    4    0    0 -0.92965355282E+02 -0.30056608151E+01 -0.82915415324E+02  0.12460560733E+03  0.00000000000E+00 0. -1.
</event>
<event>
 8    1  0.7102339E-009  0.1369113E+03  0.7561462E-02  0.1217547E+00
         -1   -1    0    0    0  501 -0.00000000000E+00  0.00000000000E+00  0.10325787820E+02  0.10325787820E+02  0.00000000000E+00 0.  1.
          1   -1    0    0  501    0  0.00000000000E+00 -0.00000000000E+00 -0.29855448164E+04  0.29855448164E+04  0.00000000000E+00 0. -1.
         25    2    1    2    0    0  0.25273520278E+02  0.10942865450E+03 -0.22652370150E+04  0.22714662792E+04  0.12508773792E+03 0.  0.
         23    2    1    2    0    0 -0.25273520278E+02 -0.10942865450E+03 -0.70998201359E+03  0.72440432503E+03  0.89854244449E+02 0.  0.
          5    1    3    3  502    0  0.49106969550E+02  0.84184204389E+02 -0.81640031399E+03  0.82220765005E+03  0.41800000000E+01 0.  1.
         -5    1    3    3    0  502 -0.23833449271E+02  0.25244450107E+02 -0.14488367010E+04  0.14492586291E+04  0.41800000000E+01 0.  1.
        -11    1    4    4    0    0  0.11102078910E+01 -0.11444308053E+03 -0.62098739540E+03  0.63144579854E+03  0.00000000000E+00 0. -1.
         11    1    4    4    0    0 -0.26383728169E+02  0.50144260386E+01 -0.88994618189E+02  0.92958526490E+02  0.00000000000E+00 0.  1.
</event>
<event>
 8    1  0.7102339E-009  0.9204582E+02  0.7561462E-02  0.1297972E+00
          4   -1    0    0  501    0  0.00000000000E+00  0.00000000000E+00  0.18853301366E+03  0.18853301366E+03  0.00000000000E+00 0. -1.
         -4   -1    0    0    0  501 -0.00000000000E+00 -0.00000000000E+00 -0.78633699574E+02  0.78633699574E+02  0.00000000000E+00 0.  1.
         25    2    1    2    0    0 -0.15839321567E+02 -0.24083992307E+02  0.89195840621E+02  0.15631350251E+03  0.12508832995E+03 0.  0.
         23    2    1    2    0    0  0.15839321567E+02  0.24083992307E+02  0.20703473468E+02  0.11085321073E+03  0.10501846372E+03 0.  0.
          5    1    3    3  502    0 -0.56670220946E+02 -0.18170994975E+02  0.97230475261E+02  0.11407425967E+03  0.41800000000E+01 0.  1.
         -5    1    3    3    0  502  0.40830899378E+02 -0.59129973318E+01 -0.80346346394E+01  0.42239242835E+02  0.41800000000E+01 0.  1.
        -11    1    4    4    0    0  0.75755161460E+01 -0.28625764130E+02 -0.26408312561E+02  0.39676463920E+02  0.00000000000E+00 0.  1.
         11    1    4    4    0    0  0.82638054214E+01  0.52709756437E+02  0.47111786029E+02  0.71176746810E+02  0.00000000000E+00 0. -1.
</event>
<event>
 8    1  0.7102339E-009  0.1403464E+03  0.7561462E-02  0.1212864E+00
          2   -1    0    0  501    0  0.00000000000E+00  0.00000000000E+00  0.39710930259E+03  0.39710930259E+03  0.00000000000E+00 0. -1.
         -2   -1    0    0    0  501 -0.00000000000E+00 -0.00000000000E+00 -0.57430327835E+02  0.57430327835E+02  0.00000000000E+00 0.  1.
         25    2    1    2    0    0  0.62758409336E+00  0.96607585897E+02  0.12291949073E+03  0.20022232428E+03  0.12508540452E+03 0.  0.
         23    2    1    2    0    0 -0.62758409336E+00 -0.96607585897E+02  0.21675948402E+03  0.25431730614E+03  0.91428654013E+02 0.  0.
          5    1    3    3  502    0 -0.16716677549E+02 -0.23833729373E+02  0.50831195347E+02  0.58726286998E+02  0.41800000000E+01 0.  1.
         -5    1    3    3    0  502  0.17344261643E+02  0.12044131527E+03  0.72088295385E+02  0.14149603729E+03  0.41800000000E+01 0.  1.
        -11    1    4    4    0    0 -0.21886887454E+02  0.76031574508E+01  0.19806399123E+02  0.30481753425E+02  0.00000000000E+00 0.  1.
         11    1    4    4    0    0  0.21259303360E+02 -0.10421074335E+03  0.19695308490E+03  0.22383555272E+03  0.00000000000E+00 0. -1.
</event>
<event>
 7    1  0.7102339E-009  0.1379474E+03  0.7561462E-02  0.1216118E+00
          1   -1    0    0  501    0  0.00000000000E+00  0.00000000000E+00  0.60603986154E+02  0.60603986154E+02  0.00000000000E+00 0. -1.
         -1   -1    0    0    0  501 -0.00000000000E+00 -0.00000000000E+00 -0.42098540252E+03  0.42098540252E+03  0.00000000000E+00 0.  1.
         23    2    1    2    0    0  0.10334962016E+03 -0.53984415066E+02 -0.16661102122E+03  0.22311409360E+03  0.91788917155E+02 0.  0.
          5    1    1    2  502    0 -0.11016883930E+02  0.33783598205E+02 -0.15004245659E+03  0.15424951999E+03  0.41800000000E+01 0.  1.
         -5    1    1    2    0  502 -0.92332736227E+02  0.20200816861E+02 -0.43727938552E+02  0.10422577508E+03  0.41800000000E+01 0.  1.
        -11    1    3    3    0    0  0.11552625551E+02  0.22975613144E+02 -0.14585262694E+02  0.29564706058E+02  0.00000000000E+00 0. -1.
         11    1    3    3    0    0  0.91796994605E+02 -0.76960028209E+02 -0.15202575853E+03  0.19354938754E+03  0.00000000000E+00 0.  1.
</event>
<event>
 8    1  0.7102339E-009  0.1959403E+03  0.7561462E-02  0.1153210E+00
          1   -1    0    0  501    0  0.00000000000E+00  0.00000000000E+00  0.13636613039E+03  0.13636613039E+03  0.00000000000E+00 0. -1.
         -1   -1    0    0    0  501 -0.00000000000E+00 -0.00000000000E+00 -0.29828116147E+03  0.29828116147E+03  0.00000000000E+00 0.  1.
         25    2    1    2    0    0 -0.16814593487E+03 -0.34730977735E+01 -0.10604388809E+03  0.23489978408E+03  0.12508990581E+03 0.  0.
         23    2    1    2    0    0  0.16814593487E+03  0.34730977735E+01 -0.55871142987E+02  0.19974750779E+03  0.92154025570E+02 0.  0.
          5    1    3    3  502    0  0.98404718912E+01  0.19424043679E+02  0.64123612247E+01  0.23080709182E+02  0.41800000000E+01 0. -1.
         -5    1    3    3    0  502 -0.17798640676E+03 -0.22897141453E+02 -0.11245624932E+03  0.21181907489E+03  0.41800000000E+01 0. -1.
        -11    1    4    4    0    0  0.11762135741E+03 -0.39294604148E+02 -0.24136966874E+02  0.12633860378E+03  0.00000000000E+00 0.  1.
         11    1    4    4    0    0  0.50524577458E+02  0.42767701922E+02 -0.31734176113E+02  0.73408904014E+02  0.00000000000E+00 0. -1.
</event>
<event>
 8    1  0.7102339E-009  0.1137284E+03  0.7561462E-02  0.1253817E+00
         -1   -1    0    0    0  501 -0.00000000000E+00  0.00000000000E+00  0.58641385497E+03  0.58641385497E+03  0.00000000000E+00 0. -1.
          1   -1    0    0  501    0  0.00000000000E+00 -0.00000000000E+00 -0.30062543647E+02  0.30062543647E+02  0.00000000000E+00 0.  1.
         25    2    1    2    0    0  0.66066469495E+01 -0.33030214076E+02  0.14891889947E+03  0.19738167572E+03  0.12509214390E+03 0.  0.
         23    2    1    2    0    0 -0.66066469495E+01  0.33030214076E+02  0.40743241186E+03  0.41909472290E+03  0.92220245622E+02 0.  0.
          5    1    3    3  502    0 -0.56049024651E+02  0.43313058846E+01  0.60881755216E+02  0.82971765639E+02  0.41800000000E+01 0.  1.
         -5    1    3    3    0  502  0.62655671600E+02 -0.37361519961E+02  0.88037144253E+02  0.11440991008E+03  0.41800000000E+01 0.  1.
        -11    1    4    4    0    0 -0.38479585286E+02  0.49051214364E+02  0.27058665995E+03  0.27767578335E+03  0.00000000000E+00 0. -1.
         11    1    4    4    0    0  0.31872938337E+02 -0.16021000288E+02  0.13684575190E+03  0.14141893955E+03  0.00000000000E+00 0.  1.
</event>
<event>
 8    1  0.7102339E-009  0.1504323E+03  0.7561462E-02  0.1199943E+00
          2   -1    0    0  501    0  0.00000000000E+00  0.00000000000E+00  0.13669190930E+03  0.13669190930E+03  0.00000000000E+00 0.  1.
         -2   -1    0    0    0  501 -0.00000000000E+00 -0.00000000000E+00 -0.19354151720E+03  0.19354151720E+03  0.00000000000E+00 0. -1.
         25    2    1    2    0    0 -0.11301617920E+03 -0.41063247388E+02 -0.31021957874E+02  0.17625986480E+03  0.12508529499E+03 0.  0.
         23    2    1    2    0    0  0.11301617920E+03  0.41063247388E+02 -0.25827650024E+02  0.15397356170E+03  0.92638777790E+02 0.  0.
          5    1    3    3  502    0  0.15119992157E+02  0.22895920420E+02  0.57488988011E+01  0.28343598433E+02  0.41800000000E+01 0.  1.
         -5    1    3    3    0  502 -0.12813617135E+03 -0.63959167807E+02 -0.36770856675E+02  0.14791626637E+03  0.41800000000E+01 0.  1.
        -11    1    4    4    0    0  0.51136537776E+02  0.44604138060E+02  0.26510167855E+02  0.72850968611E+02  0.00000000000E+00 0.  1.
         11    1    4    4    0    0  0.61879641419E+02 -0.35408906726E+01 -0.52337817879E+02  0.81122593088E+02  0.00000000000E+00 0. -1.
</event>
<event>
 8    1  0.7102339E-009  0.1605695E+03  0.7561462E-02  0.1188055E+00
          1   -1    0    0  501    0  0.00000000000E+00  0.00000000000E+00  0.19090388387E+04  0.19090388387E+04  0.00000000000E+00 0. -1.
         -1   -1    0    0    0  501 -0.00000000000E+00 -0.00000000000E+00 -0.16367725526E+02  0.16367725526E+02  0.00000000000E+00 0.  1.
         25    2    1    2    0    0 -0.10970108166E+03 -0.50775319651E+02  0.13734678227E+04  0.13844401555E+04  0.12509286127E+03 0.  0.
         23    2    1    2    0    0  0.10970108166E+03  0.50775319651E+02  0.51920329045E+03  0.54096640864E+03  0.91979008781E+02 0.  0.
          5    1    3    3  502    0 -0.56095249337E+02 -0.89261912833E+02  0.95000874592E+03  0.95584959894E+03  0.41800000000E+01 0.  1.
         -5    1    3    3    0  502 -0.53605832327E+02  0.38486593182E+02  0.42345907676E+03  0.42859055660E+03  0.41800000000E+01 0.  1.
        -11    1    4    4    0    0  0.39976620317E+02  0.66908634576E+02  0.22259036546E+03  0.23584182485E+03  0.00000000000E+00 0. -1.
         11    1    4    4    0    0  0.69724461347E+02 -0.16133314925E+02  0.29661292499E+03  0.30512458379E+03  0.00000000000E+00 0.  1.
</event>
<event>
 8    1  0.7102339E-009  0.1063628E+03  0.7561462E-02  0.1267458E+00
         -1   -1    0    0    0  501 -0.00000000000E+00  0.00000000000E+00  0.10793579951E+02  0.10793579951E+02  0.00000000000E+00 0.  1.
          1   -1    0    0  501    0  0.00000000000E+00 -0.00000000000E+00 -0.14036052577E+04  0.14036052577E+04  0.00000000000E+00 0. -1.
         25    2    1    2    0    0 -0.16767934512E+01 -0.41351353467E+02 -0.10399639994E+04  0.10482767213E+04  0.12508484510E+03 0.  0.
         23    2    1    2    0    0  0.16767934512E+01  0.41351353467E+02 -0.35284767841E+03  0.36612211633E+03  0.88493919772E+02 0.  0.
          5    1    3    3  502    0  0.15677974932E+01  0.43498993259E+02 -0.25496033991E+03  0.25868294828E+03  0.41800000000E+01 0. -1.
         -5    1    3    3    0  502 -0.32445909445E+01 -0.84850346726E+02 -0.78500365945E+03  0.78959377306E+03  0.41800000000E+01 0. -1.
        -11    1    4    4    0    0  0.29640878010E+02 -0.47936698272E+01 -0.48602006218E+02  0.57128941247E+02  0.00000000000E+00 0. -1.
         11    1    4    4    0    0 -0.27964084559E+02  0.46145023295E+02 -0.30424567220E+03  0.30899317509E+03  0.00000000000E+00 0.  1.
</event>
<event>
 7    1  0.7102339E-009  0.8830145E+02  0.7561462E-02  0.1307018E+00
         -2   -1    0    0    0  501 -0.00000000000E+00  0.00000000000E+00  0.87871137664E+02  0.87871137664E+02  0.00000000000E+00 0.  1.
          2   -1    0    0  501    0  0.00000000000E+00 -0.00000000000E+00 -0.14169673628E+03  0.14169673628E+03  0.00000000000E+00 0. -1.
         23    2    1    2    0    0  0.31785142063E+01 -0.26454784581E+02 -0.39881404352E+02  0.10102202423E+03  0.88909866643E+02 0.  0.
          5    1    1    2  502    0 -0.56028076831E+02  0.43025769607E+02  0.18819753625E+01  0.70791076238E+02  0.41800000000E+01 0. -1.
         -5    1    1    2    0  502  0.52849562625E+02 -0.16570985027E+02 -0.15826169627E+02  0.57754773478E+02  0.41800000000E+01 0. -1.
        -11    1    3    3    0    0 -0.15316660202E+02  0.29082482338E+01 -0.59259308682E+02  0.61275799896E+02  0.00000000000E+00 0. -1.
         11    1    3    3    0    0  0.18495174408E+02 -0.29363032814E+02  0.19377904330E+02  0.39746224332E+02  0.00000000000E+00 0.  1.
</event>
<event>
 8    1  0.7102339E-009  0.1586585E+03  0.7561462E-02  0.1190220E+00
         -1   -1    0    0    0  501 -0.00000000000E+00  0.00000000000E+00  0.17756133432E+03  0.17756133432E+03  0.00000000000E+00 0.  1.
          1   -1    0    0  501    0  0.00000000000E+00 -0.00000000000E+00 -0.15754271704E+03  0.15754271704E+03  0.00000000000E+00 0. -1.
         25    2    1    2    0    0  0.44050104561E+01 -0.11601462090E+03  0.18190494151E+02  0.17163138319E+03  0.12509053217E+03 0.  0.
         23    2    1    2    0    0 -0.44050104561E+01  0.11601462090E+03  0.18281231247E+01  0.16347266817E+03  0.11507030384E+03 0.  0.
          5    1    3    3  502    0 -0.39738850363E+02 -0.99381511993E+02  0.46153242718E+02  0.11663385172E+03  0.41800000000E+01 0.  1.
         -5    1    3    3    0  502  0.44143860819E+02 -0.16633108902E+02 -0.27962748567E+02  0.54997531465E+02  0.41800000000E+01 0.  1.
        -11    1    4    4    0    0  0.51639526227E+02  0.28665627625E+02 -0.61620136544E+01  0.59382904008E+02  0.00000000000E+00 0. -1.
         11    1    4    4    0    0 -0.56044536683E+02  0.87348993270E+02  0.79901367791E+01  0.10408976416E+03  0.00000000000E+00 0.  1.
</event>
<event>
 8    1  0.7102339E-009  0.9763190E+02  0.7561462E-02  0.1285356E+00
          2   -1    0    0  501    0  0.00000000000E+00  0.00000000000E+00  0.21783853504E+03  0.21783853504E+03  0.00000000000E+00 0.  1.
         -2   -1    0    0    0  501 -0.00000000000E+00 -0.00000000000E+00 -0.16389962621E+03  0.16389962621E+03  0.00000000000E+00 0. -1.
         25    2    1    2    0    0  0.55873067601E+02 -0.14045022096E+02 -0.11631635326E+03  0.18026639590E+03  0.12508963636E+03 0.  0.
         23    2    1    2    0    0 -0.55873067601E+02  0.14045022096E+02  0.17025526209E+03  0.20147176535E+03  0.91021731656E+02 0.  0.
          5    1    3    3  502    0  0.69720943857E+02 -0.39793988262E+01 -0.78735751787E+01  0.70401073951E+02  0.41800000000E+01 0.  1.
         -5    1    3    3    0  502 -0.13847876256E+02 -0.10065623269E+02 -0.10844277808E+03  0.10986532195E+03  0.41800000000E+01 0.  1.
        -11    1    4    4    0    0 -0.79732431209E+02  0.21685850110E+02  0.13293213312E+03  0.15651993067E+03  0.00000000000E+00 0. -1.
         11    1    4    4    0    0  0.23859363608E+02 -0.76408280143E+01  0.37323128973E+02  0.44951834678E+02  0.00000000000E+00 0.  1.
</event>
<event>
 8    1  0.7102339E-009  0.9597189E+02  0.7561462E-02  0.1289002E+00
          2   -1    0    0  501    0  0.00000000000E+00  0.00000000000E+00  0.46617266747E+02  0.46617266747E+02  0.00000000000E+00 0. -1.
         -2   -1    0    0    0  501 -0.00000000000E+00 -0.00000000000E+00 -0.56523666999E+03  0.56523666999E+03  0.00000000000E+00 0.  1.
         25    2    1    2    0    0 -0.10409862957E+02 -0.73417571940E+01 -0.50338867202E+03  0.51885350642E+03  0.12508612777E+03 0.  0.
         23    2    1    2    0    0  0.10409862957E+02  0.73417571940E+01 -0.15230731225E+02  0.93000430318E+02  0.90856140245E+02 0.  0.
          5    1    3    3  502    0 -0.53920833280E+02  0.17953809458E+02 -0.39720187750E+03  0.40126873717E+03  0.41800000000E+01 0. -1.
         -5    1    3    3    0  502  0.43510970322E+02 -0.25295566652E+02 -0.10618679452E+03  0.11758476926E+03  0.41800000000E+01 0. -1.
        -11    1    4    4    0    0  0.18658577294E+02 -0.35886800315E+02 -0.25493219049E+02  0.47811182384E+02  0.00000000000E+00 0.  1.
         11    1    4    4    0    0 -0.82487143369E+01  0.43228557509E+02  0.10262487824E+02  0.45189247934E+02  0.00000000000E+00 0. -1.
</event>
<event>
 8    1  0.7102339E-009  0.1302795E+03  0.7561462E-02  0.1227042E+00
          1   -1    0    0  501    0  0.00000000000E+00  0.00000000000E+00  0.76946822062E+02  0.76946822062E+02  0.00000000000E+00 0. -1.
         -1   -1    0    0    0  501 -0.00000000000E+00 -0.00000000000E+00 -0.34523174615E+03  0.34523174615E+03  0.00000000000E+00 0.  1.
         25    2    1    2    0    0  0.69589878383E+02  0.64746598638E+02 -0.46043987625E+02  0.16371767961E+03  0.12509419096E+03 0.  0.
         23    2    1    2    0    0 -0.69589878383E+02 -0.64746598638E+02 -0.22224093646E+03  0.25846088860E+03  0.91521166342E+02 0.  0.
          5    1    3    3  502    0  0.21435149402E+02 -0.28790698236E+02 -0.45914795973E+02  0.58429537257E+02  0.41800000000E+01 0. -1.
         -5    1    3    3    0  502  0.48154728981E+02  0.93537296874E+02 -0.12919165270E+00  0.10528814235E+03  0.41800000000E+01 0. -1.
        -11    1    4    4    0    0  0.24196402527E+01 -0.44179034669E+02 -0.33781912368E+02  0.55667399494E+02  0.00000000000E+00 0. -1.
         11    1    4    4    0    0 -0.72009518636E+02 -0.20567563969E+02 -0.18845902409E+03  0.20279348911E+03  0.00000000000E+00 0.  1.
</event>
<event>
 8    1  0.7102339E-009  0.1045805E+03  0.7561462E-02  0.1270948E+00
         -2   -1    0    0    0  501 -0.00000000000E+00  0.00000000000E+00  0.26579171140E+02  0.26579171140E+02  0.00000000000E+00 0.  1.
          2   -1    0    0  501    0  0.00000000000E+00 -0.00000000000E+00 -0.65777257874E+03  0.65777257874E+03  0.00000000000E+00 0. -1.
         25    2    1    2    0    0  0.10140155416E+02 -0.58212575264E+02 -0.47188218495E+03  0.49174364289E+03  0.12508991636E+03 0.  0.
         23    2    1    2    0    0 -0.10140155416E+02  0.58212575264E+02 -0.15931122265E+03  0.19260810699E+03  0.90698900471E+02 0.  0.
          5    1    3    3  502    0 -0.24894785803E+02  0.15884850360E+02 -0.29775756495E+03  0.29924758766E+03  0.41800000000E+01 0. -1.
         -5    1    3    3    0  502  0.35034941219E+02 -0.74097425624E+02 -0.17412462000E+03  0.19249605523E+03  0.41800000000E+01 0. -1.
        -11    1    4    4    0    0  0.26297499745E+02  0.54658847235E+02 -0.13676450260E+03  0.14961175504E+03  0.00000000000E+00 0. -1.
         11    1    4    4    0    0 -0.36437655161E+02  0.35537280291E+01 -0.22546720049E+02  0.42996351956E+02  0.00000000000E+00 0.  1.
</event>
<event>
 8    1  0.7102339E-009  0.1472063E+03  0.7561462E-02  0.1203948E+00
          1   -1    0    0  501    0  0.00000000000E+00  0.00000000000E+00  0.18721778496E+03  0.18721778496E+03  0.00000000000E+00 0. -1.
         -1   -1    0    0    0  501 -0.00000000000E+00 -0.00000000000E+00 -0.21542890967E+03  0.21542890967E+03  0.00000000000E+00 0.  1.
         25    2    1    2    0    0 -0.10555126902E+03  0.23359539445E+02  0.11485090676E+03  0.20130906698E+03  0.12509145130E+03 0.  0.
         23    2    1    2    0    0  0.10555126902E+03 -0.23359539445E+02 -0.14306203147E+03  0.20133762765E+03  0.91560673799E+02 0.  0.
          5    1    3    3  502    0  0.12325820348E+02 -0.23204299012E+02  0.54974639189E+02  0.61074124585E+02  0.41800000000E+01 0.  1.
         -5    1    3    3    0  502 -0.11787708937E+03  0.46563838457E+02  0.59876267575E+02  0.14023494239E+03  0.41800000000E+01 0.  1.
        -11    1    4    4    0    0  0.87937808389E+02  0.23427712466E+02 -0.10150879174E+03  0.13633029985E+03  0.00000000000E+00 0.  1.
         11    1    4    4    0    0  0.17613460630E+02 -0.46787251911E+02 -0.41553239731E+02  0.65007327809E+02  0.00000000000E+00 0. -1.
</event>
<event>
 8    1  0.7102339E-009  0.1247562E+03  0.7561462E-02  0.1235451E+00
         -2   -1    0    0    0  501 -0.00000000000E+00  0.00000000000E+00  0.17671147911E+02  0.17671147911E+02  0.00000000000E+00 0. -1.
          2   -1    0    0  501    0  0.00000000000E+00 -0.00000000000E+00 -0.16255588456E+04  0.16255588456E+04  0.00000000000E+00 0.  1.
         25    2    1    2    0    0 -0.10801210739E+02  0.10997732697E+03 -0.11906558991E+04  0.12022979251E+04  0.12508857616E+03 0.  0.
         23    2    1    2    0    0  0.10801210739E+02 -0.10997732697E+03 -0.41723179860E+03  0.44093206848E+03  0.90150078503E+02 0.  0.
          5    1    3    3  502    0 -0.48685204922E+01  0.10425859053E+03 -0.46519397616E+03  0.47677716393E+03  0.41800000000E+01 0. -1.
         -5    1    3    3    0  502 -0.59326902467E+01  0.57187364453E+01 -0.72546192298E+03  0.72552076115E+03  0.41800000000E+01 0. -1.
        -11    1    4    4    0    0 -0.23173984274E+02 -0.96537264969E+02 -0.35641514763E+03  0.36998410038E+03  0.00000000000E+00 0.  1.
         11    1    4    4    0    0  0.33975195013E+02 -0.13440062002E+02 -0.60816650967E+02  0.70947968100E+02  0.00000000000E+00 0. -1.
</event>
<event>
 8    1  0.7102339E-009  0.1107043E+03  0.7561462E-02  0.1259271E+00
          1   -1    0    0  501    0  0.00000000000E+00  0.00000000000E+00  0.36984966630E+03  0.36984966630E+03  0.00000000000E+00 0. -1.
         -1   -1    0    0    0  501 -0.00000000000E+00 -0.00000000000E+00 -0.59839740338E+02  0.59839740338E+02  0.00000000000E+00 0.  1.
         25    2    1    2    0    0 -0.97688655316E+02 -0.27423163656E+02  0.15925253295E+03  0.22650285434E+03  0.12508825081E+03 0.  0.
         23    2    1    2    0    0  0.97688655316E+02  0.27423163656E+02  0.15075739301E+03  0.20318655230E+03  0.90894885473E+02 0.  0.
          5    1    3    3  502    0 -0.62765309587E+02 -0.31460104612E+02  0.17435984688E+03  0.18801077329E+03  0.41800000000E+01 0.  1.
         -5    1    3    3    0  502 -0.34923345729E+02  0.40369409561E+01 -0.15107313929E+02  0.38492081047E+02  0.41800000000E+01 0.  1.
        -11    1    4    4    0    0  0.98525801846E+02  0.10898725974E+02  0.71505203587E+02  0.12222565196E+03  0.00000000000E+00 0.  1.
         11    1    4    4    0    0 -0.83714652975E+00  0.16524437682E+02  0.79252189424E+02  0.80960900338E+02  0.00000000000E+00 0. -1.
</event>
<event>
 8    1  0.7102339E-009  0.1037687E+03  0.7561462E-02  0.1272565E+00
          1   -1    0    0  501    0  0.00000000000E+00  0.00000000000E+00  0.88826673054E+03  0.88826673054E+03  0.00000000000E+00 0. -1.
         -1   -1    0    0    0  501 -0.00000000000E+00 -0.00000000000E+00 -0.14593136776E+02  0.14593136776E+02  0.00000000000E+00 0.  1.
         25    2    1    2    0    0 -0.11878983935E+02 -0.18094234886E+02  0.60830976851E+03  0.62141521393E+03  0.12509029556E+03 0.  0.
         23    2    1    2    0    0  0.11878983935E+02  0.18094234886E+02  0.26536382526E+03  0.28144465339E+03  0.91239364153E+02 0.  0.
          5    1    3    3  502    0 -0.56315739641E+02 -0.42287606921E+02  0.25904509245E+03  0.26848004871E+03  0.41800000000E+01 0. -1.
         -5    1    3    3    0  502  0.44436755705E+02  0.24193372035E+02  0.34926467606E+03  0.35293516522E+03  0.41800000000E+01 0. -1.
        -11    1    4    4    0    0 -0.19226605799E+02 -0.25951621693E+02  0.50712440653E+02  0.60124044076E+02  0.00000000000E+00 0.  1.
         11    1    4    4    0    0  0.31105589734E+02  0.44045856579E+02  0.21465138460E+03  0.22132060931E+03  0.00000000000E+00 0. -1.
</event>
<event>
 8    1  0.7102339E-009  0.1157744E+03  0.7561462E-02  0.1250235E+00
          3   -1    0    0  501    0  0.00000000000E+00  0.00000000000E+00  0.74104802061E+02  0.74104802061E+02  0.00000000000E+00 0. -1.
         -3   -1    0    0    0  501 -0.00000000000E+00 -0.00000000000E+00 -0.19708077405E+03  0.19708077405E+03  0.00000000000E+00 0.  1.
         25    2    1    2    0    0 -0.34412827758E+02 -0.35176715752E+02 -0.90475073712E+02  0.16203680107E+03  0.12509413213E+03 0.  0.
         23    2    1    2    0    0  0.34412827758E+02  0.35176715752E+02 -0.32500898273E+02  0.10914877503E+03  0.91844992556E+02 0.  0.
          5    1    3    3  502    0 -0.72825506966E+02  0.50396961791E+01 -0.28017719520E+02  0.78303371636E+02  0.41800000000E+01 0. -1.
         -5    1    3    3    0  502  0.38412679208E+02 -0.40216411931E+02 -0.62457354192E+02  0.83733429437E+02  0.41800000000E+01 0. -1.
        -11    1    4    4    0    0  0.55434252615E+02  0.51791883279E+02 -0.32033444506E+02  0.82349845801E+02  0.00000000000E+00 0. -1.
         11    1    4    4    0    0 -0.21021424857E+02 -0.16615167527E+02 -0.46745376634E+00  0.26798929233E+02  0.00000000000E+00 0.  1.
</event>
<event>
 8    1  0.7102339E-009  0.1344846E+03  0.7561462E-02  0.1220949E+00
         -1   -1    0    0    0  501 -0.00000000000E+00  0.00000000000E+00  0.59025518265E+02  0.59025518265E+02  0.00000000000E+00 0.  1.
          1   -1    0    0  501    0  0.00000000000E+00 -0.00000000000E+00 -0.39332037566E+03  0.39332037566E+03  0.00000000000E+00 0. -1.
         25    2    1    2    0    0 -0.45626933944E+02 -0.84186766866E+02 -0.11053166144E+03  0.19243699308E+03  0.12508205031E+03 0.  0.
         23    2    1    2    0    0  0.45626933944E+02  0.84186766866E+02 -0.22376319596E+03  0.25990890085E+03  0.91178067851E+02 0.  0.
          5    1    3    3  502    0 -0.31751106081E+02 -0.10686206420E+03 -0.12006057620E+03  0.16388913283E+03  0.41800000000E+01 0.  1.
         -5    1    3    3    0  502 -0.13875827863E+02  0.22675297338E+02  0.95289147599E+01  0.28547860248E+02  0.41800000000E+01 0.  1.
        -11    1    4    4    0    0  0.71254241294E+02  0.47074218206E+02 -0.12563190170E+03  0.15190959037E+03  0.00000000000E+00 0.  1.
         11    1    4    4    0    0 -0.25627307350E+02  0.37112548660E+02 -0.98131294261E+02  0.10799931048E+03  0.00000000000E+00 0. -1.
</event>
<event>
 8    1  0.7102339E-009  0.1186169E+03  0.7561462E-02  0.1245396E+00
         -2   -1    0    0    0  501 -0.00000000000E+00  0.00000000000E+00  0.40374808628E+02  0.40374808628E+02  0.00000000000E+00 0.  1.
          2   -1    0    0  501    0  0.00000000000E+00 -0.00000000000E+00 -0.46536665030E+03  0.46536665030E+03  0.00000000000E+00 0. -1.
         25    2    1    2    0    0 -0.58248638161E+02 -0.58442711068E+02 -0.24153776284E+03  0.28424670455E+03  0.12508894373E+03 0.  0.
         23    2    1    2    0    0  0.58248638161E+02  0.58442711068E+02 -0.18345407883E+03  0.22149475438E+03  0.92715008782E+02 0.  0.
          5    1    3    3  502    0 -0.47282855514E+02  0.15432794047E+02 -0.18177372035E+03  0.18850198239E+03  0.41800000000E+01 0.  1.
         -5    1    3    3    0  502 -0.10965782647E+02 -0.73875505116E+02 -0.59764042492E+02  0.95744722153E+02  0.41800000000E+01 0.  1.
        -11    1    4    4    0    0  0.25511941385E+02 -0.16743011916E+02 -0.14700187505E+02  0.33871567928E+02  0.00000000000E+00 0.  1.
         11    1    4    4    0    0  0.32736696776E+02  0.75185722984E+02 -0.16875389133E+03  0.18762318645E+03  0.00000000000E+00 0. -1.
</event>
<event>
 8    1  0.7102339E-009  0.1583663E+03  0.7561462E-02  0.1190554E+00
          2   -1    0    0  501    0  0.00000000000E+00  0.00000000000E+00  0.19576219736E+04  0.19576219736E+04  0.00000000000E+00 0. -1.
         -2   -1    0    0    0  501 -0.00000000000E+00 -0.00000000000E+00 -0.14507707288E+02  0.14507707288E+02  0.00000000000E+00 0.  1.
         25    2    1    2    0    0 -0.14432004698E+02  0.12325928834E+03  0.12342008184E+04  0.12467156880E+04  0.12508881524E+03 0.  0.
         23    2    1    2    0    0  0.14432004698E+02 -0.12325928834E+03  0.70891344789E+03  0.72541399284E+03  0.90917817244E+02 0.  0.
          5    1    3    3  502    0 -0.17496594507E+02 -0.16250286138E+02  0.68067548700E+02  0.72255561758E+02  0.41800000000E+01 0. -1.
         -5    1    3    3    0  502  0.30645898094E+01  0.13950957448E+03  0.11661332697E+04  0.11744601263E+04  0.41800000000E+01 0. -1.
        -11    1    4    4    0    0  0.48785868841E+02 -0.40951360696E+02  0.33591008193E+03  0.34189568305E+03  0.00000000000E+00 0. -1.
         11    1    4    4    0    0 -0.34353864143E+02 -0.82307927645E+02  0.37300336595E+03  0.38351830979E+03  0.00000000000E+00 0.  1.
</event>
<event>
 8    1  0.7102339E-009  0.1076629E+03  0.7561462E-02  0.1264960E+00
         -3   -1    0    0    0  501 -0.00000000000E+00  0.00000000000E+00  0.17090448701E+02  0.17090448701E+02  0.00000000000E+00 0.  1.
          3   -1    0    0  501    0  0.00000000000E+00 -0.00000000000E+00 -0.89666698014E+03  0.89666698014E+03  0.00000000000E+00 0. -1.
         25    2    1    2    0    0  0.46232939791E+02  0.92278491087E+01 -0.62421389317E+03  0.63836761847E+03  0.12509034319E+03 0.  0.
         23    2    1    2    0    0 -0.46232939791E+02 -0.92278491087E+01 -0.25536263827E+03  0.27538981037E+03  0.91688781831E+02 0.  0.
          5    1    3    3  502    0 -0.31188936242E+02 -0.92134428628E+01 -0.38144357061E+03  0.38285024126E+03  0.41800000000E+01 0. -1.
         -5    1    3    3    0  502  0.77421876034E+02  0.18441291972E+02 -0.24277032256E+03  0.25551737721E+03  0.41800000000E+01 0. -1.
        -11    1    4    4    0    0 -0.32335213795E+02  0.40144994259E+02 -0.13776799816E+03  0.14709591406E+03  0.00000000000E+00 0.  1.
         11    1    4    4    0    0 -0.13897725996E+02 -0.49372843367E+02 -0.11759464010E+03  0.12829389631E+03  0.00000000000E+00 0. -1.
</event>
<event>
 8    1  0.7102339E-009  0.2426043E+03  0.7561462E-02  0.1118070E+00
         -1   -1    0    0    0  501 -0.00000000000E+00  0.00000000000E+00  0.17372277817E+03  0.17372277817E+03  0.00000000000E+00 0.  1.
          1   -1    0    0  501    0  0.00000000000E+00 -0.00000000000E+00 -0.40262894823E+03  0.40262894823E+03  0.00000000000E+00 0. -1.
         25    2    1    2    0    0  0.16248737173E+03  0.16739861106E+03 -0.18527690848E+03  0.32310888141E+03  0.12508946986E+03 0.  0.
         23    2    1    2    0    0 -0.16248737173E+03 -0.16739861106E+03 -0.43629261588E+02  0.25324284499E+03  0.88340167059E+02 0.  0.
          5    1    3    3  502    0 -0.61979592791E+01 -0.62601353074E+01 -0.39041623173E+02  0.40240834152E+02  0.41800000000E+01 0.  1.
         -5    1    3    3    0  502  0.16868533101E+03  0.17365874636E+03 -0.14623528531E+03  0.28286804725E+03  0.41800000000E+01 0.  1.
        -11    1    4    4    0    0 -0.68627248908E+02 -0.67965653717E+02 -0.62744273988E+02  0.11517757289E+03  0.00000000000E+00 0.  1.
         11    1    4    4    0    0 -0.93860122826E+02 -0.99432957340E+02  0.19115012400E+02  0.13806527210E+03  0.00000000000E+00 0. -1.
</event>
<event>
 8    1  0.7102339E-009  0.8779887E+02  0.7561462E-02  0.1308271E+00
         -1   -1    0    0    0  501 -0.00000000000E+00  0.00000000000E+00  0.10921961717E+02  0.10921961717E+02  0.00000000000E+00 0.  1.
          1   -1    0    0  501    0  0.00000000000E+00 -0.00000000000E+00 -0.13035043803E+04  0.13035043803E+04  0.00000000000E+00 0. -1.
         25    2    1    2    0    0 -0.37360293353E+02  0.20308342486E+02 -0.89215868582E+03  0.90188704740E+03  0.12507959580E+03 0.  0.
         23    2    1    2    0    0  0.37360293353E+02 -0.20308342486E+02 -0.40042373279E+03  0.41253929464E+03  0.89673204204E+02 0.  0.
          5    1    3    3  502    0 -0.32037427864E+02  0.47718270938E+02 -0.17645473836E+03  0.18562644546E+03  0.41800000000E+01 0.  1.
         -5    1    3    3    0  502 -0.53228654895E+01 -0.27409928451E+02 -0.71570394746E+03  0.71626060193E+03  0.41800000000E+01 0.  1.
        -11    1    4    4    0    0  0.61692780546E+02 -0.21615029306E+02 -0.35523222736E+03  0.36119682172E+03  0.00000000000E+00 0.  1.
         11    1    4    4    0    0 -0.24332487193E+02  0.13066868201E+01 -0.45191505423E+02  0.51342472923E+02  0.00000000000E+00 0. -1.
</event>
<event>
 8    1  0.7102339E-009  0.9154027E+02  0.7561462E-02  0.1299164E+00
         -1   -1    0    0    0  501 -0.00000000000E+00  0.00000000000E+00  0.17211681834E+03  0.17211681834E+03  0.00000000000E+00 0.  1.
          1   -1    0    0  501    0  0.00000000000E+00 -0.00000000000E+00 -0.11505913021E+03  0.11505913021E+03  0.00000000000E+00 0. -1.
         25    2    1    2    0    0  0.13694898823E+01 -0.46238369575E+02  0.10912010569E+03  0.17231984557E+03  0.12508824641E+03 0.  0.
         23    2    1    2    0    0 -0.13694898823E+01  0.46238369575E+02 -0.52062417563E+02  0.11485610298E+03  0.91332178041E+02 0.  0.
          5    1    3    3  502    0  0.55316439054E+01  0.42980699547E+02  0.29454377177E+02  0.52563983418E+02  0.41800000000E+01 0.  1.
         -5    1    3    3    0  502 -0.41621540231E+01 -0.89219069122E+02  0.79665728512E+02  0.11975586216E+03  0.41800000000E+01 0.  1.
        -11    1    4    4    0    0  0.81799343584E+01  0.11561425488E+02  0.25607122532E+02  0.29262648714E+02  0.00000000000E+00 0.  1.
         11    1    4    4    0    0 -0.95494242406E+01  0.34676944087E+02 -0.77669540095E+02  0.85593454265E+02  0.00000000000E+00 0. -1.
</event>
<event>
 8    1  0.7102339E-009  0.1497126E+03  0.7561462E-02  0.1200827E+00
          1   -1    0    0  501    0  0.00000000000E+00  0.00000000000E+00  0.18091585904E+03  0.18091585904E+03  0.00000000000E+00 0. -1.
         -1   -1    0    0    0  501 -0.00000000000E+00 -0.00000000000E+00 -0.14861324798E+03  0.14861324798E+03  0.00000000000E+00 0.  1.
         25    2    1    2    0    0  0.66894812192E+02 -0.10218718489E+03 -0.60010590600E+01  0.17492753998E+03  0.12508594998E+03 0.  0.
         23    2    1    2    0    0 -0.66894812192E+02  0.10218718489E+03  0.38303670120E+02  0.15460156704E+03  0.86702576278E+02 0.  0.
          5    1    3    3  502    0 -0.27950263470E+02  0.73507370613E+01 -0.67515174314E+01  0.29971752552E+02  0.41800000000E+01 0.  1.
         -5    1    3    3    0  502  0.94845075662E+02 -0.10953792195E+03  0.75045837140E+00  0.14495578743E+03  0.41800000000E+01 0.  1.
        -11    1    4    4    0    0 -0.33841998397E+02  0.27538121927E+02 -0.25901556955E+02  0.50739724748E+02  0.00000000000E+00 0.  1.
         11    1    4    4    0    0 -0.33052813794E+02  0.74649062960E+02  0.64205227075E+02  0.10386184229E+03  0.00000000000E+00 0. -1.
</event>
<event>
 8    1  0.7102339E-009  0.8566398E+02  0.7561462E-02  0.1313705E+00
         -2   -1    0    0    0  501 -0.00000000000E+00  0.00000000000E+00  0.43551606027E+02  0.43551606027E+02  0.00000000000E+00 0.  1.
          2   -1    0    0  501    0  0.00000000000E+00 -0.00000000000E+00 -0.31655844681E+03  0.31655844681E+03  0.00000000000E+00 0. -1.
         25    2    1    2    0    0 -0.19104500606E+01 -0.29094079203E+02 -0.10359452993E+03  0.16501264389E+03  0.12508889139E+03 0.  0.
         23    2    1    2    0    0  0.19104500606E+01  0.29094079203E+02 -0.16941231086E+03  0.19509740895E+03  0.92262411873E+02 0.  0.
          5    1    3    3  502    0 -0.33088893498E+02  0.32825140390E+02 -0.78066749622E+02  0.91017880172E+02  0.41800000000E+01 0. -1.
         -5    1    3    3    0  502  0.31178443437E+02 -0.61919219593E+02 -0.25527780303E+02  0.73994763716E+02  0.41800000000E+01 0. -1.
        -11    1    4    4    0    0  0.23087941123E+02  0.23992685121E+02 -0.17007526809E+03  0.17330406452E+03  0.00000000000E+00 0. -1.
         11    1    4    4    0    0 -0.21177491063E+02  0.51013940826E+01  0.66295722418E+00  0.21793344433E+02  0.00000000000E+00 0.  1.
</event>
<event>
 8    1  0.7102339E-009  0.1552016E+03  0.7561462E-02  0.1194223E+00
         -2   -1    0    0    0  501 -0.00000000000E+00  0.00000000000E+00  0.36543421351E+03  0.36543421351E+03  0.00000000000E+00 0. -1.
          2   -1    0    0  501    0  0.00000000000E+00 -0.00000000000E+00 -0.88965866766E+02  0.88965866766E+02  0.00000000000E+00 0.  1.
         25    2    1    2    0    0  0.29900159153E+02 -0.13134789609E+03  0.80941551560E+02  0.20086023660E+03  0.12508801123E+03 0.  0.
         23    2    1    2    0    0 -0.29900159153E+02  0.13134789609E+03  0.19552679519E+03  0.25353984368E+03  0.88912515264E+02 0.  0.
          5    1    3    3  502    0 -0.33254283572E+02 -0.45604824580E+01 -0.63625601191E+01  0.34418017773E+02  0.41800000000E+01 0. -1.
         -5    1    3    3    0  502  0.63154442725E+02 -0.12678741364E+03  0.87304111680E+02  0.16644221883E+03  0.41800000000E+01 0. -1.
        -11    1    4    4    0    0 -0.54573352459E+01  0.37366051646E+02  0.13248787046E+03  0.13776443715E+03  0.00000000000E+00 0. -1.
         11    1    4    4    0    0 -0.24442823907E+02  0.93981844448E+02  0.63038924727E+02  0.11577540653E+03  0.00000000000E+00 0.  1.
</event>
<event>
 8    1  0.7102339E-009  0.1431224E+03  0.7561462E-02  0.1209188E+00
         -1   -1    0    0    0  501 -0.00000000000E+00  0.00000000000E+00  0.26425644165E+03  0.26425644165E+03  0.00000000000E+00 0.  1.
          1   -1    0    0  501    0  0.00000000000E+00 -0.00000000000E+00 -0.10726948364E+03  0.10726948364E+03  0.00000000000E+00 0. -1.
         25    2    1    2    0    0 -0.10494622932E+03  0.54298954346E+02  0.13816560471E+03  0.22068156233E+03  0.12509408513E+03 0.  0.
         23    2    1    2    0    0  0.10494622932E+03 -0.54298954346E+02  0.18821353295E+02  0.15084436297E+03  0.91856905069E+02 0.  0.
          5    1    3    3  502    0 -0.87396656009E+02  0.59143734694E+01  0.14411637100E+03  0.16870138140E+03  0.41800000000E+01 0.  1.
         -5    1    3    3    0  502 -0.17549573309E+02  0.48384580876E+02 -0.59507662887E+01  0.51980180928E+02  0.41800000000E+01 0.  1.
        -11    1    4    4    0    0  0.11204311319E+03 -0.22437219748E+02  0.23738764032E+01  0.11429227153E+03  0.00000000000E+00 0.  1.
         11    1    4    4    0    0 -0.70968838717E+01 -0.31861734597E+02  0.16447476891E+02  0.36552091436E+02  0.00000000000E+00 0. -1.
</event>
<event>
 8    1  0.7102339E-009  0.1249905E+03  0.7561462E-02  0.1235084E+00
          1   -1    0    0  501    0  0.00000000000E+00  0.00000000000E+00  0.15744155212E+03  0.15744155212E+03  0.00000000000E+00 0. -1.
         -1   -1    0    0    0  501 -0.00000000000E+00 -0.00000000000E+00 -0.16819613411E+03  0.16819613411E+03  0.00000000000E+00 0.  1.
         25    2    1    2    0    0 -0.61713202931E+02  0.60353648711E+02 -0.90298742137E+02  0.17677483399E+03  0.12507756302E+03 0.  0.
         23    2    1    2    0    0  0.61713202931E+02 -0.60353648711E+02  0.79544160145E+02  0.14886285225E+03  0.91552132896E+02 0.  0.
          5    1    3    3  502    0  0.20600030566E+02  0.48310503067E+02  0.16461328550E+01  0.52710986704E+02  0.41800000000E+01 0. -1.
         -5    1    3    3    0  502 -0.82313233496E+02  0.12043145643E+02 -0.91944874992E+02  0.12406384728E+03  0.41800000000E+01 0. -1.
        -11    1    4    4    0    0  0.26889221403E+02  0.15143052267E+02 -0.38561905047E+01  0.31100039628E+02  0.00000000000E+00 0.  1.
         11    1    4    4    0    0  0.34823981528E+02 -0.75496700978E+02  0.83400350649E+02  0.11776281262E+03  0.00000000000E+00 0. -1.
</event>
<event>
 8    1  0.7102339E-009  0.8354992E+02  0.7561462E-02  0.1319269E+00
          1   -1    0    0  501    0  0.00000000000E+00  0.00000000000E+00  0.26888217489E+03  0.26888217489E+03  0.00000000000E+00 0. -1.
         -1   -1    0    0    0  501 -0.00000000000E+00 -0.00000000000E+00 -0.44754540564E+02  0.44754540564E+02  0.00000000000E+00 0.  1.
         25    2    1    2    0    0 -0.33145317068E+01 -0.18349774481E+02  0.13701895046E+03  0.18646782166E+03  0.12509338665E+03 0.  0.
         23    2    1    2    0    0  0.33145317068E+01  0.18349774481E+02  0.87108683864E+02  0.12716889380E+03  0.90754087516E+02 0.  0.
          5    1    3    3  502    0 -0.52331830038E+02  0.25474042942E+02  0.47067458066E+02  0.74969095684E+02  0.41800000000E+01 0.  1.
         -5    1    3    3    0  502  0.49017298331E+02 -0.43823817423E+02  0.89951492394E+02  0.11149872597E+03  0.41800000000E+01 0.  1.
        -11    1    4    4    0    0 -0.17667452138E+02  0.98261207815E+01  0.99376838193E+02  0.10141226496E+03  0.00000000000E+00 0. -1.
         11    1    4    4    0    0  0.20981983845E+02  0.85236536999E+01 -0.12268154329E+02  0.25756628838E+02  0.00000000000E+00 0.  1.
</event>
<event>
 8    1  0.7102339E-009  0.7069874E+02  0.7561462E-02  0.1357733E+00
         -1   -1    0    0    0  501 -0.00000000000E+00  0.00000000000E+00  0.49411203285E+02  0.49411203285E+02  0.00000000000E+00 0.  1.
          1   -1    0    0  501    0  0.00000000000E+00 -0.00000000000E+00 -0.26147199701E+03  0.26147199701E+03  0.00000000000E+00 0. -1.
         25    2    1    2    0    0  0.68444868372E+01 -0.29569277568E+02 -0.10353759318E+03  0.16519775075E+03  0.12509626084E+03 0.  0.
         23    2    1    2    0    0 -0.68444868372E+01  0.29569277568E+02 -0.10852320054E+03  0.14568544954E+03  0.92335128616E+02 0.  0.
          5    1    3    3  502    0 -0.43554668140E+02 -0.11952094794E+02  0.35186825856E+01  0.45494122850E+02  0.41800000000E+01 0. -1.
         -5    1    3    3    0  502  0.50399154977E+02 -0.17617182773E+02 -0.10705627577E+03  0.11970362790E+03  0.41800000000E+01 0. -1.
        -11    1    4    4    0    0  0.10746868592E+02  0.19372498518E+02  0.10797315304E+02  0.24644896046E+02  0.00000000000E+00 0.  1.
         11    1    4    4    0    0 -0.17591355429E+02  0.10196779050E+02 -0.11932051585E+03  0.12104055350E+03  0.00000000000E+00 0. -1.
</event>
<event>
 8    1  0.7102339E-009  0.1572169E+03  0.7561462E-02  0.1191875E+00
         -2   -1    0    0    0  501 -0.00000000000E+00  0.00000000000E+00  0.40625404938E+02  0.40625404938E+02  0.00000000000E+00 0.  1.
          2   -1    0    0  501    0  0.00000000000E+00 -0.00000000000E+00 -0.89374270834E+03  0.89374270834E+03  0.00000000000E+00 0. -1.
         25    2    1    2    0    0  0.19799830992E+02 -0.12176797183E+03 -0.67305369890E+03  0.69560665690E+03  0.12509143558E+03 0.  0.
         23    2    1    2    0    0 -0.19799830992E+02  0.12176797183E+03 -0.18006360450E+03  0.23876145637E+03  0.96771168809E+02 0.  0.
          5    1    3    3  502    0  0.24562492582E+02 -0.13802336429E+03 -0.65730874208E+03  0.67210566129E+03  0.41800000000E+01 0.  1.
         -5    1    3    3    0  502 -0.47626615898E+01  0.16255392456E+02 -0.15744956821E+02  0.23500995609E+02  0.41800000000E+01 0.  1.
        -11    1    4    4    0    0 -0.26915605628E+02  0.13715974746E+03 -0.16258997201E+03  0.21441255828E+03  0.00000000000E+00 0. -1.
         11    1    4    4    0    0  0.71157746358E+01 -0.15391775634E+02 -0.17473632489E+02  0.24348898090E+02  0.00000000000E+00 0.  1.
</event>
<event>
 8    1  0.7102339E-009  0.1876890E+03  0.7561462E-02  0.1160562E+00
         -2   -1    0    0    0  501 -0.00000000000E+00  0.00000000000E+00  0.23864745811E+02  0.23864745811E+02  0.00000000000E+00 0.  1.
          2   -1    0    0  501    0  0.00000000000E+00 -0.00000000000E+00 -0.15072414175E+04  0.15072414175E+04  0.00000000000E+00 0. -1.
         25    2    1    2    0    0  0.13488067570E+03 -0.73753605976E+02 -0.84856305467E+03  0.87140077818E+03  0.12509063672E+03 0.  0.
         23    2    1    2    0    0 -0.13488067570E+03  0.73753605976E+02 -0.63481361701E+03  0.65970538511E+03  0.92684819366E+02 0.  0.
          5    1    3    3  502    0  0.71770504230E+02  0.27110574889E+02 -0.27023216402E+03  0.28094284725E+03  0.41800000000E+01 0. -1.
         -5    1    3    3    0  502  0.63110171473E+02 -0.10086418087E+03 -0.57833089065E+03  0.59045793093E+03  0.41800000000E+01 0. -1.
        -11    1    4    4    0    0 -0.56389747008E+02  0.83119081225E+02 -0.35982448960E+03  0.37358031070E+03  0.00000000000E+00 0. -1.
         11    1    4    4    0    0 -0.78490928695E+02 -0.93654752490E+01 -0.27498912741E+03  0.28612507441E+03  0.00000000000E+00 0.  1.
</event>
<event>
 8    1  0.7102339E-009  0.1078502E+03  0.7561462E-02  0.1264603E+00
         -1   -1    0    0    0  501 -0.00000000000E+00  0.00000000000E+00  0.37712929023E+02  0.37712929023E+02  0.00000000000E+00 0.  1.
          1   -1    0    0  501    0  0.00000000000E+00 -0.00000000000E+00 -0.56571767365E+03  0.56571767365E+03  0.00000000000E+00 0. -1.
         25    2    1    2    0    0 -0.61693327239E+01 -0.97795398016E+02 -0.32699594030E+03  0.36355995555E+03  0.12508995070E+03 0.  0.
         23    2    1    2    0    0  0.61693327239E+01  0.97795398016E+02 -0.20100880433E+03  0.23987064712E+03  0.86783566391E+02 0.  0.
          5    1    3    3  502    0  0.37527512257E+01 -0.26563179562E+02  0.15630702600E+01  0.27195610654E+02  0.41800000000E+01 0. -1.
         -5    1    3    3    0  502 -0.99220839497E+01 -0.71232218454E+02 -0.32855901056E+03  0.33636434489E+03  0.41800000000E+01 0. -1.
        -11    1    4    4    0    0  0.25135308245E+02  0.10608008099E+02 -0.10014146079E+02  0.29061945532E+02  0.00000000000E+00 0.  1.
         11    1    4    4    0    0 -0.18965975521E+02  0.87187389917E+02 -0.19099465825E+03  0.21080870159E+03  0.00000000000E+00 0. -1.
</event>
<event>
 8    1  0.7102339E-009  0.1145847E+03  0.7561462E-02  0.1252308E+00
          1   -1    0    0  501    0  0.00000000000E+00  0.00000000000E+00  0.51787341046E+02  0.51787341046E+02  0.00000000000E+00 0. -1.
         -1   -1    0    0    0  501 -0.00000000000E+00 -0.00000000000E+00 -0.28649923864E+03  0.28649923864E+03  0.00000000000E+00 0.  1.
         25    2    1    2    0    0 -0.49214745580E+02  0.19190380314E+02 -0.15662606434E+03  0.20728627893E+03  0.12508203517E+03 0.  0.
         23    2    1    2    0    0  0.49214745580E+02 -0.19190380314E+02 -0.78085833248E+02  0.13100030075E+03  0.90957790016E+02 0.  0.
          5    1    3    3  502    0 -0.91062969434E+02  0.48842407812E+01 -0.10836527374E+03  0.14169271386E+03  0.41800000000E+01 0. -1.
         -5    1    3    3    0  502  0.41848223853E+02  0.14306139532E+02 -0.48260790606E+02  0.65593565065E+02  0.41800000000E+01 0. -1.
        -11    1    4    4    0    0  0.44461126716E+02  0.23645630657E+02 -0.71420828699E+02  0.87389029118E+02  0.00000000000E+00 0.  1.
         11    1    4    4    0    0  0.47536188643E+01 -0.42836010971E+02 -0.66650045492E+01  0.43611271637E+02  0.00000000000E+00 0. -1.
</event>
<event>
 8    1  0.7102339E-009  0.1210201E+03  0.7561462E-02  0.1241424E+00
         -1   -1    0    0    0  501 -0.00000000000E+00  0.00000000000E+00  0.30607939373E+03  0.30607939373E+03  0.00000000000E+00 0.  1.
          1   -1    0    0  501    0  0.00000000000E+00 -0.00000000000E+00 -0.76037371967E+02  0.76037371967E+02  0.00000000000E+00 0. -1.
         25    2    1    2    0    0 -0.14634023329E+01 -0.92781720813E+02  0.54762100832E+02  0.16511044154E+03  0.12510787727E+03 0.  0.
         23    2    1    2    0    0  0.14634023329E+01  0.92781720813E+02  0.17527992093E+03  0.21700632416E+03  0.88080104340E+02 0.  0.
          5    1    3    3  502    0 -0.37797215263E+02 -0.40955056642E+02  0.79370185213E+02  0.97072369122E+02  0.41800000000E+01 0.  1.
         -5    1    3    3    0  502  0.36333812930E+02 -0.51826664170E+02 -0.24608084381E+02  0.68038072415E+02  0.41800000000E+01 0.  1.
        -11    1    4    4    0    0  0.34371577073E+02  0.80612712189E+02  0.94198593859E+02  0.12865920007E+03  0.00000000000E+00 0. -1.
         11    1    4    4    0    0 -0.32908174740E+02  0.12169008624E+02  0.81081327074E+02  0.88347124094E+02  0.00000000000E+00 0.  1.
</event>
<event>
 8    1  0.7102339E-009  0.1531059E+03  0.7561462E-02  0.1196708E+00
         -2   -1    0    0    0  501 -0.00000000000E+00  0.00000000000E+00  0.10296536213E+03  0.10296536213E+03  0.00000000000E+00 0.  1.
          2   -1    0    0  501    0  0.00000000000E+00 -0.00000000000E+00 -0.39831906676E+03  0.39831906676E+03  0.00000000000E+00 0. -1.
         25    2    1    2    0    0 -0.11856492715E+03  0.73369721627E+02 -0.27527147699E+03  0.33297417213E+03  0.12512655697E+03 0.  0.
         23    2    1    2    0    0  0.11856492715E+03 -0.73369721627E+02 -0.20082227641E+02  0.16831025676E+03  0.92110198474E+02 0.  0.
          5    1    3    3  502    0 -0.52276549744E+02  0.40001717452E+02 -0.24326011145E+03  0.25204350671E+03  0.41800000000E+01 0.  1.
         -5    1    3    3    0  502 -0.66288377406E+02  0.33368004175E+02 -0.32011365542E+02  0.80930665422E+02  0.41800000000E+01 0.  1.
        -11    1    4    4    0    0  0.11316654515E+03 -0.23270911680E+02 -0.23139186546E+02  0.11782879201E+03  0.00000000000E+00 0. -1.
         11    1    4    4    0    0  0.53983820006E+01 -0.50098809947E+02  0.30569589043E+01  0.50481464758E+02  0.00000000000E+00 0.  1.
</event>
<event>
 8    1  0.7102339E-009  0.1010867E+03  0.7561462E-02  0.1278027E+00
          1   -1    0    0  501    0  0.00000000000E+00  0.00000000000E+00  0.26939918481E+03  0.26939918481E+03  0.00000000000E+00 0. -1.
         -1   -1    0    0    0  501 -0.00000000000E+00 -0.00000000000E+00 -0.52961747279E+02  0.52961747279E+02  0.00000000000E+00 0.  1.
         25    2    1    2    0    0 -0.11529140249E+02  0.28943379928E+02  0.16685740638E+03  0.21085409512E+03  0.12508962807E+03 0.  0.
         23    2    1    2    0    0  0.11529140249E+02 -0.28943379928E+02  0.49580031154E+02  0.11150683696E+03  0.94894440744E+02 0.  0.
          5    1    3    3  502    0 -0.21909686666E+02 -0.34823710545E+02  0.12986225713E+03  0.13628794303E+03  0.41800000000E+01 0. -1.
         -5    1    3    3    0  502  0.10380546416E+02  0.63767090472E+02  0.36995149241E+02  0.74566152097E+02  0.41800000000E+01 0. -1.
        -11    1    4    4    0    0 -0.39664143140E+02 -0.65537339517E+01  0.60027311186E+01  0.40647613222E+02  0.00000000000E+00 0.  1.
         11    1    4    4    0    0  0.51193283389E+02 -0.22389645976E+02  0.43577300035E+02  0.70859223743E+02  0.00000000000E+00 0. -1.
</event>
<event>
 8    1  0.7102339E-009  0.1357032E+03  0.7561462E-02  0.1219230E+00
         -1   -1    0    0    0  501 -0.00000000000E+00  0.00000000000E+00  0.38024162018E+02  0.38024162018E+02  0.00000000000E+00 0.  1.
          1   -1    0    0  501    0  0.00000000000E+00 -0.00000000000E+00 -0.60776625387E+03  0.60776625387E+03  0.00000000000E+00 0. -1.
         25    2    1    2    0    0 -0.10155643442E+03  0.31533566908E+02 -0.30060012634E+03  0.34251323992E+03  0.12508720299E+03 0.  0.
         23    2    1    2    0    0  0.10155643442E+03 -0.31533566908E+02 -0.26914196551E+03  0.30327717596E+03  0.90728014674E+02 0.  0.
          5    1    3    3  502    0 -0.12978308486E+03  0.35598441081E+02 -0.23454254920E+03  0.27044145006E+03  0.41800000000E+01 0. -1.
         -5    1    3    3    0  502  0.28226650439E+02 -0.40648741733E+01 -0.66057577141E+02  0.72071789868E+02  0.41800000000E+01 0. -1.
        -11    1    4    4    0    0  0.91623339318E+02 -0.22116743371E+02 -0.27319904776E+03  0.28900122205E+03  0.00000000000E+00 0. -1.
         11    1    4    4    0    0  0.99330951041E+01 -0.94168235371E+01  0.40570822518E+01  0.14275953918E+02  0.00000000000E+00 0.  1.
</event>
<event>
 8    1  0.7102339E-009  0.1610486E+03  0.7561462E-02  0.1187518E+00
         -1   -1    0    0    0  501 -0.00000000000E+00  0.00000000000E+00  0.73848753353E+02  0.73848753353E+02  0.00000000000E+00 0.  1.
          1   -1    0    0  501    0  0.00000000000E+00 -0.00000000000E+00 -0.49426375369E+03  0.49426375369E+03  0.00000000000E+00 0. -1.
         25    2    1    2    0    0  0.86881075868E+02 -0.12071519282E+03 -0.14974829610E+03  0.24534148664E+03  0.12508962291E+03 0.  0.
         23    2    1    2    0    0 -0.86881075868E+02  0.12071519282E+03 -0.27066670423E+03  0.32277102040E+03  0.93809315690E+02 0.  0.
          5    1    3    3  502    0  0.76499191922E+02 -0.60356587139E+02 -0.16886132187E+02  0.98983118945E+02  0.41800000000E+01 0.  1.
         -5    1    3    3    0  502  0.10381883945E+02 -0.60358605679E+02 -0.13286216392E+03  0.14635836770E+03  0.41800000000E+01 0.  1.
        -11    1    4    4    0    0 -0.62509918237E+02  0.12372675412E+03 -0.17102763146E+03  0.22015051734E+03  0.00000000000E+00 0.  1.
         11    1    4    4    0    0 -0.24371157630E+02 -0.30115612985E+01 -0.99639072774E+02  0.10262050306E+03  0.00000000000E+00 0. -1.
</event>
<event>
 8    1  0.7102339E-009  0.1071461E+03  0.7561462E-02  0.1265948E+00
          2   -1    0    0  501    0  0.00000000000E+00  0.00000000000E+00  0.22324129155E+03  0.22324129155E+03  0.00000000000E+00 0. -1.
         -2   -1    0    0    0  501 -0.00000000000E+00 -0.00000000000E+00 -0.14020657650E+03  0.14020657650E+03  0.00000000000E+00 0.  1.
         25    2    1    2    0    0 -0.51098674714E+02 -0.64398349554E+02  0.16443965953E+03  0.22236545437E+03  0.12509105360E+03 0.  0.
         23    2    1    2    0    0  0.51098674714E+02  0.64398349554E+02 -0.81404944478E+02  0.14108241367E+03  0.80741937555E+02 0.  0.
          5    1    3    3  502    0 -0.62490908829E+02 -0.44684043573E+02  0.24822150349E+02  0.80841752729E+02  0.41800000000E+01 0. -1.
         -5    1    3    3    0  502  0.11392234116E+02 -0.19714305981E+02  0.13961750918E+03  0.14152370164E+03  0.41800000000E+01 0. -1.
        -11    1    4    4    0    0  0.51563745663E+02  0.17891236662E+01 -0.46178117854E+02  0.69241890492E+02  0.00000000000E+00 0. -1.
         11    1    4    4    0    0 -0.46507094950E+00  0.62609225888E+02 -0.35226826624E+02  0.71840523183E+02  0.00000000000E+00 0.  1.
</event>
<event>
 8    1  0.7102339E-009  0.1469138E+03  0.7561462E-02  0.1204317E+00
          2   -1    0    0  501    0  0.00000000000E+00  0.00000000000E+00  0.71450487944E+03  0.71450487944E+03  0.00000000000E+00 0.  1.
         -2   -1    0    0    0  501 -0.00000000000E+00 -0.00000000000E+00 -0.42390173835E+02  0.42390173835E+02  0.00000000000E+00 0. -1.
         25    2    1    2    0    0  0.14390711638E+02  0.11154670503E+03  0.52535265117E+03  0.55163117666E+03  0.12510710209E+03 0.  0.
         23    2    1    2    0    0 -0.14390711638E+02 -0.11154670503E+03  0.14676205444E+03  0.20526387661E+03  0.89131354952E+02 0.  0.
          5    1    3    3  502    0 -0.10376520799E+02  0.12315260180E+03  0.49645009112E+03  0.51161939065E+03  0.41800000000E+01 0.  1.
         -5    1    3    3    0  502  0.24767232437E+02 -0.11605896778E+02  0.28902560043E+02  0.40011786009E+02  0.41800000000E+01 0.  1.
        -11    1    4    4    0    0  0.65261180592E+01  0.13881181530E+02  0.24214096829E+02  0.28663564029E+02  0.00000000000E+00 0.  1.
         11    1    4    4    0    0 -0.20916829697E+02 -0.12542788656E+03  0.12254795761E+03  0.17660031258E+03  0.00000000000E+00 0. -1.
</event>
<event>
 8    1  0.7102339E-009  0.1297022E+03  0.7561462E-02  0.1227898E+00
         -3   -1    0    0    0  501 -0.00000000000E+00  0.00000000000E+00  0.41253992494E+02  0.41253992494E+02  0.00000000000E+00 0.  1.
          3   -1    0    0  501    0  0.00000000000E+00 -0.00000000000E+00 -0.63517122122E+03  0.63517122122E+03  0.00000000000E+00 0. -1.
         25    2    1    2    0    0 -0.89095868156E+02  0.74418547818E+02 -0.25591505220E+03  0.30758781858E+03  0.12506621531E+03 0.  0.
         23    2    1    2    0    0  0.89095868156E+02 -0.74418547818E+02 -0.33800217652E+03  0.36883739514E+03  0.91210518774E+02 0.  0.
          5    1    3    3  502    0 -0.50144735224E+02  0.46324457911E+02 -0.26803986319E+02  0.73460029636E+02  0.41800000000E+01 0.  1.
         -5    1    3    3    0  502 -0.38951132932E+02  0.28094089907E+02 -0.22911106588E+03  0.23412778894E+03  0.41800000000E+01 0.  1.
        -11    1    4    4    0    0  0.11640362563E+02 -0.63526567846E+02 -0.20049816661E+03  0.21064338983E+03  0.00000000000E+00 0. -1.
         11    1    4    4    0    0  0.77455505593E+02 -0.10891979972E+02 -0.13750400991E+03  0.15819400531E+03  0.00000000000E+00 0.  1.
</event>
<event>
 8    1  0.7102339E-009  0.1333418E+03  0.7561462E-02  0.1222580E+00
          4   -1    0    0  501    0  0.00000000000E+00  0.00000000000E+00  0.18776636390E+03  0.18776636390E+03  0.00000000000E+00 0. -1.
         -4   -1    0    0    0  501 -0.00000000000E+00 -0.00000000000E+00 -0.17671468760E+03  0.17671468760E+03  0.00000000000E+00 0.  1.
         25    2    1    2    0    0  0.73294109597E+02 -0.92445391091E+02 -0.79572937287E+02  0.18946799389E+03  0.12509233200E+03 0.  0.
         23    2    1    2    0    0 -0.73294109597E+02  0.92445391091E+02  0.90624613587E+02  0.17501305761E+03  0.92187704776E+02 0.  0.
          5    1    3    3  502    0 -0.69895832238E+01 -0.75857858874E+01  0.28297687651E+02  0.30407728418E+02  0.41800000000E+01 0.  1.
         -5    1    3    3    0  502  0.80283692821E+02 -0.84859605204E+02 -0.10787062494E+03  0.15906026547E+03  0.41800000000E+01 0.  1.
        -11    1    4    4    0    0 -0.39801859143E+02  0.97010798795E+02  0.36172015600E+02  0.11092203472E+03  0.00000000000E+00 0.  1.
         11    1    4    4    0    0 -0.33492250454E+02 -0.45654077032E+01  0.54452597987E+02  0.64091022893E+02  0.00000000000E+00 0. -1.
</event>
<event>
 8    1  0.7102339E-009  0.1088954E+03  0.7561462E-02  0.1262629E+00
          2   -1    0    0  501    0  0.00000000000E+00  0.00000000000E+00  0.69710445688E+03  0.69710445688E+03  0.00000000000E+00 0. -1.
         -2   -1    0    0    0  501 -0.00000000000E+00 -0.00000000000E+00 -0.18956807204E+02  0.18956807204E+02  0.00000000000E+00 0.  1.
         25    2    1    2    0    0 -0.32592949652E+02  0.19311808467E+02  0.45142042974E+03  0.46995988179E+03  0.12508652920E+03 0.  0.
         23    2    1    2    0    0  0.32592949652E+02 -0.19311808467E+02  0.22672721993E+03  0.24610138229E+03  0.87894321755E+02 0.  0.
          5    1    3    3  502    0 -0.25222557292E+02 -0.52496409194E+02  0.20205882763E+03  0.21032663311E+03  0.41800000000E+01 0.  1.
         -5    1    3    3    0  502 -0.73703923599E+01  0.71808217661E+02  0.24936160212E+03  0.25963324867E+03  0.41800000000E+01 0.  1.
        -11    1    4    4    0    0 -0.18012333838E+02 -0.30355108200E+02  0.45315535224E+02  0.57440181900E+02  0.00000000000E+00 0.  1.
         11    1    4    4    0    0  0.50605283490E+02  0.11043299733E+02  0.18141168470E+03  0.18866120039E+03  0.00000000000E+00 0. -1.
</event>
<event>
 8    1  0.7102339E-009  0.1395228E+03  0.7561462E-02  0.1213972E+00
          1   -1    0    0  501    0  0.00000000000E+00  0.00000000000E+00  0.44989538463E+03  0.44989538463E+03  0.00000000000E+00 0. -1.
         -1   -1    0    0    0  501 -0.00000000000E+00 -0.00000000000E+00 -0.59507429344E+02  0.59507429344E+02  0.00000000000E+00 0.  1.
         25    2    1    2    0    0  0.73756733959E+02  0.87802501178E+02  0.15609637465E+03  0.23057428772E+03  0.12509631874E+03 0.  0.
         23    2    1    2    0    0 -0.73756733959E+02 -0.87802501178E+02  0.23429158063E+03  0.27882852625E+03  0.98506178874E+02 0.  0.
          5    1    3    3  502    0 -0.33278243293E+01  0.33440128224E+02  0.12750024428E+03  0.13192081444E+03  0.41800000000E+01 0. -1.
         -5    1    3    3    0  502  0.77084558288E+02  0.54362372954E+02  0.28596130373E+02  0.98653473289E+02  0.41800000000E+01 0. -1.
        -11    1    4    4    0    0  0.15163416094E+02 -0.53248384280E+02  0.76335821189E+02  0.94299932199E+02  0.00000000000E+00 0.  1.
         11    1    4    4    0    0 -0.88920150053E+02 -0.34554116898E+02  0.15795575945E+03  0.18452859405E+03  0.00000000000E+00 0. -1.
</event>
<event>
 8    1  0.7102339E-009  0.1366612E+03  0.7561462E-02  0.1217894E+00
          2   -1    0    0  501    0  0.00000000000E+00  0.00000000000E+00  0.70233426907E+03  0.70233426907E+03  0.00000000000E+00 0. -1.
         -2   -1    0    0    0  501 -0.00000000000E+00 -0.00000000000E+00 -0.34767644847E+02  0.34767644847E+02  0.00000000000E+00 0.  1.
         25    2    1    2    0    0 -0.90257119298E+02  0.54314622224E+02  0.44697377074E+03  0.47595220978E+03  0.12509407855E+03 0.  0.
         23    2    1    2    0    0  0.90257119298E+02 -0.54314622224E+02  0.22059285348E+03  0.26114970414E+03  0.91877827545E+02 0.  0.
          5    1    3    3  502    0 -0.61161623052E+02  0.83944361754E+02  0.19921982269E+03  0.22470738786E+03  0.41800000000E+01 0.  1.
         -5    1    3    3    0  502 -0.29095496246E+02 -0.29629739530E+02  0.24775394805E+03  0.25124482192E+03  0.41800000000E+01 0.  1.
        -11    1    4    4    0    0  0.87037926082E+02 -0.15154917824E+02  0.19548211203E+03  0.21451929572E+03  0.00000000000E+00 0. -1.
         11    1    4    4    0    0  0.32191932158E+01 -0.39159704399E+02  0.25110741452E+02  0.46630408425E+02  0.00000000000E+00 0.  1.
</event>
<event>
 8    1  0.7102339E-009  0.1644480E+03  0.7561462E-02  0.1183765E+00
          2   -1    0    0  501    0  0.00000000000E+00  0.00000000000E+00  0.12574066859E+04  0.12574066859E+04  0.00000000000E+00 0. -1.
         -2   -1    0    0    0  501 -0.00000000000E+00 -0.00000000000E+00 -0.32886320764E+02  0.32886320764E+02  0.00000000000E+00 0.  1.
         25    2    1    2    0    0  0.15769902872E+03  0.20762765687E+02  0.84578409736E+03  0.86965382627E+03  0.12508781757E+03 0.  0.
         23    2    1    2    0    0 -0.15769902872E+03 -0.20762765687E+02  0.37873626782E+03  0.42063918044E+03  0.90532223302E+02 0.  0.
          5    1    3    3  502    0  0.10328630676E+03  0.22642387151E+02  0.25136246609E+03  0.27272935416E+03  0.41800000000E+01 0. -1.
         -5    1    3    3    0  502  0.54412721961E+02 -0.18796214641E+01  0.59442163127E+03  0.59692447212E+03  0.41800000000E+01 0. -1.
        -11    1    4    4    0    0 -0.98340996514E+02  0.14534246190E+02  0.13722948114E+03  0.16945243109E+03  0.00000000000E+00 0.  1.
         11    1    4    4    0    0 -0.59358032209E+02 -0.35297011877E+02  0.24150678668E+03  0.25118674935E+03  0.00000000000E+00 0. -1.
</event>
<event>
 8    1  0.7102339E-009  0.1496104E+03  0.7561462E-02  0.1200953E+00
          4   -1    0    0  501    0  0.00000000000E+00  0.00000000000E+00  0.26398865813E+03  0.26398865813E+03  0.00000000000E+00 0.  1.
         -4   -1    0    0    0  501 -0.00000000000E+00 -0.00000000000E+00 -0.13645076757E+03  0.13645076757E+03  0.00000000000E+00 0. -1.
         25    2    1    2    0    0 -0.62058399279E+02  0.11982323967E+03 -0.13449758163E+02  0.18448332748E+03  0.12507736981E+03 0.  0.
         23    2    1    2    0    0  0.62058399279E+02 -0.11982323967E+03  0.14098764873E+03  0.21595609821E+03  0.92469808990E+02 0.  0.
          5    1    3    3  502    0 -0.69972853509E+02  0.12430665535E+03 -0.46386894693E+02  0.15005852589E+03  0.41800000000E+01 0.  1.
         -5    1    3    3    0  502  0.79144542301E+01 -0.44834156809E+01  0.32937136530E+02  0.34424801593E+02  0.41800000000E+01 0.  1.
        -11    1    4    4    0    0 -0.19470543811E+01 -0.56268463414E+02  0.10414159733E+02  0.57257189232E+02  0.00000000000E+00 0. -1.
         11    1    4    4    0    0  0.64005453660E+02 -0.63554776258E+02  0.13057348900E+03  0.15869890898E+03  0.00000000000E+00 0.  1.
</event>
<event>
 8    1  0.7102339E-009  0.1280598E+03  0.7561462E-02  0.1230363E+00
         -1   -1    0    0    0  501 -0.00000000000E+00  0.00000000000E+00  0.14310711988E+03  0.14310711988E+03  0.00000000000E+00 0.  1.
          1   -1    0    0  501    0  0.00000000000E+00 -0.00000000000E+00 -0.14826502279E+03  0.14826502279E+03  0.00000000000E+00 0. -1.
         25    2    1    2    0    0 -0.53787326139E+02  0.81109248660E+02 -0.67134077870E+01  0.15863262693E+03  0.12508978300E+03 0.  0.
         23    2    1    2    0    0  0.53787326139E+02 -0.81109248660E+02  0.15555048808E+01  0.13273951574E+03  0.90252826949E+02 0.  0.
          5    1    3    3  502    0  0.21937299406E+02  0.38636267553E+02  0.40020551420E+02  0.59942666037E+02  0.41800000000E+01 0. -1.
         -5    1    3    3    0  502 -0.75724625545E+02  0.42472981107E+02 -0.46733959207E+02  0.98689960894E+02  0.41800000000E+01 0. -1.
        -11    1    4    4    0    0  0.59958625895E+02 -0.20082535658E+02  0.23697938623E+02  0.67527308199E+02  0.00000000000E+00 0. -1.
         11    1    4    4    0    0 -0.61712997555E+01 -0.61026713002E+02 -0.22142433742E+02  0.65212207542E+02  0.00000000000E+00 0.  1.
</event>
<event>
 8    1  0.7102339E-009  0.9373457E+02  0.7561462E-02  0.1294052E+00
          1   -1    0    0  501    0  0.00000000000E+00  0.00000000000E+00  0.15744569917E+03  0.15744569917E+03  0.00000000000E+00 0. -1.
         -1   -1    0    0    0  501 -0.00000000000E+00 -0.00000000000E+00 -0.75515841832E+02  0.75515841832E+02  0.00000000000E+00 0.  1.
         25    2    1    2    0    0 -0.28785273434E+01 -0.11638107274E+02  0.40542498857E+02  0.13204007279E+03  0.12508858920E+03 0.  0.
         23    2    1    2    0    0  0.28785273434E+01  0.11638107274E+02  0.41387358482E+02  0.10092146821E+03  0.91260604006E+02 0.  0.
          5    1    3    3  502    0  0.25193519460E+01 -0.62715851990E+02 -0.52199374315E+01  0.63121671174E+02  0.41800000000E+01 0.  1.
         -5    1    3    3    0  502 -0.53978792894E+01  0.51077744716E+02  0.45762436288E+02  0.68918401615E+02  0.41800000000E+01 0.  1.
        -11    1    4    4    0    0 -0.34332207989E+02  0.10680880642E+01 -0.10758415332E+02  0.35994233121E+02  0.00000000000E+00 0.  1.
         11    1    4    4    0    0  0.37210735332E+02  0.10570019210E+02  0.52145773814E+02  0.64927235093E+02  0.00000000000E+00 0. -1.
</event>
<event>
 8    1  0.7102339E-009  0.2554354E+03  0.7561462E-02  0.1109917E+00
          1   -1    0    0  501    0  0.00000000000E+00  0.00000000000E+00  0.31389841001E+03  0.31389841001E+03  0.00000000000E+00 0. -1.
         -1   -1    0    0    0  501 -0.00000000000E+00 -0.00000000000E+00 -0.24447284317E+03  0.24447284317E+03  0.00000000000E+00 0.  1.
         25    2    1    2    0    0 -0.15632892875E+03 -0.20118009392E+03  0.22170671026E+02  0.28469492498E+03  0.12508995763E+03 0.  0.
         23    2    1    2    0    0  0.15632892875E+03  0.20118009392E+03  0.47254895813E+02  0.27367632820E+03  0.88054206525E+02 0.  0.
          5    1    3    3  502    0 -0.10765936991E+03 -0.15559098257E+03 -0.39993013257E+02  0.19343217751E+03  0.41800000000E+01 0.  1.
         -5    1    3    3    0  502 -0.48669558843E+02 -0.45589111350E+02  0.62163684283E+02  0.91262747468E+02  0.41800000000E+01 0.  1.
        -11    1    4    4    0    0  0.44383360159E+02  0.54673596020E+02 -0.26292398686E+02  0.75168976243E+02  0.00000000000E+00 0.  1.
         11    1    4    4    0    0  0.11194556860E+03  0.14650649790E+03  0.73547294500E+02  0.19850735196E+03  0.00000000000E+00 0. -1.
</event>
<event>
 8    1  0.7102339E-009  0.9871940E+02  0.7561462E-02  0.1283012E+00
         -1   -1    0    0    0  501 -0.00000000000E+00  0.00000000000E+00  0.68350016251E+02  0.68350016251E+02  0.00000000000E+00 0.  1.
          1   -1    0    0  501    0  0.00000000000E+00 -0.00000000000E+00 -0.29160345545E+03  0.29160345545E+03  0.00000000000E+00 0. -1.
         25    2    1    2    0    0 -0.22961607507E+02  0.73943881801E+02 -0.61930147449E+02  0.15961785463E+03  0.12509030049E+03 0.  0.
         23    2    1    2    0    0  0.22961607507E+02 -0.73943881801E+02 -0.16132329175E+03  0.20033561707E+03  0.90078976086E+02 0.  0.
          5    1    3    3  502    0 -0.54563208939E+00  0.43068110367E+02  0.34812740661E+02  0.55538807669E+02  0.41800000000E+01 0.  1.
         -5    1    3    3    0  502 -0.22415975418E+02  0.30875771434E+02 -0.96742888110E+02  0.10407904696E+03  0.41800000000E+01 0.  1.
        -11    1    4    4    0    0  0.91380975280E+01 -0.92328696855E+02 -0.10874517719E+03  0.14294616697E+03  0.00000000000E+00 0.  1.
         11    1    4    4    0    0  0.13823509979E+02  0.18384815054E+02 -0.52578114559E+02  0.57389450104E+02  0.00000000000E+00 0. -1.
</event>
<event>
 8    1  0.7102339E-009  0.1179643E+03  0.7561462E-02  0.1246494E+00
          1   -1    0    0  501    0  0.00000000000E+00  0.00000000000E+00  0.39526996000E+02  0.39526996000E+02  0.00000000000E+00 0. -1.
         -1   -1    0    0    0  501 -0.00000000000E+00 -0.00000000000E+00 -0.66279758600E+03  0.66279758600E+03  0.00000000000E+00 0.  1.
         25    2    1    2    0    0  0.24131726711E+02  0.10627480935E+03 -0.44235776786E+03  0.47244754400E+03  0.12509840812E+03 0.  0.
         23    2    1    2    0    0 -0.24131726711E+02 -0.10627480935E+03 -0.18091282214E+03  0.22987703800E+03  0.90759727012E+02 0.  0.
          5    1    3    3  502    0  0.36510073467E+01  0.71748953997E+01 -0.28606035745E+03  0.28620413953E+03  0.41800000000E+01 0.  1.
         -5    1    3    3    0  502  0.20480719365E+02  0.99099913947E+02 -0.15629741041E+03  0.18624340447E+03  0.41800000000E+01 0.  1.
        -11    1    4    4    0    0 -0.39800807785E+02 -0.36295784818E+02 -0.13337010208E+03  0.14383696474E+03  0.00000000000E+00 0.  1.
         11    1    4    4    0    0  0.15669081074E+02 -0.69979024529E+02 -0.47542720061E+02  0.86040073259E+02  0.00000000000E+00 0. -1.
</event>
<event>
 8    1  0.7102339E-009  0.1079892E+03  0.7561462E-02  0.1264339E+00
         -3   -1    0    0    0  501 -0.00000000000E+00  0.00000000000E+00  0.18651281109E+03  0.18651281109E+03  0.00000000000E+00 0.  1.
          3   -1    0    0  501    0  0.00000000000E+00 -0.00000000000E+00 -0.66980570258E+02  0.66980570258E+02  0.00000000000E+00 0. -1.
         25    2    1    2    0    0 -0.27702288582E+02  0.34840344263E+01  0.74862841176E+02  0.14842964377E+03  0.12508940352E+03 0.  0.
         23    2    1    2    0    0  0.27702288582E+02 -0.34840344263E+01  0.44669399660E+02  0.10506373758E+03  0.90903676493E+02 0.  0.
          5    1    3    3  502    0  0.29850787938E+02  0.45977649552E+02  0.21289111533E+02  0.58955173383E+02  0.41800000000E+01 0. -1.
         -5    1    3    3    0  502 -0.57553076520E+02 -0.42493615125E+02  0.53573729642E+02  0.89474470388E+02  0.41800000000E+01 0. -1.
        -11    1    4    4    0    0 -0.22965664025E+02  0.22711972532E+02 -0.50355699521E+00  0.32303389761E+02  0.00000000000E+00 0.  1.
         11    1    4    4    0    0  0.50667952607E+02 -0.26196006958E+02  0.45172956655E+02  0.72760347820E+02  0.00000000000E+00 0. -1.
</event>
<event>
 8    1  0.7102339E-009  0.1276946E+03  0.7561462E-02  0.1230917E+00
         -2   -1    0    0    0  501 -0.00000000000E+00  0.00000000000E+00  0.27778103372E+02  0.27778103372E+02  0.00000000000E+00 0.  1.
          2   -1    0    0  501    0  0.00000000000E+00 -0.00000000000E+00 -0.65763949114E+03  0.65763949114E+03  0.00000000000E+00 0. -1.
         25    2    1    2    0    0 -0.71879788315E+01  0.74482567075E+02 -0.41952237854E+03  0.44412393629E+03  0.12509086638E+03 0.  0.
         23    2    1    2    0    0  0.71879788315E+01 -0.74482567075E+02 -0.21033900923E+03  0.24129365822E+03  0.91546768688E+02 0.  0.
          5    1    3    3  502    0 -0.12818363136E+02  0.10915255682E+03 -0.30253759277E+03  0.32190846298E+03  0.41800000000E+01 0. -1.
         -5    1    3    3    0  502  0.56303843041E+01 -0.34669989749E+02 -0.11698478577E+03  0.12221547331E+03  0.41800000000E+01 0. -1.
        -11    1    4    4    0    0 -0.34038941116E+02 -0.13927312152E+02 -0.11697244908E+03  0.12261799778E+03  0.00000000000E+00 0. -1.
         11    1    4    4    0    0  0.41226919948E+02 -0.60555254922E+02 -0.93366560147E+02  0.11867566044E+03  0.00000000000E+00 0.  1.
</event>
<event>
 8    1  0.7102339E-009  0.1001681E+03  0.7561462E-02  0.1279943E+00
          1   -1    0    0  501    0  0.00000000000E+00  0.00000000000E+00  0.15844864603E+02  0.15844864603E+02  0.00000000000E+00 0. -1.
         -1   -1    0    0    0  501 -0.00000000000E+00 -0.00000000000E+00 -0.76860089832E+03  0.76860089832E+03  0.00000000000E+00 0.  1.
         25    2    1    2    0    0 -0.79279416770E+01  0.11984922178E+02 -0.48401194544E+03  0.50012187314E+03  0.12509130284E+03 0.  0.
         23    2    1    2    0    0  0.79279416770E+01 -0.11984922178E+02 -0.26874408828E+03  0.28432388978E+03  0.91707135486E+02 0.  0.
          5    1    3    3  502    0 -0.16328692997E+02 -0.52162821930E+02 -0.30137063062E+03  0.30631571231E+03  0.41800000000E+01 0. -1.
         -5    1    3    3    0  502  0.84007513204E+01  0.64147744108E+02 -0.18264131482E+03  0.19380616083E+03  0.41800000000E+01 0. -1.
        -11    1    4    4    0    0 -0.26279811908E+02 -0.31722432136E+02 -0.20678518746E+03  0.21084841704E+03  0.00000000000E+00 0.  1.
         11    1    4    4    0    0  0.34207753585E+02  0.19737509958E+02 -0.61958900814E+02  0.73475472743E+02  0.00000000000E+00 0. -1.
</event>
<event>
 8    1  0.7102339E-009  0.8416931E+02  0.7561462E-02  0.1317619E+00
         -2   -1    0    0    0  501 -0.00000000000E+00  0.00000000000E+00  0.39707091921E+03  0.39707091921E+03  0.00000000000E+00 0.  1.
          2   -1    0    0  501    0  0.00000000000E+00 -0.00000000000E+00 -0.73188259987E+02  0.73188259987E+02  0.00000000000E+00 0. -1.
         25    2    1    2    0    0 -0.40868799561E+02  0.16104718864E+02  0.34186758097E+03  0.36667338148E+03  0.12508519106E+03 0.  0.
         23    2    1    2    0    0  0.40868799561E+02 -0.16104718864E+02 -0.17984921747E+02  0.10358579772E+03  0.92070295594E+02 0.  0.
          5    1    3    3  502    0 -0.50413721828E+02 -0.34920361913E+02  0.27570100582E+03  0.28247033832E+03  0.41800000000E+01 0. -1.
         -5    1    3    3    0  502  0.95449222673E+01  0.51025080777E+02  0.66166575151E+02  0.84203043156E+02  0.41800000000E+01 0. -1.
        -11    1    4    4    0    0  0.36837258012E+02 -0.25342144940E+02  0.30461040233E+02  0.54102521753E+02  0.00000000000E+00 0.  1.
         11    1    4    4    0    0  0.40315415492E+01  0.92374260757E+01 -0.48445961980E+02  0.49483275962E+02  0.00000000000E+00 0. -1.
</event>
<event>
 8    1  0.7102339E-009  0.9561113E+02  0.7561462E-02  0.1289806E+00
          2   -1    0    0  501    0  0.00000000000E+00  0.00000000000E+00  0.23436347609E+03  0.23436347609E+03  0.00000000000E+00 0. -1.
         -2   -1    0    0    0  501 -0.00000000000E+00 -0.00000000000E+00 -0.75080377178E+02  0.75080377178E+02  0.00000000000E+00 0.  1.
         25    2    1    2    0    0  0.45546404725E+02  0.58181557512E+02  0.10112291012E+03  0.17701105555E+03  0.12508997648E+03 0.  0.
         23    2    1    2    0    0 -0.45546404725E+02 -0.58181557512E+02  0.58160188792E+02  0.13243279772E+03  0.93253792062E+02 0.  0.
          5    1    3    3  502    0 -0.18953025801E+02 -0.91490014210E+01  0.77943254393E+02  0.80842715933E+02  0.41800000000E+01 0.  1.
         -5    1    3    3    0  502  0.64499430526E+02  0.67330558933E+02  0.23179655725E+02  0.96168339613E+02  0.41800000000E+01 0.  1.
        -11    1    4    4    0    0 -0.67930234288E+01 -0.23377890874E+02  0.74071135127E+02  0.77969250401E+02  0.00000000000E+00 0. -1.
         11    1    4    4    0    0 -0.38753381296E+02 -0.34803666638E+02 -0.15910946336E+02  0.54463547320E+02  0.00000000000E+00 0.  1.
</event>
<event>
 8    1  0.7102339E-009  0.2582112E+03  0.7561462E-02  0.1108223E+00
          1   -1    0    0  501    0  0.00000000000E+00  0.00000000000E+00  0.45665243123E+03  0.45665243123E+03  0.00000000000E+00 0. -1.
         -1   -1    0    0    0  501 -0.00000000000E+00 -0.00000000000E+00 -0.21209548136E+03  0.21209548136E+03  0.00000000000E+00 0.  1.
         25    2    1    2    0    0 -0.15902877331E+03  0.17451860111E+03 -0.58875319613E+02  0.27360618759E+03  0.12508856764E+03 0.  0.
         23    2    1    2    0    0  0.15902877331E+03 -0.17451860111E+03  0.30343226948E+03  0.39514172499E+03  0.91208266049E+02 0.  0.
          5    1    3    3  502    0 -0.44005736066E+02  0.13509902807E+03 -0.53317222115E+02  0.15181716229E+03  0.41800000000E+01 0. -1.
         -5    1    3    3    0  502 -0.11502303725E+03  0.39419573046E+02 -0.55580974975E+01  0.12178902530E+03  0.41800000000E+01 0. -1.
        -11    1    4    4    0    0  0.14722008904E+03 -0.10191136556E+03  0.22609346852E+03  0.28840585562E+03  0.00000000000E+00 0. -1.
         11    1    4    4    0    0  0.11808684278E+02 -0.72607235548E+02  0.77338800960E+02  0.10673586938E+03  0.00000000000E+00 0.  1.
</event>
<event>
 8    1  0.7102339E-009  0.1301403E+03  0.7561462E-02  0.1227248E+00
         -1   -1    0    0    0  501 -0.00000000000E+00  0.00000000000E+00  0.29330348632E+02  0.29330348632E+02  0.00000000000E+00 0.  1.
          1   -1    0    0  501    0  0.00000000000E+00 -0.00000000000E+00 -0.65806270309E+03  0.65806270309E+03  0.00000000000E+00 0. -1.
         25    2    1    2    0    0 -0.68538150296E+02  0.53435481448E+02 -0.31919608615E+03  0.35367623879E+03  0.12509161341E+03 0.  0.
         23    2    1    2    0    0  0.68538150296E+02 -0.53435481448E+02 -0.30953626831E+03  0.33371681293E+03  0.89450439427E+02 0.  0.
          5    1    3    3  502    0 -0.51650995031E+02 -0.23742501037E+02 -0.21741964721E+03  0.22476722856E+03  0.41800000000E+01 0.  1.
         -5    1    3    3    0  502 -0.16887155265E+02  0.77177982486E+02 -0.10177643894E+03  0.12890901023E+03  0.41800000000E+01 0.  1.
        -11    1    4    4    0    0 -0.15805708073E+01  0.21490023148E+02 -0.66506679238E+02  0.69910354614E+02  0.00000000000E+00 0. -1.
         11    1    4    4    0    0  0.70118721103E+02 -0.74925504597E+02 -0.24302958907E+03  0.26380645832E+03  0.00000000000E+00 0.  1.
</event>
<event>
 8    1  0.7102339E-009  0.1494519E+03  0.7561462E-02  0.1201148E+00
         -2   -1    0    0    0  501 -0.00000000000E+00  0.00000000000E+00  0.28886773338E+03  0.28886773338E+03  0.00000000000E+00 0.  1.
          2   -1    0    0  501    0  0.00000000000E+00 -0.00000000000E+00 -0.11799485900E+03  0.11799485900E+03  0.00000000000E+00 0. -1.
         25    2    1    2    0    0  0.11837016899E+03 -0.90606379626E+02  0.96327600343E+02  0.21713505730E+03  0.12509042163E+03 0.  0.
         23    2    1    2    0    0 -0.11837016899E+03  0.90606379626E+02  0.74545274043E+02  0.18972753508E+03  0.90656090532E+02 0.  0.
          5    1    3    3  502    0  0.33132249937E+02 -0.31611406770E+02 -0.29056218563E+02  0.54394514990E+02  0.41800000000E+01 0. -1.
         -5    1    3    3    0  502  0.85237919052E+02 -0.58994972857E+02  0.12538381891E+03  0.16274054231E+03  0.41800000000E+01 0. -1.
        -11    1    4    4    0    0 -0.41807439792E+02  0.35417851430E+02  0.77955646793E+02  0.95285723426E+02  0.00000000000E+00 0.  1.
         11    1    4    4    0    0 -0.76562729197E+02  0.55188528196E+02 -0.34103727501E+01  0.94441811656E+02  0.00000000000E+00 0. -1.
</event>
<event>
 8    1  0.7102339E-009  0.1507656E+03  0.7561462E-02  0.1199535E+00
          3   -1    0    0  501    0  0.00000000000E+00  0.00000000000E+00  0.32104881894E+02  0.32104881894E+02  0.00000000000E+00 0. -1.
         -3   -1    0    0    0  501 -0.00000000000E+00 -0.00000000000E+00 -0.83260930356E+03  0.83260930356E+03  0.00000000000E+00 0.  1.
         25    2    1    2    0    0  0.84385731323E+02  0.79012150044E+02 -0.32514634237E+03  0.36705360739E+03  0.12507731701E+03 0.  0.
         23    2    1    2    0    0 -0.84385731323E+02 -0.79012150044E+02 -0.47535807929E+03  0.49766057807E+03  0.91306494339E+02 0.  0.
          5    1    3    3  502    0  0.38565862665E+02  0.10582500162E+03 -0.17923710828E+03  0.21173018234E+03  0.41800000000E+01 0. -1.
         -5    1    3    3    0  502  0.45819868657E+02 -0.26812851574E+02 -0.14590923409E+03  0.15532342504E+03  0.41800000000E+01 0. -1.
        -11    1    4    4    0    0 -0.82476906640E+02 -0.31922339891E+02 -0.39247029435E+03  0.40231133200E+03  0.00000000000E+00 0.  1.
         11    1    4    4    0    0 -0.19088246827E+01 -0.47089810153E+02 -0.82887784944E+02  0.95349246064E+02  0.00000000000E+00 0. -1.
</event>
<event>
 8    1  0.7102339E-009  0.8439271E+02  0.7561462E-02  0.1317028E+00
          1   -1    0    0  501    0  0.00000000000E+00  0.00000000000E+00  0.46097034731E+02  0.46097034731E+02  0.00000000000E+00 0. -1.
         -1   -1    0    0    0  501 -0.00000000000E+00 -0.00000000000E+00 -0.33656282835E+03  0.33656282835E+03  0.00000000000E+00 0.  1.
         25    2    1    2    0    0 -0.32610350643E+01 -0.39736258569E+02 -0.95228194526E+02  0.16218765871E+03  0.12508726158E+03 0.  0.
         23    2    1    2    0    0  0.32610350643E+01  0.39736258569E+02 -0.19523759909E+03  0.22047220437E+03  0.94343352735E+02 0.  0.
          5    1    3    3  502    0  0.32814985652E+02 -0.58183327529E+00  0.17515223734E+02  0.37435508221E+02  0.41800000000E+01 0. -1.
         -5    1    3    3    0  502 -0.36076020716E+02 -0.39154425293E+02 -0.11274341826E+03  0.12475215049E+03  0.41800000000E+01 0. -1.
        -11    1    4    4    0    0 -0.33492131357E+02  0.98081969361E+01 -0.15318138554E+03  0.15710652586E+03  0.00000000000E+00 0.  1.
         11    1    4    4    0    0  0.36753166421E+02  0.29928061632E+02 -0.42056213545E+02  0.63365678508E+02  0.00000000000E+00 0. -1.
</event>
<event>
 7    1  0.7102339E-009  0.9975856E+02  0.7561462E-02  0.1280804E+00
          1   -1    0    0  501    0  0.00000000000E+00  0.00000000000E+00  0.49887514897E+02  0.49887514897E+02  0.00000000000E+00 0. -1.
         -1   -1    0    0    0  501 -0.00000000000E+00 -0.00000000000E+00 -0.39332355855E+03  0.39332355855E+03  0.00000000000E+00 0.  1.
         25    2    1    2    0    0 -0.81400745005E+01 -0.33239169473E+02 -0.95798205955E+02  0.16123137873E+03  0.12508860070E+03 0.  0.
          5    1    3    3  502    0 -0.10847468696E+02  0.25463489050E+02  0.17865492049E+02  0.33207003145E+02  0.41800000000E+01 0. -1.
         -5    1    3    3    0  502  0.27073941955E+01 -0.58702658522E+02 -0.11366369800E+03  0.12802437559E+03  0.41800000000E+01 0. -1.
        -11    1    1    2    0    0  0.57780977138E+02  0.14694017311E+02 -0.20638408362E+03  0.21482305611E+03  0.00000000000E+00 0.  1.
         11    1    1    2    0    0 -0.49640902637E+02  0.18545152161E+02 -0.41253754082E+02  0.67156638608E+02  0.00000000000E+00 0. -1.
</event>
<event>
 8    1  0.7102339E-009  0.1145932E+03  0.7561462E-02  0.1252293E+00
         -2   -1    0    0    0  501 -0.00000000000E+00  0.00000000000E+00  0.15675416128E+03  0.15675416128E+03  0.00000000000E+00 0.  1.
          2   -1    0    0  501    0  0.00000000000E+00 -0.00000000000E+00 -0.92780018010E+02  0.92780018010E+02  0.00000000000E+00 0. -1.
         25    2    1    2    0    0  0.14333618394E+02  0.45701883367E+02  0.61018673708E+02  0.14719339739E+03  0.12509397642E+03 0.  0.
         23    2    1    2    0    0 -0.14333618394E+02 -0.45701883367E+02  0.29554695590E+01  0.10234078189E+03  0.90392400557E+02 0.  0.
          5    1    3    3  502    0  0.66221979514E+02  0.28572313777E+02  0.57401061998E+02  0.92271783357E+02  0.41800000000E+01 0. -1.
         -5    1    3    3    0  502 -0.51888361120E+02  0.17129569589E+02  0.36176117103E+01  0.54921614038E+02  0.41800000000E+01 0. -1.
        -11    1    4    4    0    0 -0.40653104753E+02  0.88191313874E+01 -0.15895140088E+01  0.41629059073E+02  0.00000000000E+00 0.  1.
         11    1    4    4    0    0  0.26319486359E+02 -0.54521014754E+02  0.45449835678E+01  0.60711722819E+02  0.00000000000E+00 0. -1.
</event>
<event>
 8    1  0.7102339E-009  0.1909037E+03  0.7561462E-02  0.1157649E+00
          1   -1    0    0  501    0  0.00000000000E+00  0.00000000000E+00  0.56343176486E+03  0.56343176486E+03  0.00000000000E+00 0. -1.
         -1   -1    0    0    0  501 -0.00000000000E+00 -0.00000000000E+00 -0.74821358516E+02  0.74821358516E+02  0.00000000000E+00 0.  1.
         25    2    1    2    0    0  0.14442005503E+03  0.85557331038E+02  0.32696165229E+03  0.38823801547E+03  0.12509046885E+03 0.  0.
         23    2    1    2    0    0 -0.14442005503E+03 -0.85557331038E+02  0.16164875405E+03  0.25001510791E+03  0.90553991106E+02 0.  0.
          5    1    3    3  502    0  0.94708377206E+02  0.10681990236E+03  0.28798589097E+03  0.32145530646E+03  0.41800000000E+01 0. -1.
         -5    1    3    3    0  502  0.49711677828E+02 -0.21262571326E+02  0.38975761321E+02  0.66782709008E+02  0.41800000000E+01 0. -1.
        -11    1    4    4    0    0 -0.64315518667E+02 -0.82483036661E+02  0.12163056485E+03  0.16041799021E+03  0.00000000000E+00 0.  1.
         11    1    4    4    0    0 -0.80104536366E+02 -0.30742943768E+01  0.40018189207E+02  0.89597117698E+02  0.00000000000E+00 0. -1.
</event>
<event>
 8    1  0.7102339E-009  0.1118044E+03  0.7561462E-02  0.1257264E+00
          1   -1    0    0  501    0  0.00000000000E+00  0.00000000000E+00  0.50599063672E+03  0.50599063672E+03  0.00000000000E+00 0. -1.
         -1   -1    0    0    0  501 -0.00000000000E+00 -0.00000000000E+00 -0.30136286553E+02  0.30136286553E+02  0.00000000000E+00 0.  1.
         25    2    1    2    0    0 -0.52409813168E+02 -0.44696841697E+01  0.32065507885E+03  0.34818611927E+03  0.12508847853E+03 0.  0.
         23    2    1    2    0    0  0.52409813168E+02  0.44696841697E+01  0.15519927131E+03  0.18794080400E+03  0.92022635270E+02 0.  0.
          5    1    3    3  502    0  0.34085041472E+02  0.23458495293E+01  0.17696211879E+03  0.18027855377E+03  0.41800000000E+01 0. -1.
         -5    1    3    3    0  502 -0.86494854641E+02 -0.68155336990E+01  0.14369296006E+03  0.16790756550E+03  0.41800000000E+01 0. -1.
        -11    1    4    4    0    0 -0.12140198428E+02 -0.27669953793E+02  0.25473497166E+02  0.39521004778E+02  0.00000000000E+00 0.  1.
         11    1    4    4    0    0  0.64550011596E+02  0.32139637963E+02  0.12972577414E+03  0.14841979923E+03  0.00000000000E+00 0. -1.
</event>
<event>
 8    1  0.7102339E-009  0.1266788E+03  0.7561462E-02  0.1232469E+00
          1   -1    0    0  501    0  0.00000000000E+00  0.00000000000E+00  0.65764416768E+03  0.65764416768E+03  0.00000000000E+00 0. -1.
         -1   -1    0    0    0  501 -0.00000000000E+00 -0.00000000000E+00 -0.34785213756E+02  0.34785213756E+02  0.00000000000E+00 0.  1.
         25    2    1    2    0    0  0.31825169516E+01 -0.99598566964E+02  0.40878411481E+03  0.43895481046E+03  0.12508745001E+03 0.  0.
         23    2    1    2    0    0 -0.31825169516E+01  0.99598566964E+02  0.21407483912E+03  0.25347457098E+03  0.92148350148E+02 0.  0.
          5    1    3    3  502    0  0.38205333284E+02 -0.15347941732E+02  0.26774356322E+03  0.27092304231E+03  0.41800000000E+01 0. -1.
         -5    1    3    3    0  502 -0.35022816332E+02 -0.84250625232E+02  0.14104055159E+03  0.16803176815E+03  0.41800000000E+01 0. -1.
        -11    1    4    4    0    0 -0.34576380879E+02  0.37207165005E+02  0.15118227532E+03  0.15948661265E+03  0.00000000000E+00 0. -1.
         11    1    4    4    0    0  0.31393863927E+02  0.62391401958E+02  0.62892563795E+02  0.93987958331E+02  0.00000000000E+00 0.  1.
</event>
<event>
 8    1  0.7102339E-009  0.1925698E+03  0.7561462E-02  0.1156164E+00
          2   -1    0    0  501    0  0.00000000000E+00  0.00000000000E+00  0.21652702150E+04  0.21652702150E+04  0.00000000000E+00 0.  1.
         -2   -1    0    0    0  501 -0.00000000000E+00 -0.00000000000E+00 -0.18279720313E+02  0.18279720313E+02  0.00000000000E+00 0. -1.
         25    2    1    2    0    0  0.15122535396E+03  0.62361935818E+02  0.12687869121E+04  0.12853862079E+04  0.12505741179E+03 0.  0.
         23    2    1    2    0    0 -0.15122535396E+03 -0.62361935818E+02  0.87820358252E+03  0.89816372741E+03  0.93265375006E+02 0.  0.
          5    1    3    3  502    0  0.15980168971E+03  0.81212973508E+02  0.12030269253E+04  0.12163154947E+04  0.41800000000E+01 0. -1.
         -5    1    3    3    0  502 -0.85763357517E+01 -0.18851037690E+02  0.65759986810E+02  0.69070713202E+02  0.41800000000E+01 0. -1.
        -11    1    4    4    0    0 -0.11207881090E+03 -0.11923984340E+01  0.61471099394E+03  0.62484613125E+03  0.00000000000E+00 0.  1.
         11    1    4    4    0    0 -0.39146543059E+02 -0.61169537384E+02  0.26349258857E+03  0.27331759616E+03  0.00000000000E+00 0. -1.
</event>
<event>
 8    1  0.7102339E-009  0.7970572E+02  0.7561462E-02  0.1329889E+00
          1   -1    0    0  501    0  0.00000000000E+00  0.00000000000E+00  0.92166797181E+02  0.92166797181E+02  0.00000000000E+00 0. -1.
         -1   -1    0    0    0  501 -0.00000000000E+00 -0.00000000000E+00 -0.17809178922E+03  0.17809178922E+03  0.00000000000E+00 0.  1.
         25    2    1    2    0    0 -0.18523270372E+02  0.55020840145E+02 -0.11878064739E+02  0.13841998364E+03  0.12509436060E+03 0.  0.
         23    2    1    2    0    0  0.18523270372E+02 -0.55020840145E+02 -0.74046927301E+02  0.13183860276E+03  0.92347524811E+02 0.  0.
          5    1    3    3  502    0 -0.11404168416E+02  0.35657123723E+02 -0.68410422343E+02  0.78095734932E+02  0.41800000000E+01 0.  1.
         -5    1    3    3    0  502 -0.71191019556E+01  0.19363716422E+02  0.56532357604E+02  0.60324248712E+02  0.41800000000E+01 0.  1.
        -11    1    4    4    0    0  0.51349642026E+02 -0.30570090564E+02 -0.17953972832E+02  0.62399209239E+02  0.00000000000E+00 0.  1.
         11    1    4    4    0    0 -0.32826371654E+02 -0.24450749581E+02 -0.56092954469E+02  0.69439393517E+02  0.00000000000E+00 0. -1.
</event>
<event>
 8    1  0.7102339E-009  0.1296463E+03  0.7561462E-02  0.1227982E+00
         -1   -1    0    0    0  501 -0.00000000000E+00  0.00000000000E+00  0.44381578814E+02  0.44381578814E+02  0.00000000000E+00 0.  1.
          1   -1    0    0  501    0  0.00000000000E+00 -0.00000000000E+00 -0.50709632158E+03  0.50709632158E+03  0.00000000000E+00 0. -1.
         25    2    1    2    0    0  0.92436193340E+02  0.46059087341E+02 -0.26772183075E+03  0.31303052813E+03  0.12508894240E+03 0.  0.
         23    2    1    2    0    0 -0.92436193340E+02 -0.46059087341E+02 -0.19499291201E+03  0.23844737227E+03  0.90382654536E+02 0.  0.
          5    1    3    3  502    0  0.32948152905E+02 -0.15494624210E+02 -0.53766541911E+01  0.37041125382E+02  0.41800000000E+01 0. -1.
         -5    1    3    3    0  502  0.59488040435E+02  0.61553711552E+02 -0.26234517656E+03  0.27598940274E+03  0.41800000000E+01 0. -1.
        -11    1    4    4    0    0 -0.10646334738E+03 -0.21433644496E+02 -0.14799119305E+03  0.18356262875E+03  0.00000000000E+00 0. -1.
         11    1    4    4    0    0  0.14027154045E+02 -0.24625442845E+02 -0.47001718960E+02  0.54884743519E+02  0.00000000000E+00 0.  1.
</event>
<event>
 8    1  0.7102339E-009  0.1004793E+03  0.7561462E-02  0.1279291E+00
          2   -1    0    0  501    0  0.00000000000E+00  0.00000000000E+00  0.18980136286E+03  0.18980136286E+03  0.00000000000E+00 0. -1.
         -2   -1    0    0    0  501 -0.00000000000E+00 -0.00000000000E+00 -0.87631807390E+02  0.87631807390E+02  0.00000000000E+00 0.  1.
         25    2    1    2    0    0 -0.62503869377E+02  0.19024360637E+02  0.30148860434E+02  0.14430948715E+03  0.12509042454E+03 0.  0.
         23    2    1    2    0    0  0.62503869377E+02 -0.19024360637E+02  0.72020695030E+02  0.13312368309E+03  0.90919054676E+02 0.  0.
          5    1    3    3  502    0  0.25650028036E+02  0.13435592578E+02 -0.26348920751E+02  0.39372288616E+02  0.41800000000E+01 0. -1.
         -5    1    3    3    0  502 -0.88153897413E+02  0.55887680592E+01  0.56497781185E+02  0.10493719853E+03  0.41800000000E+01 0. -1.
        -11    1    4    4    0    0  0.48419590828E+02 -0.36639071492E+02  0.33139372037E+01  0.60810036306E+02  0.00000000000E+00 0.  1.
         11    1    4    4    0    0  0.14084278549E+02  0.17614710855E+02  0.68706757827E+02  0.72313646788E+02  0.00000000000E+00 0. -1.
</event>
<event>
 8    1  0.7102339E-009  0.1235538E+03  0.7561462E-02  0.1237347E+00
          1   -1    0    0  501    0  0.00000000000E+00  0.00000000000E+00  0.14978526016E+04  0.14978526016E+04  0.00000000000E+00 0. -1.
         -1   -1    0    0    0  501 -0.00000000000E+00 -0.00000000000E+00 -0.16047546962E+02  0.16047546962E+02  0.00000000000E+00 0.  1.
         25    2    1    2    0    0  0.92443351935E+02  0.29384912790E+01  0.11025566427E+04  0.11134775504E+04  0.12508675756E+03 0.  0.
         23    2    1    2    0    0 -0.92443351935E+02 -0.29384912790E+01  0.37924841195E+03  0.40042259814E+03  0.89187953696E+02 0.  0.
          5    1    3    3  502    0  0.11289193169E+03  0.10388418355E+02  0.10541775671E+04  0.10602642703E+04  0.41800000000E+01 0.  1.
         -5    1    3    3    0  502 -0.20448579760E+02 -0.74499270759E+01  0.48379075550E+02  0.53213280097E+02  0.41800000000E+01 0.  1.
        -11    1    4    4    0    0 -0.19677478248E+02  0.26498570143E+02  0.38320261514E+02  0.50574893102E+02  0.00000000000E+00 0.  1.
         11    1    4    4    0    0 -0.72765873688E+02 -0.29437061422E+02  0.34092815044E+03  0.34984770504E+03  0.00000000000E+00 0. -1.
</event>
<event>
 7    1  0.7102339E-009  0.1427333E+03  0.7561462E-02  0.1209698E+00
          1   -1    0    0  501    0  0.00000000000E+00  0.00000000000E+00  0.22494606307E+03  0.22494606307E+03  0.00000000000E+00 0. -1.
         -1   -1    0    0    0  501 -0.00000000000E+00 -0.00000000000E+00 -0.10660111629E+03  0.10660111629E+03  0.00000000000E+00 0.  1.
         23    2    1    2    0    0 -0.69585475444E+02  0.61238227089E+02 -0.89792539835E+01  0.13032890658E+03  0.91174218053E+02 0.  0.
          5    1    1    2  502    0  0.97572964153E+02 -0.11368036227E+02  0.76123822833E+02  0.12434638870E+03  0.41800000000E+01 0.  1.
         -5    1    1    2    0  502 -0.27987488709E+02 -0.49870190863E+02  0.51200377929E+02  0.76871884073E+02  0.41800000000E+01 0.  1.
        -11    1    3    3    0    0 -0.27927938320E+02 -0.22771189513E+02  0.84866156904E+00  0.36044653378E+02  0.00000000000E+00 0. -1.
         11    1    3    3    0    0 -0.41657537124E+02  0.84009416603E+02 -0.98279155525E+01  0.94284253199E+02  0.00000000000E+00 0.  1.
</event>
<event>
 8    1  0.7102339E-009  0.9993893E+02  0.7561462E-02  0.1280424E+00
         -1   -1    0    0    0  501 -0.00000000000E+00  0.00000000000E+00  0.76304722887E+02  0.76304722887E+02  0.00000000000E+00 0.  1.
          1   -1    0    0  501    0  0.00000000000E+00 -0.00000000000E+00 -0.24233240050E+03  0.24233240050E+03  0.00000000000E+00 0. -1.
         25    2    1    2    0    0  0.83482051583E+01  0.28368539828E+02  0.37668922407E+00  0.12853446548E+03  0.12508597180E+03 0.  0.
         23    2    1    2    0    0 -0.83482051583E+01 -0.28368539828E+02 -0.16640436684E+03  0.19010265791E+03  0.87029539002E+02 0.  0.
          5    1    3    3  502    0  0.51828650250E+02  0.52694843793E+02  0.16792571535E+02  0.75910594833E+02  0.41800000000E+01 0.  1.
         -5    1    3    3    0  502 -0.43480445092E+02 -0.24326303965E+02 -0.16415882311E+02  0.52623870649E+02  0.41800000000E+01 0.  1.
        -11    1    4    4    0    0 -0.21437954830E+02  0.17798329470E+02 -0.15785231355E+02  0.32024052963E+02  0.00000000000E+00 0.  1.
         11    1    4    4    0    0  0.13089749672E+02 -0.46166869297E+02 -0.15061913549E+03  0.15807860495E+03  0.00000000000E+00 0. -1.
</event>
<event>
 8    1  0.7102339E-009  0.1129419E+03  0.7561462E-02  0.1255217E+00
          1   -1    0    0  501    0  0.00000000000E+00  0.00000000000E+00  0.73478035346E+02  0.73478035346E+02  0.00000000000E+00 0. -1.
         -1   -1    0    0    0  501 -0.00000000000E+00 -0.00000000000E+00 -0.36977521236E+03  0.36977521236E+03  0.00000000000E+00 0.  1.
         25    2    1    2    0    0  0.15994052246E+02 -0.23448775624E+02 -0.31541223607E+03  0.34049508341E+03  0.12508544429E+03 0.  0.
         23    2    1    2    0    0 -0.15994052246E+02  0.23448775624E+02  0.19115059065E+02  0.10275816429E+03  0.96892724497E+02 0.  0.
          5    1    3    3  502    0  0.27883669029E+02  0.46283078415E+02 -0.17524865469E+03  0.18343714378E+03  0.41800000000E+01 0. -1.
         -5    1    3    3    0  502 -0.11889616783E+02 -0.69731854039E+02 -0.14016358138E+03  0.15705793963E+03  0.41800000000E+01 0. -1.
        -11    1    4    4    0    0  0.10685090874E+02 -0.34990788181E+02  0.43667401965E+01  0.36845553931E+02  0.00000000000E+00 0.  1.
         11    1    4    4    0    0 -0.26679143121E+02  0.58439563805E+02  0.14748318868E+02  0.65912610363E+02  0.00000000000E+00 0. -1.
</event>
<event>
 8    1  0.7102339E-009  0.1771023E+03  0.7561462E-02  0.1170637E+00
         -1   -1    0    0    0  501 -0.00000000000E+00  0.00000000000E+00  0.52975404505E+02  0.52975404505E+02  0.00000000000E+00 0.  1.
          1   -1    0    0  501    0  0.00000000000E+00 -0.00000000000E+00 -0.68587601194E+03  0.68587601194E+03  0.00000000000E+00 0. -1.
         25    2    1    2    0    0 -0.14474822064E+03  0.39955845452E+01 -0.44556206050E+03  0.48491101352E+03  0.12508049088E+03 0.  0.
         23    2    1    2    0    0  0.14474822064E+03 -0.39955845452E+01 -0.18733854693E+03  0.25394040292E+03  0.91771373509E+02 0.  0.
          5    1    3    3  502    0 -0.10717656173E+03  0.57451431116E+02 -0.23850377207E+03  0.26774802336E+03  0.41800000000E+01 0.  1.
         -5    1    3    3    0  502 -0.37571658911E+02 -0.53455846571E+02 -0.20705828844E+03  0.21716299016E+03  0.41800000000E+01 0.  1.
        -11    1    4    4    0    0  0.49202024707E+02 -0.41545983559E+02 -0.10108993438E+03  0.11985859509E+03  0.00000000000E+00 0.  1.
         11    1    4    4    0    0  0.95546195935E+02  0.37550399014E+02 -0.86248612555E+02  0.13408180783E+03  0.00000000000E+00 0. -1.
</event>
<event>
 8    1  0.7102339E-009  0.1641300E+03  0.7561462E-02  0.1184111E+00
          1   -1    0    0  501    0  0.00000000000E+00  0.00000000000E+00  0.15792380287E+04  0.15792380287E+04  0.00000000000E+00 0. -1.
         -1   -1    0    0    0  501 -0.00000000000E+00 -0.00000000000E+00 -0.20977630516E+02  0.20977630516E+02  0.00000000000E+00 0.  1.
         25    2    1    2    0    0 -0.77983026638E+02  0.12152699281E+03  0.90510265187E+03  0.92504541007E+03  0.12509211742E+03 0.  0.
         23    2    1    2    0    0  0.77983026638E+02 -0.12152699281E+03  0.65315774627E+03  0.67517024910E+03  0.91595094512E+02 0.  0.
          5    1    3    3  502    0 -0.46578561628E+02 -0.44742932497E+01  0.42794264904E+03  0.43051360602E+03  0.41800000000E+01 0. -1.
         -5    1    3    3    0  502 -0.31404465011E+02  0.12600128606E+03  0.47716000283E+03  0.49453180404E+03  0.41800000000E+01 0. -1.
        -11    1    4    4    0    0  0.40928504035E+02 -0.10104390038E+03  0.58394688525E+03  0.59403617486E+03  0.00000000000E+00 0. -1.
         11    1    4    4    0    0  0.37054522604E+02 -0.20483092426E+02  0.69210861021E+02  0.81134074247E+02  0.00000000000E+00 0.  1.
</event>
<event>
 8    1  0.7102339E-009  0.6448716E+02  0.7561462E-02  0.1379911E+00
          2   -1    0    0  501    0  0.00000000000E+00  0.00000000000E+00  0.70492333937E+02  0.70492333937E+02  0.00000000000E+00 0. -1.
         -2   -1    0    0    0  501 -0.00000000000E+00 -0.00000000000E+00 -0.20786093514E+03  0.20786093514E+03  0.00000000000E+00 0.  1.
         25    2    1    2    0    0 -0.19714171265E+02  0.48959301246E+02 -0.85533294523E+02  0.16046610679E+03  0.12509102777E+03 0.  0.
         23    2    1    2    0    0  0.19714171265E+02 -0.48959301246E+02 -0.51835306676E+02  0.11788716229E+03  0.91786830680E+02 0.  0.
          5    1    3    3  502    0  0.60656959998E+01 -0.91507700416E+01 -0.95292466606E+02  0.96013831567E+02  0.41800000000E+01 0. -1.
         -5    1    3    3    0  502 -0.25779867265E+02  0.58110071288E+02  0.97591720836E+01  0.64452275220E+02  0.41800000000E+01 0. -1.
        -11    1    4    4    0    0  0.12749430263E+02 -0.19887338641E+02 -0.75911917232E+02  0.79502662774E+02  0.00000000000E+00 0.  1.
         11    1    4    4    0    0  0.69647410017E+01 -0.29071962605E+02  0.24076610556E+02  0.38384499512E+02  0.00000000000E+00 0. -1.
</event>
<event>
 8    1  0.7102339E-009  0.9913695E+02  0.7561462E-02  0.1282121E+00
          1   -1    0    0  501    0  0.00000000000E+00  0.00000000000E+00  0.10919229258E+03  0.10919229258E+03  0.00000000000E+00 0. -1.
         -1   -1    0    0    0  501 -0.00000000000E+00 -0.00000000000E+00 -0.13867326488E+03  0.13867326488E+03  0.00000000000E+00 0.  1.
         25    2    1    2    0    0  0.23919163737E+02 -0.40879276971E+01  0.36209066756E+02  0.13248268239E+03  0.12510686260E+03 0.  0.
         23    2    1    2    0    0 -0.23919163737E+02  0.40879276971E+01 -0.65690039056E+02  0.11538287508E+03  0.91701630758E+02 0.  0.
          5    1    3    3  502    0  0.59365394631E+02  0.20699606740E+02  0.56401418955E+02  0.84565455472E+02  0.41800000000E+01 0. -1.
         -5    1    3    3    0  502 -0.35446230894E+02 -0.24787534437E+02 -0.20192352200E+02  0.47917226917E+02  0.41800000000E+01 0. -1.
        -11    1    4    4    0    0 -0.52542086537E+02 -0.18122912184E+02 -0.25126718930E+02  0.60995596627E+02  0.00000000000E+00 0. -1.
         11    1    4    4    0    0  0.28622922800E+02  0.22210839881E+02 -0.40563320126E+02  0.54387278452E+02  0.00000000000E+00 0.  1.
</event>
<event>
 8    1  0.7102339E-009  0.1042477E+03  0.7561462E-02  0.1271609E+00
          1   -1    0    0  501    0  0.00000000000E+00  0.00000000000E+00  0.20334815398E+03  0.20334815398E+03  0.00000000000E+00 0.  1.
         -1   -1    0    0    0  501 -0.00000000000E+00 -0.00000000000E+00 -0.63627328449E+02  0.63627328449E+02  0.00000000000E+00 0. -1.
         25    2    1    2    0    0 -0.25351383449E+02  0.16690382221E+02  0.10994052011E+03  0.16927890455E+03  0.12508864082E+03 0.  0.
         23    2    1    2    0    0  0.25351383449E+02 -0.16690382221E+02  0.29780305426E+02  0.97696577883E+02  0.87957337597E+02 0.  0.
          5    1    3    3  502    0 -0.32573817796E+02  0.66105978356E+02  0.42233001786E+02  0.85042065004E+02  0.41800000000E+01 0. -1.
         -5    1    3    3    0  502  0.72224343469E+01 -0.49415596135E+02  0.67707518320E+02  0.84236839543E+02  0.41800000000E+01 0. -1.
        -11    1    4    4    0    0 -0.19617704395E+02 -0.31596023936E+02  0.33662111573E+02  0.50162743245E+02  0.00000000000E+00 0.  1.
         11    1    4    4    0    0  0.44969087844E+02  0.14905641715E+02 -0.38818061469E+01  0.47533834638E+02  0.00000000000E+00 0. -1.
</event>
<event>
 8    1  0.7102339E-009  0.7851736E+02  0.7561462E-02  0.1333312E+00
         -2   -1    0    0    0  501 -0.00000000000E+00  0.00000000000E+00  0.26581715392E+02  0.26581715392E+02  0.00000000000E+00 0.  1.
          2   -1    0    0  501    0  0.00000000000E+00 -0.00000000000E+00 -0.50609118718E+03  0.50609118718E+03  0.00000000000E+00 0. -1.
         25    2    1    2    0    0 -0.35507819358E-01  0.11246975053E+02 -0.36057434660E+03  0.38182440287E+03  0.12509803953E+03 0.  0.
         23    2    1    2    0    0  0.35507819358E-01 -0.11246975053E+02 -0.11893512518E+03  0.15084849969E+03  0.92104343815E+02 0.  0.
          5    1    3    3  502    0 -0.19864891541E+02  0.58130289095E+02 -0.27794675943E+03  0.28468512062E+03  0.41800000000E+01 0.  1.
         -5    1    3    3    0  502  0.19829383721E+02 -0.46883314041E+02 -0.82627587172E+02  0.97139282250E+02  0.41800000000E+01 0.  1.
        -11    1    4    4    0    0 -0.21190102301E+02 -0.21690917936E+01 -0.12514310502E+03  0.12694298771E+03  0.00000000000E+00 0. -1.
         11    1    4    4    0    0  0.21225610120E+02 -0.90778832598E+01  0.62079798408E+01  0.23905511983E+02  0.00000000000E+00 0.  1.
</event>
<event>
 8    1  0.7102339E-009  0.9575023E+02  0.7561462E-02  0.1289495E+00
          2   -1    0    0  501    0  0.00000000000E+00  0.00000000000E+00  0.12991355664E+04  0.12991355664E+04  0.00000000000E+00 0. -1.
         -2   -1    0    0    0  501 -0.00000000000E+00 -0.00000000000E+00 -0.13149365261E+02  0.13149365261E+02  0.00000000000E+00 0.  1.
         25    2    1    2    0    0  0.41637614886E+02 -0.16800768148E+01  0.10040152423E+04  0.10126356720E+04  0.12509150162E+03 0.  0.
         23    2    1    2    0    0 -0.41637614886E+02  0.16800768148E+01  0.28197095876E+03  0.29964925959E+03  0.92442109240E+02 0.  0.
          5    1    3    3  502    0  0.22904953816E+02 -0.41321983359E+02  0.14642600841E+03  0.15391618355E+03  0.41800000000E+01 0.  1.
         -5    1    3    3    0  502  0.18732661070E+02  0.39641906544E+02  0.85758923392E+03  0.85871948847E+03  0.41800000000E+01 0.  1.
        -11    1    4    4    0    0 -0.30996561658E+02  0.45432227861E+02  0.13019947545E+03  0.14133922870E+03  0.00000000000E+00 0.  1.
         11    1    4    4    0    0 -0.10641053228E+02 -0.43752151046E+02  0.15177148331E+03  0.15831003089E+03  0.00000000000E+00 0. -1.
</event>
<event>
 8    1  0.7102339E-009  0.1206336E+03  0.7561462E-02  0.1242055E+00
         -1   -1    0    0    0  501 -0.00000000000E+00  0.00000000000E+00  0.25004079782E+03  0.25004079782E+03  0.00000000000E+00 0.  1.
          1   -1    0    0  501    0  0.00000000000E+00 -0.00000000000E+00 -0.72594231780E+02  0.72594231780E+02  0.00000000000E+00 0. -1.
         25    2    1    2    0    0  0.46140385290E+02  0.65507729584E+02  0.86932172549E+02  0.17212202304E+03  0.12509432602E+03 0.  0.
         23    2    1    2    0    0 -0.46140385290E+02 -0.65507729584E+02  0.90514393488E+02  0.15051300655E+03  0.89672247230E+02 0.  0.
          5    1    3    3  502    0  0.47210851955E+02  0.87659288921E+02  0.20201991799E+02  0.10167894742E+03  0.41800000000E+01 0. -1.
         -5    1    3    3    0  502 -0.10704666658E+01 -0.22151559336E+02  0.66730180750E+02  0.70443075620E+02  0.41800000000E+01 0. -1.
        -11    1    4    4    0    0 -0.13007767290E+01 -0.73491257227E+02  0.45326293752E+02  0.86354674536E+02  0.00000000000E+00 0.  1.
         11    1    4    4    0    0 -0.44839608561E+02  0.79835276431E+01  0.45188099737E+02  0.64158332018E+02  0.00000000000E+00 0. -1.
</event>
<event>
 8    1  0.7102339E-009  0.1493805E+03  0.7561462E-02  0.1201236E+00
          1   -1    0    0  501    0  0.00000000000E+00  0.00000000000E+00  0.75701905966E+02  0.75701905966E+02  0.00000000000E+00 0. -1.
         -1   -1    0    0    0  501 -0.00000000000E+00 -0.00000000000E+00 -0.33178017502E+03  0.33178017502E+03  0.00000000000E+00 0.  1.
         25    2    1    2    0    0  0.10021932133E+03 -0.57943664019E+02 -0.12499301713E+03  0.21135715439E+03  0.12508881569E+03 0.  0.
         23    2    1    2    0    0 -0.10021932133E+03  0.57943664019E+02 -0.13108525193E+03  0.19612492660E+03  0.88770845402E+02 0.  0.
          5    1    3    3  502    0  0.88783408240E+02  0.56064809847E+01 -0.25434985982E+02  0.92619312887E+02  0.41800000000E+01 0.  1.
         -5    1    3    3    0  502  0.11435913092E+02 -0.63550145004E+02 -0.99558031145E+02  0.11873784150E+03  0.41800000000E+01 0.  1.
        -11    1    4    4    0    0 -0.83945771858E+02 -0.89322036443E+00 -0.65114416940E+02  0.10624301271E+03  0.00000000000E+00 0.  1.
         11    1    4    4    0    0 -0.16273549474E+02  0.58836884384E+02 -0.65970834992E+02  0.89881913899E+02  0.00000000000E+00 0. -1.
</event>
<event>
 8    1  0.7102339E-009  0.7114407E+02  0.7561462E-02  0.1356245E+00
         -2   -1    0    0    0  501 -0.00000000000E+00  0.00000000000E+00  0.16449109487E+03  0.16449109487E+03  0.00000000000E+00 0.  1.
          2   -1    0    0  501    0  0.00000000000E+00 -0.00000000000E+00 -0.85831587752E+02  0.85831587752E+02  0.00000000000E+00 0. -1.
         25    2    1    2    0    0  0.11792691903E+02  0.43347337444E+02  0.24726932939E+02  0.13519236455E+03  0.12508994754E+03 0.  0.
         23    2    1    2    0    0 -0.11792691903E+02 -0.43347337444E+02  0.53932574183E+02  0.11513031807E+03  0.91259017831E+02 0.  0.
          5    1    3    3  502    0  0.47025693705E+02  0.39590217432E+02  0.59297253113E+02  0.85512793263E+02  0.41800000000E+01 0.  1.
         -5    1    3    3    0  502 -0.35233001803E+02  0.37571200120E+01 -0.34570320175E+02  0.49679571292E+02  0.41800000000E+01 0.  1.
        -11    1    4    4    0    0 -0.99904811803E+01 -0.32537124640E+02  0.79952922887E+02  0.86896168341E+02  0.00000000000E+00 0.  1.
         11    1    4    4    0    0 -0.18022107223E+01 -0.10810212804E+02 -0.26020348704E+02  0.28234149731E+02  0.00000000000E+00 0. -1.
</event>
<event>
 8    1  0.7102339E-009  0.2189228E+03  0.7561462E-02  0.1134689E+00
          2   -1    0    0  501    0  0.00000000000E+00  0.00000000000E+00  0.36560848640E+03  0.36560848640E+03  0.00000000000E+00 0. -1.
         -2   -1    0    0    0  501 -0.00000000000E+00 -0.00000000000E+00 -0.16244578915E+03  0.16244578915E+03  0.00000000000E+00 0.  1.
         25    2    1    2    0    0  0.19124349181E+02 -0.19953724652E+03  0.19439134202E+03  0.30596929228E+03  0.12509340704E+03 0.  0.
         23    2    1    2    0    0 -0.19124349181E+02  0.19953724652E+03  0.87713552255E+01  0.22208498327E+03  0.95204777401E+02 0.  0.
          5    1    3    3  502    0  0.71031272490E+02 -0.13449615565E+03  0.11335149620E+03  0.18973848225E+03  0.41800000000E+01 0. -1.
         -5    1    3    3    0  502 -0.51906923309E+02 -0.65041090872E+02  0.81039845815E+02  0.11623081002E+03  0.41800000000E+01 0. -1.
        -11    1    4    4    0    0  0.50896108985E+01  0.91891987408E+02 -0.41354852512E+02  0.10089730083E+03  0.00000000000E+00 0.  1.
         11    1    4    4    0    0 -0.24213960080E+02  0.10764525912E+03  0.50126207737E+02  0.12118768244E+03  0.00000000000E+00 0. -1.
</event>
<event>
 8    1  0.7102339E-009  0.9594759E+02  0.7561462E-02  0.1289056E+00
         -1   -1    0    0    0  501 -0.00000000000E+00  0.00000000000E+00  0.16106025258E+02  0.16106025258E+02  0.00000000000E+00 0.  1.
          1   -1    0    0  501    0  0.00000000000E+00 -0.00000000000E+00 -0.87307641305E+03  0.87307641305E+03  0.00000000000E+00 0. -1.
         25    2    1    2    0    0  0.43308104342E+02  0.74586288888E+01 -0.42504980825E+03  0.44524870019E+03  0.12509133657E+03 0.  0.
         23    2    1    2    0    0 -0.43308104342E+02 -0.74586288888E+01 -0.43192057954E+03  0.44393373811E+03  0.92685240225E+02 0.  0.
          5    1    3    3  502    0  0.58540333639E+02  0.28742182191E+02 -0.10216273795E+03  0.12127564111E+03  0.41800000000E+01 0. -1.
         -5    1    3    3    0  502 -0.15232229297E+02 -0.21283553302E+02 -0.32288707029E+03  0.32397305909E+03  0.41800000000E+01 0. -1.
        -11    1    4    4    0    0 -0.33061334937E+02 -0.47966981854E+02 -0.20138454496E+03  0.20964164225E+03  0.00000000000E+00 0.  1.
         11    1    4    4    0    0 -0.10246769405E+02  0.40508352965E+02 -0.23053603458E+03  0.23429209586E+03  0.00000000000E+00 0. -1.
</event>
<event>
 8    1  0.7102339E-009  0.1136025E+03  0.7561462E-02  0.1254040E+00
         -1   -1    0    0    0  501 -0.00000000000E+00  0.00000000000E+00  0.75420554973E+02  0.75420554973E+02  0.00000000000E+00 0.  1.
          1   -1    0    0  501    0  0.00000000000E+00 -0.00000000000E+00 -0.23329590212E+03  0.23329590212E+03  0.00000000000E+00 0. -1.
         25    2    1    2    0    0  0.34273470271E+02 -0.48483493181E+02 -0.31141536811E+02  0.14192331812E+03  0.12508842086E+03 0.  0.
         23    2    1    2    0    0 -0.34273470271E+02  0.48483493181E+02 -0.12673381034E+03  0.16679313898E+03  0.90736831841E+02 0.  0.
          5    1    3    3  502    0  0.70751302843E+02 -0.59088367735E+01 -0.44817190592E+02  0.84063750681E+02  0.41800000000E+01 0.  1.
         -5    1    3    3    0  502 -0.36477832572E+02 -0.42574656407E+02  0.13675653781E+02  0.57859567434E+02  0.41800000000E+01 0.  1.
        -11    1    4    4    0    0 -0.44258946190E+02  0.66138438027E+02 -0.12248849487E+03  0.14607045792E+03  0.00000000000E+00 0. -1.
         11    1    4    4    0    0  0.99854759192E+01 -0.17654944846E+02 -0.42453154720E+01  0.20722681060E+02  0.00000000000E+00 0.  1.
</event>
<event>
 8    1  0.7102339E-009  0.1623238E+03  0.7561462E-02  0.1186098E+00
         -2   -1    0    0    0  501 -0.00000000000E+00  0.00000000000E+00  0.37318940791E+02  0.37318940791E+02  0.00000000000E+00 0.  1.
          2   -1    0    0  501    0  0.00000000000E+00 -0.00000000000E+00 -0.80632915833E+03  0.80632915833E+03  0.00000000000E+00 0. -1.
         25    2    1    2    0    0 -0.65665248081E+02  0.11777191277E+03 -0.42539736351E+03  0.46345709272E+03  0.12508961455E+03 0.  0.
         23    2    1    2    0    0  0.65665248081E+02 -0.11777191277E+03 -0.34361285402E+03  0.38019100640E+03  0.91067335810E+02 0.  0.
          5    1    3    3  502    0 -0.10777151485E+02  0.12748172144E+03 -0.29969813171E+03  0.32588982624E+03  0.41800000000E+01 0.  1.
         -5    1    3    3    0  502 -0.54888096596E+02 -0.97098086697E+01 -0.12569923180E+03  0.13756726649E+03  0.41800000000E+01 0.  1.
        -11    1    4    4    0    0  0.13731763495E+02 -0.66006784945E+02 -0.71089727677E+02  0.97975539644E+02  0.00000000000E+00 0.  1.
         11    1    4    4    0    0  0.51933484586E+02 -0.51765127822E+02 -0.27252312635E+03  0.28221546675E+03  0.00000000000E+00 0. -1.
</event>
<event>
 8    1  0.7102339E-009  0.1910187E+03  0.7561462E-02  0.1157546E+00
         -1   -1    0    0    0  501 -0.00000000000E+00  0.00000000000E+00  0.18417077541E+03  0.18417077541E+03  0.00000000000E+00 0.  1.
          1   -1    0    0  501    0  0.00000000000E+00 -0.00000000000E+00 -0.21819612698E+03  0.21819612698E+03  0.00000000000E+00 0. -1.
         25    2    1    2    0    0 -0.13268697273E+03 -0.10026139474E+03 -0.45415898341E+02  0.21299798589E+03  0.12508940068E+03 0.  0.
         23    2    1    2    0    0  0.13268697273E+03  0.10026139474E+03  0.11390546776E+02  0.18936891650E+03  0.89847993708E+02 0.  0.
          5    1    3    3  502    0 -0.13737374053E+03 -0.51397555835E+02 -0.64343862190E+02  0.16022127928E+03  0.41800000000E+01 0. -1.
         -5    1    3    3    0  502  0.46867677970E+01 -0.48863838904E+02  0.18927963849E+02  0.52776706607E+02  0.41800000000E+01 0. -1.
        -11    1    4    4    0    0  0.29894897968E+02  0.74196996334E+02  0.21530936444E+02  0.82840089412E+02  0.00000000000E+00 0.  1.
         11    1    4    4    0    0  0.10279207477E+03  0.26064398404E+02 -0.10140389668E+02  0.10652882709E+03  0.00000000000E+00 0. -1.
</event>
<event>
 8    1  0.7102339E-009  0.6188074E+02  0.7561462E-02  0.1390104E+00
         -1   -1    0    0    0  501 -0.00000000000E+00  0.00000000000E+00  0.20370986187E+03  0.20370986187E+03  0.00000000000E+00 0.  1.
          1   -1    0    0  501    0  0.00000000000E+00 -0.00000000000E+00 -0.63384788069E+02  0.63384788069E+02  0.00000000000E+00 0. -1.
         25    2    1    2    0    0 -0.33356137774E+02 -0.23666356587E+01  0.97478952960E+02  0.16207383864E+03  0.12509016752E+03 0.  0.
         23    2    1    2    0    0  0.33356137774E+02  0.23666356587E+01  0.42846120842E+02  0.10502081130E+03  0.89862939208E+02 0.  0.
          5    1    3    3  502    0  0.16455754678E+01  0.29723320695E+02 -0.19447900313E+02  0.35803309042E+02  0.41800000000E+01 0.  1.
         -5    1    3    3    0  502 -0.35001713241E+02 -0.32089956354E+02  0.11692685327E+03  0.12627052960E+03  0.41800000000E+01 0.  1.
        -11    1    4    4    0    0  0.78278660569E+01 -0.13763710353E+02  0.65426124690E+02  0.67314879496E+02  0.00000000000E+00 0.  1.
         11    1    4    4    0    0  0.25528271717E+02  0.16130346012E+02 -0.22580003848E+02  0.37705931802E+02  0.00000000000E+00 0. -1.
</event>
<event>
 8    1  0.7102339E-009  0.1634086E+03  0.7561462E-02  0.1184901E+00
         -2   -1    0    0    0  501 -0.00000000000E+00  0.00000000000E+00  0.91928869415E+02  0.91928869415E+02  0.00000000000E+00 0.  1.
          2   -1    0    0  501    0  0.00000000000E+00 -0.00000000000E+00 -0.35938173622E+03  0.35938173622E+03  0.00000000000E+00 0. -1.
         25    2    1    2    0    0 -0.22170732468E+02 -0.14037010575E+03 -0.14769934197E+03  0.24012066474E+03  0.12509008774E+03 0.  0.
         23    2    1    2    0    0  0.22170732468E+02  0.14037010575E+03 -0.11975352483E+03  0.21118994089E+03  0.10032435624E+03 0.  0.
          5    1    3    3  502    0 -0.33626168294E+02 -0.15861506150E+03 -0.10831791108E+03  0.19503768659E+03  0.41800000000E+01 0.  1.
         -5    1    3    3    0  502  0.11455435826E+02  0.18244955750E+02 -0.39381430890E+02  0.45082978154E+02  0.41800000000E+01 0.  1.
        -11    1    4    4    0    0  0.22545590549E+02  0.10906338692E+03 -0.28849498256E+02  0.11504529356E+03  0.00000000000E+00 0.  1.
         11    1    4    4    0    0 -0.37485808109E+00  0.31306718832E+02 -0.90904026575E+02  0.96144647330E+02  0.00000000000E+00 0. -1.
</event>
<event>
 8    1  0.7102339E-009  0.1805103E+03  0.7561462E-02  0.1167310E+00
          1   -1    0    0  501    0  0.00000000000E+00  0.00000000000E+00  0.53173545986E+02  0.53173545986E+02  0.00000000000E+00 0. -1.
         -1   -1    0    0    0  501 -0.00000000000E+00 -0.00000000000E+00 -0.71490926223E+03  0.71490926223E+03  0.00000000000E+00 0.  1.
         25    2    1    2    0    0  0.14541927072E+03  0.60324121426E+02 -0.27501051416E+03  0.34068031931E+03  0.12508610293E+03 0.  0.
         23    2    1    2    0    0 -0.14541927072E+03 -0.60324121426E+02 -0.38672520208E+03  0.42740248890E+03  0.91272896688E+02 0.  0.
          5    1    3    3  502    0 -0.92620540012E+01 -0.19550132783E+02 -0.60493657623E+02  0.64381273277E+02  0.41800000000E+01 0.  1.
         -5    1    3    3    0  502  0.15468132472E+03  0.79874254209E+02 -0.21451685654E+03  0.27629904604E+03  0.41800000000E+01 0.  1.
        -11    1    4    4    0    0 -0.78714999958E+02 -0.62161563161E+01 -0.96244828880E+02  0.12448999520E+03  0.00000000000E+00 0. -1.
         11    1    4    4    0    0 -0.66704270761E+02 -0.54107965110E+02 -0.29048037320E+03  0.30291249371E+03  0.00000000000E+00 0.  1.
</event>
<event>
 8    1  0.7102339E-009  0.1536385E+03  0.7561462E-02  0.1196072E+00
         -1   -1    0    0    0  501 -0.00000000000E+00  0.00000000000E+00  0.23065446003E+02  0.23065446003E+02  0.00000000000E+00 0.  1.
          1   -1    0    0  501    0  0.00000000000E+00 -0.00000000000E+00 -0.13297678923E+04  0.13297678923E+04  0.00000000000E+00 0. -1.
         25    2    1    2    0    0 -0.12865055217E+03 -0.51833373424E+01 -0.87603166898E+03  0.89423515281E+03  0.12508873609E+03 0.  0.
         23    2    1    2    0    0  0.12865055217E+03  0.51833373424E+01 -0.43067077729E+03  0.45859818547E+03  0.90868838144E+02 0.  0.
          5    1    3    3  502    0 -0.52433240946E+02  0.52588970342E+02 -0.24684639853E+03  0.25780896305E+03  0.41800000000E+01 0. -1.
         -5    1    3    3    0  502 -0.76217311223E+02 -0.57772307684E+02 -0.62918527045E+03  0.63642618976E+03  0.41800000000E+01 0. -1.
        -11    1    4    4    0    0  0.51292188959E+02  0.25363273500E+02 -0.30001932582E+03  0.30542720926E+03  0.00000000000E+00 0. -1.
         11    1    4    4    0    0  0.77358363211E+02 -0.20179936158E+02 -0.13065145147E+03  0.15317097621E+03  0.00000000000E+00 0.  1.
</event>
<event>
 8    1  0.7102339E-009  0.1076846E+03  0.7561462E-02  0.1264919E+00
          1   -1    0    0  501    0  0.00000000000E+00  0.00000000000E+00  0.37364759411E+03  0.37364759411E+03  0.00000000000E+00 0. -1.
         -1   -1    0    0    0  501 -0.00000000000E+00 -0.00000000000E+00 -0.42119863740E+02  0.42119863740E+02  0.00000000000E+00 0.  1.
         25    2    1    2    0    0  0.81388562422E+00  0.54736598280E+02  0.27235635637E+03  0.30466571881E+03  0.12508580160E+03 0.  0.
         23    2    1    2    0    0 -0.81388562422E+00 -0.54736598280E+02  0.59171373996E+02  0.11110173904E+03  0.76456440638E+02 0.  0.
          5    1    3    3  502    0  0.47676709823E+02 -0.88767629428E+01  0.16003979702E+03  0.16727843438E+03  0.41800000000E+01 0.  1.
         -5    1    3    3    0  502 -0.46862824199E+02  0.63613361223E+02  0.11231655935E+03  0.13738728443E+03  0.41800000000E+01 0.  1.
        -11    1    4    4    0    0 -0.32792959063E+02 -0.13684519472E+02  0.48262716160E+01  0.35859965630E+02  0.00000000000E+00 0.  1.
         11    1    4    4    0    0  0.31979073439E+02 -0.41052078808E+02  0.54345102380E+02  0.75241773405E+02  0.00000000000E+00 0. -1.
</event>
<event>
 8    1  0.7102339E-009  0.1101252E+03  0.7561462E-02  0.1260338E+00
         -1   -1    0    0    0  501 -0.00000000000E+00  0.00000000000E+00  0.18246314293E+02  0.18246314293E+02  0.00000000000E+00 0.  1.
          1   -1    0    0  501    0  0.00000000000E+00 -0.00000000000E+00 -0.88552730892E+03  0.88552730892E+03  0.00000000000E+00 0. -1.
         25    2    1    2    0    0  0.27303751759E+02 -0.39266502003E+02 -0.63734114063E+03  0.65125993528E+03  0.12509364778E+03 0.  0.
         23    2    1    2    0    0 -0.27303751759E+02  0.39266502003E+02 -0.22993985400E+03  0.25251368794E+03  0.92754908766E+02 0.  0.
          5    1    3    3  502    0 -0.39385452967E+02  0.18340469169E+00 -0.88474877462E+02  0.96935668795E+02  0.41800000000E+01 0.  1.
         -5    1    3    3    0  502  0.66689204726E+02 -0.39449906695E+02 -0.54886626317E+03  0.55432426648E+03  0.41800000000E+01 0.  1.
        -11    1    4    4    0    0 -0.36109017643E+02 -0.21246866343E+02 -0.11364140709E+03  0.12111837140E+03  0.00000000000E+00 0.  1.
         11    1    4    4    0    0  0.88052658846E+01  0.60513368346E+02 -0.11629844691E+03  0.13139531654E+03  0.00000000000E+00 0. -1.
</event>
<event>
 8    1  0.7102339E-009  0.9774586E+02  0.7561462E-02  0.1285109E+00
          1   -1    0    0  501    0  0.00000000000E+00  0.00000000000E+00  0.89488677036E+02  0.89488677036E+02  0.00000000000E+00 0. -1.
         -1   -1    0    0    0  501 -0.00000000000E+00 -0.00000000000E+00 -0.18912047861E+03  0.18912047861E+03  0.00000000000E+00 0.  1.
         25    2    1    2    0    0  0.14459356893E+02  0.14366409252E+02 -0.12873925560E+03  0.18065631898E+03  0.12508973954E+03 0.  0.
         23    2    1    2    0    0 -0.14459356893E+02 -0.14366409252E+02  0.29107454027E+02  0.97952836668E+02  0.91280050476E+02 0.  0.
          5    1    3    3  502    0  0.51605447571E+02 -0.24010712519E+02 -0.10995746515E+03  0.12388604876E+03  0.41800000000E+01 0. -1.
         -5    1    3    3    0  502 -0.37146090678E+02  0.38377121771E+02 -0.18781790449E+02  0.56770270218E+02  0.41800000000E+01 0. -1.
        -11    1    4    4    0    0  0.33968681632E+02 -0.13086481185E+02  0.33288236370E+02  0.49327821787E+02  0.00000000000E+00 0.  1.
         11    1    4    4    0    0 -0.48428038525E+02 -0.12799280674E+01 -0.41807823429E+01  0.48625014881E+02  0.00000000000E+00 0. -1.
</event>
<event>
 8    1  0.7102339E-009  0.1562068E+03  0.7561462E-02  0.1193047E+00
          2   -1    0    0  501    0  0.00000000000E+00  0.00000000000E+00  0.11434271644E+04  0.11434271644E+04  0.00000000000E+00 0. -1.
         -2   -1    0    0    0  501 -0.00000000000E+00 -0.00000000000E+00 -0.22976044825E+02  0.22976044825E+02  0.00000000000E+00 0.  1.
         25    2    1    2    0    0 -0.10822113362E+03  0.47783575867E+02  0.53420861691E+03  0.56126816245E+03  0.12509204577E+03 0.  0.
         23    2    1    2    0    0  0.10822113362E+03 -0.47783575867E+02  0.58624250269E+03  0.60513504680E+03  0.92266294072E+02 0.  0.
          5    1    3    3  502    0 -0.41949033976E+02 -0.42510131772E+02  0.17267659235E+03  0.18276080187E+03  0.41800000000E+01 0.  1.
         -5    1    3    3    0  502 -0.66272099643E+02  0.90293707639E+02  0.36153202456E+03  0.37850736058E+03  0.41800000000E+01 0.  1.
        -11    1    4    4    0    0  0.64264530715E+02  0.12884821740E+02  0.16987377402E+03  0.18207978372E+03  0.00000000000E+00 0.  1.
         11    1    4    4    0    0  0.43956602904E+02 -0.60668397607E+02  0.41636872867E+03  0.42305526308E+03  0.00000000000E+00 0. -1.
</event>
<event>
 8    1  0.7102339E-009  0.8972467E+02  0.7561462E-02  0.1303520E+00
         -3   -1    0    0    0  501 -0.00000000000E+00  0.00000000000E+00  0.93608175198E+03  0.93608175198E+03  0.00000000000E+00 0.  1.
          3   -1    0    0  501    0  0.00000000000E+00 -0.00000000000E+00 -0.21940828450E+02  0.21940828450E+02  0.00000000000E+00 0. -1.
         25    2    1    2    0    0  0.15418996765E+02  0.22535119249E+02  0.79734123575E+03  0.80755601711E+03  0.12509235581E+03 0.  0.
         23    2    1    2    0    0 -0.15418996765E+02 -0.22535119249E+02  0.11679968778E+03  0.15046656332E+03  0.90842955432E+02 0.  0.
          5    1    3    3  502    0  0.26178642361E+02 -0.45554870126E+02  0.22646448771E+03  0.23251710496E+03  0.41800000000E+01 0.  1.
         -5    1    3    3    0  502 -0.10759645596E+02  0.68089989375E+02  0.57087674804E+03  0.57503891214E+03  0.41800000000E+01 0.  1.
        -11    1    4    4    0    0 -0.93098761694E+01 -0.39012154678E+02  0.12485233765E+03  0.13113629636E+03  0.00000000000E+00 0.  1.
         11    1    4    4    0    0 -0.61091205959E+01  0.16477035429E+02 -0.80526498663E+01  0.19330266963E+02  0.00000000000E+00 0. -1.
</event>
<event>
 8    1  0.7102339E-009  0.1095574E+03  0.7561462E-02  0.1261392E+00
         -1   -1    0    0    0  501 -0.00000000000E+00  0.00000000000E+00  0.22471556748E+02  0.22471556748E+02  0.00000000000E+00 0.  1.
          1   -1    0    0  501    0  0.00000000000E+00 -0.00000000000E+00 -0.10027280004E+04  0.10027280004E+04  0.00000000000E+00 0. -1.
         25    2    1    2    0    0 -0.70249691158E+02  0.64428961657E+02 -0.72040659775E+03  0.73737314056E+03  0.12508945650E+03 0.  0.
         23    2    1    2    0    0  0.70249691158E+02 -0.64428961657E+02 -0.25984984588E+03  0.28782641656E+03  0.78968306698E+02 0.  0.
          5    1    3    3  502    0 -0.37501887656E+02  0.33282746067E+02 -0.65949365899E+03  0.66141022929E+03  0.41800000000E+01 0.  1.
         -5    1    3    3    0  502 -0.32747803501E+02  0.31146215590E+02 -0.60912938761E+02  0.75962911268E+02  0.41800000000E+01 0.  1.
        -11    1    4    4    0    0  0.56257317459E+02 -0.82933171836E+02 -0.20181805227E+03  0.22532936556E+03  0.00000000000E+00 0. -1.
         11    1    4    4    0    0  0.13992373698E+02  0.18504210179E+02 -0.58031793600E+02  0.62497051007E+02  0.00000000000E+00 0.  1.
</event>
<event>
 8    1  0.7102339E-009  0.9361808E+02  0.7561462E-02  0.1294319E+00
          1   -1    0    0  501    0  0.00000000000E+00  0.00000000000E+00  0.17723830434E+03  0.17723830434E+03  0.00000000000E+00 0. -1.
         -1   -1    0    0    0  501 -0.00000000000E+00 -0.00000000000E+00 -0.81723691664E+02  0.81723691664E+02  0.00000000000E+00 0.  1.
         25    2    1    2    0    0  0.17839351078E+02 -0.33933290768E+02  0.68252150245E+02  0.14756652236E+03  0.12509121407E+03 0.  0.
         23    2    1    2    0    0 -0.17839351078E+02  0.33933290768E+02  0.27262462427E+02  0.11139547364E+03  0.10097523964E+03 0.  0.
          5    1    3    3  502    0 -0.47419340251E+01  0.46306348961E+02  0.31572198087E+02  0.56400709078E+02  0.41800000000E+01 0.  1.
         -5    1    3    3    0  502  0.22581285103E+02 -0.80239639730E+02  0.36679952158E+02  0.91165813281E+02  0.41800000000E+01 0.  1.
        -11    1    4    4    0    0 -0.27842910584E+02  0.75878516169E+01 -0.33620177862E+02  0.44307104638E+02  0.00000000000E+00 0.  1.
         11    1    4    4    0    0  0.10003559506E+02  0.26345439151E+02  0.60882640289E+02  0.67088369003E+02  0.00000000000E+00 0. -1.
</event>
<event>
 7    1  0.7102339E-009  0.1786193E+03  0.7561462E-02  0.1169146E+00
          1   -1    0    0  501    0  0.00000000000E+00  0.00000000000E+00  0.23597667571E+02  0.23597667571E+02  0.00000000000E+00 0. -1.
         -1   -1    0    0    0  501 -0.00000000000E+00 -0.00000000000E+00 -0.14639917331E+04  0.14639917331E+04  0.00000000000E+00 0.  1.
         25    2    1    2    0    0 -0.11048051531E+03  0.18248021457E+02 -0.77435434114E+03  0.79235008825E+03  0.12512027082E+03 0.  0.
          5    1    3    3  502    0 -0.14242362864E+02 -0.43231380637E+02 -0.12673538257E+03  0.13472611761E+03  0.41800000000E+01 0. -1.
         -5    1    3    3    0  502 -0.96238152442E+02  0.61479402094E+02 -0.64761895857E+03  0.65762397064E+03  0.41800000000E+01 0. -1.
        -11    1    1    2    0    0  0.82232001082E+02  0.67869121518E+02 -0.30908812383E+03  0.32696144719E+03  0.00000000000E+00 0. -1.
         11    1    1    2    0    0  0.28248514224E+02 -0.86117142975E+02 -0.35695160057E+03  0.36827786523E+03  0.00000000000E+00 0.  1.
</event>
<event>
 8    1  0.7102339E-009  0.2386799E+03  0.7561462E-02  0.1120675E+00
         -2   -1    0    0    0  501 -0.00000000000E+00  0.00000000000E+00  0.21448254182E+03  0.21448254182E+03  0.00000000000E+00 0. -1.
          2   -1    0    0  501    0  0.00000000000E+00 -0.00000000000E+00 -0.27411603855E+03  0.27411603855E+03  0.00000000000E+00 0.  1.
         25    2    1    2    0    0  0.79000127020E+02  0.20068325585E+03 -0.40949504349E+02  0.25268141197E+03  0.12512491679E+03 0.  0.
         23    2    1    2    0    0 -0.79000127020E+02 -0.20068325585E+03 -0.18683992382E+02  0.23591716840E+03  0.93771155091E+02 0.  0.
          5    1    3    3  502    0  0.12239233669E+02 -0.13606398351E+02  0.11677191889E+02  0.22107965246E+02  0.41800000000E+01 0. -1.
         -5    1    3    3    0  502  0.66760893351E+02  0.21428965420E+03 -0.52626696238E+02  0.23057344672E+03  0.41800000000E+01 0. -1.
        -11    1    4    4    0    0 -0.87210007167E+02 -0.98385864058E+02 -0.21668545220E+02  0.13324747445E+03  0.00000000000E+00 0.  1.
         11    1    4    4    0    0  0.82098801470E+01 -0.10229739179E+03  0.29845528381E+01  0.10266969394E+03  0.00000000000E+00 0. -1.
</event>
<event>
 8    1  0.7102339E-009  0.1144709E+03  0.7561462E-02  0.1252508E+00
          2   -1    0    0  501    0  0.00000000000E+00  0.00000000000E+00  0.90026376970E+02  0.90026376970E+02  0.00000000000E+00 0. -1.
         -2   -1    0    0    0  501 -0.00000000000E+00 -0.00000000000E+00 -0.17515075357E+03  0.17515075357E+03  0.00000000000E+00 0.  1.
         25    2    1    2    0    0 -0.59170661895E+02  0.19833936528E+02 -0.61625309943E+02  0.15277115242E+03  0.12508714530E+03 0.  0.
         23    2    1    2    0    0  0.59170661895E+02 -0.19833936528E+02 -0.23499066661E+02  0.11240597812E+03  0.90489477378E+02 0.  0.
          5    1    3    3  502    0  0.96968031317E+01 -0.31930219884E+02 -0.57261201574E+02  0.66406961521E+02  0.41800000000E+01 0.  1.
         -5    1    3    3    0  502 -0.68867465027E+02  0.51764156412E+02 -0.43641083694E+01  0.86364190902E+02  0.41800000000E+01 0.  1.
        -11    1    4    4    0    0  0.15903314250E+02 -0.52491870211E+02 -0.18855201494E+02  0.57998538480E+02  0.00000000000E+00 0. -1.
         11    1    4    4    0    0  0.43267347645E+02  0.32657933683E+02 -0.46438651671E+01  0.54407439642E+02  0.00000000000E+00 0.  1.
</event>
<event>
 8    1  0.7102339E-009  0.2090095E+03  0.7561462E-02  0.1142353E+00
         -2   -1    0    0    0  501 -0.00000000000E+00  0.00000000000E+00  0.55800813662E+03  0.55800813662E+03  0.00000000000E+00 0.  1.
          2   -1    0    0  501    0  0.00000000000E+00 -0.00000000000E+00 -0.81129124799E+02  0.81129124799E+02  0.00000000000E+00 0. -1.
         25    2    1    2    0    0 -0.69172617955E+02  0.16907111330E+03  0.24082233333E+03  0.32712808103E+03  0.12508993862E+03 0.  0.
         23    2    1    2    0    0  0.69172617955E+02 -0.16907111330E+03  0.23605667849E+03  0.31200918039E+03  0.90868480554E+02 0.  0.
          5    1    3    3  502    0  0.32962894125E+02  0.19678504816E+02  0.59361779174E+02  0.70817294269E+02  0.41800000000E+01 0.  1.
         -5    1    3    3    0  502 -0.10213551208E+03  0.14939260848E+03  0.18146055416E+03  0.25631078676E+03  0.41800000000E+01 0.  1.
        -11    1    4    4    0    0 -0.59796615757E+01 -0.86606772275E+02  0.14026691497E+03  0.16495846990E+03  0.00000000000E+00 0.  1.
         11    1    4    4    0    0  0.75152279531E+02 -0.82464341023E+02  0.95789763520E+02  0.14705071049E+03  0.00000000000E+00 0. -1.
</event>
<event>
 8    1  0.7102339E-009  0.1276067E+03  0.7561462E-02  0.1231051E+00
         -4   -1    0    0    0  501 -0.00000000000E+00  0.00000000000E+00  0.12370104747E+03  0.12370104747E+03  0.00000000000E+00 0.  1.
          4   -1    0    0  501    0  0.00000000000E+00 -0.00000000000E+00 -0.27775575054E+03  0.27775575054E+03  0.00000000000E+00 0. -1.
         25    2    1    2    0    0 -0.51363934535E+02 -0.85958033027E+02 -0.20218723879E+03  0.25798168824E+03  0.12509130554E+03 0.  0.
         23    2    1    2    0    0  0.51363934535E+02  0.85958033027E+02  0.48132535724E+02  0.14347510978E+03  0.90781765343E+02 0.  0.
          5    1    3    3  502    0 -0.53183572339E+02 -0.19013248448E+02 -0.14213548387E+02  0.58390866932E+02  0.41800000000E+01 0. -1.
         -5    1    3    3    0  502  0.18196378033E+01 -0.66944784578E+02 -0.18797369041E+03  0.19959082130E+03  0.41800000000E+01 0. -1.
        -11    1    4    4    0    0  0.22168726724E+02  0.97571963582E+02  0.21629721356E+02  0.10236984599E+03  0.00000000000E+00 0. -1.
         11    1    4    4    0    0  0.29195207811E+02 -0.11613930555E+02  0.26502814368E+02  0.41105263793E+02  0.00000000000E+00 0.  1.
</event>
<event>
 8    1  0.7102339E-009  0.1855546E+03  0.7561462E-02  0.1162533E+00
         -4   -1    0    0    0  501 -0.00000000000E+00  0.00000000000E+00  0.11685221808E+04  0.11685221808E+04  0.00000000000E+00 0.  1.
          4   -1    0    0  501    0  0.00000000000E+00 -0.00000000000E+00 -0.30687505581E+02  0.30687505581E+02  0.00000000000E+00 0. -1.
         25    2    1    2    0    0 -0.15274927323E+03 -0.25753543558E+02  0.61556684193E+03  0.64696771696E+03  0.12509638054E+03 0.  0.
         23    2    1    2    0    0  0.15274927323E+03  0.25753543558E+02  0.52226783330E+03  0.55224196943E+03  0.90619631563E+02 0.  0.
          5    1    3    3  502    0 -0.27693891558E+02  0.46066848330E+02  0.19650418802E+03  0.20376573425E+03  0.41800000000E+01 0. -1.
         -5    1    3    3    0  502 -0.12505538167E+03 -0.71820391887E+02  0.41906265391E+03  0.44320198271E+03  0.41800000000E+01 0. -1.
        -11    1    4    4    0    0  0.10079636222E+03  0.53405746503E+02  0.26826953665E+03  0.29151436447E+03  0.00000000000E+00 0. -1.
         11    1    4    4    0    0  0.51952911014E+02 -0.27652202945E+02  0.25399829665E+03  0.26072760497E+03  0.00000000000E+00 0.  1.
</event>
<event>
 8    1  0.7102339E-009  0.1884012E+03  0.7561462E-02  0.1159911E+00
          2   -1    0    0  501    0  0.00000000000E+00  0.00000000000E+00  0.18059818057E+04  0.18059818057E+04  0.00000000000E+00 0. -1.
         -2   -1    0    0    0  501 -0.00000000000E+00 -0.00000000000E+00 -0.22931072980E+02  0.22931072980E+02  0.00000000000E+00 0.  1.
         25    2    1    2    0    0  0.15455248475E+01 -0.16889944371E+03  0.79449007129E+03  0.82182820332E+03  0.12513077819E+03 0.  0.
         23    2    1    2    0    0 -0.15455248475E+01  0.16889944371E+03  0.98856066138E+03  0.10070846753E+04  0.91858321877E+02 0.  0.
          5    1    3    3  502    0 -0.14135704893E+02  0.16462057249E+00  0.27258036078E+03  0.27297870015E+03  0.41800000000E+01 0.  1.
         -5    1    3    3    0  502  0.15681229741E+02 -0.16906406428E+03  0.52190971052E+03  0.54884950317E+03  0.41800000000E+01 0.  1.
        -11    1    4    4    0    0  0.87994850400E+01 -0.98286591019E+01  0.62280167677E+02  0.63662019781E+02  0.00000000000E+00 0. -1.
         11    1    4    4    0    0 -0.10345009888E+02  0.17872810281E+03  0.92628049370E+03  0.94342265554E+03  0.00000000000E+00 0.  1.
</event>
<event>
 8    1  0.7102339E-009  0.8424445E+02  0.7561462E-02  0.1317420E+00
         -1   -1    0    0    0  501 -0.00000000000E+00  0.00000000000E+00  0.30442124459E+02  0.30442124459E+02  0.00000000000E+00 0.  1.
          1   -1    0    0  501    0  0.00000000000E+00 -0.00000000000E+00 -0.47212590375E+03  0.47212590375E+03  0.00000000000E+00 0. -1.
         25    2    1    2    0    0  0.40642090562E+02  0.24776813456E+02 -0.21010863386E+03  0.24911841322E+03  0.12509466725E+03 0.  0.
         23    2    1    2    0    0 -0.40642090562E+02 -0.24776813456E+02 -0.23157514543E+03  0.25344961498E+03  0.91345439653E+02 0.  0.
          5    1    3    3  502    0  0.40045937529E+02 -0.14179194209E+00 -0.28934176158E+01  0.40367579604E+02  0.41800000000E+01 0.  1.
         -5    1    3    3    0  502  0.59615303246E+00  0.24918605398E+02 -0.20721521624E+03  0.20875083362E+03  0.41800000000E+01 0.  1.
        -11    1    4    4    0    0  0.27480396549E+02 -0.21249195869E+02 -0.81977331464E+02  0.89033608225E+02  0.00000000000E+00 0.  1.
         11    1    4    4    0    0 -0.68122487110E+02 -0.35276175871E+01 -0.14959781396E+03  0.16441600676E+03  0.00000000000E+00 0. -1.
</event>
<event>
 8    1  0.7102339E-009  0.7323647E+02  0.7561462E-02  0.1349421E+00
          2   -1    0    0  501    0  0.00000000000E+00  0.00000000000E+00  0.60490685002E+03  0.60490685002E+03  0.00000000000E+00 0. -1.
         -2   -1    0    0    0  501 -0.00000000000E+00 -0.00000000000E+00 -0.20465923300E+02  0.20465923300E+02  0.00000000000E+00 0.  1.
         25    2    1    2    0    0 -0.13107868475E+02 -0.10061647407E+02  0.30163628348E+03  0.32696433879E+03  0.12509267910E+03 0.  0.
         23    2    1    2    0    0  0.13107868475E+02  0.10061647407E+02  0.28280464324E+03  0.29840843453E+03  0.93787390384E+02 0.  0.
          5    1    3    3  502    0 -0.80449546252E+01 -0.39939398277E+02  0.23636831192E+02  0.47286879982E+02  0.41800000000E+01 0.  1.
         -5    1    3    3    0  502 -0.50629138499E+01  0.29877750870E+02  0.27799945229E+03  0.27967745881E+03  0.41800000000E+01 0.  1.
        -11    1    4    4    0    0 -0.47518781671E+01  0.39883763380E+02  0.23966127012E+03  0.24300374343E+03  0.00000000000E+00 0. -1.
         11    1    4    4    0    0  0.17859746642E+02 -0.29822115973E+02  0.43143373127E+02  0.55404691101E+02  0.00000000000E+00 0.  1.
</event>
<event>
 8    1  0.7102339E-009  0.1057265E+03  0.7561462E-02  0.1268695E+00
          2   -1    0    0  501    0  0.00000000000E+00  0.00000000000E+00  0.66068211499E+03  0.66068211499E+03  0.00000000000E+00 0. -1.
         -2   -1    0    0    0  501 -0.00000000000E+00 -0.00000000000E+00 -0.22212121973E+02  0.22212121973E+02  0.00000000000E+00 0.  1.
         25    2    1    2    0    0 -0.34947528210E+02  0.24659751403E+02  0.45217334953E+03  0.47110276458E+03  0.12509054202E+03 0.  0.
         23    2    1    2    0    0  0.34947528210E+02 -0.24659751403E+02  0.18629664349E+03  0.21179147238E+03  0.91212692825E+02 0.  0.
          5    1    3    3  502    0  0.44678065994E+02 -0.20471155845E+01  0.20985705181E+03  0.21461075196E+03  0.41800000000E+01 0. -1.
         -5    1    3    3    0  502 -0.79625594204E+02  0.26706866988E+02  0.24231629773E+03  0.25649201263E+03  0.41800000000E+01 0. -1.
        -11    1    4    4    0    0 -0.21642385514E+02 -0.29940973860E+01  0.12000758593E+03  0.12198023672E+03  0.00000000000E+00 0.  1.
         11    1    4    4    0    0  0.56589913724E+02 -0.21665654017E+02  0.66289057557E+02  0.89811235662E+02  0.00000000000E+00 0. -1.
</event>
<event>
 8    1  0.7102339E-009  0.1030191E+03  0.7561462E-02  0.1274072E+00
          2   -1    0    0  501    0  0.00000000000E+00  0.00000000000E+00  0.57308385698E+03  0.57308385698E+03  0.00000000000E+00 0. -1.
         -2   -1    0    0    0  501 -0.00000000000E+00 -0.00000000000E+00 -0.23790487646E+02  0.23790487646E+02  0.00000000000E+00 0.  1.
         25    2    1    2    0    0 -0.35954821034E+02  0.75709433521E+01  0.36279285433E+03  0.38550880417E+03  0.12509322364E+03 0.  0.
         23    2    1    2    0    0  0.35954821034E+02 -0.75709433521E+01  0.18650051500E+03  0.21136554046E+03  0.92427708277E+02 0.  0.
          5    1    3    3  502    0 -0.68034047710E+02 -0.11806937502E+02  0.11017918486E+03  0.13009596687E+03  0.41800000000E+01 0.  1.
         -5    1    3    3    0  502  0.32079226676E+02  0.19377880854E+02  0.25261366947E+03  0.25541283729E+03  0.41800000000E+01 0.  1.
        -11    1    4    4    0    0 -0.24624438890E+01  0.38831177753E+02  0.65135999603E+02  0.75872408950E+02  0.00000000000E+00 0.  1.
         11    1    4    4    0    0  0.38417264923E+02 -0.46402121105E+02  0.12136451540E+03  0.13549313151E+03  0.00000000000E+00 0. -1.
</event>
<event>
 8    1  0.7102339E-009  0.1384205E+03  0.7561462E-02  0.1215470E+00
          4   -1    0    0  501    0  0.00000000000E+00  0.00000000000E+00  0.17365586946E+02  0.17365586946E+02  0.00000000000E+00 0. -1.
         -4   -1    0    0    0  501 -0.00000000000E+00 -0.00000000000E+00 -0.15748806708E+04  0.15748806708E+04  0.00000000000E+00 0.  1.
         25    2    1    2    0    0  0.55462565071E+02 -0.10000357015E+03 -0.95267556024E+03  0.96763318336E+03  0.12508574775E+03 0.  0.
         23    2    1    2    0    0 -0.55462565071E+02  0.10000357015E+03 -0.60483952366E+03  0.62461307443E+03  0.10598977877E+03 0.  0.
          5    1    3    3  502    0  0.64185196456E+02 -0.12212383433E+03 -0.67852001177E+03  0.69241667306E+03  0.41800000000E+01 0.  1.
         -5    1    3    3    0  502 -0.87226313852E+01  0.22120264175E+02 -0.27415554847E+03  0.27521651030E+03  0.41800000000E+01 0.  1.
        -11    1    4    4    0    0 -0.46839144173E+02  0.90039866533E+02 -0.60279317669E+03  0.61127792113E+03  0.00000000000E+00 0.  1.
         11    1    4    4    0    0 -0.86234208981E+01  0.99637036195E+01 -0.20463469700E+01  0.13335153307E+02  0.00000000000E+00 0. -1.
</event>
<event>
 8    1  0.7102339E-009  0.1970406E+03  0.7561462E-02  0.1152260E+00
          1   -1    0    0  501    0  0.00000000000E+00  0.00000000000E+00  0.17360338352E+03  0.17360338352E+03  0.00000000000E+00 0. -1.
         -1   -1    0    0    0  501 -0.00000000000E+00 -0.00000000000E+00 -0.43098344268E+03  0.43098344268E+03  0.00000000000E+00 0.  1.
         25    2    1    2    0    0  0.17218827327E+03  0.84978612231E+02  0.46691275539E+02  0.23387499250E+03  0.12508905194E+03 0.  0.
         23    2    1    2    0    0 -0.17218827327E+03 -0.84978612231E+02 -0.30407133470E+03  0.37071183370E+03  0.89987338367E+02 0.  0.
          5    1    3    3  502    0  0.14795488117E+03  0.54631657394E+02  0.84957750759E+02  0.17919418703E+03  0.41800000000E+01 0.  1.
         -5    1    3    3    0  502  0.24233392105E+02  0.30346954837E+02 -0.38266475220E+02  0.54680805467E+02  0.41800000000E+01 0.  1.
        -11    1    4    4    0    0 -0.37097753694E+02 -0.40734687971E+02 -0.31925965390E+02  0.63677510938E+02  0.00000000000E+00 0. -1.
         11    1    4    4    0    0 -0.13509051958E+03 -0.44243924260E+02 -0.27214536931E+03  0.30703432276E+03  0.00000000000E+00 0.  1.
</event>
<event>
 8    1  0.7102339E-009  0.1086290E+03  0.7561462E-02  0.1263130E+00
         -1   -1    0    0    0  501 -0.00000000000E+00  0.00000000000E+00  0.14441403567E+03  0.14441403567E+03  0.00000000000E+00 0.  1.
          1   -1    0    0  501    0  0.00000000000E+00 -0.00000000000E+00 -0.12228646344E+03  0.12228646344E+03  0.00000000000E+00 0. -1.
         25    2    1    2    0    0 -0.31435458008E+01  0.41715946547E+02 -0.52832508759E+02  0.14210539572E+03  0.12511022114E+03 0.  0.
         23    2    1    2    0    0  0.31435458008E+01 -0.41715946547E+02  0.74960080994E+02  0.12459510339E+03  0.90304063969E+02 0.  0.
          5    1    3    3  502    0  0.54604687503E+02 -0.61940441163E+01 -0.33541464914E+02  0.64517752196E+02  0.41800000000E+01 0. -1.
         -5    1    3    3    0  502 -0.57748233304E+02  0.47909990663E+02 -0.19291043845E+02  0.77587643525E+02  0.41800000000E+01 0. -1.
        -11    1    4    4    0    0 -0.15331266707E+02  0.18488370513E+02 -0.31902418858E+01  0.24229016207E+02  0.00000000000E+00 0. -1.
         11    1    4    4    0    0  0.18474812508E+02 -0.60204317060E+02  0.78150322880E+02  0.10036608718E+03  0.00000000000E+00 0.  1.
</event>
<event>
 8    1  0.7102339E-009  0.8181523E+02  0.7561462E-02  0.1323978E+00
         -1   -1    0    0    0  501 -0.00000000000E+00  0.00000000000E+00  0.36178458701E+02  0.36178458701E+02  0.00000000000E+00 0.  1.
          1   -1    0    0  501    0  0.00000000000E+00 -0.00000000000E+00 -0.46846169990E+03  0.46846169990E+03  0.00000000000E+00 0. -1.
         25    2    1    2    0    0  0.40350332479E+01  0.44373686723E+02 -0.39967762348E+03  0.42116033930E+03  0.12509405709E+03 0.  0.
         23    2    1    2    0    0 -0.40350332479E+01 -0.44373686723E+02 -0.32605617716E+02  0.83479819302E+02  0.62613483830E+02 0.  0.
          5    1    3    3  502    0  0.32860170396E+02 -0.37164413976E+01 -0.23450301534E+02  0.40755266864E+02  0.41800000000E+01 0.  1.
         -5    1    3    3    0  502 -0.28825137148E+02  0.48090128121E+02 -0.37622732194E+03  0.38040507243E+03  0.41800000000E+01 0.  1.
        -11    1    4    4    0    0 -0.11834825835E+02  0.12181687278E+02  0.13785086738E+01  0.17039861902E+02  0.00000000000E+00 0. -1.
         11    1    4    4    0    0  0.77997925866E+01 -0.56555374001E+02 -0.33984126390E+02  0.66439957400E+02  0.00000000000E+00 0.  1.
</event>
<event>
 8    1  0.7102339E-009  0.1061488E+03  0.7561462E-02  0.1267873E+00
          1   -1    0    0  501    0  0.00000000000E+00  0.00000000000E+00  0.35182063035E+03  0.35182063035E+03  0.00000000000E+00 0. -1.
         -1   -1    0    0    0  501 -0.00000000000E+00 -0.00000000000E+00 -0.54700739211E+02  0.54700739211E+02  0.00000000000E+00 0.  1.
         25    2    1    2    0    0  0.86153465000E+02 -0.37271406598E+00  0.16066180540E+03  0.22109291329E+03  0.12508917677E+03 0.  0.
         23    2    1    2    0    0 -0.86153465000E+02  0.37271406598E+00  0.13645808573E+03  0.18542845627E+03  0.91325488145E+02 0.  0.
          5    1    3    3  502    0  0.72869386734E+02 -0.18451608483E+02  0.19055404630E+02  0.77659450322E+02  0.41800000000E+01 0. -1.
         -5    1    3    3    0  502  0.13284078265E+02  0.18078894417E+02  0.14160640077E+03  0.14343346297E+03  0.41800000000E+01 0. -1.
        -11    1    4    4    0    0 -0.41545761798E+02  0.37643110795E+02  0.10573899308E+03  0.11968203195E+03  0.00000000000E+00 0. -1.
         11    1    4    4    0    0 -0.44607703202E+02 -0.37270396729E+02  0.30719092647E+02  0.65746424316E+02  0.00000000000E+00 0.  1.
</event>
<event>
 8    1  0.7102339E-009  0.1479005E+03  0.7561462E-02  0.1203077E+00
         -2   -1    0    0    0  501 -0.00000000000E+00  0.00000000000E+00  0.37297503645E+02  0.37297503645E+02  0.00000000000E+00 0.  1.
          2   -1    0    0  501    0  0.00000000000E+00 -0.00000000000E+00 -0.71499108305E+03  0.71499108305E+03  0.00000000000E+00 0. -1.
         25    2    1    2    0    0  0.48067746733E+02 -0.96332525295E+02 -0.27250987871E+03  0.31858876753E+03  0.12508679024E+03 0.  0.
         23    2    1    2    0    0 -0.48067746733E+02  0.96332525295E+02 -0.40518370069E+03  0.43369981916E+03  0.11104610815E+03 0.  0.
          5    1    3    3  502    0  0.70653152380E+02 -0.34585887332E+02 -0.69137194215E+02  0.10481161943E+03  0.41800000000E+01 0. -1.
         -5    1    3    3    0  502 -0.22585405647E+02 -0.61746637962E+02 -0.20337268450E+03  0.21377714810E+03  0.41800000000E+01 0. -1.
        -11    1    4    4    0    0  0.33443697524E+02  0.39608334117E+02 -0.18561784344E+03  0.19272074314E+03  0.00000000000E+00 0. -1.
         11    1    4    4    0    0 -0.81511444257E+02  0.56724191178E+02 -0.21956585725E+03  0.24097907602E+03  0.00000000000E+00 0.  1.
</event>
<event>
 8    1  0.7102339E-009  0.1185289E+03  0.7561462E-02  0.1245544E+00
          1   -1    0    0  501    0  0.00000000000E+00  0.00000000000E+00  0.12763745351E+03  0.12763745351E+03  0.00000000000E+00 0. -1.
         -1   -1    0    0    0  501 -0.00000000000E+00 -0.00000000000E+00 -0.16332019401E+03  0.16332019401E+03  0.00000000000E+00 0.  1.
         25    2    1    2    0    0 -0.42279816717E+02  0.79673500153E+02  0.12167833529E+02  0.15469417349E+03  0.12508709611E+03 0.  0.
         23    2    1    2    0    0  0.42279816717E+02 -0.79673500153E+02 -0.47850574023E+02  0.13626347403E+03  0.90236397268E+02 0.  0.
          5    1    3    3  502    0 -0.42192859876E+02  0.78192744946E+01 -0.45339389448E+02  0.62566054004E+02  0.41800000000E+01 0. -1.
         -5    1    3    3    0  502 -0.86956840449E-01  0.71854225658E+02  0.57507222976E+02  0.92128119491E+02  0.41800000000E+01 0. -1.
        -11    1    4    4    0    0  0.63183713405E+02 -0.34030079694E+02 -0.47497827358E+02  0.86059697696E+02  0.00000000000E+00 0.  1.
         11    1    4    4    0    0 -0.20903896689E+02 -0.45643420459E+02 -0.35274666505E+00  0.50203776334E+02  0.00000000000E+00 0. -1.
</event>
<event>
 8    1  0.7102339E-009  0.1330195E+03  0.7561462E-02  0.1223043E+00
          2   -1    0    0  501    0  0.00000000000E+00  0.00000000000E+00  0.10287226267E+03  0.10287226267E+03  0.00000000000E+00 0. -1.
         -2   -1    0    0    0  501 -0.00000000000E+00 -0.00000000000E+00 -0.29889490085E+03  0.29889490085E+03  0.00000000000E+00 0.  1.
         25    2    1    2    0    0 -0.33546833439E+02  0.10553348528E+03 -0.14334981462E+02  0.16767839293E+03  0.12509134747E+03 0.  0.
         23    2    1    2    0    0  0.33546833439E+02 -0.10553348528E+03 -0.18168765672E+03  0.23408877060E+03  0.97593244460E+02 0.  0.
          5    1    3    3  502    0 -0.45993572171E+02  0.11566163014E+03 -0.45323642989E+02  0.13253198249E+03  0.41800000000E+01 0. -1.
         -5    1    3    3    0  502  0.12446738732E+02 -0.10128144861E+02  0.30988661527E+02  0.35146410437E+02  0.41800000000E+01 0. -1.
        -11    1    4    4    0    0  0.48000809252E+02 -0.96747521463E+02 -0.89220708627E+02  0.14008745642E+03  0.00000000000E+00 0. -1.
         11    1    4    4    0    0 -0.14453975813E+02 -0.87859638202E+01 -0.92466948094E+02  0.94001314176E+02  0.00000000000E+00 0.  1.
</event>
<event>
 8    1  0.7102339E-009  0.1955357E+03  0.7561462E-02  0.1153561E+00
         -2   -1    0    0    0  501 -0.00000000000E+00  0.00000000000E+00  0.42593656047E+02  0.42593656047E+02  0.00000000000E+00 0.  1.
          2   -1    0    0  501    0  0.00000000000E+00 -0.00000000000E+00 -0.11723192746E+04  0.11723192746E+04  0.00000000000E+00 0. -1.
         25    2    1    2    0    0  0.18354581593E+03 -0.47499287553E+02 -0.43992249660E+03  0.49510070539E+03  0.12509059355E+03 0.  0.
         23    2    1    2    0    0 -0.18354581593E+03  0.47499287553E+02 -0.68980312192E+03  0.71981222523E+03  0.79724799859E+02 0.  0.
          5    1    3    3  502    0  0.86844171939E+02 -0.41250857510E+02 -0.89209490955E+02  0.13122251759E+03  0.41800000000E+01 0.  1.
         -5    1    3    3    0  502  0.96701643993E+02 -0.62484300429E+01 -0.35071300565E+03  0.36387818780E+03  0.41800000000E+01 0.  1.
        -11    1    4    4    0    0 -0.11457953689E+03  0.85085011421E+00 -0.49263378948E+03  0.50578379250E+03  0.00000000000E+00 0.  1.
         11    1    4    4    0    0 -0.68966279044E+02  0.46648437439E+02 -0.19716933244E+03  0.21402843273E+03  0.00000000000E+00 0. -1.
</event>
<event>
 8    1  0.7102339E-009  0.1030308E+03  0.7561462E-02  0.1274049E+00
          2   -1    0    0  501    0  0.00000000000E+00  0.00000000000E+00  0.30511971946E+03  0.30511971946E+03  0.00000000000E+00 0. -1.
         -2   -1    0    0    0  501 -0.00000000000E+00 -0.00000000000E+00 -0.44828702554E+02  0.44828702554E+02  0.00000000000E+00 0.  1.
         25    2    1    2    0    0 -0.29314536846E+02  0.15056200342E+02  0.11815387240E+03  0.17519980571E+03  0.12509437685E+03 0.  0.
         23    2    1    2    0    0  0.29314536846E+02 -0.15056200342E+02  0.14213714450E+03  0.17474861630E+03  0.96166937209E+02 0.  0.
          5    1    3    3  502    0  0.16249791332E+02 -0.36579089731E+02  0.22375876640E+01  0.40305889427E+02  0.41800000000E+01 0. -1.
         -5    1    3    3    0  502 -0.45564328179E+02  0.51635290074E+02  0.11591628474E+03  0.13489391629E+03  0.41800000000E+01 0. -1.
        -11    1    4    4    0    0  0.41449644786E+02 -0.46993581215E+02  0.64498196899E+02  0.89924897172E+02  0.00000000000E+00 0.  1.
         11    1    4    4    0    0 -0.12135107939E+02  0.31937380872E+02  0.77638947601E+02  0.84823719126E+02  0.00000000000E+00 0. -1.
</event>
<event>
 8    1  0.7102339E-009  0.2181893E+03  0.7561462E-02  0.1135240E+00
         -1   -1    0    0    0  501 -0.00000000000E+00  0.00000000000E+00  0.17771406248E+03  0.17771406248E+03  0.00000000000E+00 0.  1.
          1   -1    0    0  501    0  0.00000000000E+00 -0.00000000000E+00 -0.42610057067E+03  0.42610057067E+03  0.00000000000E+00 0. -1.
         25    2    1    2    0    0 -0.17357909603E+03 -0.10843109303E+03  0.35358563061E+02  0.24244983592E+03  0.12507873696E+03 0.  0.
         23    2    1    2    0    0  0.17357909603E+03  0.10843109303E+03 -0.28374507125E+03  0.36136479723E+03  0.90477879660E+02 0.  0.
          5    1    3    3  502    0 -0.59965398346E+02 -0.70897663599E+02 -0.39773183399E+02  0.10110245408E+03  0.41800000000E+01 0.  1.
         -5    1    3    3    0  502 -0.11361369768E+03 -0.37533429433E+02  0.75131746460E+02  0.14134738184E+03  0.41800000000E+01 0.  1.
        -11    1    4    4    0    0  0.14235071738E+03  0.39038728933E+02 -0.18296522950E+03  0.23508301577E+03  0.00000000000E+00 0. -1.
         11    1    4    4    0    0  0.31228378652E+02  0.69392364099E+02 -0.10077984174E+03  0.12628178147E+03  0.00000000000E+00 0.  1.
</event>
<event>
 8    1  0.7102339E-009  0.1479195E+03  0.7561462E-02  0.1203053E+00
         -1   -1    0    0    0  501 -0.00000000000E+00  0.00000000000E+00  0.14807491452E+03  0.14807491452E+03  0.00000000000E+00 0.  1.
          1   -1    0    0  501    0  0.00000000000E+00 -0.00000000000E+00 -0.32311756637E+03  0.32311756637E+03  0.00000000000E+00 0. -1.
         25    2    1    2    0    0  0.51181051549E+02  0.10964448798E+03  0.72857328072E+02  0.18867233099E+03  0.12509054500E+03 0.  0.
         23    2    1    2    0    0 -0.51181051549E+02 -0.10964448798E+03 -0.24789997993E+03  0.28252014990E+03  0.61006731340E+02 0.  0.
          5    1    3    3  502    0 -0.20111283998E+02 -0.87373840267E+01 -0.13092957299E+02  0.25878631234E+02  0.41800000000E+01 0. -1.
         -5    1    3    3    0  502  0.71292335547E+02  0.11838187200E+03  0.85950285371E+02  0.16279369976E+03  0.41800000000E+01 0. -1.
        -11    1    4    4    0    0 -0.76982477686E+01 -0.84866970090E+02 -0.16432259243E+03  0.18510424094E+03  0.00000000000E+00 0.  1.
         11    1    4    4    0    0 -0.43482803780E+02 -0.24777517886E+02 -0.83577387502E+02  0.97415908962E+02  0.00000000000E+00 0. -1.
</event>
<event>
 8    1  0.7102339E-009  0.1562631E+03  0.7561462E-02  0.1192981E+00
         -1   -1    0    0    0  501 -0.00000000000E+00  0.00000000000E+00  0.70722040675E+02  0.70722040675E+02  0.00000000000E+00 0.  1.
          1   -1    0    0  501    0  0.00000000000E+00 -0.00000000000E+00 -0.37137852856E+03  0.37137852856E+03  0.00000000000E+00 0. -1.
         25    2    1    2    0    0  0.21358128925E+02  0.11938331925E+03 -0.16225150912E+03  0.23807839061E+03  0.12508885352E+03 0.  0.
         23    2    1    2    0    0 -0.21358128925E+02 -0.11938331925E+03 -0.13840497876E+03  0.20402217863E+03  0.88094066995E+02 0.  0.
          5    1    3    3  502    0 -0.40439929669E+02  0.83411970929E+02 -0.51337788209E+02  0.10604709192E+03  0.41800000000E+01 0. -1.
         -5    1    3    3    0  502  0.61798058595E+02  0.35971348322E+02 -0.11091372091E+03  0.13203129869E+03  0.41800000000E+01 0. -1.
        -11    1    4    4    0    0 -0.52887844046E+02 -0.54361250964E+02 -0.86548705311E+02  0.11507800852E+03  0.00000000000E+00 0. -1.
         11    1    4    4    0    0  0.31529715120E+02 -0.65022068287E+02 -0.51856273448E+02  0.88944170106E+02  0.00000000000E+00 0.  1.
</event>
<event>
 8    1  0.7102339E-009  0.1259861E+03  0.7561462E-02  0.1233536E+00
          2   -1    0    0  501    0  0.00000000000E+00  0.00000000000E+00  0.15699164657E+03  0.15699164657E+03  0.00000000000E+00 0.  1.
         -2   -1    0    0    0  501 -0.00000000000E+00 -0.00000000000E+00 -0.12860117546E+03  0.12860117546E+03  0.00000000000E+00 0. -1.
         25    2    1    2    0    0 -0.48702286515E+02 -0.47002985825E+02 -0.43202421206E+02  0.14864837876E+03  0.12509475577E+03 0.  0.
         23    2    1    2    0    0  0.48702286515E+02  0.47002985825E+02  0.71592892311E+02  0.13694444327E+03  0.95115955150E+02 0.  0.
          5    1    3    3  502    0 -0.71555138790E+02  0.11666199047E+02 -0.80201742996E+00  0.72624745917E+02  0.41800000000E+01 0.  1.
         -5    1    3    3    0  502  0.22852852275E+02 -0.58669184872E+02 -0.42400403776E+02  0.76023632845E+02  0.41800000000E+01 0.  1.
        -11    1    4    4    0    0  0.73825295209E+02  0.52428866041E+02  0.60806547317E+02  0.10907060284E+03  0.00000000000E+00 0. -1.
         11    1    4    4    0    0 -0.25123008693E+02 -0.54258802158E+01  0.10786344994E+02  0.27873840428E+02  0.00000000000E+00 0.  1.
</event>
<event>
 8    1  0.7102339E-009  0.1217892E+03  0.7561462E-02  0.1240174E+00
          2   -1    0    0  501    0  0.00000000000E+00  0.00000000000E+00  0.47184114579E+03  0.47184114579E+03  0.00000000000E+00 0. -1.
         -2   -1    0    0    0  501 -0.00000000000E+00 -0.00000000000E+00 -0.35069370747E+02  0.35069370747E+02  0.00000000000E+00 0.  1.
         25    2    1    2    0    0 -0.12150339604E+02 -0.66944537617E+02  0.27085942159E+03  0.30600864520E+03  0.12508901952E+03 0.  0.
         23    2    1    2    0    0  0.12150339604E+02  0.66944537617E+02  0.16591235346E+03  0.20090187134E+03  0.90583944544E+02 0.  0.
          5    1    3    3  502    0 -0.21374971582E+02  0.27723523827E+02  0.27577154353E+02  0.44759971244E+02  0.41800000000E+01 0. -1.
         -5    1    3    3    0  502  0.92246319782E+01 -0.94668061444E+02  0.24328226723E+03  0.26124867395E+03  0.41800000000E+01 0. -1.
        -11    1    4    4    0    0 -0.35875813832E+02  0.51309027303E+02  0.97359341894E+02  0.11575202700E+03  0.00000000000E+00 0.  1.
         11    1    4    4    0    0  0.48026153435E+02  0.15635510313E+02  0.68553011567E+02  0.85149844342E+02  0.00000000000E+00 0. -1.
</event>
<event>
 8    1  0.7102339E-009  0.1960732E+03  0.7561462E-02  0.1153095E+00
          2   -1    0    0  501    0  0.00000000000E+00  0.00000000000E+00  0.66623148027E+03  0.66623148027E+03  0.00000000000E+00 0.  1.
         -2   -1    0    0    0  501 -0.00000000000E+00 -0.00000000000E+00 -0.77681996670E+02  0.77681996670E+02  0.00000000000E+00 0. -1.
         25    2    1    2    0    0  0.14267531513E+03  0.93176116263E+02  0.47197540545E+03  0.51715502504E+03  0.12510196794E+03 0.  0.
         23    2    1    2    0    0 -0.14267531513E+03 -0.93176116263E+02  0.11657407815E+03  0.22675845190E+03  0.93764842158E+02 0.  0.
          5    1    3    3  502    0  0.16414068291E+03  0.93693324116E+02  0.43280756718E+03  0.47229277507E+03  0.41800000000E+01 0.  1.
         -5    1    3    3    0  502 -0.21465367781E+02 -0.51720785217E+00  0.39167838271E+02  0.44862249974E+02  0.41800000000E+01 0.  1.
        -11    1    4    4    0    0  0.48738521856E+01 -0.11704654340E+02  0.39386667130E+02  0.41377082014E+02  0.00000000000E+00 0.  1.
         11    1    4    4    0    0 -0.14754916731E+03 -0.81471461924E+02  0.77187411020E+02  0.18538136989E+03  0.00000000000E+00 0. -1.
</event>
<event>
 8    1  0.7102339E-009  0.1246137E+03  0.7561462E-02  0.1235674E+00
          2   -1    0    0  501    0  0.00000000000E+00  0.00000000000E+00  0.28190558496E+03  0.28190558496E+03  0.00000000000E+00 0.  1.
         -2   -1    0    0    0  501 -0.00000000000E+00 -0.00000000000E+00 -0.73486157701E+02  0.73486157701E+02  0.00000000000E+00 0. -1.
         25    2    1    2    0    0 -0.71870329301E+01 -0.88956719028E+02  0.77989034022E+02  0.17231917180E+03  0.12508659497E+03 0.  0.
         23    2    1    2    0    0  0.71870329301E+01  0.88956719028E+02  0.13043039324E+03  0.18307257086E+03  0.92404152600E+02 0.  0.
          5    1    3    3  502    0  0.16097227134E+02 -0.11617323314E+03  0.63698238964E+02  0.13353006727E+03  0.41800000000E+01 0. -1.
         -5    1    3    3    0  502 -0.23284260064E+02  0.27216514108E+02  0.14290795058E+02  0.38789104531E+02  0.41800000000E+01 0. -1.
        -11    1    4    4    0    0  0.20818828997E+02  0.41439606412E+02  0.12501927974E+03  0.13334348475E+03  0.00000000000E+00 0.  1.
         11    1    4    4    0    0 -0.13631796067E+02  0.47517112616E+02  0.54111135007E+01  0.49729086104E+02  0.00000000000E+00 0. -1.
</event>
<event>
 8    1  0.7102339E-009  0.1025026E+03  0.7561462E-02  0.1275120E+00
          2   -1    0    0  501    0  0.00000000000E+00  0.00000000000E+00  0.12460593931E+04  0.12460593931E+04  0.00000000000E+00 0. -1.
         -2   -1    0    0    0  501 -0.00000000000E+00 -0.00000000000E+00 -0.15574192564E+02  0.15574192564E+02  0.00000000000E+00 0.  1.
         25    2    1    2    0    0 -0.35637204934E+02 -0.22445826604E+02  0.10491301605E+04  0.10574004655E+04  0.12509126753E+03 0.  0.
         23    2    1    2    0    0  0.35637204934E+02  0.22445826604E+02  0.18135504001E+03  0.20423312016E+03  0.83950529044E+02 0.  0.
          5    1    3    3  502    0 -0.76488261257E+02 -0.11022642877E+02  0.86248580409E+03  0.86595103062E+03  0.41800000000E+01 0.  1.
         -5    1    3    3    0  502  0.40851056323E+02 -0.11423183726E+02  0.18664435642E+03  0.19144943488E+03  0.41800000000E+01 0.  1.
        -11    1    4    4    0    0 -0.88967150632E+00  0.43045742517E+02  0.13511730512E+03  0.14181119000E+03  0.00000000000E+00 0. -1.
         11    1    4    4    0    0  0.36526876440E+02 -0.20599915914E+02  0.46237734882E+02  0.62421930162E+02  0.00000000000E+00 0.  1.
</event>
<event>
 8    1  0.7102339E-009  0.8842733E+02  0.7561462E-02  0.1306705E+00
          2   -1    0    0  501    0  0.00000000000E+00  0.00000000000E+00  0.15772859384E+03  0.15772859384E+03  0.00000000000E+00 0.  1.
         -2   -1    0    0    0  501 -0.00000000000E+00 -0.00000000000E+00 -0.11930783966E+03  0.11930783966E+03  0.00000000000E+00 0. -1.
         25    2    1    2    0    0 -0.50426876606E+02 -0.34309523600E+01  0.83057691335E+02  0.15843306644E+03  0.12509122725E+03 0.  0.
         23    2    1    2    0    0  0.50426876606E+02  0.34309523600E+01 -0.44636937161E+02  0.11860336705E+03  0.97568751141E+02 0.  0.
          5    1    3    3  502    0  0.31481728683E+02 -0.26223851875E+02  0.55190788325E+02  0.68864251713E+02  0.41800000000E+01 0.  1.
         -5    1    3    3    0  502 -0.81908605288E+02  0.22792899515E+02  0.27866903010E+02  0.89568814729E+02  0.41800000000E+01 0.  1.
        -11    1    4    4    0    0  0.39934537971E+02  0.28999776843E+01 -0.75795546426E+02  0.85721304537E+02  0.00000000000E+00 0. -1.
         11    1    4    4    0    0  0.10492338635E+02  0.53097467568E+00  0.31158609265E+02  0.32882062518E+02  0.00000000000E+00 0.  1.
</event>
<event>
 8    1  0.7102339E-009  0.1069096E+03  0.7561462E-02  0.1266402E+00
          1   -1    0    0  501    0  0.00000000000E+00  0.00000000000E+00  0.33038863834E+03  0.33038863834E+03  0.00000000000E+00 0. -1.
         -1   -1    0    0    0  501 -0.00000000000E+00 -0.00000000000E+00 -0.46945340226E+02  0.46945340226E+02  0.00000000000E+00 0.  1.
         25    2    1    2    0    0 -0.14318272473E+02  0.51812809742E+02  0.20396780494E+03  0.24523415466E+03  0.12508934798E+03 0.  0.
         23    2    1    2    0    0  0.14318272473E+02 -0.51812809742E+02  0.79475493172E+02  0.13209982391E+03  0.90798839653E+02 0.  0.
          5    1    3    3  502    0  0.38451822622E+02  0.42760916123E+02  0.33893998094E+02  0.66882838736E+02  0.41800000000E+01 0.  1.
         -5    1    3    3    0  502 -0.52770095095E+02  0.90518936192E+01  0.17007380685E+03  0.17835131592E+03  0.41800000000E+01 0.  1.
        -11    1    4    4    0    0  0.25646284590E+02 -0.73578363474E+02  0.72881714321E+02  0.10669232291E+03  0.00000000000E+00 0. -1.
         11    1    4    4    0    0 -0.11328012117E+02  0.21765553731E+02  0.65937788505E+01  0.25407501004E+02  0.00000000000E+00 0.  1.
</event>
<event>
 8    1  0.7102339E-009  0.9587899E+02  0.7561462E-02  0.1289209E+00
          1   -1    0    0  501    0  0.00000000000E+00  0.00000000000E+00  0.16371314023E+03  0.16371314023E+03  0.00000000000E+00 0. -1.
         -1   -1    0    0    0  501 -0.00000000000E+00 -0.00000000000E+00 -0.79724252969E+02  0.79724252969E+02  0.00000000000E+00 0.  1.
         25    2    1    2    0    0 -0.22061705302E+02 -0.13298831887E+02  0.74933294766E+02  0.14807349010E+03  0.12508869667E+03 0.  0.
         23    2    1    2    0    0  0.22061705302E+02  0.13298831887E+02  0.90555924916E+01  0.95363903097E+02  0.91371179746E+02 0.  0.
          5    1    3    3  502    0 -0.28667811819E+01 -0.57409673988E+02 -0.15140971954E+01  0.57652874968E+02  0.41800000000E+01 0.  1.
         -5    1    3    3    0  502 -0.19194924120E+02  0.44110842101E+02  0.76447391961E+02  0.90420615130E+02  0.41800000000E+01 0.  1.
        -11    1    4    4    0    0  0.45964743702E+02 -0.15411159429E+02  0.25233554929E+02  0.54653396901E+02  0.00000000000E+00 0. -1.
         11    1    4    4    0    0 -0.23903038400E+02  0.28709991316E+02 -0.16177962437E+02  0.40710506196E+02  0.00000000000E+00 0.  1.
</event>
<event>
 8    1  0.7102339E-009  0.9912416E+02  0.7561462E-02  0.1282149E+00
          1   -1    0    0  501    0  0.00000000000E+00  0.00000000000E+00  0.67026004054E+02  0.67026004054E+02  0.00000000000E+00 0. -1.
         -1   -1    0    0    0  501 -0.00000000000E+00 -0.00000000000E+00 -0.23492569188E+03  0.23492569188E+03  0.00000000000E+00 0.  1.
         25    2    1    2    0    0  0.52170178506E+02 -0.33042827404E+02 -0.12148601335E+03  0.18498609183E+03  0.12508975483E+03 0.  0.
         23    2    1    2    0    0 -0.52170178506E+02  0.33042827404E+02 -0.46413674476E+02  0.11696560410E+03  0.87824640028E+02 0.  0.
          5    1    3    3  502    0  0.83463198692E+02  0.86823033849E+01 -0.55161887748E+02  0.10050768223E+03  0.41800000000E+01 0.  1.
         -5    1    3    3    0  502 -0.31293020186E+02 -0.41725130789E+02 -0.66324125602E+02  0.84478409600E+02  0.41800000000E+01 0.  1.
        -11    1    4    4    0    0 -0.39088056383E+02  0.26936178289E+02 -0.72787332860E+02  0.86898962465E+02  0.00000000000E+00 0.  1.
         11    1    4    4    0    0 -0.13082122123E+02  0.61066491153E+01  0.26373658384E+02  0.30066641635E+02  0.00000000000E+00 0. -1.
</event>
<event>
 8    1  0.7102339E-009  0.1195404E+03  0.7561462E-02  0.1243857E+00
          1   -1    0    0  501    0  0.00000000000E+00  0.00000000000E+00  0.13138187418E+03  0.13138187418E+03  0.00000000000E+00 0. -1.
         -1   -1    0    0    0  501 -0.00000000000E+00 -0.00000000000E+00 -0.14638705756E+03  0.14638705756E+03  0.00000000000E+00 0.  1.
         25    2    1    2    0    0 -0.51677441697E+02  0.50966257045E+02  0.38603326119E+02  0.14968444236E+03  0.12508836140E+03 0.  0.
         23    2    1    2    0    0  0.51677441697E+02 -0.50966257045E+02 -0.53608509493E+02  0.12808448938E+03  0.90904602705E+02 0.  0.
          5    1    3    3  502    0  0.32672361892E+02  0.10421258478E+01 -0.16826552314E+02  0.37002358312E+02  0.41800000000E+01 0.  1.
         -5    1    3    3    0  502 -0.84349803589E+02  0.49924131197E+02  0.55429878433E+02  0.11268208404E+03  0.41800000000E+01 0.  1.
        -11    1    4    4    0    0 -0.13567202037E+02 -0.39512960241E+02 -0.44804022857E+02  0.61259639750E+02  0.00000000000E+00 0.  1.
         11    1    4    4    0    0  0.65244643734E+02 -0.11453296804E+02 -0.88044866363E+01  0.66824849633E+02  0.00000000000E+00 0. -1.
</event>
<event>
 8    1  0.7102339E-009  0.9181395E+02  0.7561462E-02  0.1298517E+00
          1   -1    0    0  501    0  0.00000000000E+00  0.00000000000E+00  0.31429874897E+03  0.31429874897E+03  0.00000000000E+00 0. -1.
         -1   -1    0    0    0  501 -0.00000000000E+00 -0.00000000000E+00 -0.58554829712E+02  0.58554829712E+02  0.00000000000E+00 0.  1.
         25    2    1    2    0    0 -0.14573858885E+02  0.80413221830E+02  0.14244037607E+03  0.20644309480E+03  0.12510318560E+03 0.  0.
         23    2    1    2    0    0  0.14573858885E+02 -0.80413221830E+02  0.11330354319E+03  0.16641048389E+03  0.90421638115E+02 0.  0.
          5    1    3    3  502    0  0.16349105973E+02  0.18027242862E+02  0.13391127950E+03  0.13616893158E+03  0.41800000000E+01 0.  1.
         -5    1    3    3    0  502 -0.30922964858E+02  0.62385978968E+02  0.85290965687E+01  0.70274163216E+02  0.41800000000E+01 0.  1.
        -11    1    4    4    0    0  0.21723338230E+02 -0.24223299614E+02 -0.71409700890E+01  0.33311636434E+02  0.00000000000E+00 0.  1.
         11    1    4    4    0    0 -0.71494793455E+01 -0.56189922215E+02  0.12044451328E+03  0.13309884745E+03  0.00000000000E+00 0. -1.
</event>
<event>
 8    1  0.7102339E-009  0.1092688E+03  0.7561462E-02  0.1261930E+00
          1   -1    0    0  501    0  0.00000000000E+00  0.00000000000E+00  0.65833203507E+03  0.65833203507E+03  0.00000000000E+00 0. -1.
         -1   -1    0    0    0  501 -0.00000000000E+00 -0.00000000000E+00 -0.39262990122E+02  0.39262990122E+02  0.00000000000E+00 0.  1.
         25    2    1    2    0    0 -0.48829121817E+02 -0.78266856009E+02  0.49185616656E+03  0.51582733840E+03  0.12508145573E+03 0.  0.
         23    2    1    2    0    0  0.48829121817E+02  0.78266856009E+02  0.12721287838E+03  0.18176768679E+03  0.91358588255E+02 0.  0.
          5    1    3    3  502    0 -0.62217911749E+02 -0.67393902903E+02  0.16773848128E+03  0.19122415431E+03  0.41800000000E+01 0. -1.
         -5    1    3    3    0  502  0.13388789932E+02 -0.10872953106E+02  0.32411768528E+03  0.32460318409E+03  0.41800000000E+01 0. -1.
        -11    1    4    4    0    0  0.61339093782E+02  0.54223477633E+02  0.13092128812E+03  0.15441196079E+03  0.00000000000E+00 0. -1.
         11    1    4    4    0    0 -0.12509971965E+02  0.24043378375E+02 -0.37084097353E+01  0.27355726001E+02  0.00000000000E+00 0.  1.
</event>
<event>
 7    1  0.7102339E-009  0.8869068E+02  0.7561462E-02  0.1306054E+00
         -1   -1    0    0    0  501 -0.00000000000E+00  0.00000000000E+00  0.58739848705E+02  0.58739848705E+02  0.00000000000E+00 0.  1.
          1   -1    0    0  501    0  0.00000000000E+00 -0.00000000000E+00 -0.31464464669E+03  0.31464464669E+03  0.00000000000E+00 0. -1.
         23    2    1    2    0    0  0.27728733168E+02 -0.36083055524E+02 -0.22479091533E+02  0.10484896248E+03  0.91744895434E+02 0.  0.
          5    1    1    2  502    0  0.23421873882E+02 -0.30415501498E+01 -0.18822383291E+03  0.18974593244E+03  0.41800000000E+01 0. -1.
         -5    1    1    2    0  502 -0.51150607050E+02  0.39124605673E+02 -0.45201873545E+02  0.78789600473E+02  0.41800000000E+01 0. -1.
        -11    1    3    3    0    0 -0.26690797434E+02 -0.98567476031E+01  0.16561903762E+02  0.32921889332E+02  0.00000000000E+00 0.  1.
         11    1    3    3    0    0  0.54419530602E+02 -0.26226307921E+02 -0.39040995296E+02  0.71927073149E+02  0.00000000000E+00 0. -1.
</event>
<event>
 8    1  0.7102339E-009  0.1108226E+03  0.7561462E-02  0.1259054E+00
          2   -1    0    0  501    0  0.00000000000E+00  0.00000000000E+00  0.10808203882E+04  0.10808203882E+04  0.00000000000E+00 0. -1.
         -2   -1    0    0    0  501 -0.00000000000E+00 -0.00000000000E+00 -0.11794187149E+02  0.11794187149E+02  0.00000000000E+00 0.  1.
         25    2    1    2    0    0  0.10211972348E+02 -0.29912983519E+02  0.61514529807E+03  0.62853076048E+03  0.12509239856E+03 0.  0.
         23    2    1    2    0    0 -0.10211972348E+02  0.29912983519E+02  0.45388090296E+03  0.46408381484E+03  0.91470444213E+02 0.  0.
          5    1    3    3  502    0 -0.53436810384E+02  0.30477162191E+01  0.19320772648E+03  0.20052800116E+03  0.41800000000E+01 0. -1.
         -5    1    3    3    0  502  0.63648782732E+02 -0.32960699738E+02  0.42193757159E+03  0.42800275932E+03  0.41800000000E+01 0. -1.
        -11    1    4    4    0    0  0.11354289294E+02 -0.30216794228E+02  0.17805142866E+03  0.18095382225E+03  0.00000000000E+00 0.  1.
         11    1    4    4    0    0 -0.21566261643E+02  0.60129777747E+02  0.27582947430E+03  0.28312999260E+03  0.00000000000E+00 0. -1.
</event>
<event>
 8    1  0.7102339E-009  0.8807125E+02  0.7561462E-02  0.1307591E+00
          2   -1    0    0  501    0  0.00000000000E+00  0.00000000000E+00  0.50530796519E+03  0.50530796519E+03  0.00000000000E+00 0.  1.
         -2   -1    0    0    0  501 -0.00000000000E+00 -0.00000000000E+00 -0.26708595334E+02  0.26708595334E+02  0.00000000000E+00 0. -1.
         25    2    1    2    0    0 -0.40351411973E+02 -0.98792684441E+01  0.26766444879E+03  0.29835861705E+03  0.12509105014E+03 0.  0.
         23    2    1    2    0    0  0.40351411973E+02  0.98792684441E+01  0.21093492106E+03  0.23365794347E+03  0.91524080069E+02 0.  0.
          5    1    3    3  502    0  0.16747128513E+02 -0.64272218296E+01  0.22772190021E+03  0.22846555918E+03  0.41800000000E+01 0. -1.
         -5    1    3    3    0  502 -0.57098540485E+02 -0.34520466145E+01  0.39942548581E+02  0.69893057871E+02  0.41800000000E+01 0. -1.
        -11    1    4    4    0    0  0.26478209530E+02 -0.40348108588E+02  0.10765352702E+03  0.11797604556E+03  0.00000000000E+00 0.  1.
         11    1    4    4    0    0  0.13873202442E+02  0.50227377032E+02  0.10328139404E+03  0.11568189791E+03  0.00000000000E+00 0. -1.
</event>
<event>
 8    1  0.7102339E-009  0.1074516E+03  0.7561462E-02  0.1265363E+00
         -2   -1    0    0    0  501 -0.00000000000E+00  0.00000000000E+00  0.44966491909E+02  0.44966491909E+02  0.00000000000E+00 0.  1.
          2   -1    0    0  501    0  0.00000000000E+00 -0.00000000000E+00 -0.33057058279E+03  0.33057058279E+03  0.00000000000E+00 0. -1.
         25    2    1    2    0    0 -0.21192751496E+02 -0.46474646100E+02 -0.18365741371E+03  0.22800797843E+03  0.12509423316E+03 0.  0.
         23    2    1    2    0    0  0.21192751496E+02  0.46474646100E+02 -0.10194667717E+03  0.14752909627E+03  0.93609207958E+02 0.  0.
          5    1    3    3  502    0  0.35039320167E+02 -0.38366428644E+02 -0.21950385863E+02  0.56559956190E+02  0.41800000000E+01 0.  1.
         -5    1    3    3    0  502 -0.56232071663E+02 -0.81082174559E+01 -0.16170702785E+03  0.17144802224E+03  0.41800000000E+01 0.  1.
        -11    1    4    4    0    0 -0.10412460816E+02  0.67208304382E+02 -0.56498334467E+02  0.88416272913E+02  0.00000000000E+00 0. -1.
         11    1    4    4    0    0  0.31605212311E+02 -0.20733658282E+02 -0.45448342700E+02  0.59112823356E+02  0.00000000000E+00 0.  1.
</event>
<event>
 8    1  0.7102339E-009  0.1465999E+03  0.7561462E-02  0.1204714E+00
          1   -1    0    0  501    0  0.00000000000E+00  0.00000000000E+00  0.80483745003E+02  0.80483745003E+02  0.00000000000E+00 0. -1.
         -1   -1    0    0    0  501 -0.00000000000E+00 -0.00000000000E+00 -0.28781870300E+03  0.28781870300E+03  0.00000000000E+00 0.  1.
         25    2    1    2    0    0 -0.95958434874E+02 -0.20540217132E+02 -0.69439907699E+02  0.17349578734E+03  0.12509582608E+03 0.  0.
         23    2    1    2    0    0  0.95958434874E+02  0.20540217132E+02 -0.13789505029E+03  0.19480666065E+03  0.96460709080E+02 0.  0.
          5    1    3    3  502    0  0.22290862327E+02  0.23021081133E+02 -0.82880671150E+01  0.33361912061E+02  0.41800000000E+01 0.  1.
         -5    1    3    3    0  502 -0.11824929720E+03 -0.43561298265E+02 -0.61151840584E+02  0.14013387528E+03  0.41800000000E+01 0.  1.
        -11    1    4    4    0    0 -0.14748286908E+02 -0.12426795886E+02 -0.77259752308E+01  0.20775656813E+02  0.00000000000E+00 0. -1.
         11    1    4    4    0    0  0.11070672178E+03  0.32967013018E+02 -0.13016907506E+03  0.17403100384E+03  0.00000000000E+00 0.  1.
</event>
<event>
 8    1  0.7102339E-009  0.1375858E+03  0.7561462E-02  0.1216615E+00
         -2   -1    0    0    0  501 -0.00000000000E+00  0.00000000000E+00  0.22093881172E+03  0.22093881172E+03  0.00000000000E+00 0.  1.
          2   -1    0    0  501    0  0.00000000000E+00 -0.00000000000E+00 -0.11357591875E+03  0.11357591875E+03  0.00000000000E+00 0. -1.
         25    2    1    2    0    0 -0.75336126394E+02  0.68662047265E+02  0.25984586551E+01  0.16138069704E+03  0.12508784400E+03 0.  0.
         23    2    1    2    0    0  0.75336126394E+02 -0.68662047265E+02  0.10476443432E+03  0.17313403343E+03  0.92788998046E+02 0.  0.
          5    1    3    3  502    0  0.13895921795E+02  0.70014323338E+02 -0.52607957837E+01  0.71695540219E+02  0.41800000000E+01 0.  1.
         -5    1    3    3    0  502 -0.89232048189E+02 -0.13522760726E+01  0.78592544388E+01  0.89685156826E+02  0.41800000000E+01 0.  1.
        -11    1    4    4    0    0  0.16694627763E+02 -0.50118156373E+02  0.97907444932E+02  0.11124930547E+03  0.00000000000E+00 0.  1.
         11    1    4    4    0    0  0.58641498631E+02 -0.18543890892E+02  0.68569893873E+01  0.61884727959E+02  0.00000000000E+00 0. -1.
</event>
<event>
 8    1  0.7102339E-009  0.1724002E+03  0.7561462E-02  0.1175368E+00
          2   -1    0    0  501    0  0.00000000000E+00  0.00000000000E+00  0.76826966626E+03  0.76826966626E+03  0.00000000000E+00 0. -1.
         -2   -1    0    0    0  501 -0.00000000000E+00 -0.00000000000E+00 -0.45681058237E+02  0.45681058237E+02  0.00000000000E+00 0.  1.
         25    2    1    2    0    0 -0.89272036655E+02  0.11521512076E+03  0.28174341586E+03  0.34098428079E+03  0.12508759646E+03 0.  0.
         23    2    1    2    0    0  0.89272036655E+02 -0.11521512076E+03  0.44084519216E+03  0.47296644370E+03  0.90048613736E+02 0.  0.
          5    1    3    3  502    0  0.10230871697E+02  0.87348380760E+02  0.11610674856E+03  0.14571430890E+03  0.41800000000E+01 0. -1.
         -5    1    3    3    0  502 -0.99502908352E+02  0.27866740001E+02  0.16563666730E+03  0.19526997189E+03  0.41800000000E+01 0. -1.
        -11    1    4    4    0    0  0.65498984691E+02 -0.45684559827E+02  0.12235611018E+03  0.14611027924E+03  0.00000000000E+00 0.  1.
         11    1    4    4    0    0  0.23773051964E+02 -0.69530560934E+02  0.31848908198E+03  0.32685616446E+03  0.00000000000E+00 0. -1.
</event>
<event>
 8    1  0.7102339E-009  0.1411618E+03  0.7561462E-02  0.1211774E+00
         -1   -1    0    0    0  501 -0.00000000000E+00  0.00000000000E+00  0.28985448291E+02  0.28985448291E+02  0.00000000000E+00 0.  1.
          1   -1    0    0  501    0  0.00000000000E+00 -0.00000000000E+00 -0.89038285676E+03  0.89038285676E+03  0.00000000000E+00 0. -1.
         25    2    1    2    0    0 -0.89523956691E+02 -0.57795791877E+02 -0.60331708745E+03  0.62529493640E+03  0.12508939641E+03 0.  0.
         23    2    1    2    0    0  0.89523956691E+02  0.57795791877E+02 -0.25808032102E+03  0.29407336866E+03  0.92297354646E+02 0.  0.
          5    1    3    3  502    0 -0.34596959230E+02  0.29476476990E+02 -0.81874128248E+02  0.93737172776E+02  0.41800000000E+01 0. -1.
         -5    1    3    3    0  502 -0.54926997461E+02 -0.87272268867E+02 -0.52144295920E+03  0.53155776362E+03  0.41800000000E+01 0. -1.
        -11    1    4    4    0    0  0.88672832517E+02  0.14116007025E+02 -0.12428610064E+03  0.15332699597E+03  0.00000000000E+00 0.  1.
         11    1    4    4    0    0  0.85112417452E+00  0.43679784852E+02 -0.13379422039E+03  0.14074637269E+03  0.00000000000E+00 0. -1.
</event>
<event>
 8    1  0.7102339E-009  0.9237971E+02  0.7561462E-02  0.1297189E+00
          1   -1    0    0  501    0  0.00000000000E+00  0.00000000000E+00  0.26837023610E+03  0.26837023610E+03  0.00000000000E+00 0. -1.
         -1   -1    0    0    0  501 -0.00000000000E+00 -0.00000000000E+00 -0.52234003729E+02  0.52234003729E+02  0.00000000000E+00 0.  1.
         25    2    1    2    0    0  0.25888247819E+02  0.85807624730E+01  0.18047947518E+03  0.22127799167E+03  0.12508907937E+03 0.  0.
         23    2    1    2    0    0 -0.25888247819E+02 -0.85807624730E+01  0.35656757197E+02  0.99326248160E+02  0.88602868915E+02 0.  0.
          5    1    3    3  502    0  0.67241181593E+02  0.37769086886E+02  0.10966119711E+03  0.13413027614E+03  0.41800000000E+01 0.  1.
         -5    1    3    3    0  502 -0.41352933774E+02 -0.29188324413E+02  0.70818278071E+02  0.87147715533E+02  0.41800000000E+01 0.  1.
        -11    1    4    4    0    0 -0.16586712038E+02  0.20403433460E+02 -0.21896984786E+02  0.34218373075E+02  0.00000000000E+00 0.  1.
         11    1    4    4    0    0 -0.93015357805E+01 -0.28984195933E+02  0.57553741983E+02  0.65107875085E+02  0.00000000000E+00 0. -1.
</event>
<event>
 8    1  0.7102339E-009  0.1277628E+03  0.7561462E-02  0.1230814E+00
         -3   -1    0    0    0  501 -0.00000000000E+00  0.00000000000E+00  0.50606277146E+02  0.50606277146E+02  0.00000000000E+00 0.  1.
          3   -1    0    0  501    0  0.00000000000E+00 -0.00000000000E+00 -0.44854086347E+03  0.44854086347E+03  0.00000000000E+00 0. -1.
         25    2    1    2    0    0 -0.78931140145E+02 -0.51090374643E+02 -0.28822577367E+03  0.32796615184E+03  0.12508936360E+03 0.  0.
         23    2    1    2    0    0  0.78931140145E+02  0.51090374643E+02 -0.10970881266E+03  0.17118098878E+03  0.91796274851E+02 0.  0.
          5    1    3    3  502    0 -0.32873533881E+02  0.21319148774E+02 -0.16042385701E+02  0.42544163798E+02  0.41800000000E+01 0. -1.
         -5    1    3    3    0  502 -0.46057606264E+02 -0.72409523417E+02 -0.27218338796E+03  0.28542198805E+03  0.41800000000E+01 0. -1.
        -11    1    4    4    0    0  0.15756020259E+02 -0.26081523864E+02 -0.16398988942E+02  0.34603827820E+02  0.00000000000E+00 0.  1.
         11    1    4    4    0    0  0.63175119886E+02  0.77171898507E+02 -0.93309823721E+02  0.13657716096E+03  0.00000000000E+00 0. -1.
</event>
<event>
 8    1  0.7102339E-009  0.1757458E+03  0.7561462E-02  0.1171985E+00
          2   -1    0    0  501    0  0.00000000000E+00  0.00000000000E+00  0.42692599208E+02  0.42692599208E+02  0.00000000000E+00 0.  1.
         -2   -1    0    0    0  501 -0.00000000000E+00 -0.00000000000E+00 -0.84509022448E+03  0.84509022448E+03  0.00000000000E+00 0. -1.
         25    2    1    2    0    0 -0.13233701223E+03  0.67918576938E+02 -0.31489208965E+03  0.37004294686E+03  0.12509490996E+03 0.  0.
         23    2    1    2    0    0  0.13233701223E+03 -0.67918576938E+02 -0.48750553562E+03  0.51773987682E+03  0.90922576379E+02 0.  0.
          5    1    3    3  502    0 -0.10290473953E+03 -0.16558212010E+02 -0.18246686034E+03  0.21017894120E+03  0.41800000000E+01 0.  1.
         -5    1    3    3    0  502 -0.29432272699E+02  0.84476788948E+02 -0.13242522932E+03  0.15986400566E+03  0.41800000000E+01 0.  1.
        -11    1    4    4    0    0  0.69517668508E+02 -0.65848350135E+01 -0.33104715215E+03  0.33833161726E+03  0.00000000000E+00 0. -1.
         11    1    4    4    0    0  0.62819343723E+02 -0.61333741925E+02 -0.15645838346E+03  0.17940825957E+03  0.00000000000E+00 0.  1.
</event>
<event>
 8    1  0.7102339E-009  0.2213923E+03  0.7561462E-02  0.1132849E+00
         -1   -1    0    0    0  501 -0.00000000000E+00  0.00000000000E+00  0.10163593097E+03  0.10163593097E+03  0.00000000000E+00 0.  1.
          1   -1    0    0  501    0  0.00000000000E+00 -0.00000000000E+00 -0.56191600452E+03  0.56191600452E+03  0.00000000000E+00 0. -1.
         25    2    1    2    0    0  0.14928632406E+03 -0.15000703639E+03 -0.26068141376E+03  0.35831789307E+03  0.12509354699E+03 0.  0.
         23    2    1    2    0    0 -0.14928632406E+03  0.15000703639E+03 -0.19959865979E+03  0.30523404242E+03  0.92410378994E+02 0.  0.
          5    1    3    3  502    0  0.96933675534E+02 -0.12915163622E+03 -0.10490941760E+03  0.19261293023E+03  0.41800000000E+01 0. -1.
         -5    1    3    3    0  502  0.52352648527E+02 -0.20855400170E+02 -0.15577199616E+03  0.16570496284E+03  0.41800000000E+01 0. -1.
        -11    1    4    4    0    0 -0.13266196671E+03  0.84803638381E+02 -0.17002935583E+03  0.23173440905E+03  0.00000000000E+00 0. -1.
         11    1    4    4    0    0 -0.16624357354E+02  0.65203398008E+02 -0.29569303957E+02  0.73499633372E+02  0.00000000000E+00 0.  1.
</event>
<event>
 8    1  0.7102339E-009  0.6912877E+02  0.7561462E-02  0.1363081E+00
         -1   -1    0    0    0  501 -0.00000000000E+00  0.00000000000E+00  0.10994152653E+03  0.10994152653E+03  0.00000000000E+00 0.  1.
          1   -1    0    0  501    0  0.00000000000E+00 -0.00000000000E+00 -0.11816959329E+03  0.11816959329E+03  0.00000000000E+00 0. -1.
         25    2    1    2    0    0 -0.32395892752E+02 -0.24451634871E+01  0.11308948547E+02  0.12973246857E+03  0.12508856220E+03 0.  0.
         23    2    1    2    0    0  0.32395892752E+02  0.24451634871E+01 -0.19537015304E+02  0.98378651253E+02  0.90781007725E+02 0.  0.
          5    1    3    3  502    0 -0.20406008629E+02  0.12189014101E+02 -0.55313847080E+02  0.60349576069E+02  0.41800000000E+01 0.  1.
         -5    1    3    3    0  502 -0.11989884123E+02 -0.14634177588E+02  0.66622795627E+02  0.69382892503E+02  0.41800000000E+01 0.  1.
        -11    1    4    4    0    0  0.61869785587E+02  0.13400746476E+02 -0.21545364340E+02  0.66870420212E+02  0.00000000000E+00 0. -1.
         11    1    4    4    0    0 -0.29473892835E+02 -0.10955582989E+02  0.20083490363E+01  0.31508231041E+02  0.00000000000E+00 0.  1.
</event>
<event>
 8    1  0.7102339E-009  0.1549534E+03  0.7561462E-02  0.1194515E+00
          1   -1    0    0  501    0  0.00000000000E+00  0.00000000000E+00  0.65949415388E+03  0.65949415388E+03  0.00000000000E+00 0. -1.
         -1   -1    0    0    0  501 -0.00000000000E+00 -0.00000000000E+00 -0.49925843261E+02  0.49925843261E+02  0.00000000000E+00 0.  1.
         25    2    1    2    0    0 -0.10021205070E+03  0.76775715422E+02  0.46120365397E+03  0.49425979892E+03  0.12508786037E+03 0.  0.
         23    2    1    2    0    0  0.10021205070E+03 -0.76775715422E+02  0.14836465665E+03  0.21516019822E+03  0.91350281714E+02 0.  0.
          5    1    3    3  502    0  0.24616784026E+02  0.99435511064E+01  0.14924511415E+03  0.15164576078E+03  0.41800000000E+01 0.  1.
         -5    1    3    3    0  502 -0.12482883473E+03  0.66832164316E+02  0.31195853982E+03  0.34261403814E+03  0.41800000000E+01 0.  1.
        -11    1    4    4    0    0  0.51582903324E+02 -0.77076940212E+02  0.13662970090E+03  0.16513426596E+03  0.00000000000E+00 0.  1.
         11    1    4    4    0    0  0.48629147380E+02  0.30122478959E+00  0.11734955750E+02  0.50025932253E+02  0.00000000000E+00 0. -1.
</event>
<event>
 8    1  0.7102339E-009  0.9804487E+02  0.7561462E-02  0.1284462E+00
         -1   -1    0    0    0  501 -0.00000000000E+00  0.00000000000E+00  0.79387035637E+02  0.79387035637E+02  0.00000000000E+00 0.  1.
          1   -1    0    0  501    0  0.00000000000E+00 -0.00000000000E+00 -0.14114005688E+03  0.14114005688E+03  0.00000000000E+00 0. -1.
         25    2    1    2    0    0 -0.25830915857E+01  0.86143274050E+01 -0.14062551931E+02  0.12620159422E+03  0.12509279762E+03 0.  0.
         23    2    1    2    0    0  0.25830915857E+01 -0.86143274050E+01 -0.47690469309E+02  0.94325498297E+02  0.80882876849E+02 0.  0.
          5    1    3    3  502    0 -0.43168599336E+02  0.49246647304E+02  0.43009997026E+01  0.65762688797E+02  0.41800000000E+01 0. -1.
         -5    1    3    3    0  502  0.40585507751E+02 -0.40632319899E+02 -0.18363551633E+02  0.60438905420E+02  0.41800000000E+01 0. -1.
        -11    1    4    4    0    0 -0.14165462541E+02 -0.37171951005E+02 -0.46505199106E+02  0.61197612816E+02  0.00000000000E+00 0. -1.
         11    1    4    4    0    0  0.16748554126E+02  0.28557623600E+02 -0.11852702026E+01  0.33127885481E+02  0.00000000000E+00 0.  1.
</event>
<event>
 8    1  0.7102339E-009  0.6649775E+02  0.7561462E-02  0.1372425E+00
         -1   -1    0    0    0  501 -0.00000000000E+00  0.00000000000E+00  0.12214741774E+03  0.12214741774E+03  0.00000000000E+00 0.  1.
          1   -1    0    0  501    0  0.00000000000E+00 -0.00000000000E+00 -0.89392499738E+02  0.89392499738E+02  0.00000000000E+00 0. -1.
         25    2    1    2    0    0  0.31516460190E+01 -0.24634497610E+02  0.30147347675E+02  0.13104374004E+03  0.12508720113E+03 0.  0.
         23    2    1    2    0    0 -0.31516460190E+01  0.24634497610E+02  0.26075703246E+01  0.80496177434E+02  0.76524792148E+02 0.  0.
          5    1    3    3  502    0  0.30733121642E+02 -0.31287947291E+02  0.69537810723E+02  0.82319134663E+02  0.41800000000E+01 0. -1.
         -5    1    3    3    0  502 -0.27581475623E+02  0.66534496816E+01 -0.39390463047E+02  0.48724605379E+02  0.41800000000E+01 0. -1.
        -11    1    4    4    0    0 -0.14006372968E+02 -0.14195354650E+02  0.26853850817E+02  0.33448705223E+02  0.00000000000E+00 0.  1.
         11    1    4    4    0    0  0.10854726949E+02  0.38829852260E+02 -0.24246280493E+02  0.47047472211E+02  0.00000000000E+00 0. -1.
</event>
<event>
 8    1  0.7102339E-009  0.1538418E+03  0.7561462E-02  0.1195830E+00
          2   -1    0    0  501    0  0.00000000000E+00  0.00000000000E+00  0.66321020967E+03  0.66321020967E+03  0.00000000000E+00 0.  1.
         -2   -1    0    0    0  501 -0.00000000000E+00 -0.00000000000E+00 -0.43105933484E+02  0.43105933484E+02  0.00000000000E+00 0. -1.
         25    2    1    2    0    0 -0.28380316086E+02  0.12051879578E+03  0.41098235808E+03  0.44708553274E+03  0.12509497375E+03 0.  0.
         23    2    1    2    0    0  0.28380316086E+02 -0.12051879578E+03  0.20912191811E+03  0.25923061042E+03  0.90212583746E+02 0.  0.
          5    1    3    3  502    0  0.15815681329E+02  0.10862356647E+03  0.36841132166E+03  0.38443931809E+03  0.41800000000E+01 0. -1.
         -5    1    3    3    0  502 -0.44195997415E+02  0.11895229313E+02  0.42571036415E+02  0.62646214645E+02  0.41800000000E+01 0. -1.
        -11    1    4    4    0    0  0.73867662133E+01 -0.12901643020E+03  0.16449009332E+03  0.20918124767E+03  0.00000000000E+00 0. -1.
         11    1    4    4    0    0  0.20993549873E+02  0.84976344240E+01  0.44631824793E+02  0.50049362748E+02  0.00000000000E+00 0.  1.
</event>
<event>
 8    1  0.7102339E-009  0.6648065E+02  0.7561462E-02  0.1372487E+00
         -1   -1    0    0    0  501 -0.00000000000E+00  0.00000000000E+00  0.43748529350E+02  0.43748529350E+02  0.00000000000E+00 0.  1.
          1   -1    0    0  501    0  0.00000000000E+00 -0.00000000000E+00 -0.31437793852E+03  0.31437793852E+03  0.00000000000E+00 0. -1.
         25    2    1    2    0    0  0.22663804896E+02  0.31259656946E+02 -0.17980349948E+03  0.22239284761E+03  0.12505385254E+03 0.  0.
         23    2    1    2    0    0 -0.22663804896E+02 -0.31259656946E+02 -0.90825909687E+02  0.13573362026E+03  0.93185061005E+02 0.  0.
          5    1    3    3  502    0 -0.98499434345E+01  0.11732690829E+02 -0.18338263659E+03  0.18406884914E+03  0.41800000000E+01 0. -1.
         -5    1    3    3    0  502  0.32513748330E+02  0.19526966117E+02  0.35791371085E+01  0.38323998469E+02  0.41800000000E+01 0. -1.
        -11    1    4    4    0    0  0.22728762145E+02 -0.23826034835E+02 -0.82712890917E+02  0.89026394336E+02  0.00000000000E+00 0. -1.
         11    1    4    4    0    0 -0.45392567041E+02 -0.74336221111E+01 -0.81130187700E+01  0.46707225927E+02  0.00000000000E+00 0.  1.
</event>
<event>
 8    1  0.7102339E-009  0.1231718E+03  0.7561462E-02  0.1237954E+00
         -1   -1    0    0    0  501 -0.00000000000E+00  0.00000000000E+00  0.96142331745E+02  0.96142331745E+02  0.00000000000E+00 0.  1.
          1   -1    0    0  501    0  0.00000000000E+00 -0.00000000000E+00 -0.22554064486E+03  0.22554064486E+03  0.00000000000E+00 0. -1.
         25    2    1    2    0    0  0.61944647292E+02  0.10537006797E+02  0.14242335617E+02  0.14070501313E+03  0.12508752438E+03 0.  0.
         23    2    1    2    0    0 -0.61944647292E+02 -0.10537006797E+02 -0.14364064873E+03  0.18097796348E+03  0.90400328847E+02 0.  0.
          5    1    3    3  502    0  0.35017548671E+02 -0.56929932909E+02  0.11044213099E+02  0.67872623487E+02  0.41800000000E+01 0. -1.
         -5    1    3    3    0  502  0.26927098621E+02  0.67466939706E+02  0.31981225179E+01  0.72832389643E+02  0.41800000000E+01 0. -1.
        -11    1    4    4    0    0 -0.53155297170E+02  0.32755795445E+02 -0.10561336912E+03  0.12268908464E+03  0.00000000000E+00 0. -1.
         11    1    4    4    0    0 -0.87893501220E+01 -0.43292802242E+02 -0.38027279611E+02  0.58288878838E+02  0.00000000000E+00 0.  1.
</event>
<event>
 8    1  0.7102339E-009  0.1364147E+03  0.7561462E-02  0.1218236E+00
          2   -1    0    0  501    0  0.00000000000E+00  0.00000000000E+00  0.65854932936E+03  0.65854932936E+03  0.00000000000E+00 0. -1.
         -2   -1    0    0    0  501 -0.00000000000E+00 -0.00000000000E+00 -0.47298666076E+02  0.47298666076E+02  0.00000000000E+00 0.  1.
         25    2    1    2    0    0 -0.19646031176E+02  0.10715646932E+03  0.49755816480E+03  0.52448075721E+03  0.12508981518E+03 0.  0.
         23    2    1    2    0    0  0.19646031176E+02 -0.10715646932E+03  0.11369249848E+03  0.18136723823E+03  0.89997863489E+02 0.  0.
          5    1    3    3  502    0 -0.39282637342E+02  0.19214980565E+02  0.44501749847E+02  0.62531745650E+02  0.41800000000E+01 0.  1.
         -5    1    3    3    0  502  0.19636606166E+02  0.87941488759E+02  0.45305641495E+03  0.46194901156E+03  0.41800000000E+01 0.  1.
        -11    1    4    4    0    0 -0.30848202542E+02 -0.16645754586E+02  0.14587612826E+02  0.37966975042E+02  0.00000000000E+00 0.  1.
         11    1    4    4    0    0  0.50494233718E+02 -0.90510714739E+02  0.99104885658E+02  0.14340026319E+03  0.00000000000E+00 0. -1.
</event>
<event>
 8    1  0.7102339E-009  0.1145475E+03  0.7561462E-02  0.1252373E+00
         -1   -1    0    0    0  501 -0.00000000000E+00  0.00000000000E+00  0.15656327392E+02  0.15656327392E+02  0.00000000000E+00 0.  1.
          1   -1    0    0  501    0  0.00000000000E+00 -0.00000000000E+00 -0.99869696498E+03  0.99869696498E+03  0.00000000000E+00 0. -1.
         25    2    1    2    0    0 -0.19896533647E+02 -0.47672112032E+02 -0.68811613221E+03  0.70129834203E+03  0.12508817215E+03 0.  0.
         23    2    1    2    0    0  0.19896533647E+02  0.47672112032E+02 -0.29492450538E+03  0.31305495034E+03  0.91402602497E+02 0.  0.
          5    1    3    3  502    0 -0.36398638210E+02  0.30359069257E+02 -0.15221525115E+03  0.15947880433E+03  0.41800000000E+01 0. -1.
         -5    1    3    3    0  502  0.16502104563E+02 -0.78031181289E+02 -0.53590088107E+03  0.54181953770E+03  0.41800000000E+01 0. -1.
        -11    1    4    4    0    0  0.51435343540E+02  0.47639870078E+02 -0.16346335669E+03  0.17786348914E+03  0.00000000000E+00 0.  1.
         11    1    4    4    0    0 -0.31538809893E+02  0.32241954190E-01 -0.13146114868E+03  0.13519146120E+03  0.00000000000E+00 0. -1.
</event>
<event>
 8    1  0.7102339E-009  0.8252902E+02  0.7561462E-02  0.1322024E+00
         -1   -1    0    0    0  501 -0.00000000000E+00  0.00000000000E+00  0.26485831108E+02  0.26485831108E+02  0.00000000000E+00 0.  1.
          1   -1    0    0  501    0  0.00000000000E+00 -0.00000000000E+00 -0.53244754182E+03  0.53244754182E+03  0.00000000000E+00 0. -1.
         25    2    1    2    0    0  0.16621459086E+02 -0.43678977596E+02 -0.30035492054E+03  0.32870225591E+03  0.12509184130E+03 0.  0.
         23    2    1    2    0    0 -0.16621459086E+02  0.43678977596E+02 -0.20560679017E+03  0.23023111702E+03  0.92455876467E+02 0.  0.
          5    1    3    3  502    0  0.20480748230E+02 -0.57255806061E+02 -0.30668137184E+03  0.31267974768E+03  0.41800000000E+01 0.  1.
         -5    1    3    3    0  502 -0.38592891444E+01  0.13576828465E+02  0.63264512997E+01  0.16022508228E+02  0.41800000000E+01 0.  1.
        -11    1    4    4    0    0  0.21541991733E+02  0.46367447036E+02 -0.56081269283E+02  0.75888775961E+02  0.00000000000E+00 0.  1.
         11    1    4    4    0    0 -0.38163450818E+02 -0.26884694409E+01 -0.14952552089E+03  0.15434234106E+03  0.00000000000E+00 0. -1.
</event>
<event>
 8    1  0.7102339E-009  0.1023230E+03  0.7561462E-02  0.1275486E+00
          2   -1    0    0  501    0  0.00000000000E+00  0.00000000000E+00  0.58054964948E+02  0.58054964948E+02  0.00000000000E+00 0. -1.
         -2   -1    0    0    0  501 -0.00000000000E+00 -0.00000000000E+00 -0.45830830775E+03  0.45830830775E+03  0.00000000000E+00 0.  1.
         25    2    1    2    0    0  0.43962586284E+02  0.57844583068E+02 -0.62539248637E+02  0.15760468209E+03  0.12509745566E+03 0.  0.
         23    2    1    2    0    0 -0.43962586284E+02 -0.57844583068E+02 -0.33771409417E+03  0.35875859061E+03  0.96841169739E+02 0.  0.
          5    1    3    3  502    0  0.34754221671E+02  0.74517824393E+02 -0.91247568538E+02  0.12289976908E+03  0.41800000000E+01 0. -1.
         -5    1    3    3    0  502  0.92083646131E+01 -0.16673241324E+02  0.28708319901E+02  0.34704913005E+02  0.41800000000E+01 0. -1.
        -11    1    4    4    0    0  0.12256526981E+02 -0.42939038632E+02 -0.24697557275E+03  0.25097991359E+03  0.00000000000E+00 0. -1.
         11    1    4    4    0    0 -0.56219113265E+02 -0.14905544436E+02 -0.90738521421E+02  0.10777867702E+03  0.00000000000E+00 0.  1.
</event>
<event>
 8    1  0.7102339E-009  0.1314099E+03  0.7561462E-02  0.1225379E+00
          1   -1    0    0  501    0  0.00000000000E+00  0.00000000000E+00  0.19066726800E+03  0.19066726800E+03  0.00000000000E+00 0. -1.
         -1   -1    0    0    0  501 -0.00000000000E+00 -0.00000000000E+00 -0.10584254827E+03  0.10584254827E+03  0.00000000000E+00 0.  1.
         25    2    1    2    0    0  0.82451951300E+02 -0.18407080161E+02  0.80056345846E+02  0.17086391388E+03  0.12509321997E+03 0.  0.
         23    2    1    2    0    0 -0.82451951300E+02  0.18407080161E+02  0.47683738836E+01  0.12564590239E+03  0.92881701778E+02 0.  0.
          5    1    3    3  502    0  0.22533799786E+02 -0.66018593139E+02  0.17786429469E+02  0.72111415505E+02  0.41800000000E+01 0. -1.
         -5    1    3    3    0  502  0.59918151515E+02  0.47611512979E+02  0.62269916377E+02  0.98752498372E+02  0.41800000000E+01 0. -1.
        -11    1    4    4    0    0 -0.97446656750E+02  0.74726315742E+01 -0.14605114920E+02  0.98818017164E+02  0.00000000000E+00 0.  1.
         11    1    4    4    0    0  0.14994705449E+02  0.10934448587E+02  0.19373488803E+02  0.26827885228E+02  0.00000000000E+00 0. -1.
</event>
<event>
 8    1  0.7102339E-009  0.7983078E+02  0.7561462E-02  0.1329532E+00
         -1   -1    0    0    0  501 -0.00000000000E+00  0.00000000000E+00  0.11263341707E+02  0.11263341707E+02  0.00000000000E+00 0.  1.
          1   -1    0    0  501    0  0.00000000000E+00 -0.00000000000E+00 -0.11502794593E+04  0.11502794593E+04  0.00000000000E+00 0. -1.
         25    2    1    2    0    0  0.24670452279E+02 -0.22260112377E+02 -0.68901631133E+03  0.70106278556E+03  0.12506561554E+03 0.  0.
         23    2    1    2    0    0 -0.24670452279E+02  0.22260112377E+02 -0.44999980621E+03  0.46048001540E+03  0.91857907533E+02 0.  0.
          5    1    3    3  502    0  0.13216327297E+02  0.18330339232E+02 -0.61752762645E+03  0.61795510717E+03  0.41800000000E+01 0. -1.
         -5    1    3    3    0  502  0.11454124982E+02 -0.40590451609E+02 -0.71488684881E+02  0.83107678388E+02  0.41800000000E+01 0. -1.
        -11    1    4    4    0    0  0.27177647428E+02  0.31531248612E+02 -0.14074210456E+03  0.14676915260E+03  0.00000000000E+00 0. -1.
         11    1    4    4    0    0 -0.51848099707E+02 -0.92711362346E+01 -0.30925770164E+03  0.31371086280E+03  0.00000000000E+00 0.  1.
</event>
<event>
 8    1  0.7102339E-009  0.1155830E+03  0.7561462E-02  0.1250567E+00
         -2   -1    0    0    0  501 -0.00000000000E+00  0.00000000000E+00  0.55985238120E+02  0.55985238120E+02  0.00000000000E+00 0.  1.
          2   -1    0    0  501    0  0.00000000000E+00 -0.00000000000E+00 -0.26494883669E+03  0.26494883669E+03  0.00000000000E+00 0. -1.
         25    2    1    2    0    0  0.77316403219E+01 -0.54004267726E+02 -0.11955216820E+03  0.18143077510E+03  0.12509262983E+03 0.  0.
         23    2    1    2    0    0 -0.77316403219E+01  0.54004267726E+02 -0.89411430376E+02  0.13950329972E+03  0.92144058706E+02 0.  0.
          5    1    3    3  502    0 -0.12337004990E+01 -0.92757388229E+02 -0.10144182584E+03  0.13752589399E+03  0.41800000000E+01 0.  1.
         -5    1    3    3    0  502  0.89653408209E+01  0.38753120503E+02 -0.18110342358E+02  0.43904881108E+02  0.41800000000E+01 0.  1.
        -11    1    4    4    0    0  0.31097929336E+02  0.50521106176E+02 -0.25355408792E+02  0.64516355549E+02  0.00000000000E+00 0.  1.
         11    1    4    4    0    0 -0.38829569658E+02  0.34831615494E+01 -0.64056021584E+02  0.74986944166E+02  0.00000000000E+00 0. -1.
</event>
<event>
 8    1  0.7102339E-009  0.1351038E+03  0.7561462E-02  0.1220073E+00
          2   -1    0    0  501    0  0.00000000000E+00  0.00000000000E+00  0.53736950935E+03  0.53736950935E+03  0.00000000000E+00 0.  1.
         -2   -1    0    0    0  501 -0.00000000000E+00 -0.00000000000E+00 -0.35053766793E+02  0.35053766793E+02  0.00000000000E+00 0. -1.
         25    2    1    2    0    0  0.77647466154E+02 -0.16744323092E+02  0.32474779541E+03  0.35696018225E+03  0.12509971916E+03 0.  0.
         23    2    1    2    0    0 -0.77647466154E+02  0.16744323092E+02  0.17756794715E+03  0.21546309390E+03  0.92652402124E+02 0.  0.
          5    1    3    3  502    0 -0.22613902707E+02 -0.39103158061E+02  0.97198178478E+02  0.10726324564E+03  0.41800000000E+01 0. -1.
         -5    1    3    3    0  502  0.10026136886E+03  0.22358834969E+02  0.22754961693E+03  0.24969693661E+03  0.41800000000E+01 0. -1.
        -11    1    4    4    0    0 -0.74121199383E+02 -0.26447725436E+02  0.11342667817E+03  0.13805450264E+03  0.00000000000E+00 0.  1.
         11    1    4    4    0    0 -0.35262667705E+01  0.43192048528E+02  0.64141268979E+02  0.77408591252E+02  0.00000000000E+00 0. -1.
</event>
<event>
 8    1  0.7102339E-009  0.2589009E+03  0.7561462E-02  0.1107805E+00
         -1   -1    0    0    0  501 -0.00000000000E+00  0.00000000000E+00  0.17107260891E+03  0.17107260891E+03  0.00000000000E+00 0.  1.
          1   -1    0    0  501    0  0.00000000000E+00 -0.00000000000E+00 -0.40605830605E+03  0.40605830605E+03  0.00000000000E+00 0. -1.
         25    2    1    2    0    0  0.23937009027E+03  0.48954997177E+01 -0.12088973642E+03  0.29594417404E+03  0.12508644908E+03 0.  0.
         23    2    1    2    0    0 -0.23937009027E+03 -0.48954997177E+01 -0.11409596071E+03  0.28118674093E+03  0.93413537507E+02 0.  0.
          5    1    3    3  502    0  0.13475170874E+03 -0.57235977111E+02 -0.83450350814E+02  0.16856872051E+03  0.41800000000E+01 0. -1.
         -5    1    3    3    0  502  0.10461838153E+03  0.62131476829E+02 -0.37439385609E+02  0.12737545353E+03  0.41800000000E+01 0. -1.
        -11    1    4    4    0    0 -0.23453632232E+03 -0.18389497672E+02 -0.87551236545E+02  0.25101928040E+03  0.00000000000E+00 0.  1.
         11    1    4    4    0    0 -0.48337679461E+01  0.13493997954E+02 -0.26544724169E+02  0.30167460526E+02  0.00000000000E+00 0. -1.
</event>
<event>
 8    1  0.7102339E-009  0.1342719E+03  0.7561462E-02  0.1221251E+00
          2   -1    0    0  501    0  0.00000000000E+00  0.00000000000E+00  0.36884426304E+03  0.36884426304E+03  0.00000000000E+00 0. -1.
         -2   -1    0    0    0  501 -0.00000000000E+00 -0.00000000000E+00 -0.13008141809E+03  0.13008141809E+03  0.00000000000E+00 0.  1.
         25    2    1    2    0    0  0.27108515837E+02 -0.97966108533E+02 -0.58996362556E+02  0.17166356732E+03  0.12512225820E+03 0.  0.
         23    2    1    2    0    0 -0.27108515837E+02  0.97966108533E+02  0.29775920750E+03  0.32726211382E+03  0.90042853320E+02 0.  0.
          5    1    3    3  502    0  0.38821759211E+02 -0.10924051093E+03 -0.61019346257E+01  0.11616937730E+03  0.41800000000E+01 0. -1.
         -5    1    3    3    0  502 -0.11713243373E+02  0.11274402393E+02 -0.52894427930E+02  0.55494190017E+02  0.41800000000E+01 0. -1.
        -11    1    4    4    0    0  0.33093940075E+02  0.27188657602E+02  0.90053426408E+02  0.99719865522E+02  0.00000000000E+00 0.  1.
         11    1    4    4    0    0 -0.60202455912E+02  0.70777450931E+02  0.20770578110E+03  0.22754224829E+03  0.00000000000E+00 0. -1.
</event>
<event>
 8    1  0.7102339E-009  0.9792602E+02  0.7561462E-02  0.1284719E+00
         -2   -1    0    0    0  501 -0.00000000000E+00  0.00000000000E+00  0.14535147816E+03  0.14535147816E+03  0.00000000000E+00 0.  1.
          2   -1    0    0  501    0  0.00000000000E+00 -0.00000000000E+00 -0.17591123725E+03  0.17591123725E+03  0.00000000000E+00 0. -1.
         25    2    1    2    0    0  0.43084604332E+01  0.40599297948E+02  0.93489813630E+02  0.16141418925E+03  0.12508928576E+03 0.  0.
         23    2    1    2    0    0 -0.43084604332E+01 -0.40599297948E+02 -0.12404957272E+03  0.15984852616E+03  0.92175859083E+02 0.  0.
          5    1    3    3  502    0  0.44894064262E+02  0.23622611802E+02  0.10417827745E+03  0.11594865539E+03  0.41800000000E+01 0. -1.
         -5    1    3    3    0  502 -0.40585603828E+02  0.16976686146E+02 -0.10688463816E+02  0.45465533862E+02  0.41800000000E+01 0. -1.
        -11    1    4    4    0    0 -0.54651620437E+01  0.29826870647E+02 -0.39755971873E+02  0.50000475081E+02  0.00000000000E+00 0.  1.
         11    1    4    4    0    0  0.11567016105E+01 -0.70426168595E+02 -0.84293600847E+02  0.10984805108E+03  0.00000000000E+00 0. -1.
</event>
<event>
 8    1  0.7102339E-009  0.1221756E+03  0.7561462E-02  0.1239551E+00
          2   -1    0    0  501    0  0.00000000000E+00  0.00000000000E+00  0.80058045645E+02  0.80058045645E+02  0.00000000000E+00 0. -1.
         -2   -1    0    0    0  501 -0.00000000000E+00 -0.00000000000E+00 -0.26341319886E+03  0.26341319886E+03  0.00000000000E+00 0.  1.
         25    2    1    2    0    0 -0.42701360476E+02 -0.72480275342E+02 -0.15578770336E+03  0.21678245971E+03  0.12509208535E+03 0.  0.
         23    2    1    2    0    0  0.42701360476E+02  0.72480275342E+02 -0.27567449853E+02  0.12668878480E+03  0.90627189088E+02 0.  0.
          5    1    3    3  502    0  0.28605840256E+02 -0.73719385102E+02 -0.77540483163E+02  0.11082797826E+03  0.41800000000E+01 0. -1.
         -5    1    3    3    0  502 -0.71307200732E+02  0.12391097601E+01 -0.78247220197E+02  0.10595448144E+03  0.41800000000E+01 0. -1.
        -11    1    4    4    0    0  0.26265797073E+02  0.84078932459E+01  0.28732472375E+02  0.39826369826E+02  0.00000000000E+00 0. -1.
         11    1    4    4    0    0  0.16435563403E+02  0.64072382096E+02 -0.56299922228E+02  0.86862414972E+02  0.00000000000E+00 0.  1.
</event>
<event>
 8    1  0.7102339E-009  0.1069367E+03  0.7561462E-02  0.1266350E+00
         -1   -1    0    0    0  501 -0.00000000000E+00  0.00000000000E+00  0.32861648183E+03  0.32861648183E+03  0.00000000000E+00 0.  1.
          1   -1    0    0  501    0  0.00000000000E+00 -0.00000000000E+00 -0.44132627609E+02  0.44132627609E+02  0.00000000000E+00 0. -1.
         25    2    1    2    0    0 -0.51237354515E+02 -0.10673882188E+02  0.14228114015E+03  0.19654847048E+03  0.12509268624E+03 0.  0.
         23    2    1    2    0    0  0.51237354515E+02  0.10673882188E+02  0.14220271408E+03  0.17620063896E+03  0.89921382439E+02 0.  0.
          5    1    3    3  502    0  0.19317623456E+02  0.34996887944E+02  0.87080475978E+02  0.95908469065E+02  0.41800000000E+01 0.  1.
         -5    1    3    3    0  502 -0.70554977971E+02 -0.45670770132E+02  0.55200664168E+02  0.10064000142E+03  0.41800000000E+01 0.  1.
        -11    1    4    4    0    0  0.69886109000E+02  0.51244869484E+01  0.61655190288E+02  0.93336440295E+02  0.00000000000E+00 0.  1.
         11    1    4    4    0    0 -0.18648754485E+02  0.55493952393E+01  0.80547523791E+02  0.82864198664E+02  0.00000000000E+00 0. -1.
</event>
<event>
 8    1  0.7102339E-009  0.1282772E+03  0.7561462E-02  0.1230035E+00
         -2   -1    0    0    0  501 -0.00000000000E+00  0.00000000000E+00  0.96569218651E+02  0.96569218651E+02  0.00000000000E+00 0.  1.
          2   -1    0    0  501    0  0.00000000000E+00 -0.00000000000E+00 -0.22344018408E+03  0.22344018408E+03  0.00000000000E+00 0. -1.
         25    2    1    2    0    0 -0.74772034652E+01 -0.96573267326E+02 -0.90401321671E+02  0.18221558987E+03  0.12509123749E+03 0.  0.
         23    2    1    2    0    0  0.74772034652E+01  0.96573267326E+02 -0.36469643757E+02  0.13779381286E+03  0.90965902482E+02 0.  0.
          5    1    3    3  502    0 -0.23666444561E+02 -0.11900825606E+03 -0.46202312434E+02  0.12990454835E+03  0.41800000000E+01 0.  1.
         -5    1    3    3    0  502  0.16189241096E+02  0.22434988734E+02 -0.44199009236E+02  0.52311041514E+02  0.41800000000E+01 0.  1.
        -11    1    4    4    0    0  0.13532121829E+02  0.36127855365E+01  0.23246413175E+02  0.27139754347E+02  0.00000000000E+00 0. -1.
         11    1    4    4    0    0 -0.60549183640E+01  0.92960481789E+02 -0.59716056932E+02  0.11065405852E+03  0.00000000000E+00 0.  1.
</event>
<event>
 7    1  0.7102339E-009  0.1474953E+03  0.7561462E-02  0.1203585E+00
          2   -1    0    0  501    0  0.00000000000E+00  0.00000000000E+00  0.57567191616E+03  0.57567191616E+03  0.00000000000E+00 0. -1.
         -2   -1    0    0    0  501 -0.00000000000E+00 -0.00000000000E+00 -0.53082695934E+02  0.53082695934E+02  0.00000000000E+00 0.  1.
         25    2    1    2    0    0  0.11378911588E+03  0.36654698731E+02  0.13343355746E+03  0.21850931469E+03  0.12510106521E+03 0.  0.
          5    1    3    3  502    0 -0.11053993639E+00 -0.36422374174E+02  0.38421161543E+02  0.53106116539E+02  0.41800000000E+01 0.  1.
         -5    1    3    3    0  502  0.11389965582E+03  0.73077072905E+02  0.95012395920E+02  0.16540319815E+03  0.41800000000E+01 0.  1.
        -11    1    1    2    0    0 -0.85604697478E+02 -0.40121936104E+02  0.23163254732E+03  0.25018307489E+03  0.00000000000E+00 0.  1.
         11    1    1    2    0    0 -0.28184418401E+02  0.34672373732E+01  0.15752311545E+03  0.16006222252E+03  0.00000000000E+00 0. -1.
</event>
<event>
 8    1  0.7102339E-009  0.1301514E+03  0.7561462E-02  0.1227231E+00
          2   -1    0    0  501    0  0.00000000000E+00  0.00000000000E+00  0.52623174085E+03  0.52623174085E+03  0.00000000000E+00 0. -1.
         -2   -1    0    0    0  501 -0.00000000000E+00 -0.00000000000E+00 -0.75399771454E+02  0.75399771454E+02  0.00000000000E+00 0.  1.
         25    2    1    2    0    0 -0.90699649856E+02  0.60102518922E+02  0.44955467579E+02  0.17177378035E+03  0.12508596358E+03 0.  0.
         23    2    1    2    0    0  0.90699649856E+02 -0.60102518922E+02  0.40587650182E+03  0.42985773196E+03  0.90571495132E+02 0.  0.
          5    1    3    3  502    0 -0.10205114763E+02  0.31350472952E+02  0.74228051820E+02  0.81328178380E+02  0.41800000000E+01 0. -1.
         -5    1    3    3    0  502 -0.80494535093E+02  0.28752045970E+02 -0.29272584241E+02  0.90445601969E+02  0.41800000000E+01 0. -1.
        -11    1    4    4    0    0  0.10929347899E+03 -0.54118894723E+02  0.34476023087E+03  0.36569596129E+03  0.00000000000E+00 0. -1.
         11    1    4    4    0    0 -0.18593829132E+02 -0.59836241987E+01  0.61116270949E+02  0.64161770666E+02  0.00000000000E+00 0.  1.
</event>
<event>
 8    1  0.7102339E-009  0.1004697E+03  0.7561462E-02  0.1279311E+00
         -2   -1    0    0    0  501 -0.00000000000E+00  0.00000000000E+00  0.23078445493E+03  0.23078445493E+03  0.00000000000E+00 0.  1.
          2   -1    0    0  501    0  0.00000000000E+00 -0.00000000000E+00 -0.58854759990E+02  0.58854759990E+02  0.00000000000E+00 0. -1.
         25    2    1    2    0    0 -0.15859369088E+01  0.31561689034E+02  0.59446294931E+02  0.14205232034E+03  0.12508534815E+03 0.  0.
         23    2    1    2    0    0  0.15859369088E+01 -0.31561689034E+02  0.11248340001E+03  0.14758689458E+03  0.90170509396E+02 0.  0.
          5    1    3    3  502    0  0.47016184390E+02 -0.23746883210E+02  0.11459044958E+02  0.54066793581E+02  0.41800000000E+01 0. -1.
         -5    1    3    3    0  502 -0.48602121298E+02  0.55308572244E+02  0.47987249973E+02  0.87985526755E+02  0.41800000000E+01 0. -1.
        -11    1    4    4    0    0  0.18227215478E+02  0.15819530339E+02  0.88878723400E+02  0.92097320251E+02  0.00000000000E+00 0.  1.
         11    1    4    4    0    0 -0.16641278569E+02 -0.47381219372E+02  0.23604676606E+02  0.55489574330E+02  0.00000000000E+00 0. -1.
</event>
<event>
 8    1  0.7102339E-009  0.1234857E+03  0.7561462E-02  0.1237455E+00
          2   -1    0    0  501    0  0.00000000000E+00  0.00000000000E+00  0.28230685017E+03  0.28230685017E+03  0.00000000000E+00 0. -1.
         -2   -1    0    0    0  501 -0.00000000000E+00 -0.00000000000E+00 -0.72903233486E+02  0.72903233486E+02  0.00000000000E+00 0.  1.
         25    2    1    2    0    0 -0.34266362900E+02 -0.49930057906E+02  0.20118338107E+03  0.24451706997E+03  0.12508657155E+03 0.  0.
         23    2    1    2    0    0  0.34266362900E+02  0.49930057906E+02  0.82202356135E+01  0.11069301368E+03  0.92293968895E+02 0.  0.
          5    1    3    3  502    0 -0.54134909225E+02 -0.83019788430E+02  0.15687073761E+03  0.18560381027E+03  0.41800000000E+01 0. -1.
         -5    1    3    3    0  502  0.19868546326E+02  0.33089730524E+02  0.44312643458E+02  0.58913259708E+02  0.41800000000E+01 0. -1.
        -11    1    4    4    0    0  0.55766533806E+02  0.13021339686E+01  0.13104163089E+02  0.57300269946E+02  0.00000000000E+00 0. -1.
         11    1    4    4    0    0 -0.21500170907E+02  0.48627923937E+02 -0.48839274758E+01  0.53392743730E+02  0.00000000000E+00 0.  1.
</event>
<event>
 8    1  0.7102339E-009  0.8997177E+02  0.7561462E-02  0.1302920E+00
         -2   -1    0    0    0  501 -0.00000000000E+00  0.00000000000E+00  0.15244880841E+03  0.15244880841E+03  0.00000000000E+00 0.  1.
          2   -1    0    0  501    0  0.00000000000E+00 -0.00000000000E+00 -0.88696055476E+02  0.88696055476E+02  0.00000000000E+00 0. -1.
         25    2    1    2    0    0 -0.15890636504E+02  0.65817252506E+01 -0.31917547595E+01  0.12630778631E+03  0.12509051982E+03 0.  0.
         23    2    1    2    0    0  0.15890636504E+02 -0.65817252506E+01  0.66944507691E+02  0.11483707757E+03  0.91706901811E+02 0.  0.
          5    1    3    3  502    0 -0.60421096349E+02 -0.14003882779E+02 -0.31315336002E+02  0.69605605276E+02  0.41800000000E+01 0.  1.
         -5    1    3    3    0  502  0.44530459846E+02  0.20585608030E+02  0.28123581243E+02  0.56702181033E+02  0.41800000000E+01 0.  1.
        -11    1    4    4    0    0 -0.10551531713E+02 -0.30880048673E+02 -0.63250890507E+01  0.33240321585E+02  0.00000000000E+00 0. -1.
         11    1    4    4    0    0  0.26442168217E+02  0.24298323423E+02  0.73269596742E+02  0.81596755989E+02  0.00000000000E+00 0.  1.
</event>
<event>
 8    1  0.7102339E-009  0.1151010E+03  0.7561462E-02  0.1251405E+00
          1   -1    0    0  501    0  0.00000000000E+00  0.00000000000E+00  0.16043967578E+03  0.16043967578E+03  0.00000000000E+00 0. -1.
         -1   -1    0    0    0  501 -0.00000000000E+00 -0.00000000000E+00 -0.96344062745E+02  0.96344062745E+02  0.00000000000E+00 0.  1.
         25    2    1    2    0    0  0.51965985638E+02 -0.33153429475E+02  0.18560474650E+02  0.14067733634E+03  0.12508400453E+03 0.  0.
         23    2    1    2    0    0 -0.51965985638E+02  0.33153429475E+02  0.45535138385E+02  0.11610640219E+03  0.87221753319E+02 0.  0.
          5    1    3    3  502    0  0.69348054393E+02  0.28448835152E+02  0.14037031411E+02  0.76374076233E+02  0.41800000000E+01 0.  1.
         -5    1    3    3    0  502 -0.17382068755E+02 -0.61602264627E+02  0.45234432390E+01  0.64303260105E+02  0.41800000000E+01 0.  1.
        -11    1    4    4    0    0 -0.55667480350E+02  0.49336622852E+02  0.58831199357E+02  0.94837127438E+02  0.00000000000E+00 0. -1.
         11    1    4    4    0    0  0.37014947129E+01 -0.16183193377E+02 -0.13296060973E+02  0.21269274749E+02  0.00000000000E+00 0.  1.
</event>
<event>
 8    1  0.7102339E-009  0.1318207E+03  0.7561462E-02  0.1224779E+00
          1   -1    0    0  501    0  0.00000000000E+00  0.00000000000E+00  0.66324589475E+02  0.66324589475E+02  0.00000000000E+00 0. -1.
         -1   -1    0    0    0  501 -0.00000000000E+00 -0.00000000000E+00 -0.34217001189E+03  0.34217001189E+03  0.00000000000E+00 0.  1.
         25    2    1    2    0    0  0.56579388334E+02 -0.85483952570E+02 -0.17752822330E+03  0.24016113338E+03  0.12510941846E+03 0.  0.
         23    2    1    2    0    0 -0.56579388334E+02  0.85483952570E+02 -0.98317199122E+02  0.16833346799E+03  0.90339091601E+02 0.  0.
          5    1    3    3  502    0  0.74048336796E+02 -0.10848489790E+03 -0.15552978621E+03  0.20361511744E+03  0.41800000000E+01 0.  1.
         -5    1    3    3    0  502 -0.17468948462E+02  0.23000945327E+02 -0.21998437092E+02  0.36546015936E+02  0.41800000000E+01 0.  1.
        -11    1    4    4    0    0 -0.44044827273E+02  0.57925559198E+02 -0.11322050575E+03  0.13458900453E+03  0.00000000000E+00 0.  1.
         11    1    4    4    0    0 -0.12534561060E+02  0.27558393372E+02  0.14903306623E+02  0.33744463465E+02  0.00000000000E+00 0. -1.
</event>
<event>
 8    1  0.7102339E-009  0.8067319E+02  0.7561462E-02  0.1327152E+00
         -2   -1    0    0    0  501 -0.00000000000E+00  0.00000000000E+00  0.25710902278E+03  0.25710902278E+03  0.00000000000E+00 0.  1.
          2   -1    0    0  501    0  0.00000000000E+00 -0.00000000000E+00 -0.48387967517E+02  0.48387967517E+02  0.00000000000E+00 0. -1.
         25    2    1    2    0    0  0.15699988051E+01 -0.33188776463E+01  0.15783582173E+03  0.20141808778E+03  0.12507445630E+03 0.  0.
         23    2    1    2    0    0 -0.15699988051E+01  0.33188776463E+01  0.50885233539E+02  0.10407890252E+03  0.90717314293E+02 0.  0.
          5    1    3    3  502    0  0.35049433263E+02  0.25847835519E+02  0.72245312421E+01  0.44342300625E+02  0.41800000000E+01 0. -1.
         -5    1    3    3    0  502 -0.33479434458E+02 -0.29166713165E+02  0.15061129049E+03  0.15707578716E+03  0.41800000000E+01 0. -1.
        -11    1    4    4    0    0 -0.36657857113E+02 -0.48342579381E+01  0.56598590012E+02  0.67605982940E+02  0.00000000000E+00 0.  1.
         11    1    4    4    0    0  0.35087858308E+02  0.81531355844E+01 -0.57133564738E+01  0.36472919580E+02  0.00000000000E+00 0. -1.
</event>
<event>
 8    1  0.7102339E-009  0.7821343E+02  0.7561462E-02  0.1334199E+00
         -1   -1    0    0    0  501 -0.00000000000E+00  0.00000000000E+00  0.16706902552E+03  0.16706902552E+03  0.00000000000E+00 0.  1.
          1   -1    0    0  501    0  0.00000000000E+00 -0.00000000000E+00 -0.74754802937E+02  0.74754802937E+02  0.00000000000E+00 0. -1.
         25    2    1    2    0    0 -0.10941218028E+02 -0.24534380642E+02  0.43325469059E+02  0.13509310290E+03  0.12510557181E+03 0.  0.
         23    2    1    2    0    0  0.10941218028E+02  0.24534380642E+02  0.48988753521E+02  0.10673072555E+03  0.90939010991E+02 0.  0.
          5    1    3    3  502    0  0.56281364754E+02 -0.17456793671E+02  0.29263314873E+02  0.65925303649E+02  0.41800000000E+01 0.  1.
         -5    1    3    3    0  502 -0.67222582782E+02 -0.70775869706E+01  0.14062154186E+02  0.69167799253E+02  0.41800000000E+01 0.  1.
        -11    1    4    4    0    0  0.11231866957E+01  0.17536249365E+02  0.75547055706E+02  0.77563775153E+02  0.00000000000E+00 0.  1.
         11    1    4    4    0    0  0.98180313323E+01  0.69981312762E+01 -0.26558302186E+02  0.29166950399E+02  0.00000000000E+00 0. -1.
</event>
<event>
 8    1  0.7102339E-009  0.1531438E+03  0.7561462E-02  0.1196662E+00
          2   -1    0    0  501    0  0.00000000000E+00  0.00000000000E+00  0.77647193450E+03  0.77647193450E+03  0.00000000000E+00 0. -1.
         -2   -1    0    0    0  501 -0.00000000000E+00 -0.00000000000E+00 -0.45923686387E+02  0.45923686387E+02  0.00000000000E+00 0.  1.
         25    2    1    2    0    0 -0.10867649578E+03  0.10684594038E+03  0.43466284267E+03  0.47729156849E+03  0.12509523910E+03 0.  0.
         23    2    1    2    0    0  0.10867649578E+03 -0.10684594038E+03  0.29588540544E+03  0.34510405239E+03  0.91224986249E+02 0.  0.
          5    1    3    3  502    0 -0.69606327110E+02  0.59020497056E+02  0.94107568525E+02  0.13115703069E+03  0.41800000000E+01 0.  1.
         -5    1    3    3    0  502 -0.39070168671E+02  0.47825443321E+02  0.34055527414E+03  0.34613453780E+03  0.41800000000E+01 0.  1.
        -11    1    4    4    0    0  0.54656122614E+02 -0.44029545887E+02  0.22621985665E+03  0.23685716412E+03  0.00000000000E+00 0. -1.
         11    1    4    4    0    0  0.54020373166E+02 -0.62816394490E+02  0.69665548791E+02  0.10824688828E+03  0.00000000000E+00 0.  1.
</event>
<event>
 8    1  0.7102339E-009  0.1092552E+03  0.7561462E-02  0.1261955E+00
          1   -1    0    0  501    0  0.00000000000E+00  0.00000000000E+00  0.83684492611E+02  0.83684492611E+02  0.00000000000E+00 0. -1.
         -1   -1    0    0    0  501 -0.00000000000E+00 -0.00000000000E+00 -0.14771282451E+03  0.14771282451E+03  0.00000000000E+00 0.  1.
         25    2    1    2    0    0  0.93741729029E-01  0.21297092320E+02 -0.34641530361E+02  0.13154390727E+03  0.12510071537E+03 0.  0.
         23    2    1    2    0    0 -0.93741729029E-01 -0.21297092320E+02 -0.29386801543E+02  0.99853409854E+02  0.93024429188E+02 0.  0.
          5    1    3    3  502    0 -0.59522607157E+02 -0.21822865014E+01 -0.30886615788E+02  0.67224687221E+02  0.41800000000E+01 0.  1.
         -5    1    3    3    0  502  0.59616348886E+02  0.23479378822E+02 -0.37549145733E+01  0.64319220050E+02  0.41800000000E+01 0.  1.
        -11    1    4    4    0    0 -0.46097064902E+02 -0.89141360916E+01 -0.79809083611E+01  0.47624532681E+02  0.00000000000E+00 0. -1.
         11    1    4    4    0    0  0.46003323173E+02 -0.12382956228E+02 -0.21405893182E+02  0.52228877173E+02  0.00000000000E+00 0.  1.
</event>
<event>
 8    1  0.7102339E-009  0.1302078E+03  0.7561462E-02  0.1227148E+00
          1   -1    0    0  501    0  0.00000000000E+00  0.00000000000E+00  0.59184183760E+03  0.59184183760E+03  0.00000000000E+00 0. -1.
         -1   -1    0    0    0  501 -0.00000000000E+00 -0.00000000000E+00 -0.32173790243E+02  0.32173790243E+02  0.00000000000E+00 0.  1.
         25    2    1    2    0    0 -0.79038127161E+02  0.27214152312E+02  0.24157404012E+03  0.28459261870E+03  0.12508919269E+03 0.  0.
         23    2    1    2    0    0  0.79038127161E+02 -0.27214152312E+02  0.31809400724E+03  0.33942300914E+03  0.83884122836E+02 0.  0.
          5    1    3    3  502    0 -0.10680030286E+03  0.48907636222E+01  0.13569406840E+03  0.17280213210E+03  0.41800000000E+01 0.  1.
         -5    1    3    3    0  502  0.27762175701E+02  0.22323388690E+02  0.10587997172E+03  0.11179048660E+03  0.41800000000E+01 0.  1.
        -11    1    4    4    0    0  0.56290489394E+02  0.24245538891E+02  0.14522781489E+03  0.15763116307E+03  0.00000000000E+00 0.  1.
         11    1    4    4    0    0  0.22747637767E+02 -0.51459691203E+02  0.17286619234E+03  0.18179184607E+03  0.00000000000E+00 0. -1.
</event>
<event>
 8    1  0.7102339E-009  0.1067282E+03  0.7561462E-02  0.1266752E+00
          1   -1    0    0  501    0  0.00000000000E+00  0.00000000000E+00  0.90524153490E+03  0.90524153490E+03  0.00000000000E+00 0. -1.
         -1   -1    0    0    0  501 -0.00000000000E+00 -0.00000000000E+00 -0.24482562793E+02  0.24482562793E+02  0.00000000000E+00 0.  1.
         25    2    1    2    0    0  0.92214452548E+02 -0.41851777998E+02  0.43225012345E+03  0.46123890847E+03  0.12508431109E+03 0.  0.
         23    2    1    2    0    0 -0.92214452548E+02  0.41851777998E+02  0.44850884866E+03  0.46848518923E+03  0.89794813995E+02 0.  0.
          5    1    3    3  502    0  0.36749202153E+02 -0.66842939199E+01  0.17782919452E+02  0.41579902217E+02  0.41800000000E+01 0. -1.
         -5    1    3    3    0  502  0.55465250394E+02 -0.35167484078E+02  0.41446720400E+03  0.41965900625E+03  0.41800000000E+01 0. -1.
        -11    1    4    4    0    0 -0.33326378000E+02 -0.63957429313E+01  0.37872377375E+02  0.50851449992E+02  0.00000000000E+00 0.  1.
         11    1    4    4    0    0 -0.58888074547E+02  0.48247520929E+02  0.41063647128E+03  0.41763373923E+03  0.00000000000E+00 0. -1.
</event>
<event>
 8    1  0.7102339E-009  0.1308713E+03  0.7561462E-02  0.1226169E+00
         -2   -1    0    0    0  501 -0.00000000000E+00  0.00000000000E+00  0.44598516773E+02  0.44598516773E+02  0.00000000000E+00 0.  1.
          2   -1    0    0  501    0  0.00000000000E+00 -0.00000000000E+00 -0.95911883498E+03  0.95911883498E+03  0.00000000000E+00 0. -1.
         25    2    1    2    0    0  0.12361144129E+03 -0.25343054138E+02 -0.77324176622E+03  0.79339368107E+03  0.12509454554E+03 0.  0.
         23    2    1    2    0    0 -0.12361144129E+03  0.25343054138E+02 -0.14127855199E+03  0.21032367068E+03  0.91402179329E+02 0.  0.
          5    1    3    3  502    0  0.61836809376E+02 -0.32853921238E+02 -0.13523386145E+03  0.15234448075E+03  0.41800000000E+01 0.  1.
         -5    1    3    3    0  502  0.61774631919E+02  0.75108671005E+01 -0.63800790477E+03  0.64104920032E+03  0.41800000000E+01 0.  1.
        -11    1    4    4    0    0 -0.29579240077E+02  0.18622984386E+02 -0.10266158052E+03  0.10844882252E+03  0.00000000000E+00 0. -1.
         11    1    4    4    0    0 -0.94032201218E+02  0.67200697520E+01 -0.38616971469E+02  0.10187484817E+03  0.00000000000E+00 0.  1.
</event>
<event>
 8    1  0.7102339E-009  0.1741878E+03  0.7561462E-02  0.1173550E+00
         -1   -1    0    0    0  501 -0.00000000000E+00  0.00000000000E+00  0.13144065093E+03  0.13144065093E+03  0.00000000000E+00 0.  1.
          1   -1    0    0  501    0  0.00000000000E+00 -0.00000000000E+00 -0.30957805539E+03  0.30957805539E+03  0.00000000000E+00 0. -1.
         25    2    1    2    0    0  0.80943009365E+02 -0.13942110531E+03 -0.35288088649E+02  0.20708021008E+03  0.12508776453E+03 0.  0.
         23    2    1    2    0    0 -0.80943009365E+02  0.13942110531E+03 -0.14284931581E+03  0.23393849623E+03  0.91275832623E+02 0.  0.
          5    1    3    3  502    0  0.54112758975E+02 -0.12085397672E+03 -0.77561647709E+02  0.15351597952E+03  0.41800000000E+01 0.  1.
         -5    1    3    3    0  502  0.26830250390E+02 -0.18567128592E+02  0.42273559061E+02  0.53564230563E+02  0.41800000000E+01 0.  1.
        -11    1    4    4    0    0 -0.56705041937E+02  0.18460721057E+02 -0.64260029932E+02  0.87667619164E+02  0.00000000000E+00 0.  1.
         11    1    4    4    0    0 -0.24237967429E+02  0.12096038425E+03 -0.78589285882E+02  0.14627087707E+03  0.00000000000E+00 0. -1.
</event>
<event>
 8    1  0.7102339E-009  0.1010625E+03  0.7561462E-02  0.1278077E+00
         -2   -1    0    0    0  501 -0.00000000000E+00  0.00000000000E+00  0.28713908261E+02  0.28713908261E+02  0.00000000000E+00 0.  1.
          2   -1    0    0  501    0  0.00000000000E+00 -0.00000000000E+00 -0.42951775327E+03  0.42951775327E+03  0.00000000000E+00 0. -1.
         25    2    1    2    0    0 -0.89470538842E+01  0.55893896657E+01 -0.27638513754E+03  0.30355927535E+03  0.12509275898E+03 0.  0.
         23    2    1    2    0    0  0.89470538842E+01 -0.55893896657E+01 -0.12441870747E+03  0.15467238618E+03  0.91281111011E+02 0.  0.
          5    1    3    3  502    0 -0.65159251359E+02 -0.51635308751E+01 -0.11594410748E+03  0.13316492987E+03  0.41800000000E+01 0.  1.
         -5    1    3    3    0  502  0.56212197475E+02  0.10752920541E+02 -0.16044103006E+03  0.17039434548E+03  0.41800000000E+01 0.  1.
        -11    1    4    4    0    0 -0.26054735504E+02 -0.27553534019E+02 -0.99347667662E+02  0.10633910640E+03  0.00000000000E+00 0. -1.
         11    1    4    4    0    0  0.35001789388E+02  0.21964144353E+02 -0.25071039809E+02  0.48333279784E+02  0.00000000000E+00 0.  1.
</event>
<event>
 8    1  0.7102339E-009  0.1453780E+03  0.7561462E-02  0.1206270E+00
         -1   -1    0    0    0  501 -0.00000000000E+00  0.00000000000E+00  0.75993893978E+02  0.75993893978E+02  0.00000000000E+00 0.  1.
          1   -1    0    0  501    0  0.00000000000E+00 -0.00000000000E+00 -0.33063242871E+03  0.33063242871E+03  0.00000000000E+00 0. -1.
         25    2    1    2    0    0 -0.92020515748E+02 -0.65319339829E+02 -0.16747962454E+03  0.23755248432E+03  0.12508943480E+03 0.  0.
         23    2    1    2    0    0  0.92020515748E+02  0.65319339829E+02 -0.87158910197E+02  0.16907383837E+03  0.90856456679E+02 0.  0.
          5    1    3    3  502    0 -0.36691150147E+02  0.21585244716E+02 -0.11323851067E+03  0.12104790782E+03  0.41800000000E+01 0.  1.
         -5    1    3    3    0  502 -0.55329365601E+02 -0.86904584545E+02 -0.54241113871E+02  0.11650457651E+03  0.41800000000E+01 0.  1.
        -11    1    4    4    0    0  0.81363597597E+02  0.27568868173E+01 -0.49508011711E+02  0.95282100430E+02  0.00000000000E+00 0. -1.
         11    1    4    4    0    0  0.10656918151E+02  0.62562453012E+02 -0.37650898486E+02  0.73791737940E+02  0.00000000000E+00 0.  1.
</event>
<event>
 8    1  0.7102339E-009  0.7502688E+02  0.7561462E-02  0.1343788E+00
          1   -1    0    0  501    0  0.00000000000E+00  0.00000000000E+00  0.13589786533E+03  0.13589786533E+03  0.00000000000E+00 0. -1.
         -1   -1    0    0    0  501 -0.00000000000E+00 -0.00000000000E+00 -0.11295984164E+03  0.11295984164E+03  0.00000000000E+00 0.  1.
         25    2    1    2    0    0  0.12127760705E+02  0.51693423529E+02 -0.59801299223E+01  0.13602372931E+03  0.12508956938E+03 0.  0.
         23    2    1    2    0    0 -0.12127760705E+02 -0.51693423529E+02  0.28918153614E+02  0.11283397765E+03  0.95267802996E+02 0.  0.
          5    1    3    3  502    0 -0.34031820480E+02  0.14454155249E+02  0.44515530045E+02  0.58018895408E+02  0.41800000000E+01 0. -1.
         -5    1    3    3    0  502  0.46159581185E+02  0.37239268280E+02 -0.50495659967E+02  0.78004833906E+02  0.41800000000E+01 0. -1.
        -11    1    4    4    0    0 -0.31516174933E+01 -0.25627277240E+02 -0.34843486338E+02  0.43367713472E+02  0.00000000000E+00 0.  1.
         11    1    4    4    0    0 -0.89761432121E+01 -0.26066146288E+02  0.63761639952E+02  0.69466264176E+02  0.00000000000E+00 0. -1.
</event>
<event>
 8    1  0.7102339E-009  0.1023122E+03  0.7561462E-02  0.1275507E+00
          2   -1    0    0  501    0  0.00000000000E+00  0.00000000000E+00  0.18063810481E+02  0.18063810481E+02  0.00000000000E+00 0. -1.
         -2   -1    0    0    0  501 -0.00000000000E+00 -0.00000000000E+00 -0.66743494293E+03  0.66743494293E+03  0.00000000000E+00 0.  1.
         25    2    1    2    0    0 -0.10258619093E+02 -0.11988030089E+02 -0.38714209998E+03  0.40715615009E+03  0.12509265704E+03 0.  0.
         23    2    1    2    0    0  0.10258619093E+02  0.11988030089E+02 -0.26222903247E+03  0.27834260332E+03  0.91986886153E+02 0.  0.
          5    1    3    3  502    0  0.12820595531E+02  0.46645864989E+02 -0.26749037234E+03  0.27186168557E+03  0.41800000000E+01 0.  1.
         -5    1    3    3    0  502 -0.23079214624E+02 -0.58633895078E+02 -0.11965172764E+03  0.13529446451E+03  0.41800000000E+01 0.  1.
        -11    1    4    4    0    0  0.11537642635E+02  0.51807880819E+02 -0.16257103476E+03  0.17101612514E+03  0.00000000000E+00 0.  1.
         11    1    4    4    0    0 -0.12790235418E+01 -0.39819850730E+02 -0.99657997706E+02  0.10732647819E+03  0.00000000000E+00 0. -1.
</event>
<event>
 8    1  0.7102339E-009  0.1513619E+03  0.7561462E-02  0.1198809E+00
          1   -1    0    0  501    0  0.00000000000E+00  0.00000000000E+00  0.76407381624E+02  0.76407381624E+02  0.00000000000E+00 0. -1.
         -1   -1    0    0    0  501 -0.00000000000E+00 -0.00000000000E+00 -0.41878477334E+03  0.41878477334E+03  0.00000000000E+00 0.  1.
         25    2    1    2    0    0  0.68317038995E+02  0.99124162822E+02 -0.28490484868E+03  0.33363703874E+03  0.12510029315E+03 0.  0.
         23    2    1    2    0    0 -0.68317038995E+02 -0.99124162822E+02 -0.57472543038E+02  0.16155511622E+03  0.91127081061E+02 0.  0.
          5    1    3    3  502    0  0.18836545791E+02  0.10059253259E+03 -0.25699760836E+03  0.27665667564E+03  0.41800000000E+01 0.  1.
         -5    1    3    3    0  502  0.49480493204E+02 -0.14683697687E+01 -0.27907240320E+02  0.56980363106E+02  0.41800000000E+01 0.  1.
        -11    1    4    4    0    0 -0.72385451301E+02 -0.25294896344E+02 -0.34887777714E+02  0.84241571537E+02  0.00000000000E+00 0.  1.
         11    1    4    4    0    0  0.40684123065E+01 -0.73829266478E+02 -0.22584765323E+02  0.77313544687E+02  0.00000000000E+00 0. -1.
</event>
<event>
 8    1  0.7102339E-009  0.1190353E+03  0.7561462E-02  0.1244697E+00
         -1   -1    0    0    0  501 -0.00000000000E+00  0.00000000000E+00  0.19597076686E+03  0.19597076686E+03  0.00000000000E+00 0.  1.
          1   -1    0    0  501    0  0.00000000000E+00 -0.00000000000E+00 -0.11512520473E+03  0.11512520473E+03  0.00000000000E+00 0. -1.
         25    2    1    2    0    0 -0.21903330673E+01  0.94806531759E+02  0.87448727999E+02  0.17968201177E+03  0.12508105093E+03 0.  0.
         23    2    1    2    0    0  0.21903330673E+01 -0.94806531759E+02 -0.66031658730E+01  0.13141395982E+03  0.90735610496E+02 0.  0.
          5    1    3    3  502    0  0.23374048589E+02  0.30447485726E+02  0.10176495682E+03  0.10884380723E+03  0.41800000000E+01 0.  1.
         -5    1    3    3    0  502 -0.25564381657E+02  0.64359046033E+02 -0.14316228822E+02  0.70838204547E+02  0.41800000000E+01 0.  1.
        -11    1    4    4    0    0 -0.42632923556E+02 -0.33944522578E+02 -0.11400057266E+02  0.55675471167E+02  0.00000000000E+00 0. -1.
         11    1    4    4    0    0  0.44823256623E+02 -0.60862009181E+02  0.47968913935E+01  0.75738488650E+02  0.00000000000E+00 0.  1.
</event>
<event>
 8    1  0.7102339E-009  0.9988163E+02  0.7561462E-02  0.1280545E+00
          2   -1    0    0  501    0  0.00000000000E+00  0.00000000000E+00  0.10324440836E+04  0.10324440836E+04  0.00000000000E+00 0.  1.
         -2   -1    0    0    0  501 -0.00000000000E+00 -0.00000000000E+00 -0.23945756420E+02  0.23945756420E+02  0.00000000000E+00 0. -1.
         25    2    1    2    0    0 -0.43488045223E+02 -0.52363586762E+02  0.84793660026E+03  0.85981235008E+03  0.12509054321E+03 0.  0.
         23    2    1    2    0    0  0.43488045223E+02  0.52363586762E+02  0.16056172693E+03  0.19657748994E+03  0.90716515048E+02 0.  0.
          5    1    3    3  502    0 -0.57912851828E+02 -0.61245621581E+02  0.83172346851E+03  0.83599421352E+03  0.41800000000E+01 0.  1.
         -5    1    3    3    0  502  0.14424806605E+02  0.88820348195E+01  0.16213131745E+02  0.23818136558E+02  0.41800000000E+01 0.  1.
        -11    1    4    4    0    0  0.59654464668E+02  0.22112415461E+02  0.14610417314E+03  0.15935508615E+03  0.00000000000E+00 0.  1.
         11    1    4    4    0    0 -0.16166419445E+02  0.30251171300E+02  0.14457553786E+02  0.37222403794E+02  0.00000000000E+00 0. -1.
</event>
<event>
 8    1  0.7102339E-009  0.7264642E+02  0.7561462E-02  0.1351318E+00
         -2   -1    0    0    0  501 -0.00000000000E+00  0.00000000000E+00  0.32913274422E+03  0.32913274422E+03  0.00000000000E+00 0.  1.
          2   -1    0    0  501    0  0.00000000000E+00 -0.00000000000E+00 -0.74434732408E+02  0.74434732408E+02  0.00000000000E+00 0. -1.
         25    2    1    2    0    0  0.34757306150E+02 -0.45984789093E+02  0.26208446357E+03  0.29607187122E+03  0.12509043019E+03 0.  0.
         23    2    1    2    0    0 -0.34757306150E+02  0.45984789093E+02 -0.73864517597E+01  0.10749560541E+03  0.90432706216E+02 0.  0.
          5    1    3    3  502    0 -0.17917975165E+02 -0.52263850764E+01 -0.58105567465E+01  0.19990095164E+02  0.41800000000E+01 0.  1.
         -5    1    3    3    0  502  0.52675281314E+02 -0.40758404016E+02  0.26789502032E+03  0.27608177606E+03  0.41800000000E+01 0.  1.
        -11    1    4    4    0    0 -0.10702230089E+02  0.26145828187E+02  0.41085182842E+02  0.49861150304E+02  0.00000000000E+00 0.  1.
         11    1    4    4    0    0 -0.24055076061E+02  0.19838960906E+02 -0.48471634602E+02  0.57634455103E+02  0.00000000000E+00 0. -1.
</event>
<event>
 8    1  0.7102339E-009  0.1363199E+03  0.7561462E-02  0.1218368E+00
         -2   -1    0    0    0  501 -0.00000000000E+00  0.00000000000E+00  0.62102196792E+02  0.62102196792E+02  0.00000000000E+00 0.  1.
          2   -1    0    0  501    0  0.00000000000E+00 -0.00000000000E+00 -0.55009823049E+03  0.55009823049E+03  0.00000000000E+00 0. -1.
         25    2    1    2    0    0 -0.22456169653E+02  0.10579757136E+03 -0.83110890125E+02  0.18507055372E+03  0.12508510757E+03 0.  0.
         23    2    1    2    0    0  0.22456169653E+02 -0.10579757136E+03 -0.40488514357E+03  0.42712987356E+03  0.82526018580E+02 0.  0.
          5    1    3    3  502    0 -0.55813246180E+02  0.67122064001E+02 -0.98387189022E+02  0.13159787722E+03  0.41800000000E+01 0. -1.
         -5    1    3    3    0  502  0.33357076527E+02  0.38675507361E+02  0.15276298897E+02  0.53472676500E+02  0.41800000000E+01 0. -1.
        -11    1    4    4    0    0 -0.54139530972E+01 -0.10599127568E+03 -0.34731331328E+03  0.36316662704E+03  0.00000000000E+00 0. -1.
         11    1    4    4    0    0  0.27870122751E+02  0.19370431765E+00 -0.57571830287E+02  0.63963246525E+02  0.00000000000E+00 0.  1.
</event>
<event>
 8    1  0.7102339E-009  0.3934456E+03  0.7561462E-02  0.1046073E+00
          1   -1    0    0  501    0  0.00000000000E+00  0.00000000000E+00  0.18871946071E+03  0.18871946071E+03  0.00000000000E+00 0. -1.
         -1   -1    0    0    0  501 -0.00000000000E+00 -0.00000000000E+00 -0.91840106796E+03  0.91840106796E+03  0.00000000000E+00 0.  1.
         25    2    1    2    0    0 -0.35164588698E+03  0.14855956293E+03 -0.53578158262E+03  0.66965154780E+03  0.12508604086E+03 0.  0.
         23    2    1    2    0    0  0.35164588698E+03 -0.14855956293E+03 -0.19390002463E+03  0.43746898088E+03  0.89761439981E+02 0.  0.
          5    1    3    3  502    0 -0.28676572740E+03  0.74011386760E+02 -0.44995120412E+03  0.53868898845E+03  0.41800000000E+01 0. -1.
         -5    1    3    3    0  502 -0.64880159586E+02  0.74548176172E+02 -0.85830378499E+02  0.13096255935E+03  0.41800000000E+01 0. -1.
        -11    1    4    4    0    0  0.13413659286E+03 -0.11357256287E+02 -0.57693584157E+02  0.14645873981E+03  0.00000000000E+00 0.  1.
         11    1    4    4    0    0  0.21750929412E+03 -0.13720230665E+03 -0.13620644047E+03  0.29101024107E+03  0.00000000000E+00 0. -1.
</event>
<event>
 8    1  0.7102339E-009  0.8705921E+02  0.7561462E-02  0.1310134E+00
          1   -1    0    0  501    0  0.00000000000E+00  0.00000000000E+00  0.13156074468E+03  0.13156074468E+03  0.00000000000E+00 0. -1.
         -1   -1    0    0    0  501 -0.00000000000E+00 -0.00000000000E+00 -0.91973619270E+02  0.91973619270E+02  0.00000000000E+00 0.  1.
         25    2    1    2    0    0  0.11962215001E+02 -0.48558425524E+01  0.71892785130E+01  0.12595533961E+03  0.12508552297E+03 0.  0.
         23    2    1    2    0    0 -0.11962215001E+02  0.48558425524E+01  0.32397846894E+02  0.97579024333E+02  0.91133812121E+02 0.  0.
          5    1    3    3  502    0 -0.54494120606E+02 -0.10483754676E+02  0.17504866507E+02  0.58338761078E+02  0.41800000000E+01 0. -1.
         -5    1    3    3    0  502  0.66456335607E+02  0.56279121235E+01 -0.10315587994E+02  0.67616578535E+02  0.41800000000E+01 0. -1.
        -11    1    4    4    0    0  0.16951949510E+02 -0.94231537803E+01 -0.25061021545E+02  0.31689418112E+02  0.00000000000E+00 0.  1.
         11    1    4    4    0    0 -0.28914164511E+02  0.14278996333E+02  0.57458868439E+02  0.65889606221E+02  0.00000000000E+00 0. -1.
</event>
<event>
 8    1  0.7102339E-009  0.1247430E+03  0.7561462E-02  0.1235471E+00
         -2   -1    0    0    0  501 -0.00000000000E+00  0.00000000000E+00  0.35045983545E+02  0.35045983545E+02  0.00000000000E+00 0.  1.
          2   -1    0    0  501    0  0.00000000000E+00 -0.00000000000E+00 -0.62190591479E+03  0.62190591479E+03  0.00000000000E+00 0. -1.
         25    2    1    2    0    0  0.29291476691E+02  0.86827507032E+02 -0.22922574655E+03  0.27674765366E+03  0.12509122409E+03 0.  0.
         23    2    1    2    0    0 -0.29291476691E+02 -0.86827507032E+02 -0.35763418469E+03  0.38020424467E+03  0.90862814276E+02 0.  0.
          5    1    3    3  502    0 -0.15461312522E+02  0.93892746112E+02 -0.92989215074E+02  0.13311411074E+03  0.41800000000E+01 0. -1.
         -5    1    3    3    0  502  0.44752789213E+02 -0.70652390801E+01 -0.13623653147E+03  0.14363354293E+03  0.41800000000E+01 0. -1.
        -11    1    4    4    0    0  0.16525662382E+02 -0.10089038221E+02 -0.11074598041E+02  0.22305446222E+02  0.00000000000E+00 0.  1.
         11    1    4    4    0    0 -0.45817139073E+02 -0.76738468811E+02 -0.34655958665E+03  0.35789879845E+03  0.00000000000E+00 0. -1.
</event>
<event>
 8    1  0.7102339E-009  0.1225296E+03  0.7561462E-02  0.1238981E+00
         -1   -1    0    0    0  501 -0.00000000000E+00  0.00000000000E+00  0.20605399309E+02  0.20605399309E+02  0.00000000000E+00 0.  1.
          1   -1    0    0  501    0  0.00000000000E+00 -0.00000000000E+00 -0.77212669007E+03  0.77212669007E+03  0.00000000000E+00 0. -1.
         25    2    1    2    0    0  0.55990967283E+02 -0.27249773911E+02 -0.45111560914E+03  0.47226008309E+03  0.12508698845E+03 0.  0.
         23    2    1    2    0    0 -0.55990967283E+02  0.27249773911E+02 -0.30040568162E+03  0.32047200629E+03  0.92634737899E+02 0.  0.
          5    1    3    3  502    0 -0.35261821851E+02 -0.26423912553E+02 -0.20534000926E+03  0.21005620923E+03  0.41800000000E+01 0. -1.
         -5    1    3    3    0  502  0.91252789134E+02 -0.82586135768E+00 -0.24577559988E+03  0.26220387386E+03  0.41800000000E+01 0. -1.
        -11    1    4    4    0    0  0.24583846890E+02  0.64669173683E+00 -0.97177250815E+02  0.10024071934E+03  0.00000000000E+00 0.  1.
         11    1    4    4    0    0 -0.80574814173E+02  0.26603082174E+02 -0.20322843081E+03  0.22023128695E+03  0.00000000000E+00 0. -1.
</event>
<event>
 7    1  0.7102339E-009  0.7954847E+02  0.7561462E-02  0.1330338E+00
          2   -1    0    0  501    0  0.00000000000E+00  0.00000000000E+00  0.66553201907E+03  0.66553201907E+03  0.00000000000E+00 0. -1.
         -2   -1    0    0    0  501 -0.00000000000E+00 -0.00000000000E+00 -0.22130027897E+02  0.22130027897E+02  0.00000000000E+00 0.  1.
         25    2    1    2    0    0  0.51692687686E+02  0.32325602903E+02  0.53467010871E+03  0.55247642957E+03  0.12506398969E+03 0.  0.
          5    1    3    3  502    0  0.12366209947E+02  0.48113276990E+02  0.70434693479E+02  0.86292114452E+02  0.41800000000E+01 0.  1.
         -5    1    3    3    0  502  0.39326477739E+02 -0.15787674087E+02  0.46423541523E+03  0.46618431511E+03  0.41800000000E+01 0.  1.
        -11    1    1    2    0    0 -0.26682726645E+02 -0.31979442994E+02  0.10060623809E+03  0.10888649052E+03  0.00000000000E+00 0. -1.
         11    1    1    2    0    0 -0.25009961041E+02 -0.34615990917E+00  0.81256443689E+01  0.26299126874E+02  0.00000000000E+00 0.  1.
</event>
<event>
 8    1  0.7102339E-009  0.9400760E+02  0.7561462E-02  0.1293427E+00
          2   -1    0    0  501    0  0.00000000000E+00  0.00000000000E+00  0.86302694373E+02  0.86302694373E+02  0.00000000000E+00 0.  1.
         -2   -1    0    0    0  501 -0.00000000000E+00 -0.00000000000E+00 -0.18979366308E+03  0.18979366308E+03  0.00000000000E+00 0. -1.
         25    2    1    2    0    0 -0.22564858357E+02 -0.39169593720E+02 -0.10699884263E+03  0.17070345872E+03  0.12508992201E+03 0.  0.
         23    2    1    2    0    0  0.22564858357E+02  0.39169593720E+02  0.35078739278E+01  0.10539289873E+03  0.95141620852E+02 0.  0.
          5    1    3    3  502    0  0.47049512778E+01 -0.72146198727E+02 -0.22398889214E+02  0.75804968144E+02  0.41800000000E+01 0.  1.
         -5    1    3    3    0  502 -0.27269809635E+02  0.32976605007E+02 -0.84599953420E+02  0.94898490578E+02  0.41800000000E+01 0.  1.
        -11    1    4    4    0    0  0.32927122352E+02  0.48523292131E+02 -0.32308837669E+02  0.66951969778E+02  0.00000000000E+00 0. -1.
         11    1    4    4    0    0 -0.10362263995E+02 -0.93536984115E+01  0.35816711597E+02  0.38440928952E+02  0.00000000000E+00 0.  1.
</event>
<event>
 8    1  0.7102339E-009  0.1658431E+03  0.7561462E-02  0.1182253E+00
         -2   -1    0    0    0  501 -0.00000000000E+00  0.00000000000E+00  0.38657557319E+03  0.38657557319E+03  0.00000000000E+00 0.  1.
          2   -1    0    0  501    0  0.00000000000E+00 -0.00000000000E+00 -0.82522219712E+02  0.82522219712E+02  0.00000000000E+00 0. -1.
         25    2    1    2    0    0  0.75966756352E+02 -0.11913380480E+03  0.16396227349E+03  0.24997956042E+03  0.12506934869E+03 0.  0.
         23    2    1    2    0    0 -0.75966756352E+02  0.11913380480E+03  0.14009107998E+03  0.21911823248E+03  0.91779505324E+02 0.  0.
          5    1    3    3  502    0  0.31908047724E+02  0.16201245162E+02  0.46783735117E+01  0.36331301010E+02  0.41800000000E+01 0. -1.
         -5    1    3    3    0  502  0.44058708628E+02 -0.13533504997E+03  0.15928389998E+03  0.21364825941E+03  0.41800000000E+01 0. -1.
        -11    1    4    4    0    0 -0.19908042651E+02  0.85735030293E+02  0.12373485085E+03  0.15184577339E+03  0.00000000000E+00 0. -1.
         11    1    4    4    0    0 -0.56058713701E+02  0.33398774511E+02  0.16356229131E+02  0.67272459090E+02  0.00000000000E+00 0.  1.
</event>
<event>
 8    1  0.7102339E-009  0.1221461E+03  0.7561462E-02  0.1239598E+00
         -1   -1    0    0    0  501 -0.00000000000E+00  0.00000000000E+00  0.52891120995E+02  0.52891120995E+02  0.00000000000E+00 0.  1.
          1   -1    0    0  501    0  0.00000000000E+00 -0.00000000000E+00 -0.42490531232E+03  0.42490531232E+03  0.00000000000E+00 0. -1.
         25    2    1    2    0    0 -0.78041394470E+02 -0.81536637397E+02 -0.19570967952E+03  0.25824278276E+03  0.12509345986E+03 0.  0.
         23    2    1    2    0    0  0.78041394470E+02  0.81536637397E+02 -0.17630451180E+03  0.21955365055E+03  0.66195483986E+02 0.  0.
          5    1    3    3  502    0 -0.10486543935E+02 -0.19908559577E+01  0.17445331623E+02  0.20874460629E+02  0.41800000000E+01 0. -1.
         -5    1    3    3    0  502 -0.67554850535E+02 -0.79545781440E+02 -0.21315501114E+03  0.23736832213E+03  0.41800000000E+01 0. -1.
        -11    1    4    4    0    0  0.65502666930E+02  0.24418094761E+02 -0.74596837319E+02  0.10223272893E+03  0.00000000000E+00 0. -1.
         11    1    4    4    0    0  0.12538727540E+02  0.57118542636E+02 -0.10170767448E+03  0.11732092162E+03  0.00000000000E+00 0.  1.
</event>
<event>
 8    1  0.7102339E-009  0.7296426E+02  0.7561462E-02  0.1350294E+00
         -2   -1    0    0    0  501 -0.00000000000E+00  0.00000000000E+00  0.29396558585E+03  0.29396558585E+03  0.00000000000E+00 0.  1.
          2   -1    0    0  501    0  0.00000000000E+00 -0.00000000000E+00 -0.54748361260E+02  0.54748361260E+02  0.00000000000E+00 0. -1.
         25    2    1    2    0    0  0.45400866757E+02 -0.55964633752E+01  0.17629344018E+03  0.22095115171E+03  0.12508986884E+03 0.  0.
         23    2    1    2    0    0 -0.45400866757E+02  0.55964633752E+01  0.62923784410E+02  0.12776279540E+03  0.10134776830E+03 0.  0.
          5    1    3    3  502    0  0.31914324727E+01 -0.99058844543E+01 -0.18452246617E+02  0.21593276576E+02  0.41800000000E+01 0.  1.
         -5    1    3    3    0  502  0.42209434284E+02  0.43094210791E+01  0.19474568679E+03  0.19935787513E+03  0.41800000000E+01 0.  1.
        -11    1    4    4    0    0 -0.31659386483E+02 -0.36194338211E+02 -0.33651823251E+01  0.48204474098E+02  0.00000000000E+00 0. -1.
         11    1    4    4    0    0 -0.13741480274E+02  0.41790801586E+02  0.66288966735E+02  0.79558321301E+02  0.00000000000E+00 0.  1.
</event>
<event>
 8    1  0.7102339E-009  0.1146847E+03  0.7561462E-02  0.1252132E+00
          3   -1    0    0  501    0  0.00000000000E+00  0.00000000000E+00  0.25895406269E+03  0.25895406269E+03  0.00000000000E+00 0. -1.
         -3   -1    0    0    0  501 -0.00000000000E+00 -0.00000000000E+00 -0.95057374752E+02  0.95057374752E+02  0.00000000000E+00 0.  1.
         25    2    1    2    0    0  0.73046439337E+02 -0.63060801722E+02  0.15420351385E+03  0.22078455522E+03  0.12511854029E+03 0.  0.
         23    2    1    2    0    0 -0.73046439337E+02  0.63060801722E+02  0.96931740851E+01  0.13322688222E+03  0.91340010450E+02 0.  0.
          5    1    3    3  502    0  0.24685774404E+01  0.16894675503E+02  0.99140072349E+02  0.10068639571E+03  0.41800000000E+01 0. -1.
         -5    1    3    3    0  502  0.70577861897E+02 -0.79955477225E+02  0.55063441502E+02  0.12009815951E+03  0.41800000000E+01 0. -1.
        -11    1    4    4    0    0 -0.27484352741E+02  0.50990488094E+02  0.45806365186E+02  0.73848782070E+02  0.00000000000E+00 0. -1.
         11    1    4    4    0    0 -0.45562086596E+02  0.12070313628E+02 -0.36113191101E+02  0.59378100151E+02  0.00000000000E+00 0.  1.
</event>
<event>
 8    1  0.7102339E-009  0.9595352E+02  0.7561462E-02  0.1289043E+00
         -2   -1    0    0    0  501 -0.00000000000E+00  0.00000000000E+00  0.12994576023E+03  0.12994576023E+03  0.00000000000E+00 0.  1.
          2   -1    0    0  501    0  0.00000000000E+00 -0.00000000000E+00 -0.10006517832E+03  0.10006517832E+03  0.00000000000E+00 0. -1.
         25    2    1    2    0    0  0.70231783522E+01 -0.32105893008E+02 -0.33272435537E-01  0.12933533909E+03  0.12509002930E+03 0.  0.
         23    2    1    2    0    0 -0.70231783522E+01  0.32105893008E+02  0.29913854343E+02  0.10067559946E+03  0.90336173513E+02 0.  0.
          5    1    3    3  502    0  0.27262999766E+02  0.35801472165E+02  0.27835037686E+02  0.53078039606E+02  0.41800000000E+01 0.  1.
         -5    1    3    3    0  502 -0.20239821414E+02 -0.67907365172E+02 -0.27868310122E+02  0.76257299484E+02  0.41800000000E+01 0.  1.
        -11    1    4    4    0    0 -0.49286947133E+01 -0.21513179312E+02  0.40367374813E+02  0.46006889321E+02  0.00000000000E+00 0.  1.
         11    1    4    4    0    0 -0.20944836389E+01  0.53619072319E+02 -0.10453520470E+02  0.54668710139E+02  0.00000000000E+00 0. -1.
</event>
<event>
 8    1  0.7102339E-009  0.7285116E+02  0.7561462E-02  0.1350657E+00
          1   -1    0    0  501    0  0.00000000000E+00  0.00000000000E+00  0.46984018435E+02  0.46984018435E+02  0.00000000000E+00 0. -1.
         -1   -1    0    0    0  501 -0.00000000000E+00 -0.00000000000E+00 -0.27995315237E+03  0.27995315237E+03  0.00000000000E+00 0.  1.
         25    2    1    2    0    0  0.74744435535E+01  0.35315370877E+01 -0.77924837615E+02  0.14757384880E+03  0.12504967602E+03 0.  0.
         23    2    1    2    0    0 -0.74744435535E+01 -0.35315370877E+01 -0.15504429632E+03  0.17936332200E+03  0.89800492194E+02 0.  0.
          5    1    3    3  502    0  0.34974134004E+01 -0.30083758651E+02  0.24779540395E+02  0.39354319423E+02  0.41800000000E+01 0. -1.
         -5    1    3    3    0  502  0.39770301531E+01  0.33615295739E+02 -0.10270437801E+03  0.10821952938E+03  0.41800000000E+01 0. -1.
        -11    1    4    4    0    0 -0.21193867595E+02  0.34556714899E+02 -0.38186337519E+02  0.55691497927E+02  0.00000000000E+00 0. -1.
         11    1    4    4    0    0  0.13719424041E+02 -0.38088251986E+02 -0.11685795880E+03  0.12367182408E+03  0.00000000000E+00 0.  1.
</event>
<event>
 8    1  0.7102339E-009  0.8416050E+02  0.7561462E-02  0.1317643E+00
          1   -1    0    0  501    0  0.00000000000E+00  0.00000000000E+00  0.25874403555E+02  0.25874403555E+02  0.00000000000E+00 0. -1.
         -1   -1    0    0    0  501 -0.00000000000E+00 -0.00000000000E+00 -0.49827447242E+03  0.49827447242E+03  0.00000000000E+00 0.  1.
         25    2    1    2    0    0 -0.15969128987E+02 -0.26125173473E+02 -0.31165627522E+03  0.33721589090E+03  0.12508950965E+03 0.  0.
         23    2    1    2    0    0  0.15969128987E+02  0.26125173473E+02 -0.16074379365E+03  0.18693298507E+03  0.90376080591E+02 0.  0.
          5    1    3    3  502    0  0.35661398846E+02 -0.14085653639E+02 -0.26078674129E+03  0.26362347740E+03  0.41800000000E+01 0.  1.
         -5    1    3    3    0  502 -0.51630527833E+02 -0.12039519834E+02 -0.50869533928E+02  0.73592413496E+02  0.41800000000E+01 0.  1.
        -11    1    4    4    0    0  0.41039267114E+02  0.30487404567E+02 -0.15144324234E+03  0.15983979146E+03  0.00000000000E+00 0.  1.
         11    1    4    4    0    0 -0.25070138127E+02 -0.43622310937E+01 -0.93005513084E+01  0.27093193619E+02  0.00000000000E+00 0. -1.
</event>
<event>
 8    1  0.7102339E-009  0.1246349E+03  0.7561462E-02  0.1235641E+00
         -1   -1    0    0    0  501 -0.00000000000E+00  0.00000000000E+00  0.14934728207E+02  0.14934728207E+02  0.00000000000E+00 0.  1.
          1   -1    0    0  501    0  0.00000000000E+00 -0.00000000000E+00 -0.11692343289E+04  0.11692343289E+04  0.00000000000E+00 0. -1.
         25    2    1    2    0    0 -0.32340789148E+01  0.64238733301E+02 -0.80732504039E+03  0.81948667614E+03  0.12509043690E+03 0.  0.
         23    2    1    2    0    0  0.32340789148E+01 -0.64238733301E+02 -0.34697456026E+03  0.36468238092E+03  0.92004452984E+02 0.  0.
          5    1    3    3  502    0 -0.59711053885E+02  0.52251289041E+02 -0.55151240064E+03  0.55720643178E+03  0.41800000000E+01 0. -1.
         -5    1    3    3    0  502  0.56476974970E+02  0.11987444260E+02 -0.25581263975E+03  0.26228024436E+03  0.41800000000E+01 0. -1.
        -11    1    4    4    0    0  0.15769630538E+02 -0.85665188176E+02 -0.28107072719E+03  0.29425832086E+03  0.00000000000E+00 0.  1.
         11    1    4    4    0    0 -0.12535551623E+02  0.21426454875E+02 -0.65903833065E+02  0.70424060063E+02  0.00000000000E+00 0. -1.
</event>
<event>
 8    1  0.7102339E-009  0.1302575E+03  0.7561462E-02  0.1227074E+00
         -2   -1    0    0    0  501 -0.00000000000E+00  0.00000000000E+00  0.31859967372E+02  0.31859967372E+02  0.00000000000E+00 0.  1.
          2   -1    0    0  501    0  0.00000000000E+00 -0.00000000000E+00 -0.68487505888E+03  0.68487505888E+03  0.00000000000E+00 0. -1.
         25    2    1    2    0    0 -0.85276955641E+02 -0.48601373184E+02 -0.30353978799E+03  0.34266351425E+03  0.12509048112E+03 0.  0.
         23    2    1    2    0    0  0.85276955641E+02  0.48601373184E+02 -0.34947530352E+03  0.37407151200E+03  0.90345202881E+02 0.  0.
          5    1    3    3  502    0 -0.71916547828E+02  0.53334379136E+01 -0.26560986121E+03  0.27525716373E+03  0.41800000000E+01 0.  1.
         -5    1    3    3    0  502 -0.13360407813E+02 -0.53934811097E+02 -0.37929926774E+02  0.67406350518E+02  0.41800000000E+01 0.  1.
        -11    1    4    4    0    0  0.30890599322E+02 -0.25903861511E+02 -0.87782459339E+02  0.96597097965E+02  0.00000000000E+00 0.  1.
         11    1    4    4    0    0  0.54386356319E+02  0.74505234695E+02 -0.26169284418E+03  0.27747441404E+03  0.00000000000E+00 0. -1.
</event>
<event>
 8    1  0.7102339E-009  0.7330194E+02  0.7561462E-02  0.1349211E+00
         -3   -1    0    0    0  501 -0.00000000000E+00  0.00000000000E+00  0.38972602724E+03  0.38972602724E+03  0.00000000000E+00 0.  1.
          3   -1    0    0  501    0  0.00000000000E+00 -0.00000000000E+00 -0.33226383573E+02  0.33226383573E+02  0.00000000000E+00 0. -1.
         25    2    1    2    0    0 -0.29127635856E+01  0.19267127191E+02  0.26309624122E+03  0.29196794661E+03  0.12508374523E+03 0.  0.
         23    2    1    2    0    0  0.29127635856E+01 -0.19267127191E+02  0.93403402442E+02  0.13098446420E+03  0.89738664423E+02 0.  0.
          5    1    3    3  502    0 -0.21836652475E+02 -0.20304989969E+02  0.24063309122E+03  0.24250956476E+03  0.41800000000E+01 0. -1.
         -5    1    3    3    0  502  0.18923888889E+02  0.39572117160E+02  0.22463150000E+02  0.49458381849E+02  0.41800000000E+01 0. -1.
        -11    1    4    4    0    0  0.95409200697E+01  0.25473786785E+02  0.78945717722E+02  0.83500714462E+02  0.00000000000E+00 0.  1.
         11    1    4    4    0    0 -0.66281564841E+01 -0.44740913977E+02  0.14457684720E+02  0.47483749739E+02  0.00000000000E+00 0. -1.
</event>
<event>
 8    1  0.7102339E-009  0.9864321E+02  0.7561462E-02  0.1283175E+00
          1   -1    0    0  501    0  0.00000000000E+00  0.00000000000E+00  0.15125111530E+03  0.15125111530E+03  0.00000000000E+00 0. -1.
         -1   -1    0    0    0  501 -0.00000000000E+00 -0.00000000000E+00 -0.11878938070E+03  0.11878938070E+03  0.00000000000E+00 0.  1.
         25    2    1    2    0    0 -0.54318582547E+02  0.49429257049E+02 -0.75576318695E+01  0.14525377977E+03  0.12509109831E+03 0.  0.
         23    2    1    2    0    0  0.54318582547E+02 -0.49429257049E+02  0.40019366466E+02  0.12478671624E+03  0.92608935823E+02 0.  0.
          5    1    3    3  502    0 -0.64038118789E+02  0.42823418219E+02 -0.55935280178E+02  0.95294038505E+02  0.41800000000E+01 0. -1.
         -5    1    3    3    0  502  0.97195362422E+01  0.66058388301E+01  0.48377648308E+02  0.49959741265E+02  0.41800000000E+01 0. -1.
        -11    1    4    4    0    0 -0.19124873261E+02 -0.22278548644E+02  0.35898937157E+02  0.46377022284E+02  0.00000000000E+00 0.  1.
         11    1    4    4    0    0  0.73443455808E+02 -0.27150708405E+02  0.41204293087E+01  0.78409693952E+02  0.00000000000E+00 0. -1.
</event>
<event>
 8    1  0.7102339E-009  0.1447743E+03  0.7561462E-02  0.1207045E+00
         -4   -1    0    0    0  501 -0.00000000000E+00  0.00000000000E+00  0.47588838002E+02  0.47588838002E+02  0.00000000000E+00 0.  1.
          4   -1    0    0  501    0  0.00000000000E+00 -0.00000000000E+00 -0.58250098789E+03  0.58250098789E+03  0.00000000000E+00 0. -1.
         25    2    1    2    0    0  0.60093469696E+02 -0.93764206496E+02 -0.39922562803E+03  0.43293375247E+03  0.12509028914E+03 0.  0.
         23    2    1    2    0    0 -0.60093469696E+02  0.93764206496E+02 -0.13568652186E+03  0.19715607342E+03  0.89759308993E+02 0.  0.
          5    1    3    3  502    0  0.43165211235E+02  0.23182821174E+02 -0.12296951936E+03  0.13243735784E+03  0.41800000000E+01 0. -1.
         -5    1    3    3    0  502  0.16928258461E+02 -0.11694702767E+03 -0.27625610867E+03  0.30049639464E+03  0.41800000000E+01 0. -1.
        -11    1    4    4    0    0  0.69302942189E+01  0.25667048528E+02  0.50382909354E+01  0.27059392706E+02  0.00000000000E+00 0.  1.
         11    1    4    4    0    0 -0.67023763915E+02  0.68097157969E+02 -0.14072481279E+03  0.17009668071E+03  0.00000000000E+00 0. -1.
</event>
<event>
 8    1  0.7102339E-009  0.1036817E+03  0.7561462E-02  0.1272739E+00
          1   -1    0    0  501    0  0.00000000000E+00  0.00000000000E+00  0.33818919141E+02  0.33818919141E+02  0.00000000000E+00 0. -1.
         -1   -1    0    0    0  501 -0.00000000000E+00 -0.00000000000E+00 -0.57007578081E+03  0.57007578081E+03  0.00000000000E+00 0.  1.
         25    2    1    2    0    0  0.57295501079E+02  0.47816758994E+02 -0.19816553072E+03  0.24593956934E+03  0.12508987696E+03 0.  0.
         23    2    1    2    0    0 -0.57295501079E+02 -0.47816758994E+02 -0.33809133096E+03  0.35795513062E+03  0.90867544159E+02 0.  0.
          5    1    3    3  502    0 -0.20345619185E+01  0.26568323987E+02 -0.17742371446E+03  0.17946214680E+03  0.41800000000E+01 0.  1.
         -5    1    3    3    0  502  0.59330062998E+02  0.21248435007E+02 -0.20741816255E+02  0.66477422537E+02  0.41800000000E+01 0.  1.
        -11    1    4    4    0    0 -0.71430586613E+02 -0.43922031370E+01 -0.21966291488E+03  0.23102687360E+03  0.00000000000E+00 0. -1.
         11    1    4    4    0    0  0.14135085533E+02 -0.43424555857E+02 -0.11842841608E+03  0.12692825702E+03  0.00000000000E+00 0.  1.
</event>
<event>
 8    1  0.7102339E-009  0.5973879E+02  0.7561462E-02  0.1398931E+00
          1   -1    0    0  501    0  0.00000000000E+00  0.00000000000E+00  0.40025243903E+03  0.40025243903E+03  0.00000000000E+00 0. -1.
         -1   -1    0    0    0  501 -0.00000000000E+00 -0.00000000000E+00 -0.36425842637E+02  0.36425842637E+02  0.00000000000E+00 0.  1.
         25    2    1    2    0    0  0.14410950693E+02 -0.24997680664E+02  0.12325901548E+03  0.17797059982E+03  0.12509272546E+03 0.  0.
         23    2    1    2    0    0 -0.14410950693E+02  0.24997680664E+02  0.24056758091E+03  0.25870768184E+03  0.90688169700E+02 0.  0.
          5    1    3    3  502    0 -0.18906608020E+01 -0.20682294856E+02 -0.22660187565E+02  0.31020773995E+02  0.41800000000E+01 0. -1.
         -5    1    3    3    0  502  0.16301611495E+02 -0.43153858078E+01  0.14591920305E+03  0.14694982582E+03  0.41800000000E+01 0. -1.
        -11    1    4    4    0    0  0.30175632029E+02  0.19657886605E+02  0.17851393037E+03  0.18211047364E+03  0.00000000000E+00 0. -1.
         11    1    4    4    0    0 -0.44586582722E+02  0.53397940583E+01  0.62053650536E+02  0.76597208201E+02  0.00000000000E+00 0.  1.
</event>
<event>
 8    1  0.7102339E-009  0.1118101E+03  0.7561462E-02  0.1257254E+00
          1   -1    0    0  501    0  0.00000000000E+00  0.00000000000E+00  0.13777436876E+04  0.13777436876E+04  0.00000000000E+00 0. -1.
         -1   -1    0    0    0  501 -0.00000000000E+00 -0.00000000000E+00 -0.12642207788E+02  0.12642207788E+02  0.00000000000E+00 0.  1.
         25    2    1    2    0    0 -0.19165840475E+02 -0.31442980828E+02  0.11025228771E+04  0.11102083904E+04  0.12509990088E+03 0.  0.
         23    2    1    2    0    0  0.19165840475E+02  0.31442980828E+02  0.26257860280E+03  0.28017750503E+03  0.90531327138E+02 0.  0.
          5    1    3    3  502    0  0.20930799687E+02 -0.70563619040E+02  0.67378149187E+03  0.67780254787E+03  0.41800000000E+01 0. -1.
         -5    1    3    3    0  502 -0.40096640162E+02  0.39120638212E+02  0.42874138518E+03  0.43240584253E+03  0.41800000000E+01 0. -1.
        -11    1    4    4    0    0  0.22754505236E+02  0.60400834302E+02  0.21387131000E+03  0.22339866950E+03  0.00000000000E+00 0. -1.
         11    1    4    4    0    0 -0.35886647614E+01 -0.28957853473E+02  0.48707292795E+02  0.56778835529E+02  0.00000000000E+00 0.  1.
</event>
<event>
 7    1  0.7102339E-009  0.1443834E+03  0.7561462E-02  0.1207550E+00
          1   -1    0    0  501    0  0.00000000000E+00  0.00000000000E+00  0.15280936943E+04  0.15280936943E+04  0.00000000000E+00 0. -1.
         -1   -1    0    0    0  501 -0.00000000000E+00 -0.00000000000E+00 -0.15157421798E+02  0.15157421798E+02  0.00000000000E+00 0.  1.
         25    2    1    2    0    0 -0.11596737672E+03 -0.20808788778E+02  0.10931432738E+04  0.11065708380E+04  0.12512139833E+03 0.  0.
          5    1    3    3  502    0  0.25753273454E+02 -0.91479145923E+01  0.12421719877E+03  0.12725682813E+03  0.41800000000E+01 0. -1.
         -5    1    3    3    0  502 -0.14172065018E+03 -0.11660874186E+02  0.96892607499E+03  0.97931400984E+03  0.41800000000E+01 0. -1.
        -11    1    1    2    0    0  0.80301098015E+02  0.69766228008E+01  0.25178548024E+03  0.26437259251E+03  0.00000000000E+00 0. -1.
         11    1    1    2    0    0  0.35666278709E+02  0.13832165978E+02  0.16800751853E+03  0.17230768565E+03  0.00000000000E+00 0.  1.
</event>
<event>
 8    1  0.7102339E-009  0.1137032E+03  0.7561462E-02  0.1253862E+00
          2   -1    0    0  501    0  0.00000000000E+00  0.00000000000E+00  0.58644724340E+03  0.58644724340E+03  0.00000000000E+00 0. -1.
         -2   -1    0    0    0  501 -0.00000000000E+00 -0.00000000000E+00 -0.22929180694E+02  0.22929180694E+02  0.00000000000E+00 0.  1.
         25    2    1    2    0    0  0.73423872457E+01  0.37744157533E+02  0.31828117519E+03  0.34413515439E+03  0.12509023114E+03 0.  0.
         23    2    1    2    0    0 -0.73423872457E+01 -0.37744157533E+02  0.24523688752E+03  0.26524126971E+03  0.93451955990E+02 0.  0.
          5    1    3    3  502    0  0.60337361008E+02 -0.12542959675E+01  0.10834681442E+03  0.12409139772E+03  0.41800000000E+01 0.  1.
         -5    1    3    3    0  502 -0.52994973762E+02  0.38998453500E+02  0.20993436076E+03  0.22004375667E+03  0.41800000000E+01 0.  1.
        -11    1    4    4    0    0  0.74772732616E+01 -0.67407899800E+02  0.15992897320E+03  0.17371531608E+03  0.00000000000E+00 0. -1.
         11    1    4    4    0    0 -0.14819660507E+02  0.29663742267E+02  0.85307914315E+02  0.91525953628E+02  0.00000000000E+00 0.  1.
</event>
<event>
 8    1  0.7102339E-009  0.1060778E+03  0.7561462E-02  0.1268010E+00
          1   -1    0    0  501    0  0.00000000000E+00  0.00000000000E+00  0.52813358925E+03  0.52813358925E+03  0.00000000000E+00 0. -1.
         -1   -1    0    0    0  501 -0.00000000000E+00 -0.00000000000E+00 -0.23933510994E+02  0.23933510994E+02  0.00000000000E+00 0.  1.
         25    2    1    2    0    0 -0.53813493635E+01  0.16338861281E+02  0.23725733186E+03  0.26876477606E+03  0.12509015159E+03 0.  0.
         23    2    1    2    0    0  0.53813493635E+01 -0.16338861281E+02  0.26694274640E+03  0.28330232418E+03  0.93305196647E+02 0.  0.
          5    1    3    3  502    0 -0.43542387810E+02 -0.36055630062E+02  0.14711558069E+03  0.15765917188E+03  0.41800000000E+01 0. -1.
         -5    1    3    3    0  502  0.38161038447E+02  0.52394491343E+02  0.90141751164E+02  0.11110560418E+03  0.41800000000E+01 0. -1.
        -11    1    4    4    0    0 -0.24932190036E+02 -0.43288051865E+02  0.18832858027E+03  0.19484127817E+03  0.00000000000E+00 0.  1.
         11    1    4    4    0    0  0.30313539400E+02  0.26949190584E+02  0.78614166134E+02  0.88461046009E+02  0.00000000000E+00 0. -1.
</event>
<event>
 8    1  0.7102339E-009  0.1195840E+03  0.7561462E-02  0.1243785E+00
          2   -1    0    0  501    0  0.00000000000E+00  0.00000000000E+00  0.88702113329E+03  0.88702113329E+03  0.00000000000E+00 0. -1.
         -2   -1    0    0    0  501 -0.00000000000E+00 -0.00000000000E+00 -0.42705383413E+02  0.42705383413E+02  0.00000000000E+00 0.  1.
         25    2    1    2    0    0  0.53772685134E+02 -0.72400720590E+02  0.75850190772E+03  0.77401952688E+03  0.12509083892E+03 0.  0.
         23    2    1    2    0    0 -0.53772685134E+02  0.72400720590E+02  0.85813842161E+02  0.15570698982E+03  0.93526922131E+02 0.  0.
          5    1    3    3  502    0  0.45000400565E+02 -0.54904540652E+01  0.59967033422E+03  0.60139601203E+03  0.41800000000E+01 0. -1.
         -5    1    3    3    0  502  0.87722845694E+01 -0.66910266525E+02  0.15883157349E+03  0.17262351486E+03  0.41800000000E+01 0. -1.
        -11    1    4    4    0    0 -0.69471196093E+02  0.21438091895E+02  0.30403632140E+02  0.78804947294E+02  0.00000000000E+00 0.  1.
         11    1    4    4    0    0  0.15698510959E+02  0.50962628695E+02  0.55410210021E+02  0.76902042525E+02  0.00000000000E+00 0. -1.
</event>
<event>
 8    1  0.7102339E-009  0.1654276E+03  0.7561462E-02  0.1182702E+00
         -1   -1    0    0    0  501 -0.00000000000E+00  0.00000000000E+00  0.56092294811E+02  0.56092294811E+02  0.00000000000E+00 0.  1.
          1   -1    0    0  501    0  0.00000000000E+00 -0.00000000000E+00 -0.61295482501E+03  0.61295482501E+03  0.00000000000E+00 0. -1.
         25    2    1    2    0    0  0.36654988410E+02  0.13628020993E+03 -0.38419571910E+03  0.42798287874E+03  0.12508840925E+03 0.  0.
         23    2    1    2    0    0 -0.36654988410E+02 -0.13628020993E+03 -0.17266681110E+03  0.24106424108E+03  0.91554666060E+02 0.  0.
          5    1    3    3  502    0 -0.37945607918E+02  0.63620827405E+01 -0.80498216833E+02  0.89318422345E+02  0.41800000000E+01 0. -1.
         -5    1    3    3    0  502  0.74600596327E+02  0.12991812719E+03 -0.30369750226E+03  0.33866445640E+03  0.41800000000E+01 0. -1.
        -11    1    4    4    0    0 -0.35760812063E+02 -0.10375917185E+03 -0.62722997406E+02  0.12640797375E+03  0.00000000000E+00 0.  1.
         11    1    4    4    0    0 -0.89417634709E+00 -0.32521038076E+02 -0.10994381370E+03  0.11465626733E+03  0.00000000000E+00 0. -1.
</event>
<event>
 8    1  0.7102339E-009  0.6955751E+02  0.7561462E-02  0.1361604E+00
          4   -1    0    0  501    0  0.00000000000E+00  0.00000000000E+00  0.13259044568E+02  0.13259044568E+02  0.00000000000E+00 0. -1.
         -4   -1    0    0    0  501 -0.00000000000E+00 -0.00000000000E+00 -0.96250369970E+03  0.96250369970E+03  0.00000000000E+00 0.  1.
         25    2    1    2    0    0 -0.33280099825E+01 -0.66818789460E+01 -0.67138594250E+03  0.68298074470E+03  0.12509152925E+03 0.  0.
         23    2    1    2    0    0  0.33280099825E+01  0.66818789460E+01 -0.27785871264E+03  0.29278199957E+03  0.91978866742E+02 0.  0.
          5    1    3    3  502    0 -0.22430256138E+02  0.11766805648E+02 -0.24339126447E+02  0.35375691961E+02  0.41800000000E+01 0. -1.
         -5    1    3    3    0  502  0.19102246155E+02 -0.18448684594E+02 -0.64704681605E+03  0.64760505274E+03  0.41800000000E+01 0. -1.
        -11    1    4    4    0    0 -0.37221580112E+02  0.21972245084E+02 -0.18951405246E+03  0.19438055885E+03  0.00000000000E+00 0.  1.
         11    1    4    4    0    0  0.40549590094E+02 -0.15290366138E+02 -0.88344660181E+02  0.98401440721E+02  0.00000000000E+00 0. -1.
</event>
<event>
 8    1  0.7102339E-009  0.1105421E+03  0.7561462E-02  0.1259569E+00
         -2   -1    0    0    0  501 -0.00000000000E+00  0.00000000000E+00  0.44962148433E+02  0.44962148433E+02  0.00000000000E+00 0.  1.
          2   -1    0    0  501    0  0.00000000000E+00 -0.00000000000E+00 -0.48003556244E+03  0.48003556244E+03  0.00000000000E+00 0. -1.
         25    2    1    2    0    0 -0.16493672952E+02 -0.20723253790E+02 -0.39850519556E+03  0.41851479868E+03  0.12508697505E+03 0.  0.
         23    2    1    2    0    0  0.16493672952E+02  0.20723253790E+02 -0.36568218444E+02  0.10648291219E+03  0.96435893181E+02 0.  0.
          5    1    3    3  502    0  0.36059294263E+02  0.32697598253E+02 -0.21020919775E+03  0.21581192009E+03  0.41800000000E+01 0.  1.
         -5    1    3    3    0  502 -0.52552967215E+02 -0.53420852044E+02 -0.18829599781E+03  0.20270287859E+03  0.41800000000E+01 0.  1.
        -11    1    4    4    0    0  0.40421107583E+02  0.46762756298E+02 -0.35115627886E+02  0.71089581773E+02  0.00000000000E+00 0. -1.
         11    1    4    4    0    0 -0.23927434630E+02 -0.26039502508E+02 -0.14525905587E+01  0.35393330420E+02  0.00000000000E+00 0.  1.
</event>
<event>
 8    1  0.7102339E-009  0.9266690E+02  0.7561462E-02  0.1296519E+00
          2   -1    0    0  501    0  0.00000000000E+00  0.00000000000E+00  0.13551611312E+04  0.13551611312E+04  0.00000000000E+00 0. -1.
         -2   -1    0    0    0  501 -0.00000000000E+00 -0.00000000000E+00 -0.19129367016E+02  0.19129367016E+02  0.00000000000E+00 0.  1.
         25    2    1    2    0    0  0.19394578801E+02 -0.75161936915E+02  0.10989461469E+04  0.11087618963E+04  0.12507934437E+03 0.  0.
         23    2    1    2    0    0 -0.19394578801E+02  0.75161936915E+02  0.23708561730E+03  0.26552860196E+03  0.90941641073E+02 0.  0.
          5    1    3    3  502    0 -0.20660744735E+02 -0.26113850055E+02  0.88414391207E+03  0.88478061077E+03  0.41800000000E+01 0.  1.
         -5    1    3    3    0  502  0.40055323536E+02 -0.49048086860E+02  0.21480223483E+03  0.22398128551E+03  0.41800000000E+01 0.  1.
        -11    1    4    4    0    0 -0.26580825284E+02  0.21550388017E+02  0.19224927498E+03  0.19527094824E+03  0.00000000000E+00 0. -1.
         11    1    4    4    0    0  0.71862464824E+01  0.53611548899E+02  0.44836342325E+02  0.70257653725E+02  0.00000000000E+00 0.  1.
</event>
<event>
 8    1  0.7102339E-009  0.7897532E+02  0.7561462E-02  0.1331985E+00
          2   -1    0    0  501    0  0.00000000000E+00  0.00000000000E+00  0.28546431099E+02  0.28546431099E+02  0.00000000000E+00 0. -1.
         -2   -1    0    0    0  501 -0.00000000000E+00 -0.00000000000E+00 -0.53124626034E+03  0.53124626034E+03  0.00000000000E+00 0.  1.
         25    2    1    2    0    0  0.30934176011E+02 -0.49363205764E+02 -0.33109690013E+03  0.35870175916E+03  0.12509254742E+03 0.  0.
         23    2    1    2    0    0 -0.30934176011E+02  0.49363205764E+02 -0.17160292912E+03  0.20109093229E+03  0.87157033202E+02 0.  0.
          5    1    3    3  502    0  0.47091218845E+02 -0.44625240733E+02 -0.64629714676E+02  0.91670428284E+02  0.41800000000E+01 0. -1.
         -5    1    3    3    0  502 -0.16157042834E+02 -0.47379650315E+01 -0.26646718545E+03  0.26703133087E+03  0.41800000000E+01 0. -1.
        -11    1    4    4    0    0 -0.64625553443E+01 -0.97017106723E+01  0.54354612171E+01  0.12862039115E+02  0.00000000000E+00 0. -1.
         11    1    4    4    0    0 -0.24471620667E+02  0.59064916437E+02 -0.17703839033E+03  0.18822889317E+03  0.00000000000E+00 0.  1.
</event>
<event>
 8    1  0.7102339E-009  0.1316245E+03  0.7561462E-02  0.1225065E+00
          1   -1    0    0  501    0  0.00000000000E+00  0.00000000000E+00  0.22578299156E+03  0.22578299156E+03  0.00000000000E+00 0. -1.
         -1   -1    0    0    0  501 -0.00000000000E+00 -0.00000000000E+00 -0.10633768647E+03  0.10633768647E+03  0.00000000000E+00 0.  1.
         25    2    1    2    0    0  0.36011724586E+01  0.10049019981E+03  0.11587857232E+03  0.19795535318E+03  0.12508888692E+03 0.  0.
         23    2    1    2    0    0 -0.36011724586E+01 -0.10049019981E+03  0.35667327665E+01  0.13416532485E+03  0.88748882294E+02 0.  0.
          5    1    3    3  502    0 -0.38987270159E+02 -0.47274779937E+01  0.58802093138E+02  0.70834418470E+02  0.41800000000E+01 0.  1.
         -5    1    3    3    0  502  0.42588442617E+02  0.10521767780E+03  0.57076479178E+02  0.12712093471E+03  0.41800000000E+01 0.  1.
        -11    1    4    4    0    0  0.10932185939E+02 -0.93326164313E+02 -0.28538930785E+02  0.98202628301E+02  0.00000000000E+00 0.  1.
         11    1    4    4    0    0 -0.14533358398E+02 -0.71640354939E+01  0.32105663551E+02  0.35962696547E+02  0.00000000000E+00 0. -1.
</event>
<event>
 8    1  0.7102339E-009  0.1015399E+03  0.7561462E-02  0.1277091E+00
          3   -1    0    0  501    0  0.00000000000E+00  0.00000000000E+00  0.57717926221E+02  0.57717926221E+02  0.00000000000E+00 0. -1.
         -3   -1    0    0    0  501 -0.00000000000E+00 -0.00000000000E+00 -0.35929800531E+03  0.35929800531E+03  0.00000000000E+00 0.  1.
         25    2    1    2    0    0  0.52961160064E+02  0.61155238042E+01 -0.51359768861E+02  0.14534848065E+03  0.12508425505E+03 0.  0.
         23    2    1    2    0    0 -0.52961160064E+02 -0.61155238042E+01 -0.25022031023E+03  0.27166745089E+03  0.91382252726E+02 0.  0.
          5    1    3    3  502    0 -0.40187569846E+02  0.70819264887E+01 -0.53499265465E+01  0.41367723735E+02  0.41800000000E+01 0.  1.
         -5    1    3    3    0  502  0.93148729910E+02 -0.96640268442E+00 -0.46009842314E+02  0.10398075691E+03  0.41800000000E+01 0.  1.
        -11    1    4    4    0    0 -0.13211173014E+02  0.17993073115E+02 -0.60734449756E+01  0.23133795763E+02  0.00000000000E+00 0. -1.
         11    1    4    4    0    0 -0.39749987050E+02 -0.24108596919E+02 -0.24414686525E+03  0.24853365512E+03  0.00000000000E+00 0.  1.
</event>
<event>
 8    1  0.7102339E-009  0.7904620E+02  0.7561462E-02  0.1331780E+00
          1   -1    0    0  501    0  0.00000000000E+00  0.00000000000E+00  0.79365435705E+03  0.79365435705E+03  0.00000000000E+00 0. -1.
         -1   -1    0    0    0  501 -0.00000000000E+00 -0.00000000000E+00 -0.22924272193E+02  0.22924272193E+02  0.00000000000E+00 0.  1.
         25    2    1    2    0    0  0.19081291730E+02  0.50940746793E+02  0.60071267195E+03  0.61600461526E+03  0.12508763490E+03 0.  0.
         23    2    1    2    0    0 -0.19081291730E+02 -0.50940746793E+02  0.17001741291E+03  0.20057401398E+03  0.91460149874E+02 0.  0.
          5    1    3    3  502    0 -0.76859571845E+01 -0.15084536126E+02  0.83071499066E+01  0.19315752834E+02  0.41800000000E+01 0. -1.
         -5    1    3    3    0  502  0.26767248914E+02  0.66025282919E+02  0.59240552205E+03  0.59668886243E+03  0.41800000000E+01 0. -1.
        -11    1    4    4    0    0 -0.31510081207E+02 -0.23972673466E+02  0.14370527001E+02  0.42119904286E+02  0.00000000000E+00 0.  1.
         11    1    4    4    0    0  0.12428789477E+02 -0.26968073327E+02  0.15564688591E+03  0.15845410970E+03  0.00000000000E+00 0. -1.
</event>
<event>
 8    1  0.7102339E-009  0.2999043E+03  0.7561462E-02  0.1085288E+00
          2   -1    0    0  501    0  0.00000000000E+00  0.00000000000E+00  0.71236971262E+03  0.71236971262E+03  0.00000000000E+00 0. -1.
         -2   -1    0    0    0  501 -0.00000000000E+00 -0.00000000000E+00 -0.14242201237E+03  0.14242201237E+03  0.00000000000E+00 0.  1.
         25    2    1    2    0    0 -0.21726222440E+03  0.19805586546E+03  0.21430171677E+03  0.38470815720E+03  0.12508453307E+03 0.  0.
         23    2    1    2    0    0  0.21726222440E+03 -0.19805586546E+03  0.35564598349E+03  0.47008356779E+03  0.89808101751E+02 0.  0.
          5    1    3    3  502    0 -0.14212064258E+03  0.10411084412E+03  0.19494540086E+03  0.26278989065E+03  0.41800000000E+01 0. -1.
         -5    1    3    3    0  502 -0.75141581822E+02  0.93945021341E+02  0.19356315905E+02  0.12191826655E+03  0.41800000000E+01 0. -1.
        -11    1    4    4    0    0  0.18295230730E+03 -0.12234453689E+03  0.29058614306E+03  0.36452714438E+03  0.00000000000E+00 0. -1.
         11    1    4    4    0    0  0.34309917095E+02 -0.75711328577E+02  0.65059840427E+02  0.10555642341E+03  0.00000000000E+00 0.  1.
</event>
<event>
 8    1  0.7102339E-009  0.9660789E+02  0.7561462E-02  0.1287595E+00
          1   -1    0    0  501    0  0.00000000000E+00  0.00000000000E+00  0.22727882246E+03  0.22727882246E+03  0.00000000000E+00 0. -1.
         -1   -1    0    0    0  501 -0.00000000000E+00 -0.00000000000E+00 -0.72302108444E+02  0.72302108444E+02  0.00000000000E+00 0.  1.
         25    2    1    2    0    0 -0.95055334567E+01  0.58926549103E+02  0.12863460821E+03  0.18909929395E+03  0.12509591195E+03 0.  0.
         23    2    1    2    0    0  0.95055334567E+01 -0.58926549103E+02  0.26342105811E+02  0.11048163696E+03  0.89160485706E+02 0.  0.
          5    1    3    3  502    0 -0.58891480969E+02  0.43689315422E+02  0.33444616669E+02  0.80703020990E+02  0.41800000000E+01 0. -1.
         -5    1    3    3    0  502  0.49385947512E+02  0.15237233681E+02  0.95189991537E+02  0.10839627296E+03  0.41800000000E+01 0. -1.
        -11    1    4    4    0    0  0.20863995240E+02 -0.47126987265E+02  0.56306868306E+02  0.76332972198E+02  0.00000000000E+00 0. -1.
         11    1    4    4    0    0 -0.11358461783E+02 -0.11799561838E+02 -0.29964762495E+02  0.34148664762E+02  0.00000000000E+00 0.  1.
</event>
<event>
 8    1  0.7102339E-009  0.9214286E+02  0.7561462E-02  0.1297744E+00
          1   -1    0    0  501    0  0.00000000000E+00  0.00000000000E+00  0.40401270783E+03  0.40401270783E+03  0.00000000000E+00 0. -1.
         -1   -1    0    0    0  501 -0.00000000000E+00 -0.00000000000E+00 -0.39984604264E+02  0.39984604264E+02  0.00000000000E+00 0.  1.
         25    2    1    2    0    0 -0.77161424915E+00  0.58698286938E+02  0.21774642644E+03  0.25789002934E+03  0.12509067401E+03 0.  0.
         23    2    1    2    0    0  0.77161424915E+00 -0.58698286938E+02  0.14628167712E+03  0.18610728275E+03  0.98952045737E+02 0.  0.
          5    1    3    3  502    0  0.19131439660E+02 -0.10288351032E+02 -0.59572111452E+01  0.22909013839E+02  0.41800000000E+01 0. -1.
         -5    1    3    3    0  502 -0.19903053910E+02  0.68986637970E+02  0.22370363759E+03  0.23498101550E+03  0.41800000000E+01 0. -1.
        -11    1    4    4    0    0  0.31110114178E+00  0.15770063327E+02  0.93520328738E+02  0.94841149131E+02  0.00000000000E+00 0. -1.
         11    1    4    4    0    0  0.46051310737E+00 -0.74468350265E+02  0.52761348381E+02  0.91266133623E+02  0.00000000000E+00 0.  1.
</event>
<event>
 8    1  0.7102339E-009  0.1387906E+03  0.7561462E-02  0.1214966E+00
         -2   -1    0    0    0  501 -0.00000000000E+00  0.00000000000E+00  0.11760481731E+03  0.11760481731E+03  0.00000000000E+00 0.  1.
          2   -1    0    0  501    0  0.00000000000E+00 -0.00000000000E+00 -0.59747054356E+03  0.59747054356E+03  0.00000000000E+00 0. -1.
         25    2    1    2    0    0  0.12989872943E+03  0.13917595611E+02 -0.52007294110E+03  0.55061769640E+03  0.12504640800E+03 0.  0.
         23    2    1    2    0    0 -0.12989872943E+03 -0.13917595611E+02  0.40207214842E+02  0.16445766447E+03  0.91445742938E+02 0.  0.
          5    1    3    3  502    0  0.58322240552E+02  0.39636985592E+02 -0.92900812839E+02  0.11670735965E+03  0.41800000000E+01 0. -1.
         -5    1    3    3    0  502  0.71576488881E+02 -0.25719389981E+02 -0.42717212826E+03  0.43391033676E+03  0.41800000000E+01 0. -1.
        -11    1    4    4    0    0 -0.30241297478E+02 -0.56960704075E+01  0.55342462173E+02  0.63322740075E+02  0.00000000000E+00 0.  1.
         11    1    4    4    0    0 -0.99657431955E+02 -0.82215252031E+01 -0.15135247331E+02  0.10113492439E+03  0.00000000000E+00 0. -1.
</event>
<event>
 8    1  0.7102339E-009  0.1036894E+03  0.7561462E-02  0.1272723E+00
          2   -1    0    0  501    0  0.00000000000E+00  0.00000000000E+00  0.28058232983E+02  0.28058232983E+02  0.00000000000E+00 0. -1.
         -2   -1    0    0    0  501 -0.00000000000E+00 -0.00000000000E+00 -0.46243190103E+03  0.46243190103E+03  0.00000000000E+00 0.  1.
         25    2    1    2    0    0 -0.83528786785E+01 -0.89200915127E+01 -0.26616766938E+03  0.29435039774E+03  0.12509032661E+03 0.  0.
         23    2    1    2    0    0  0.83528786785E+01  0.89200915127E+01 -0.16820599867E+03  0.19613973627E+03  0.10014089845E+03 0.  0.
          5    1    3    3  502    0 -0.25550221307E+02  0.44127310569E+02 -0.20578834371E+03  0.21205270136E+03  0.41800000000E+01 0. -1.
         -5    1    3    3    0  502  0.17197342628E+02 -0.53047402082E+02 -0.60379325666E+02  0.82297696377E+02  0.41800000000E+01 0. -1.
        -11    1    4    4    0    0  0.44197588840E+02 -0.25141660270E+02 -0.95838222706E+02  0.10849191155E+03  0.00000000000E+00 0.  1.
         11    1    4    4    0    0 -0.35844710162E+02  0.34061751783E+02 -0.72367775964E+02  0.87647824725E+02  0.00000000000E+00 0. -1.
</event>
<event>
 8    1  0.7102339E-009  0.1260864E+03  0.7561462E-02  0.1233381E+00
          2   -1    0    0  501    0  0.00000000000E+00  0.00000000000E+00  0.45765467381E+03  0.45765467381E+03  0.00000000000E+00 0. -1.
         -2   -1    0    0    0  501 -0.00000000000E+00 -0.00000000000E+00 -0.54403165378E+02  0.54403165378E+02  0.00000000000E+00 0.  1.
         25    2    1    2    0    0 -0.10345213615E+03 -0.29070961332E+02  0.15396178321E+03  0.22560929195E+03  0.12509139322E+03 0.  0.
         23    2    1    2    0    0  0.10345213615E+03  0.29070961332E+02  0.24928972522E+03  0.28644854724E+03  0.91432695706E+02 0.  0.
          5    1    3    3  502    0 -0.40109240488E+02 -0.37043696458E+02 -0.42777803712E+01  0.54925025486E+02  0.41800000000E+01 0. -1.
         -5    1    3    3    0  502 -0.63342895667E+02  0.79727351259E+01  0.15823956358E+03  0.17068426647E+03  0.41800000000E+01 0. -1.
        -11    1    4    4    0    0  0.63165099592E+02 -0.23331546086E+02  0.17222148040E+03  0.18491735765E+03  0.00000000000E+00 0. -1.
         11    1    4    4    0    0  0.40287036563E+02  0.52402507418E+02  0.77068244826E+02  0.10153118959E+03  0.00000000000E+00 0.  1.
</event>
<event>
 8    1  0.7102339E-009  0.1070855E+03  0.7561462E-02  0.1266064E+00
          1   -1    0    0  501    0  0.00000000000E+00  0.00000000000E+00  0.88507172405E+03  0.88507172405E+03  0.00000000000E+00 0. -1.
         -1   -1    0    0    0  501 -0.00000000000E+00 -0.00000000000E+00 -0.23963031385E+02  0.23963031385E+02  0.00000000000E+00 0.  1.
         25    2    1    2    0    0  0.57634849529E+01 -0.88417573525E+02  0.59416709532E+03  0.61362255051E+03  0.12508881750E+03 0.  0.
         23    2    1    2    0    0 -0.57634849529E+01  0.88417573525E+02  0.26694159734E+03  0.29541220492E+03  0.90330888180E+02 0.  0.
          5    1    3    3  502    0  0.44704638787E+01  0.58975668142E+01 -0.30183813831E+01  0.90193884379E+01  0.41800000000E+01 0. -1.
         -5    1    3    3    0  502  0.12930210741E+01 -0.94315140339E+02  0.59718547670E+03  0.60460316207E+03  0.41800000000E+01 0. -1.
        -11    1    4    4    0    0  0.23871497139E+02  0.75031168465E+02  0.11084045709E+03  0.13596003658E+03  0.00000000000E+00 0.  1.
         11    1    4    4    0    0 -0.29634982092E+02  0.13386405060E+02  0.15610114025E+03  0.15945216835E+03  0.00000000000E+00 0. -1.
</event>
<event>
 8    1  0.7102339E-009  0.9597567E+02  0.7561462E-02  0.1288994E+00
          4   -1    0    0  501    0  0.00000000000E+00  0.00000000000E+00  0.10987847303E+03  0.10987847303E+03  0.00000000000E+00 0. -1.
         -4   -1    0    0    0  501 -0.00000000000E+00 -0.00000000000E+00 -0.17497847294E+03  0.17497847294E+03  0.00000000000E+00 0.  1.
         25    2    1    2    0    0 -0.51399322261E+02 -0.44664399316E+02  0.19501379093E+02  0.14374980965E+03  0.12508758968E+03 0.  0.
         23    2    1    2    0    0  0.51399322261E+02  0.44664399316E+02 -0.84601379002E+02  0.14110713631E+03  0.90094570839E+02 0.  0.
          5    1    3    3  502    0 -0.72606236957E+02 -0.10215474714E+02 -0.30306293948E+02  0.79447878647E+02  0.41800000000E+01 0.  1.
         -5    1    3    3    0  502  0.21206914696E+02 -0.34448924602E+02  0.49807673041E+02  0.64301931004E+02  0.41800000000E+01 0.  1.
        -11    1    4    4    0    0  0.22626149417E+02 -0.23229656720E+01 -0.82921384343E+02  0.85984270586E+02  0.00000000000E+00 0.  1.
         11    1    4    4    0    0  0.28773172843E+02  0.46987364988E+02 -0.16799946591E+01  0.55122865728E+02  0.00000000000E+00 0. -1.
</event>
<event>
 8    1  0.7102339E-009  0.8530959E+02  0.7561462E-02  0.1314625E+00
          1   -1    0    0  501    0  0.00000000000E+00  0.00000000000E+00  0.26611305112E+03  0.26611305112E+03  0.00000000000E+00 0. -1.
         -1   -1    0    0    0  501 -0.00000000000E+00 -0.00000000000E+00 -0.47165858477E+02  0.47165858477E+02  0.00000000000E+00 0.  1.
         25    2    1    2    0    0  0.20173741053E+02  0.25400277264E+02  0.19631629004E+03  0.23503296328E+03  0.12509298215E+03 0.  0.
         23    2    1    2    0    0 -0.20173741053E+02 -0.25400277264E+02  0.22630902604E+02  0.78245946312E+02  0.67513824129E+02 0.  0.
          5    1    3    3  502    0  0.82153318421E+01  0.60904221991E+02  0.18602361683E+03  0.19595681757E+03  0.41800000000E+01 0. -1.
         -5    1    3    3    0  502  0.11958409211E+02 -0.35503944727E+02  0.10292673206E+02  0.39076145713E+02  0.41800000000E+01 0. -1.
        -11    1    4    4    0    0 -0.22025805683E+02  0.17656100470E+02  0.20884077995E+02  0.35114366198E+02  0.00000000000E+00 0. -1.
         11    1    4    4    0    0  0.18520646305E+01 -0.43056377734E+02  0.17468246096E+01  0.43131580114E+02  0.00000000000E+00 0.  1.
</event>
<event>
 8    1  0.7102339E-009  0.1134531E+03  0.7561462E-02  0.1254306E+00
          1   -1    0    0  501    0  0.00000000000E+00  0.00000000000E+00  0.21268994489E+03  0.21268994489E+03  0.00000000000E+00 0. -1.
         -1   -1    0    0    0  501 -0.00000000000E+00 -0.00000000000E+00 -0.17285093931E+03  0.17285093931E+03  0.00000000000E+00 0.  1.
         25    2    1    2    0    0  0.64100855489E+02  0.28512132501E+02  0.16666142149E+03  0.21987236557E+03  0.12508383730E+03 0.  0.
         23    2    1    2    0    0 -0.64100855489E+02 -0.28512132501E+02 -0.12682241592E+03  0.16566851863E+03  0.80251302244E+02 0.  0.
          5    1    3    3  502    0  0.50537245967E+02  0.73259153669E+02  0.73305460488E+02  0.11537798648E+03  0.41800000000E+01 0. -1.
         -5    1    3    3    0  502  0.13563609522E+02 -0.44747021168E+02  0.93355961004E+02  0.10449437909E+03  0.41800000000E+01 0. -1.
        -11    1    4    4    0    0 -0.34901114895E+01 -0.30032530045E+02 -0.89507317995E+02  0.94475889589E+02  0.00000000000E+00 0.  1.
         11    1    4    4    0    0 -0.60610743999E+02  0.15203975440E+01 -0.37315097925E+02  0.71192629043E+02  0.00000000000E+00 0. -1.
</event>
<event>
 8    1  0.7102339E-009  0.1555027E+03  0.7561462E-02  0.1193870E+00
          2   -1    0    0  501    0  0.00000000000E+00  0.00000000000E+00  0.60020102736E+03  0.60020102736E+03  0.00000000000E+00 0. -1.
         -2   -1    0    0    0  501 -0.00000000000E+00 -0.00000000000E+00 -0.47263105239E+02  0.47263105239E+02  0.00000000000E+00 0.  1.
         25    2    1    2    0    0 -0.11393162959E+02  0.12823762029E+03  0.29079813987E+03  0.34173898651E+03  0.12508910955E+03 0.  0.
         23    2    1    2    0    0  0.11393162959E+02 -0.12823762029E+03  0.26213978225E+03  0.30572514609E+03  0.90420728226E+02 0.  0.
          5    1    3    3  502    0 -0.68601391162E+00  0.15139275285E+03  0.26494935446E+03  0.30518169843E+03  0.41800000000E+01 0.  1.
         -5    1    3    3    0  502 -0.10707149047E+02 -0.23155132552E+02  0.25848785405E+02  0.36557288071E+02  0.41800000000E+01 0.  1.
        -11    1    4    4    0    0 -0.12866904309E+02 -0.57443261255E+02  0.19990739146E+03  0.20839445926E+03  0.00000000000E+00 0. -1.
         11    1    4    4    0    0  0.24260067268E+02 -0.70794359038E+02  0.62232390793E+02  0.97330686832E+02  0.00000000000E+00 0.  1.
</event>
<event>
 8    1  0.7102339E-009  0.4765840E+02  0.7561462E-02  0.1458397E+00
          3   -1    0    0  501    0  0.00000000000E+00  0.00000000000E+00  0.33812807093E+03  0.33812807093E+03  0.00000000000E+00 0. -1.
         -3   -1    0    0    0  501 -0.00000000000E+00 -0.00000000000E+00 -0.37304039108E+02  0.37304039108E+02  0.00000000000E+00 0.  1.
         25    2    1    2    0    0  0.18045109925E+02 -0.17192157811E+02  0.20589161381E+03  0.24219839418E+03  0.12509000450E+03 0.  0.
         23    2    1    2    0    0 -0.18045109925E+02  0.17192157811E+02  0.94932418014E+02  0.13323371585E+03  0.90099182948E+02 0.  0.
          5    1    3    3  502    0  0.99967932796E+01 -0.31776077783E+02 -0.19681627150E+01  0.33630359196E+02  0.41800000000E+01 0.  1.
         -5    1    3    3    0  502  0.80483166452E+01  0.14583919972E+02  0.20785977652E+03  0.20856803499E+03  0.41800000000E+01 0.  1.
        -11    1    4    4    0    0  0.85344451886E+01  0.15795993952E+02  0.10367524818E+03  0.10521837893E+03  0.00000000000E+00 0. -1.
         11    1    4    4    0    0 -0.26579555114E+02  0.13961638593E+01 -0.87428301672E+01  0.28015336923E+02  0.00000000000E+00 0.  1.
</event>
<event>
 8    1  0.7102339E-009  0.1129661E+03  0.7561462E-02  0.1255174E+00
          1   -1    0    0  501    0  0.00000000000E+00  0.00000000000E+00  0.28873171317E+03  0.28873171317E+03  0.00000000000E+00 0. -1.
         -1   -1    0    0    0  501 -0.00000000000E+00 -0.00000000000E+00 -0.65447884426E+02  0.65447884426E+02  0.00000000000E+00 0.  1.
         25    2    1    2    0    0  0.43505195664E+02 -0.21316827893E+02  0.20944169362E+03  0.24871619728E+03  0.12508722780E+03 0.  0.
         23    2    1    2    0    0 -0.43505195664E+02  0.21316827893E+02  0.13842135116E+02  0.10546340031E+03  0.92648879646E+02 0.  0.
          5    1    3    3  502    0  0.33483738960E+02  0.49781175188E+02  0.73938686168E+02  0.95308592950E+02  0.41800000000E+01 0. -1.
         -5    1    3    3    0  502  0.10021456704E+02 -0.71098003080E+02  0.13550300746E+03  0.15340760433E+03  0.41800000000E+01 0. -1.
        -11    1    4    4    0    0 -0.41569526054E+02  0.50055605231E+02 -0.12701496445E+02  0.66294171111E+02  0.00000000000E+00 0.  1.
         11    1    4    4    0    0 -0.19356696102E+01 -0.28738777338E+02  0.26543631561E+02  0.39169229201E+02  0.00000000000E+00 0. -1.
</event>
<event>
 8    1  0.7102339E-009  0.1131833E+03  0.7561462E-02  0.1254786E+00
         -1   -1    0    0    0  501 -0.00000000000E+00  0.00000000000E+00  0.14226642436E+04  0.14226642436E+04  0.00000000000E+00 0.  1.
          1   -1    0    0  501    0  0.00000000000E+00 -0.00000000000E+00 -0.11467379333E+02  0.11467379333E+02  0.00000000000E+00 0. -1.
         25    2    1    2    0    0  0.48295436700E+02  0.34455553247E+02  0.96307032722E+03  0.97297030069E+03  0.12508843467E+03 0.  0.
         23    2    1    2    0    0 -0.48295436700E+02 -0.34455553247E+02  0.44812653702E+03  0.46116132222E+03  0.91283829753E+02 0.  0.
          5    1    3    3  502    0  0.18532048901E+02  0.77133727240E+02  0.42390961365E+03  0.43128862918E+03  0.41800000000E+01 0.  1.
         -5    1    3    3    0  502  0.29763387798E+02 -0.42678173993E+02  0.53916071357E+03  0.54168167151E+03  0.41800000000E+01 0.  1.
        -11    1    4    4    0    0  0.16914792604E+02 -0.22951882818E+02  0.49933133560E+02  0.57499712703E+02  0.00000000000E+00 0. -1.
         11    1    4    4    0    0 -0.65210229304E+02 -0.11503670429E+02  0.39819340346E+03  0.40366160951E+03  0.00000000000E+00 0.  1.
</event>
<event>
 8    1  0.7102339E-009  0.8861031E+02  0.7561462E-02  0.1306252E+00
          1   -1    0    0  501    0  0.00000000000E+00  0.00000000000E+00  0.49491580121E+02  0.49491580121E+02  0.00000000000E+00 0. -1.
         -1   -1    0    0    0  501 -0.00000000000E+00 -0.00000000000E+00 -0.35226332292E+03  0.35226332292E+03  0.00000000000E+00 0.  1.
         25    2    1    2    0    0  0.28299907723E+02  0.25008197934E+02 -0.24855489710E+03  0.28080873406E+03  0.12509082105E+03 0.  0.
         23    2    1    2    0    0 -0.28299907723E+02 -0.25008197934E+02 -0.54216845695E+02  0.12094616898E+03  0.10130258976E+03 0.  0.
          5    1    3    3  502    0 -0.49500651974E+02  0.69819178441E+01 -0.83726344798E+02  0.97604482151E+02  0.41800000000E+01 0.  1.
         -5    1    3    3    0  502  0.77800559697E+02  0.18026280090E+02 -0.16482855230E+03  0.18320425191E+03  0.41800000000E+01 0.  1.
        -11    1    4    4    0    0 -0.12361824751E+02 -0.28235572312E+02 -0.82639375835E+02  0.88200502796E+02  0.00000000000E+00 0.  1.
         11    1    4    4    0    0 -0.15938082972E+02  0.32273743782E+01  0.28422530140E+02  0.32745666183E+02  0.00000000000E+00 0. -1.
</event>
<event>
 8    1  0.7102339E-009  0.1032374E+03  0.7561462E-02  0.1273632E+00
         -1   -1    0    0    0  501 -0.00000000000E+00  0.00000000000E+00  0.37110186172E+02  0.37110186172E+02  0.00000000000E+00 0.  1.
          1   -1    0    0  501    0  0.00000000000E+00 -0.00000000000E+00 -0.40596842786E+03  0.40596842786E+03  0.00000000000E+00 0. -1.
         25    2    1    2    0    0  0.38552596780E+02  0.44283353402E+01 -0.12843664534E+03  0.18343757987E+03  0.12508981162E+03 0.  0.
         23    2    1    2    0    0 -0.38552596780E+02 -0.44283353402E+01 -0.24042159635E+03  0.25964103417E+03  0.90027827680E+02 0.  0.
          5    1    3    3  502    0  0.61460395009E+02  0.34348438417E+02 -0.27653158162E+02  0.75758596428E+02  0.41800000000E+01 0.  1.
         -5    1    3    3    0  502 -0.22907798230E+02 -0.29920103076E+02 -0.10078348718E+03  0.10767898344E+03  0.41800000000E+01 0.  1.
        -11    1    4    4    0    0 -0.35935139949E+02 -0.44879783616E+02 -0.13964402822E+03  0.15101650201E+03  0.00000000000E+00 0. -1.
         11    1    4    4    0    0 -0.26174568307E+01  0.40451448276E+02 -0.10077756813E+03  0.10862453216E+03  0.00000000000E+00 0.  1.
</event>
<event>
 8    1  0.7102339E-009  0.7470336E+02  0.7561462E-02  0.1344792E+00
         -2   -1    0    0    0  501 -0.00000000000E+00  0.00000000000E+00  0.50934518566E+02  0.50934518566E+02  0.00000000000E+00 0.  1.
          2   -1    0    0  501    0  0.00000000000E+00 -0.00000000000E+00 -0.38036265369E+03  0.38036265369E+03  0.00000000000E+00 0. -1.
         25    2    1    2    0    0  0.52525360586E+01 -0.73362316339E+02 -0.24827743999E+03  0.28757466308E+03  0.12509149069E+03 0.  0.
         23    2    1    2    0    0 -0.52525360586E+01  0.73362316339E+02 -0.81150695132E+02  0.14372250917E+03  0.93065061807E+02 0.  0.
          5    1    3    3  502    0  0.44980981292E+00 -0.63331845135E+02 -0.32201891443E+02  0.71172741619E+02  0.41800000000E+01 0. -1.
         -5    1    3    3    0  502  0.48027262457E+01 -0.10030471204E+02 -0.21607554855E+03  0.21640192146E+03  0.41800000000E+01 0. -1.
        -11    1    4    4    0    0  0.24179859929E+01  0.15878528035E+02 -0.84133158296E+02  0.85652569335E+02  0.00000000000E+00 0. -1.
         11    1    4    4    0    0 -0.76705220515E+01  0.57483788304E+02  0.29824631644E+01  0.58069939839E+02  0.00000000000E+00 0.  1.
</event>
<event>
 8    1  0.7102339E-009  0.2538587E+03  0.7561462E-02  0.1110890E+00
          2   -1    0    0  501    0  0.00000000000E+00  0.00000000000E+00  0.88281716474E+02  0.88281716474E+02  0.00000000000E+00 0. -1.
         -2   -1    0    0    0  501 -0.00000000000E+00 -0.00000000000E+00 -0.12328418279E+04  0.12328418279E+04  0.00000000000E+00 0.  1.
         25    2    1    2    0    0  0.14001156492E+03  0.18911169844E+03 -0.10023401641E+04  0.10371594750E+04  0.12508996471E+03 0.  0.
         23    2    1    2    0    0 -0.14001156492E+03 -0.18911169844E+03 -0.14221994734E+03  0.28396406936E+03  0.71011312256E+02 0.  0.
          5    1    3    3  502    0 -0.79870626119E+00  0.99072202959E+02 -0.35751779293E+03  0.37101534199E+03  0.41800000000E+01 0. -1.
         -5    1    3    3    0  502  0.14081027118E+03  0.90039495481E+02 -0.64482237114E+03  0.66614413300E+03  0.41800000000E+01 0. -1.
        -11    1    4    4    0    0 -0.12950544429E+03 -0.13826226185E+03 -0.13239256994E+03  0.23111881301E+03  0.00000000000E+00 0.  1.
         11    1    4    4    0    0 -0.10506120638E+02 -0.50849436592E+02 -0.98273774002E+01  0.52845256354E+02  0.00000000000E+00 0. -1.
</event>
<event>
 8    1  0.7102339E-009  0.1106921E+03  0.7561462E-02  0.1259294E+00
         -1   -1    0    0    0  501 -0.00000000000E+00  0.00000000000E+00  0.86297438489E+02  0.86297438489E+02  0.00000000000E+00 0.  1.
          1   -1    0    0  501    0  0.00000000000E+00 -0.00000000000E+00 -0.19271061399E+03  0.19271061399E+03  0.00000000000E+00 0. -1.
         25    2    1    2    0    0 -0.43819425810E+02  0.31605342179E+02 -0.13791691579E+02  0.13695373427E+03  0.12508826820E+03 0.  0.
         23    2    1    2    0    0  0.43819425810E+02 -0.31605342179E+02 -0.92621483927E+02  0.14205431821E+03  0.93175373926E+02 0.  0.
          5    1    3    3  502    0 -0.79203437030E+02  0.39745674875E+02  0.15571443597E+02  0.90071334865E+02  0.41800000000E+01 0. -1.
         -5    1    3    3    0  502  0.35384011220E+02 -0.81403326958E+01 -0.29363135176E+02  0.46882399403E+02  0.41800000000E+01 0. -1.
        -11    1    4    4    0    0  0.67148903126E+02 -0.26812782507E+02 -0.36301419658E+02  0.80905460668E+02  0.00000000000E+00 0.  1.
         11    1    4    4    0    0 -0.23329477316E+02 -0.47925596722E+01 -0.56320064268E+02  0.61148857546E+02  0.00000000000E+00 0. -1.
</event>
<event>
 8    1  0.7102339E-009  0.9275534E+02  0.7561462E-02  0.1296313E+00
          1   -1    0    0  501    0  0.00000000000E+00  0.00000000000E+00  0.17126748179E+03  0.17126748179E+03  0.00000000000E+00 0. -1.
         -1   -1    0    0    0  501 -0.00000000000E+00 -0.00000000000E+00 -0.10668904634E+03  0.10668904634E+03  0.00000000000E+00 0.  1.
         25    2    1    2    0    0 -0.59442689497E+02  0.24503684746E+02  0.88761024834E+02  0.16631333332E+03  0.12509093257E+03 0.  0.
         23    2    1    2    0    0  0.59442689497E+02 -0.24503684746E+02 -0.24182589386E+02  0.11164319481E+03  0.88008757619E+02 0.  0.
          5    1    3    3  502    0  0.73345633906E+00  0.16388854978E+02  0.10252381703E+03  0.10391216475E+03  0.41800000000E+01 0. -1.
         -5    1    3    3    0  502 -0.60176145836E+02  0.81148297684E+01 -0.13762792193E+02  0.62401168570E+02  0.41800000000E+01 0. -1.
        -11    1    4    4    0    0  0.56081507598E+02 -0.54104428106E+02 -0.25009677612E+02  0.81840751520E+02  0.00000000000E+00 0.  1.
         11    1    4    4    0    0  0.33611818994E+01  0.29600743360E+02  0.82708822623E+00  0.29802443292E+02  0.00000000000E+00 0. -1.
</event>
<event>
 8    1  0.7102339E-009  0.1297502E+03  0.7561462E-02  0.1227827E+00
         -1   -1    0    0    0  501 -0.00000000000E+00  0.00000000000E+00  0.96513881108E+03  0.96513881108E+03  0.00000000000E+00 0.  1.
          1   -1    0    0  501    0  0.00000000000E+00 -0.00000000000E+00 -0.30385068430E+02  0.30385068430E+02  0.00000000000E+00 0. -1.
         25    2    1    2    0    0 -0.97284000411E+02  0.84149820043E+02  0.58679890336E+03  0.61361701697E+03  0.12509005389E+03 0.  0.
         23    2    1    2    0    0  0.97284000411E+02 -0.84149820043E+02  0.34795483929E+03  0.38190686254E+03  0.90746418780E+02 0.  0.
          5    1    3    3  502    0 -0.11465763977E+02  0.13805967907E+02  0.36604177619E+03  0.36650528347E+03  0.41800000000E+01 0.  1.
         -5    1    3    3    0  502 -0.85818236435E+02  0.70343852136E+02  0.22075712717E+03  0.24711173350E+03  0.41800000000E+01 0.  1.
        -11    1    4    4    0    0  0.28261245014E+02 -0.36482239395E+02  0.24401795216E+03  0.24834333640E+03  0.00000000000E+00 0.  1.
         11    1    4    4    0    0  0.69022755397E+02 -0.47667580649E+02  0.10393688713E+03  0.13356352614E+03  0.00000000000E+00 0. -1.
</event>
<event>
 8    1  0.7102339E-009  0.1647088E+03  0.7561462E-02  0.1183481E+00
          1   -1    0    0  501    0  0.00000000000E+00  0.00000000000E+00  0.12589821058E+04  0.12589821058E+04  0.00000000000E+00 0. -1.
         -1   -1    0    0    0  501 -0.00000000000E+00 -0.00000000000E+00 -0.32102131953E+02  0.32102131953E+02  0.00000000000E+00 0.  1.
         25    2    1    2    0    0 -0.47583621150E+02  0.14793446707E+03  0.85513939164E+03  0.87810011311E+03  0.12509045512E+03 0.  0.
         23    2    1    2    0    0  0.47583621150E+02 -0.14793446707E+03  0.37174058216E+03  0.41298412460E+03  0.90642259428E+02 0.  0.
          5    1    3    3  502    0 -0.21027126417E+02  0.71665340755E+02  0.14299391737E+03  0.16137779871E+03  0.41800000000E+01 0.  1.
         -5    1    3    3    0  502 -0.26556494733E+02  0.76269126315E+02  0.71214547427E+03  0.71672231441E+03  0.41800000000E+01 0.  1.
        -11    1    4    4    0    0  0.61060687475E+02 -0.62948192426E+02  0.24107066949E+03  0.25652670460E+03  0.00000000000E+00 0.  1.
         11    1    4    4    0    0 -0.13477066325E+02 -0.84986274644E+02  0.13066991268E+03  0.15645742000E+03  0.00000000000E+00 0. -1.
</event>
<event>
 8    1  0.7102339E-009  0.1261116E+03  0.7561462E-02  0.1233342E+00
          1   -1    0    0  501    0  0.00000000000E+00  0.00000000000E+00  0.10658315446E+03  0.10658315446E+03  0.00000000000E+00 0. -1.
         -1   -1    0    0    0  501 -0.00000000000E+00 -0.00000000000E+00 -0.27303562268E+03  0.27303562268E+03  0.00000000000E+00 0.  1.
         25    2    1    2    0    0  0.49777717531E+02  0.80502025737E+02  0.13167646434E+02  0.15741347613E+03  0.12508884140E+03 0.  0.
         23    2    1    2    0    0 -0.49777717531E+02 -0.80502025737E+02 -0.17962011465E+03  0.22220530101E+03  0.90296250750E+02 0.  0.
          5    1    3    3  502    0 -0.21933632563E+02  0.81875105306E+02  0.10564238483E+02  0.85520130034E+02  0.41800000000E+01 0.  1.
         -5    1    3    3    0  502  0.71711350094E+02 -0.13730795689E+01  0.26034079512E+01  0.71893346095E+02  0.41800000000E+01 0.  1.
        -11    1    4    4    0    0 -0.40386884853E+02 -0.54262592169E+02 -0.37426601658E+02  0.77306402637E+02  0.00000000000E+00 0. -1.
         11    1    4    4    0    0 -0.93908326779E+01 -0.26239433568E+02 -0.14219351300E+03  0.14489889838E+03  0.00000000000E+00 0.  1.
</event>
<event>
 8    1  0.7102339E-009  0.1038202E+03  0.7561462E-02  0.1272462E+00
         -2   -1    0    0    0  501 -0.00000000000E+00  0.00000000000E+00  0.35911476219E+02  0.35911476219E+02  0.00000000000E+00 0.  1.
          2   -1    0    0  501    0  0.00000000000E+00 -0.00000000000E+00 -0.44430670976E+03  0.44430670976E+03  0.00000000000E+00 0. -1.
         25    2    1    2    0    0 -0.32370671780E+02  0.47528159874E+02 -0.17182291694E+03  0.22017521557E+03  0.12508886598E+03 0.  0.
         23    2    1    2    0    0  0.32370671780E+02 -0.47528159874E+02 -0.23657231660E+03  0.26004297041E+03  0.91373404804E+02 0.  0.
          5    1    3    3  502    0 -0.46629000960E+02 -0.10365800512E+02 -0.14844257131E+03  0.15599481699E+03  0.41800000000E+01 0.  1.
         -5    1    3    3    0  502  0.14258329180E+02  0.57893960386E+02 -0.23380345633E+02  0.64180398581E+02  0.41800000000E+01 0.  1.
        -11    1    4    4    0    0 -0.16124453615E+02  0.14155246569E+02 -0.10229697343E+03  0.10452291511E+03  0.00000000000E+00 0.  1.
         11    1    4    4    0    0  0.48495125395E+02 -0.61683406442E+02 -0.13427534317E+03  0.15552005530E+03  0.00000000000E+00 0. -1.
</event>
<event>
 8    1  0.7102339E-009  0.1331620E+03  0.7561462E-02  0.1222838E+00
         -1   -1    0    0    0  501 -0.00000000000E+00  0.00000000000E+00  0.33318779899E+02  0.33318779899E+02  0.00000000000E+00 0.  1.
          1   -1    0    0  501    0  0.00000000000E+00 -0.00000000000E+00 -0.73019487731E+03  0.73019487731E+03  0.00000000000E+00 0. -1.
         25    2    1    2    0    0 -0.10100031140E+03  0.15062098578E+02 -0.49639745245E+03  0.52200114775E+03  0.12508732043E+03 0.  0.
         23    2    1    2    0    0  0.10100031140E+03 -0.15062098578E+02 -0.20047864496E+03  0.24151250947E+03  0.87799062791E+02 0.  0.
          5    1    3    3  502    0 -0.67214319408E+02 -0.51942309436E+02 -0.29591053856E+03  0.30789005744E+03  0.41800000000E+01 0.  1.
         -5    1    3    3    0  502 -0.33785991989E+02  0.67004408014E+02 -0.20048691389E+03  0.21411109030E+03  0.41800000000E+01 0.  1.
        -11    1    4    4    0    0  0.37914813595E+02 -0.19951659350E+02 -0.16174611274E+03  0.16732425642E+03  0.00000000000E+00 0. -1.
         11    1    4    4    0    0  0.63085497802E+02  0.48895607724E+01 -0.38732532224E+02  0.74188253045E+02  0.00000000000E+00 0.  1.
</event>
<event>
 8    1  0.7102339E-009  0.1141994E+03  0.7561462E-02  0.1252985E+00
         -2   -1    0    0    0  501 -0.00000000000E+00  0.00000000000E+00  0.31095479715E+03  0.31095479715E+03  0.00000000000E+00 0.  1.
          2   -1    0    0  501    0  0.00000000000E+00 -0.00000000000E+00 -0.55446271974E+02  0.55446271974E+02  0.00000000000E+00 0. -1.
         25    2    1    2    0    0 -0.57556114389E+02  0.46779611349E+02  0.14657794998E+03  0.20647335890E+03  0.12508043081E+03 0.  0.
         23    2    1    2    0    0  0.57556114389E+02 -0.46779611349E+02  0.10893057520E+03  0.15992771023E+03  0.90608851357E+02 0.  0.
          5    1    3    3  502    0  0.22394301276E+02  0.55681551904E+02  0.37559721081E+02  0.70923515139E+02  0.41800000000E+01 0.  1.
         -5    1    3    3    0  502 -0.79950415665E+02 -0.89019405546E+01  0.10901822890E+03  0.13554984376E+03  0.41800000000E+01 0.  1.
        -11    1    4    4    0    0  0.18406142566E+02  0.82327045227E+01  0.86438526464E+02  0.88759125532E+02  0.00000000000E+00 0.  1.
         11    1    4    4    0    0  0.39149971823E+02 -0.55012315872E+02  0.22492048733E+02  0.71168584695E+02  0.00000000000E+00 0. -1.
</event>
<event>
 8    1  0.7102339E-009  0.1042836E+03  0.7561462E-02  0.1271538E+00
         -1   -1    0    0    0  501 -0.00000000000E+00  0.00000000000E+00  0.31957249012E+02  0.31957249012E+02  0.00000000000E+00 0.  1.
          1   -1    0    0  501    0  0.00000000000E+00 -0.00000000000E+00 -0.53028291377E+03  0.53028291377E+03  0.00000000000E+00 0. -1.
         25    2    1    2    0    0  0.55342112429E+02  0.13453272481E+02 -0.18110705375E+03  0.22735731600E+03  0.12509134371E+03 0.  0.
         23    2    1    2    0    0 -0.55342112429E+02 -0.13453272481E+02 -0.31721861100E+03  0.33488284678E+03  0.90967763256E+02 0.  0.
          5    1    3    3  502    0  0.51372610129E+02  0.50925728095E+02 -0.43254090290E+02  0.84385802006E+02  0.41800000000E+01 0.  1.
         -5    1    3    3    0  502  0.39695023005E+01 -0.37472455614E+02 -0.13785296346E+03  0.14297151399E+03  0.41800000000E+01 0.  1.
        -11    1    4    4    0    0 -0.45466689717E+02 -0.45704115766E+02 -0.13542435386E+03  0.14998613832E+03  0.00000000000E+00 0.  1.
         11    1    4    4    0    0 -0.98754227126E+01  0.32250843285E+02 -0.18179425715E+03  0.18489670846E+03  0.00000000000E+00 0. -1.
</event>
<event>
 8    1  0.7102339E-009  0.1148609E+03  0.7561462E-02  0.1251824E+00
          1   -1    0    0  501    0  0.00000000000E+00  0.00000000000E+00  0.35491482151E+03  0.35491482151E+03  0.00000000000E+00 0. -1.
         -1   -1    0    0    0  501 -0.00000000000E+00 -0.00000000000E+00 -0.40716839533E+02  0.40716839533E+02  0.00000000000E+00 0.  1.
         25    2    1    2    0    0 -0.36590154189E+02 -0.33655289905E+02  0.14295880265E+03  0.19635832768E+03  0.12509138927E+03 0.  0.
         23    2    1    2    0    0  0.36590154189E+02  0.33655289905E+02  0.17123917933E+03  0.19927333337E+03  0.88969022327E+02 0.  0.
          5    1    3    3  502    0 -0.30390592920E+02 -0.80919819174E+02  0.97320791051E+02  0.13023215442E+03  0.41800000000E+01 0.  1.
         -5    1    3    3    0  502 -0.61995612694E+01  0.47264529269E+02  0.45638011602E+02  0.66126173260E+02  0.41800000000E+01 0.  1.
        -11    1    4    4    0    0 -0.12222278735E+02 -0.19593917243E+02  0.77873518334E+02  0.81225553542E+02  0.00000000000E+00 0. -1.
         11    1    4    4    0    0  0.48812432924E+02  0.53249207149E+02  0.93365660994E+02  0.11804777983E+03  0.00000000000E+00 0.  1.
</event>
<event>
 8    1  0.7102339E-009  0.1409693E+03  0.7561462E-02  0.1212031E+00
          2   -1    0    0  501    0  0.00000000000E+00  0.00000000000E+00  0.13974576171E+04  0.13974576171E+04  0.00000000000E+00 0. -1.
         -2   -1    0    0    0  501 -0.00000000000E+00 -0.00000000000E+00 -0.14737178581E+02  0.14737178581E+02  0.00000000000E+00 0.  1.
         25    2    1    2    0    0 -0.89637308169E+01 -0.88194211989E+02  0.82480049244E+03  0.83892844245E+03  0.12508601730E+03 0.  0.
         23    2    1    2    0    0  0.89637308169E+01  0.88194211989E+02  0.55791994612E+03  0.57326635327E+03  0.97473473397E+02 0.  0.
          5    1    3    3  502    0 -0.62892973689E+01  0.32059879851E+02  0.18284131582E+03  0.18578431131E+03  0.41800000000E+01 0. -1.
         -5    1    3    3    0  502 -0.26744334480E+01 -0.12025409184E+03  0.64195917661E+03  0.65314413113E+03  0.41800000000E+01 0. -1.
        -11    1    4    4    0    0  0.51032261936E+02  0.55249631130E+02  0.26291395168E+03  0.27346034353E+03  0.00000000000E+00 0.  1.
         11    1    4    4    0    0 -0.42068531119E+02  0.32944580860E+02  0.29500599444E+03  0.29980600974E+03  0.00000000000E+00 0. -1.
</event>
<event>
 8    1  0.7102339E-009  0.1141554E+03  0.7561462E-02  0.1253063E+00
          1   -1    0    0  501    0  0.00000000000E+00  0.00000000000E+00  0.13357015271E+03  0.13357015271E+03  0.00000000000E+00 0. -1.
         -1   -1    0    0    0  501 -0.00000000000E+00 -0.00000000000E+00 -0.15801615362E+03  0.15801615362E+03  0.00000000000E+00 0.  1.
         25    2    1    2    0    0 -0.36119934448E+02 -0.67520959958E+02 -0.72174366964E+02  0.16346365027E+03  0.12508995169E+03 0.  0.
         23    2    1    2    0    0  0.36119934448E+02  0.67520959958E+02  0.47728366052E+02  0.12812265607E+03  0.90959817356E+02 0.  0.
          5    1    3    3  502    0  0.14015227036E+02 -0.80811001119E+02 -0.10533988285E+02  0.82796629158E+02  0.41800000000E+01 0.  1.
         -5    1    3    3    0  502 -0.50135161484E+02  0.13290041161E+02 -0.61640378680E+02  0.80667021111E+02  0.41800000000E+01 0.  1.
        -11    1    4    4    0    0  0.15040646621E+02  0.71185118590E+02 -0.32574899941E+01  0.72829618978E+02  0.00000000000E+00 0.  1.
         11    1    4    4    0    0  0.21079287827E+02 -0.36641586320E+01  0.50985856046E+02  0.55293037089E+02  0.00000000000E+00 0. -1.
</event>
<event>
 8    1  0.7102339E-009  0.1640116E+03  0.7561462E-02  0.1184241E+00
          1   -1    0    0  501    0  0.00000000000E+00  0.00000000000E+00  0.19551689039E+03  0.19551689039E+03  0.00000000000E+00 0. -1.
         -1   -1    0    0    0  501 -0.00000000000E+00 -0.00000000000E+00 -0.16971348003E+03  0.16971348003E+03  0.00000000000E+00 0.  1.
         25    2    1    2    0    0  0.53708986825E+01 -0.14161552763E+03  0.57777254348E+02  0.19765910844E+03  0.12508839998E+03 0.  0.
         23    2    1    2    0    0 -0.53708986825E+01  0.14161552763E+03 -0.31973843989E+02  0.16757126199E+03  0.83510459976E+02 0.  0.
          5    1    3    3  502    0 -0.14784601940E+02  0.86591369681E+01 -0.20443539849E+02  0.26999552387E+02  0.41800000000E+01 0. -1.
         -5    1    3    3    0  502  0.20155500622E+02 -0.15027466460E+03  0.78220794197E+02  0.17065955605E+03  0.41800000000E+01 0. -1.
        -11    1    4    4    0    0 -0.26421881595E+02  0.15055423607E+02 -0.24505656664E+02  0.39055202157E+02  0.00000000000E+00 0.  1.
         11    1    4    4    0    0  0.21050982912E+02  0.12656010403E+03 -0.74681873244E+01  0.12851605983E+03  0.00000000000E+00 0. -1.
</event>
<event>
 8    1  0.7102339E-009  0.8169405E+02  0.7561462E-02  0.1324312E+00
         -2   -1    0    0    0  501 -0.00000000000E+00  0.00000000000E+00  0.10026822174E+03  0.10026822174E+03  0.00000000000E+00 0. -1.
          2   -1    0    0  501    0  0.00000000000E+00 -0.00000000000E+00 -0.19583698527E+03  0.19583698527E+03  0.00000000000E+00 0.  1.
         25    2    1    2    0    0 -0.47541318628E+01 -0.63204798760E+02  0.16037478976E+02  0.14114945834E+03  0.12509404663E+03 0.  0.
         23    2    1    2    0    0  0.47541318628E+01  0.63204798760E+02 -0.11160624251E+03  0.15495574866E+03  0.86820978573E+02 0.  0.
          5    1    3    3  502    0 -0.33930474875E+01 -0.25794345203E+02 -0.54863698947E+02  0.60863444512E+02  0.41800000000E+01 0.  1.
         -5    1    3    3    0  502 -0.13610843753E+01 -0.37410453557E+02  0.70901177923E+02  0.80286013831E+02  0.41800000000E+01 0.  1.
        -11    1    4    4    0    0 -0.31060377297E+02  0.54154689789E+02 -0.96742435843E+02  0.11513720666E+03  0.00000000000E+00 0. -1.
         11    1    4    4    0    0  0.35814509160E+02  0.90501089713E+01 -0.14863806665E+02  0.39818542004E+02  0.00000000000E+00 0.  1.
</event>
<event>
 8    1  0.7102339E-009  0.9876924E+02  0.7561462E-02  0.1282906E+00
          4   -1    0    0  501    0  0.00000000000E+00  0.00000000000E+00  0.64785278705E+02  0.64785278705E+02  0.00000000000E+00 0. -1.
         -4   -1    0    0    0  501 -0.00000000000E+00 -0.00000000000E+00 -0.22363253244E+03  0.22363253244E+03  0.00000000000E+00 0.  1.
         25    2    1    2    0    0  0.17715415016E+02  0.49304795452E+02 -0.97066394162E+02  0.16677314770E+03  0.12508636670E+03 0.  0.
         23    2    1    2    0    0 -0.17715415016E+02 -0.49304795452E+02 -0.61780859569E+02  0.12164466344E+03  0.90751037189E+02 0.  0.
          5    1    3    3  502    0 -0.53724637600E+02  0.14194489178E+02 -0.35751384785E+02  0.66207659090E+02  0.41800000000E+01 0. -1.
         -5    1    3    3    0  502  0.71440052616E+02  0.35110306274E+02 -0.61315009377E+02  0.10056548861E+03  0.41800000000E+01 0. -1.
        -11    1    4    4    0    0  0.83225949455E+01 -0.25495331637E+02 -0.78242024063E+02  0.82710893185E+02  0.00000000000E+00 0.  1.
         11    1    4    4    0    0 -0.26038009961E+02 -0.23809463815E+02  0.16461164494E+02  0.38933770257E+02  0.00000000000E+00 0. -1.
</event>
<event>
 8    1  0.7102339E-009  0.1206676E+03  0.7561462E-02  0.1242000E+00
         -1   -1    0    0    0  501 -0.00000000000E+00  0.00000000000E+00  0.21595258983E+03  0.21595258983E+03  0.00000000000E+00 0.  1.
          1   -1    0    0  501    0  0.00000000000E+00 -0.00000000000E+00 -0.77248784462E+02  0.77248784462E+02  0.00000000000E+00 0. -1.
         25    2    1    2    0    0  0.53168516618E+02  0.43567471820E+02  0.58290186993E+02  0.15417651544E+03  0.12509051224E+03 0.  0.
         23    2    1    2    0    0 -0.53168516618E+02 -0.43567471820E+02  0.80413618373E+02  0.13902485885E+03  0.90202802610E+02 0.  0.
          5    1    3    3  502    0 -0.33179704448E+02  0.66250663706E+01  0.49018998193E+02  0.59708616426E+02  0.41800000000E+01 0. -1.
         -5    1    3    3    0  502  0.86348221067E+02  0.36942405450E+02  0.92711888000E+01  0.94467899011E+02  0.41800000000E+01 0. -1.
        -11    1    4    4    0    0 -0.36065705956E+02 -0.71727678753E+02  0.60494692895E+02  0.10052463834E+03  0.00000000000E+00 0.  1.
         11    1    4    4    0    0 -0.17102810663E+02  0.28160206933E+02  0.19918925478E+02  0.38500220509E+02  0.00000000000E+00 0. -1.
</event>
<event>
 8    1  0.7102339E-009  0.1197910E+03  0.7561462E-02  0.1243442E+00
          1   -1    0    0  501    0  0.00000000000E+00  0.00000000000E+00  0.43824926542E+02  0.43824926542E+02  0.00000000000E+00 0. -1.
         -1   -1    0    0    0  501 -0.00000000000E+00 -0.00000000000E+00 -0.37381172645E+03  0.37381172645E+03  0.00000000000E+00 0.  1.
         25    2    1    2    0    0  0.47901610185E+02  0.18073997244E+02 -0.25382027788E+03  0.28756652550E+03  0.12509412251E+03 0.  0.
         23    2    1    2    0    0 -0.47901610185E+02 -0.18073997244E+02 -0.76166522029E+02  0.13007012750E+03  0.92171933662E+02 0.  0.
          5    1    3    3  502    0  0.62176906792E+01  0.68829533939E+02 -0.13613233265E+03  0.15272736759E+03  0.41800000000E+01 0. -1.
         -5    1    3    3    0  502  0.41683919506E+02 -0.50755536695E+02 -0.11768794524E+03  0.13483915790E+03  0.41800000000E+01 0. -1.
        -11    1    4    4    0    0 -0.92154013491E+01 -0.52163746583E+02 -0.47076957293E+02  0.70867622985E+02  0.00000000000E+00 0.  1.
         11    1    4    4    0    0 -0.38686208836E+02  0.34089749340E+02 -0.29089564736E+02  0.59202504513E+02  0.00000000000E+00 0. -1.
</event>
<event>
 8    1  0.7102339E-009  0.1480235E+03  0.7561462E-02  0.1202923E+00
          2   -1    0    0  501    0  0.00000000000E+00  0.00000000000E+00  0.74716847925E+02  0.74716847925E+02  0.00000000000E+00 0.  1.
         -2   -1    0    0    0  501 -0.00000000000E+00 -0.00000000000E+00 -0.41088524335E+03  0.41088524335E+03  0.00000000000E+00 0. -1.
         25    2    1    2    0    0 -0.54182287678E+02 -0.10503444091E+03 -0.27485568046E+03  0.32428480452E+03  0.12508811008E+03 0.  0.
         23    2    1    2    0    0  0.54182287678E+02  0.10503444091E+03 -0.61312714970E+02  0.16131728676E+03  0.91082731160E+02 0.  0.
          5    1    3    3  502    0 -0.82211839067E+02 -0.10682392178E+03 -0.25837259464E+03  0.29145155139E+03  0.41800000000E+01 0.  1.
         -5    1    3    3    0  502  0.28029551389E+02  0.17894808675E+01 -0.16483085823E+02  0.32833253130E+02  0.41800000000E+01 0.  1.
        -11    1    4    4    0    0  0.56672008996E+02  0.44112013297E+02  0.40498735285E+01  0.71930437204E+02  0.00000000000E+00 0.  1.
         11    1    4    4    0    0 -0.24897213174E+01  0.60922427615E+02 -0.65362588498E+02  0.89386849558E+02  0.00000000000E+00 0. -1.
</event>
<event>
 8    1  0.7102339E-009  0.1053423E+03  0.7561462E-02  0.1269447E+00
          3   -1    0    0  501    0  0.00000000000E+00  0.00000000000E+00  0.98582019878E+02  0.98582019878E+02  0.00000000000E+00 0. -1.
         -3   -1    0    0    0  501 -0.00000000000E+00 -0.00000000000E+00 -0.17181764888E+03  0.17181764888E+03  0.00000000000E+00 0.  1.
         25    2    1    2    0    0 -0.65802259686E+02  0.10706652271E+02 -0.12578815810E+02  0.14229525688E+03  0.12508054901E+03 0.  0.
         23    2    1    2    0    0  0.65802259686E+02 -0.10706652271E+02 -0.60656813195E+02  0.12810441188E+03  0.91032530301E+02 0.  0.
          5    1    3    3  502    0 -0.73020020042E+02 -0.44647303985E+02 -0.54311793196E+01  0.85861954258E+02  0.41800000000E+01 0. -1.
         -5    1    3    3    0  502  0.72177603567E+01  0.55353956256E+02 -0.71476364902E+01  0.56433302625E+02  0.41800000000E+01 0. -1.
        -11    1    4    4    0    0  0.11026015685E+02 -0.89669932433E+01 -0.70935324135E+02  0.72345008120E+02  0.00000000000E+00 0.  1.
         11    1    4    4    0    0  0.54776244000E+02 -0.17396590275E+01  0.10278510939E+02  0.55759403758E+02  0.00000000000E+00 0. -1.
</event>
<event>
 8    1  0.7102339E-009  0.9147451E+02  0.7561462E-02  0.1299320E+00
          2   -1    0    0  501    0  0.00000000000E+00  0.00000000000E+00  0.41336105849E+02  0.41336105849E+02  0.00000000000E+00 0. -1.
         -2   -1    0    0    0  501 -0.00000000000E+00 -0.00000000000E+00 -0.32900505409E+03  0.32900505409E+03  0.00000000000E+00 0.  1.
         25    2    1    2    0    0 -0.34904805542E+02  0.83745194200E+01 -0.14114586380E+03  0.19198584276E+03  0.12509169008E+03 0.  0.
         23    2    1    2    0    0  0.34904805542E+02 -0.83745194200E+01 -0.14652308444E+03  0.17835531718E+03  0.95147920977E+02 0.  0.
          5    1    3    3  502    0  0.35479963737E+02  0.12210087329E+02 -0.10716694378E+03  0.11362279832E+03  0.41800000000E+01 0.  1.
         -5    1    3    3    0  502 -0.70384769279E+02 -0.38355679090E+01 -0.33978920015E+02  0.78363044435E+02  0.41800000000E+01 0.  1.
        -11    1    4    4    0    0  0.21650395260E+01 -0.33339422549E+02 -0.87139995258E+01  0.34527355528E+02  0.00000000000E+00 0. -1.
         11    1    4    4    0    0  0.32739766016E+02  0.24964903129E+02 -0.13780908492E+03  0.14382796165E+03  0.00000000000E+00 0.  1.
</event>
<event>
 8    1  0.7102339E-009  0.1109716E+03  0.7561462E-02  0.1258781E+00
         -2   -1    0    0    0  501 -0.00000000000E+00  0.00000000000E+00  0.62148514157E+02  0.62148514157E+02  0.00000000000E+00 0.  1.
          2   -1    0    0  501    0  0.00000000000E+00 -0.00000000000E+00 -0.27072020039E+03  0.27072020039E+03  0.00000000000E+00 0. -1.
         25    2    1    2    0    0  0.72888965598E+01 -0.62304021442E+02 -0.71464338644E+02  0.15712754581E+03  0.12508794847E+03 0.  0.
         23    2    1    2    0    0 -0.72888965598E+01  0.62304021442E+02 -0.13710734759E+03  0.17574116875E+03  0.90286292020E+02 0.  0.
          5    1    3    3  502    0 -0.16017751543E+02 -0.91327084491E+02 -0.22543580812E+02  0.95513821837E+02  0.41800000000E+01 0. -1.
         -5    1    3    3    0  502  0.23306648102E+02  0.29023063049E+02 -0.48920757832E+02  0.61613723970E+02  0.41800000000E+01 0. -1.
        -11    1    4    4    0    0  0.26768460343E+02  0.47525570357E+02 -0.12550374873E+03  0.13684451487E+03  0.00000000000E+00 0. -1.
         11    1    4    4    0    0 -0.34057356903E+02  0.14778451085E+02 -0.11603598869E+02  0.38896653872E+02  0.00000000000E+00 0.  1.
</event>
<event>
 8    1  0.7102339E-009  0.1192678E+03  0.7561462E-02  0.1244310E+00
          2   -1    0    0  501    0  0.00000000000E+00  0.00000000000E+00  0.63459788399E+02  0.63459788399E+02  0.00000000000E+00 0. -1.
         -2   -1    0    0    0  501 -0.00000000000E+00 -0.00000000000E+00 -0.34069714478E+03  0.34069714478E+03  0.00000000000E+00 0.  1.
         25    2    1    2    0    0  0.24314485842E+02  0.92450062171E+02 -0.19483915087E+03  0.25049584886E+03  0.12509063660E+03 0.  0.
         23    2    1    2    0    0 -0.24314485842E+02 -0.92450062171E+02 -0.82398205510E+02  0.15366108432E+03  0.87658749401E+02 0.  0.
          5    1    3    3  502    0  0.18032177842E+02 -0.18716858693E+02 -0.10237168473E+03  0.10570200788E+03  0.41800000000E+01 0.  1.
         -5    1    3    3    0  502  0.62823080003E+01  0.11116692086E+03 -0.92467466145E+02  0.14479384097E+03  0.41800000000E+01 0.  1.
        -11    1    4    4    0    0 -0.25176129704E+02 -0.33868370122E+02 -0.85123107868E+02  0.95009723159E+02  0.00000000000E+00 0.  1.
         11    1    4    4    0    0  0.86164386244E+00 -0.58581692049E+02  0.27249023576E+01  0.58651361163E+02  0.00000000000E+00 0. -1.
</event>
<event>
 8    1  0.7102339E-009  0.1068866E+03  0.7561462E-02  0.1266447E+00
          2   -1    0    0  501    0  0.00000000000E+00  0.00000000000E+00  0.41005393929E+03  0.41005393929E+03  0.00000000000E+00 0. -1.
         -2   -1    0    0    0  501 -0.00000000000E+00 -0.00000000000E+00 -0.49452263001E+02  0.49452263001E+02  0.00000000000E+00 0.  1.
         25    2    1    2    0    0 -0.17270166223E+02 -0.74006978268E+02  0.31388897235E+03  0.34633520535E+03  0.12508595456E+03 0.  0.
         23    2    1    2    0    0  0.17270166223E+02  0.74006978268E+02  0.46712703935E+02  0.11317099694E+03  0.69644140924E+02 0.  0.
          5    1    3    3  502    0 -0.16034712448E+02  0.29683302159E+02  0.13786517133E+03  0.14199467700E+03  0.41800000000E+01 0.  1.
         -5    1    3    3    0  502 -0.12354537750E+01 -0.10369028043E+03  0.17602380102E+03  0.20434052835E+03  0.41800000000E+01 0.  1.
        -11    1    4    4    0    0  0.12955818023E+02  0.54950809007E+02  0.65217880138E+02  0.86260167637E+02  0.00000000000E+00 0.  1.
         11    1    4    4    0    0  0.43143482005E+01  0.19056169262E+02 -0.18505176203E+02  0.26910829300E+02  0.00000000000E+00 0. -1.
</event>
<event>
 8    1  0.7102339E-009  0.7155097E+02  0.7561462E-02  0.1354897E+00
          1   -1    0    0  501    0  0.00000000000E+00  0.00000000000E+00  0.71652874964E+02  0.71652874964E+02  0.00000000000E+00 0. -1.
         -1   -1    0    0    0  501 -0.00000000000E+00 -0.00000000000E+00 -0.18346530271E+03  0.18346530271E+03  0.00000000000E+00 0.  1.
         25    2    1    2    0    0  0.31220169020E+01  0.14309364759E+02 -0.28021741764E+02  0.12902293172E+03  0.12508874445E+03 0.  0.
         23    2    1    2    0    0 -0.31220169020E+01 -0.14309364759E+02 -0.83790685980E+02  0.12609524596E+03  0.93083978678E+02 0.  0.
          5    1    3    3  502    0  0.19318290711E+02  0.22842088155E+02  0.44681505202E+02  0.53933910060E+02  0.41800000000E+01 0.  1.
         -5    1    3    3    0  502 -0.16196273809E+02 -0.85327233960E+01 -0.72703246966E+02  0.75089021656E+02  0.41800000000E+01 0.  1.
        -11    1    4    4    0    0 -0.27150616541E+02  0.31987637740E+02 -0.34318414247E+02  0.54204414056E+02  0.00000000000E+00 0.  1.
         11    1    4    4    0    0  0.24028599639E+02 -0.46297002498E+02 -0.49472271733E+02  0.71890831901E+02  0.00000000000E+00 0. -1.
</event>
<event>
 8    1  0.7102339E-009  0.1083527E+03  0.7561462E-02  0.1263651E+00
         -1   -1    0    0    0  501 -0.00000000000E+00  0.00000000000E+00  0.24375159896E+03  0.24375159896E+03  0.00000000000E+00 0.  1.
          1   -1    0    0  501    0  0.00000000000E+00 -0.00000000000E+00 -0.84938002141E+02  0.84938002141E+02  0.00000000000E+00 0. -1.
         25    2    1    2    0    0  0.48256035466E+02 -0.51168591004E+02  0.20824776976E+02  0.14501426068E+03  0.12509434359E+03 0.  0.
         23    2    1    2    0    0 -0.48256035466E+02  0.51168591004E+02  0.13798881984E+03  0.18367534042E+03  0.98736247723E+02 0.  0.
          5    1    3    3  502    0  0.45431284091E+02  0.50494183682E+01 -0.40823757765E+02  0.61429225927E+02  0.41800000000E+01 0. -1.
         -5    1    3    3    0  502  0.28247513751E+01 -0.56218009373E+02  0.61648534741E+02  0.83585034748E+02  0.41800000000E+01 0. -1.
        -11    1    4    4    0    0  0.12029079903E+02  0.52699811225E+02  0.96067370847E+02  0.11023115988E+03  0.00000000000E+00 0. -1.
         11    1    4    4    0    0 -0.60285115368E+02 -0.15312202204E+01  0.41921448991E+02  0.73444180544E+02  0.00000000000E+00 0.  1.
</event>
<event>
 8    1  0.7102339E-009  0.1103146E+03  0.7561462E-02  0.1259988E+00
          3   -1    0    0  501    0  0.00000000000E+00  0.00000000000E+00  0.77329316876E+03  0.77329316876E+03  0.00000000000E+00 0. -1.
         -3   -1    0    0    0  501 -0.00000000000E+00 -0.00000000000E+00 -0.16201134269E+02  0.16201134269E+02  0.00000000000E+00 0.  1.
         25    2    1    2    0    0 -0.17550223111E+02 -0.16343380186E+02  0.49009209135E+03  0.50637244064E+03  0.12509066401E+03 0.  0.
         23    2    1    2    0    0  0.17550223111E+02  0.16343380186E+02  0.26699994314E+03  0.28312186240E+03  0.91070867582E+02 0.  0.
          5    1    3    3  502    0  0.44927820965E+02 -0.40125296479E+02  0.23451169786E+03  0.24216060238E+03  0.41800000000E+01 0.  1.
         -5    1    3    3    0  502 -0.62478044076E+02  0.23781916293E+02  0.25558039350E+03  0.26421183825E+03  0.41800000000E+01 0.  1.
        -11    1    4    4    0    0  0.11769901330E+02 -0.37401778127E+02  0.93269213027E+02  0.10117593431E+03  0.00000000000E+00 0.  1.
         11    1    4    4    0    0  0.57803217808E+01  0.53745158312E+02  0.17373073011E+03  0.18194592809E+03  0.00000000000E+00 0. -1.
</event>
<event>
 8    1  0.7102339E-009  0.6397279E+02  0.7561462E-02  0.1381878E+00
          3   -1    0    0  501    0  0.00000000000E+00  0.00000000000E+00  0.19911087980E+03  0.19911087980E+03  0.00000000000E+00 0. -1.
         -3   -1    0    0    0  501 -0.00000000000E+00 -0.00000000000E+00 -0.60129592272E+02  0.60129592272E+02  0.00000000000E+00 0.  1.
         25    2    1    2    0    0 -0.23745885341E+02 -0.33030205985E+02  0.78076093333E+02  0.15295903498E+03  0.12508288633E+03 0.  0.
         23    2    1    2    0    0  0.23745885341E+02  0.33030205985E+02  0.60905194199E+02  0.10628143710E+03  0.77015840018E+02 0.  0.
          5    1    3    3  502    0 -0.30419560100E+02  0.50874858043E+01 -0.26813065285E+02  0.41080956883E+02  0.41800000000E+01 0.  1.
         -5    1    3    3    0  502  0.66736747589E+01 -0.38117691789E+02  0.10488915862E+03  0.11187807809E+03  0.41800000000E+01 0.  1.
        -11    1    4    4    0    0  0.61676159238E+01 -0.98127455686E+01 -0.14026076793E+02  0.18195062297E+02  0.00000000000E+00 0.  1.
         11    1    4    4    0    0  0.17578269417E+02  0.42842951553E+02  0.74931270992E+02  0.88086374803E+02  0.00000000000E+00 0. -1.
</event>
<event>
 8    1  0.7102339E-009  0.8137868E+02  0.7561462E-02  0.1325184E+00
         -2   -1    0    0    0  501 -0.00000000000E+00  0.00000000000E+00  0.16860934762E+02  0.16860934762E+02  0.00000000000E+00 0.  1.
          2   -1    0    0  501    0  0.00000000000E+00 -0.00000000000E+00 -0.71667624574E+03  0.71667624574E+03  0.00000000000E+00 0. -1.
         25    2    1    2    0    0  0.89810401764E+01 -0.16755865975E+02 -0.42922026172E+03  0.44748042221E+03  0.12508907652E+03 0.  0.
         23    2    1    2    0    0 -0.89810401764E+01  0.16755865975E+02 -0.27059504925E+03  0.28605675829E+03  0.90804020581E+02 0.  0.
          5    1    3    3  502    0 -0.28965236314E+02 -0.14613976407E+00 -0.18428793289E+02  0.34584665585E+02  0.41800000000E+01 0. -1.
         -5    1    3    3    0  502  0.37946276490E+02 -0.16609726210E+02 -0.41079146843E+03  0.41289575663E+03  0.41800000000E+01 0. -1.
        -11    1    4    4    0    0 -0.45115800646E+02 -0.10830766322E+02 -0.15667255070E+03  0.16339837548E+03  0.00000000000E+00 0. -1.
         11    1    4    4    0    0  0.36134760470E+02  0.27586632296E+02 -0.11392249855E+03  0.12265838280E+03  0.00000000000E+00 0.  1.
</event>
<event>
 8    1  0.7102339E-009  0.9544341E+02  0.7561462E-02  0.1290181E+00
         -4   -1    0    0    0  501 -0.00000000000E+00  0.00000000000E+00  0.55851202925E+03  0.55851202925E+03  0.00000000000E+00 0.  1.
          4   -1    0    0  501    0  0.00000000000E+00 -0.00000000000E+00 -0.23124605024E+02  0.23124605024E+02  0.00000000000E+00 0. -1.
         25    2    1    2    0    0 -0.17414456231E+02  0.32889890835E+02  0.29599803977E+03  0.32349227435E+03  0.12508958315E+03 0.  0.
         23    2    1    2    0    0  0.17414456231E+02 -0.32889890835E+02  0.23938938446E+03  0.25814435992E+03  0.89141600635E+02 0.  0.
          5    1    3    3  502    0 -0.49598194703E+02  0.53634562764E+02  0.26229865388E+03  0.27231361235E+03  0.41800000000E+01 0. -1.
         -5    1    3    3    0  502  0.32183738472E+02 -0.20744671929E+02  0.33699385884E+02  0.51178662003E+02  0.41800000000E+01 0. -1.
        -11    1    4    4    0    0  0.44318220024E+02 -0.14583330132E+02  0.20714195300E+03  0.21233126675E+03  0.00000000000E+00 0.  1.
         11    1    4    4    0    0 -0.26903763793E+02 -0.18306560702E+02  0.32247431452E+02  0.45813093175E+02  0.00000000000E+00 0. -1.
</event>
<event>
 8    1  0.7102339E-009  0.2557126E+03  0.7561462E-02  0.1109747E+00
         -1   -1    0    0    0  501 -0.00000000000E+00  0.00000000000E+00  0.23312425235E+03  0.23312425235E+03  0.00000000000E+00 0.  1.
          1   -1    0    0  501    0  0.00000000000E+00 -0.00000000000E+00 -0.43780174260E+03  0.43780174260E+03  0.00000000000E+00 0. -1.
         25    2    1    2    0    0 -0.10323338518E+03 -0.21559618928E+03 -0.29394476164E+03  0.39898649297E+03  0.12509136671E+03 0.  0.
         23    2    1    2    0    0  0.10323338518E+03  0.21559618928E+03  0.89267271386E+02  0.27193950198E+03  0.94040408067E+02 0.  0.
          5    1    3    3  502    0 -0.11425769464E+02  0.93795677674E+01 -0.58988139363E+02  0.60955701003E+02  0.41800000000E+01 0. -1.
         -5    1    3    3    0  502 -0.91807615715E+02 -0.22497575705E+03 -0.23495662228E+03  0.33803079196E+03  0.41800000000E+01 0. -1.
        -11    1    4    4    0    0  0.25738310727E+02  0.19949814512E+01  0.24678265396E+02  0.35713546072E+02  0.00000000000E+00 0. -1.
         11    1    4    4    0    0  0.77495074451E+02  0.21360120783E+03  0.64589005990E+02  0.23622595591E+03  0.00000000000E+00 0.  1.
</event>
<event>
 8    1  0.7102339E-009  0.8159385E+02  0.7561462E-02  0.1324588E+00
         -2   -1    0    0    0  501 -0.00000000000E+00  0.00000000000E+00  0.14229365288E+02  0.14229365288E+02  0.00000000000E+00 0.  1.
          2   -1    0    0  501    0  0.00000000000E+00 -0.00000000000E+00 -0.10405684746E+04  0.10405684746E+04  0.00000000000E+00 0. -1.
         25    2    1    2    0    0 -0.39887867888E+02  0.38167552241E+01 -0.74482354205E+03  0.75631908498E+03  0.12510331683E+03 0.  0.
         23    2    1    2    0    0  0.39887867888E+02 -0.38167552241E+01 -0.28151556727E+03  0.29847875492E+03  0.90735565788E+02 0.  0.
          5    1    3    3  502    0 -0.40062402823E+02 -0.16304714071E+02 -0.78872574173E+02  0.90051069830E+02  0.41800000000E+01 0.  1.
         -5    1    3    3    0  502  0.17453493490E+00  0.20121469295E+02 -0.66595096788E+03  0.66626801515E+03  0.41800000000E+01 0.  1.
        -11    1    4    4    0    0 -0.28874367065E+01  0.38736857873E+02 -0.10837656680E+03  0.11512758871E+03  0.00000000000E+00 0. -1.
         11    1    4    4    0    0  0.42775304594E+02 -0.42553613097E+02 -0.17313900046E+03  0.18335116621E+03  0.00000000000E+00 0.  1.
</event>
<event>
 8    1  0.7102339E-009  0.1285049E+03  0.7561462E-02  0.1229691E+00
         -1   -1    0    0    0  501 -0.00000000000E+00  0.00000000000E+00  0.40949077611E+02  0.40949077611E+02  0.00000000000E+00 0.  1.
          1   -1    0    0  501    0  0.00000000000E+00 -0.00000000000E+00 -0.50366683167E+03  0.50366683167E+03  0.00000000000E+00 0. -1.
         25    2    1    2    0    0  0.24383519399E+02 -0.90678050724E+02 -0.24473035713E+03  0.29044329875E+03  0.12508915694E+03 0.  0.
         23    2    1    2    0    0 -0.24383519399E+02  0.90678050724E+02 -0.21798739692E+03  0.25417261053E+03  0.90929345231E+02 0.  0.
          5    1    3    3  502    0  0.45259011963E+02  0.12012724258E+02 -0.46192087449E+02  0.65908004452E+02  0.41800000000E+01 0.  1.
         -5    1    3    3    0  502 -0.20875492564E+02 -0.10269077498E+03 -0.19853826969E+03  0.22453529430E+03  0.41800000000E+01 0.  1.
        -11    1    4    4    0    0 -0.38013962069E+02  0.54373030129E+02 -0.20130771769E+03  0.21195821503E+03  0.00000000000E+00 0. -1.
         11    1    4    4    0    0  0.13630442670E+02  0.36305020595E+02 -0.16679679231E+02  0.42214395495E+02  0.00000000000E+00 0.  1.
</event>
<event>
 8    1  0.7102339E-009  0.9824480E+02  0.7561462E-02  0.1284031E+00
         -1   -1    0    0    0  501 -0.00000000000E+00  0.00000000000E+00  0.22092417021E+03  0.22092417021E+03  0.00000000000E+00 0.  1.
          1   -1    0    0  501    0  0.00000000000E+00 -0.00000000000E+00 -0.53816048047E+02  0.53816048047E+02  0.00000000000E+00 0. -1.
         25    2    1    2    0    0  0.66737024400E+01  0.38392618691E+01  0.86488155377E+02  0.15226536396E+03  0.12508102096E+03 0.  0.
         23    2    1    2    0    0 -0.66737024400E+01 -0.38392618691E+01  0.80619966789E+02  0.12247485431E+03  0.91876181114E+02 0.  0.
          5    1    3    3  502    0  0.19515720670E+02 -0.48470400453E+02  0.82950281089E+02  0.98124740031E+02  0.41800000000E+01 0.  1.
         -5    1    3    3    0  502 -0.12842018230E+02  0.52309662322E+02  0.35378742876E+01  0.54140623924E+02  0.41800000000E+01 0.  1.
        -11    1    4    4    0    0 -0.42562984571E+02  0.19931357745E+02  0.55139145257E+02  0.72451307903E+02  0.00000000000E+00 0.  1.
         11    1    4    4    0    0  0.35889282131E+02 -0.23770619614E+02  0.25480821532E+02  0.50023546402E+02  0.00000000000E+00 0. -1.
</event>
<event>
 8    1  0.7102339E-009  0.1142334E+03  0.7561462E-02  0.1252925E+00
          2   -1    0    0  501    0  0.00000000000E+00  0.00000000000E+00  0.39430977525E+02  0.39430977525E+02  0.00000000000E+00 0. -1.
         -2   -1    0    0    0  501 -0.00000000000E+00 -0.00000000000E+00 -0.42881695074E+03  0.42881695074E+03  0.00000000000E+00 0.  1.
         25    2    1    2    0    0  0.55906370404E+02 -0.44501053206E+02 -0.23029612592E+03  0.27164518625E+03  0.12509570581E+03 0.  0.
         23    2    1    2    0    0 -0.55906370404E+02  0.44501053206E+02 -0.15908984730E+03  0.19660274202E+03  0.90758981194E+02 0.  0.
          5    1    3    3  502    0  0.49507616831E+02  0.28570700453E+02 -0.46820860589E+02  0.74006448604E+02  0.41800000000E+01 0.  1.
         -5    1    3    3    0  502  0.63987535725E+01 -0.73071753659E+02 -0.18347526533E+03  0.19763873765E+03  0.41800000000E+01 0.  1.
        -11    1    4    4    0    0 -0.57346694403E+02  0.59487438427E+02 -0.76342785482E+02  0.11249719812E+03  0.00000000000E+00 0. -1.
         11    1    4    4    0    0  0.14403239999E+01 -0.14986385221E+02 -0.82747061817E+02  0.84105543899E+02  0.00000000000E+00 0.  1.
</event>
<event>
 8    1  0.7102339E-009  0.2314495E+03  0.7561462E-02  0.1125624E+00
          3   -1    0    0  501    0  0.00000000000E+00  0.00000000000E+00  0.11383958025E+03  0.11383958025E+03  0.00000000000E+00 0. -1.
         -3   -1    0    0    0  501 -0.00000000000E+00 -0.00000000000E+00 -0.53284438595E+03  0.53284438595E+03  0.00000000000E+00 0.  1.
         25    2    1    2    0    0 -0.84515935473E+02  0.19050018774E+03 -0.31125123444E+03  0.39491095870E+03  0.12507625468E+03 0.  0.
         23    2    1    2    0    0  0.84515935473E+02 -0.19050018774E+03 -0.10775357126E+03  0.25177300749E+03  0.91353983518E+02 0.  0.
          5    1    3    3  502    0  0.27317532682E+02  0.34628302219E+02 -0.26768679717E+02  0.51762935777E+02  0.41800000000E+01 0. -1.
         -5    1    3    3    0  502 -0.11183346816E+03  0.15587188552E+03 -0.28448255472E+03  0.34314802293E+03  0.41800000000E+01 0. -1.
        -11    1    4    4    0    0  0.48012454362E+01 -0.12057777606E+03 -0.68117492365E+02  0.13857144296E+03  0.00000000000E+00 0.  1.
         11    1    4    4    0    0  0.79714690037E+02 -0.69922411680E+02 -0.39636078894E+02  0.11320156453E+03  0.00000000000E+00 0. -1.
</event>
<event>
 8    1  0.7102339E-009  0.1083780E+03  0.7561462E-02  0.1263603E+00
          1   -1    0    0  501    0  0.00000000000E+00  0.00000000000E+00  0.40579279687E+03  0.40579279687E+03  0.00000000000E+00 0. -1.
         -1   -1    0    0    0  501 -0.00000000000E+00 -0.00000000000E+00 -0.59830316080E+02  0.59830316080E+02  0.00000000000E+00 0.  1.
         25    2    1    2    0    0  0.11871030127E+02 -0.96329243064E+02  0.26415396077E+03  0.30797144704E+03  0.12509537472E+03 0.  0.
         23    2    1    2    0    0 -0.11871030127E+02  0.96329243064E+02  0.81808520022E+02  0.15765166591E+03  0.93494221162E+02 0.  0.
          5    1    3    3  502    0  0.37864092898E+01 -0.78194087638E+02  0.27430138143E+03  0.28528472179E+03  0.41800000000E+01 0. -1.
         -5    1    3    3    0  502  0.80846208374E+01 -0.18135155427E+02 -0.10147420657E+02  0.22686725247E+02  0.41800000000E+01 0. -1.
        -11    1    4    4    0    0  0.19569017440E+02  0.32689924143E+01 -0.10853519648E+02  0.22614854493E+02  0.00000000000E+00 0.  1.
         11    1    4    4    0    0 -0.31440047567E+02  0.93060250650E+02  0.92662039670E+02  0.13503681142E+03  0.00000000000E+00 0. -1.
</event>
<event>
 8    1  0.7102339E-009  0.1075975E+03  0.7561462E-02  0.1265085E+00
          2   -1    0    0  501    0  0.00000000000E+00  0.00000000000E+00  0.23017834503E+03  0.23017834503E+03  0.00000000000E+00 0. -1.
         -2   -1    0    0    0  501 -0.00000000000E+00 -0.00000000000E+00 -0.14448165537E+03  0.14448165537E+03  0.00000000000E+00 0.  1.
         25    2    1    2    0    0  0.10840878203E+02 -0.31894515724E+02 -0.10058968602E+03  0.16401259860E+03  0.12508822004E+03 0.  0.
         23    2    1    2    0    0 -0.10840878203E+02  0.31894515724E+02  0.18628637567E+03  0.21064740180E+03  0.92384681366E+02 0.  0.
          5    1    3    3  502    0  0.60344184717E+02 -0.43998115501E+02 -0.40314320016E+02  0.84970416000E+02  0.41800000000E+01 0. -1.
         -5    1    3    3    0  502 -0.49503306514E+02  0.12103599778E+02 -0.60275365999E+02  0.79042182597E+02  0.41800000000E+01 0. -1.
        -11    1    4    4    0    0  0.32175907779E+02  0.33192683081E+02  0.51729181661E+02  0.69375438643E+02  0.00000000000E+00 0.  1.
         11    1    4    4    0    0 -0.43016785982E+02 -0.12981673569E+01  0.13455719401E+03  0.14127196316E+03  0.00000000000E+00 0. -1.
</event>
<event>
 8    1  0.7102339E-009  0.1499234E+03  0.7561462E-02  0.1200567E+00
          2   -1    0    0  501    0  0.00000000000E+00  0.00000000000E+00  0.57890089693E+03  0.57890089693E+03  0.00000000000E+00 0.  1.
         -2   -1    0    0    0  501 -0.00000000000E+00 -0.00000000000E+00 -0.56788664884E+02  0.56788664884E+02  0.00000000000E+00 0. -1.
         25    2    1    2    0    0  0.18701534767E+02 -0.14310621369E+03  0.29221259548E+03  0.34908931347E+03  0.12508401985E+03 0.  0.
         23    2    1    2    0    0 -0.18701534767E+02  0.14310621369E+03  0.22989963657E+03  0.28660024835E+03  0.91960446153E+02 0.  0.
          5    1    3    3  502    0 -0.15486167012E+02 -0.73840343512E+02  0.24956940681E+03  0.26075770155E+03  0.41800000000E+01 0. -1.
         -5    1    3    3    0  502  0.34187701779E+02 -0.69265870182E+02  0.42643188662E+02  0.88331611919E+02  0.41800000000E+01 0. -1.
        -11    1    4    4    0    0  0.37020268269E+01  0.77754147338E+02  0.19337343721E+03  0.20845310900E+03  0.00000000000E+00 0.  1.
         11    1    4    4    0    0 -0.22403561594E+02  0.65352066357E+02  0.36526199359E+02  0.78147139351E+02  0.00000000000E+00 0. -1.
</event>
<event>
 8    1  0.7102339E-009  0.2136458E+03  0.7561462E-02  0.1138711E+00
         -2   -1    0    0    0  501 -0.00000000000E+00  0.00000000000E+00  0.86205589735E+02  0.86205589735E+02  0.00000000000E+00 0.  1.
          2   -1    0    0  501    0  0.00000000000E+00 -0.00000000000E+00 -0.60745793605E+03  0.60745793605E+03  0.00000000000E+00 0. -1.
         25    2    1    2    0    0  0.79374596826E+02 -0.16527287089E+03 -0.14684741042E+03  0.26613376363E+03  0.12509024632E+03 0.  0.
         23    2    1    2    0    0 -0.79374596826E+02  0.16527287089E+03 -0.37440493589E+03  0.42752976215E+03  0.94800807131E+02 0.  0.
          5    1    3    3  502    0 -0.34014924733E+02 -0.32466448436E+02 -0.33959163946E+02  0.58153096173E+02  0.41800000000E+01 0.  1.
         -5    1    3    3    0  502  0.11338952156E+03 -0.13280642245E+03 -0.11288824647E+03  0.20798066746E+03  0.41800000000E+01 0.  1.
        -11    1    4    4    0    0 -0.17138160774E+02  0.13520597685E+03 -0.26767706940E+03  0.30037540881E+03  0.00000000000E+00 0. -1.
         11    1    4    4    0    0 -0.62236436053E+02  0.30066894035E+02 -0.10672786649E+03  0.12715435334E+03  0.00000000000E+00 0.  1.
</event>
<event>
 8    1  0.7102339E-009  0.1439228E+03  0.7561462E-02  0.1208146E+00
          2   -1    0    0  501    0  0.00000000000E+00  0.00000000000E+00  0.85612550427E+03  0.85612550427E+03  0.00000000000E+00 0. -1.
         -2   -1    0    0    0  501 -0.00000000000E+00 -0.00000000000E+00 -0.26970340984E+02  0.26970340984E+02  0.00000000000E+00 0.  1.
         25    2    1    2    0    0  0.98129584179E+02  0.18744618103E+02  0.55549570138E+03  0.57810105454E+03  0.12507829149E+03 0.  0.
         23    2    1    2    0    0 -0.98129584179E+02 -0.18744618103E+02  0.27365946191E+03  0.30499479072E+03  0.90285908514E+02 0.  0.
          5    1    3    3  502    0  0.55971982546E+02  0.71856599985E+02  0.34912613892E+03  0.36083620532E+03  0.41800000000E+01 0.  1.
         -5    1    3    3    0  502  0.42157601633E+02 -0.53111981882E+02  0.20636956246E+03  0.21726484922E+03  0.41800000000E+01 0.  1.
        -11    1    4    4    0    0 -0.69688232587E+02 -0.50526711534E+02  0.22137582474E+03  0.23752190240E+03  0.00000000000E+00 0.  1.
         11    1    4    4    0    0 -0.28441351592E+02  0.31782093430E+02  0.52283637172E+02  0.67472888326E+02  0.00000000000E+00 0. -1.
</event>
<event>
 8    1  0.7102339E-009  0.8535368E+02  0.7561462E-02  0.1314510E+00
         -2   -1    0    0    0  501 -0.00000000000E+00  0.00000000000E+00  0.16259279049E+02  0.16259279049E+02  0.00000000000E+00 0.  1.
          2   -1    0    0  501    0  0.00000000000E+00 -0.00000000000E+00 -0.94329110165E+03  0.94329110165E+03  0.00000000000E+00 0. -1.
         25    2    1    2    0    0 -0.11607278332E+02  0.61879591180E+02 -0.49445825729E+03  0.51390596290E+03  0.12508620145E+03 0.  0.
         23    2    1    2    0    0  0.11607278332E+02 -0.61879591180E+02 -0.43257356531E+03  0.44564441780E+03  0.86690512692E+02 0.  0.
          5    1    3    3  502    0  0.22821905366E+01  0.18601390753E+02 -0.44925908699E+03  0.44966923374E+03  0.41800000000E+01 0. -1.
         -5    1    3    3    0  502 -0.13889468869E+02  0.43278200427E+02 -0.45199170297E+02  0.64236729160E+02  0.41800000000E+01 0. -1.
        -11    1    4    4    0    0  0.46592907776E+02 -0.51323990921E+02 -0.24898566139E+03  0.25845485230E+03  0.00000000000E+00 0.  1.
         11    1    4    4    0    0 -0.34985629443E+02 -0.10555600259E+02 -0.18358790392E+03  0.18718956550E+03  0.00000000000E+00 0. -1.
</event>
<event>
 8    1  0.7102339E-009  0.2490639E+03  0.7561462E-02  0.1113898E+00
         -3   -1    0    0    0  501 -0.00000000000E+00  0.00000000000E+00  0.28609984976E+03  0.28609984976E+03  0.00000000000E+00 0.  1.
          3   -1    0    0  501    0  0.00000000000E+00 -0.00000000000E+00 -0.24546733043E+03  0.24546733043E+03  0.00000000000E+00 0. -1.
         25    2    1    2    0    0  0.18205254898E+03  0.16640124561E+03  0.21315004227E+02  0.27737717400E+03  0.12510500437E+03 0.  0.
         23    2    1    2    0    0 -0.18205254898E+03 -0.16640124561E+03  0.19317515104E+02  0.25419000619E+03  0.58368550830E+02 0.  0.
          5    1    3    3  502    0  0.13785773838E+03  0.14474067303E+03 -0.34455653534E+02  0.20287750718E+03  0.41800000000E+01 0. -1.
         -5    1    3    3    0  502  0.44194810600E+02  0.21660572586E+02  0.55770657760E+02  0.74499666816E+02  0.41800000000E+01 0. -1.
        -11    1    4    4    0    0 -0.28585996800E+02 -0.11682026506E+02  0.19018962517E+02  0.36267752778E+02  0.00000000000E+00 0.  1.
         11    1    4    4    0    0 -0.15346655218E+03 -0.15471921911E+03  0.29855258698E+00  0.21792225341E+03  0.00000000000E+00 0. -1.
</event>
<event>
 8    1  0.7102339E-009  0.1157667E+03  0.7561462E-02  0.1250249E+00
          1   -1    0    0  501    0  0.00000000000E+00  0.00000000000E+00  0.16091852101E+03  0.16091852101E+03  0.00000000000E+00 0. -1.
         -1   -1    0    0    0  501 -0.00000000000E+00 -0.00000000000E+00 -0.13107517266E+03  0.13107517266E+03  0.00000000000E+00 0.  1.
         25    2    1    2    0    0  0.68090268253E+02  0.44805908093E+02  0.70381282965E+02  0.16506147037E+03  0.12509160634E+03 0.  0.
         23    2    1    2    0    0 -0.68090268253E+02 -0.44805908093E+02 -0.40537934613E+02  0.12693222330E+03  0.88456832067E+02 0.  0.
          5    1    3    3  502    0 -0.34305819320E+02 -0.49045053525E+01  0.10924436447E+02  0.36575389590E+02  0.41800000000E+01 0.  1.
         -5    1    3    3    0  502  0.10239608757E+03  0.49710413445E+02  0.59456846518E+02  0.12848608078E+03  0.41800000000E+01 0.  1.
        -11    1    4    4    0    0 -0.31022931842E+02 -0.12121591495E+02 -0.64059486462E+02  0.72200921644E+02  0.00000000000E+00 0.  1.
         11    1    4    4    0    0 -0.37067336410E+02 -0.32684316598E+02  0.23521551849E+02  0.54731301660E+02  0.00000000000E+00 0. -1.
</event>
<event>
 8    1  0.7102339E-009  0.1853329E+03  0.7561462E-02  0.1162739E+00
         -1   -1    0    0    0  501 -0.00000000000E+00  0.00000000000E+00  0.73734400125E+03  0.73734400125E+03  0.00000000000E+00 0.  1.
          1   -1    0    0  501    0  0.00000000000E+00 -0.00000000000E+00 -0.56351118549E+02  0.56351118549E+02  0.00000000000E+00 0. -1.
         25    2    1    2    0    0 -0.12463606343E+03  0.11052900584E+03  0.27416871729E+03  0.34433449120E+03  0.12508775659E+03 0.  0.
         23    2    1    2    0    0  0.12463606343E+03 -0.11052900584E+03  0.40682416541E+03  0.44936062860E+03  0.93103509785E+02 0.  0.
          5    1    3    3  502    0 -0.85786419369E+02  0.11154464515E+03  0.27066870864E+03  0.30509103534E+03  0.41800000000E+01 0.  1.
         -5    1    3    3    0  502 -0.38849644064E+02 -0.10156393116E+01  0.35000086507E+01  0.39243455857E+02  0.41800000000E+01 0.  1.
        -11    1    4    4    0    0  0.46091766353E+01 -0.60642883943E+02  0.13393759832E+03  0.14709889234E+03  0.00000000000E+00 0.  1.
         11    1    4    4    0    0  0.12002688680E+03 -0.49886121894E+02  0.27288656709E+03  0.30226173626E+03  0.00000000000E+00 0. -1.
</event>
<event>
 7    1  0.7102339E-009  0.7723791E+02  0.7561462E-02  0.1337078E+00
         -2   -1    0    0    0  501 -0.00000000000E+00  0.00000000000E+00  0.28340613111E+03  0.28340613111E+03  0.00000000000E+00 0.  1.
          2   -1    0    0  501    0  0.00000000000E+00 -0.00000000000E+00 -0.83047773161E+02  0.83047773161E+02  0.00000000000E+00 0. -1.
         25    2    1    2    0    0  0.55205139509E+02 -0.47344600633E+02  0.12991396653E+03  0.19446021754E+03  0.12509204159E+03 0.  0.
          5    1    3    3  502    0  0.25622594289E+02 -0.69686230493E+01  0.14056800080E+03  0.14311503867E+03  0.41800000000E+01 0. -1.
         -5    1    3    3    0  502  0.29582545220E+02 -0.40375977584E+02 -0.10654034264E+02  0.51345178874E+02  0.41800000000E+01 0. -1.
        -11    1    1    2    0    0 -0.48034814865E+02  0.25515028361E+02 -0.34601569807E+02  0.64464166360E+02  0.00000000000E+00 0. -1.
         11    1    1    2    0    0 -0.71703246435E+01  0.21829572272E+02  0.10504596122E+03  0.10752952037E+03  0.00000000000E+00 0.  1.
</event>
<event>
 8    1  0.7102339E-009  0.1025308E+03  0.7561462E-02  0.1275062E+00
         -1   -1    0    0    0  501 -0.00000000000E+00  0.00000000000E+00  0.18715153212E+02  0.18715153212E+02  0.00000000000E+00 0.  1.
          1   -1    0    0  501    0  0.00000000000E+00 -0.00000000000E+00 -0.79631604318E+03  0.79631604318E+03  0.00000000000E+00 0. -1.
         25    2    1    2    0    0 -0.10830521671E+02  0.28038059014E+02 -0.58364041068E+03  0.59765024240E+03  0.12508497235E+03 0.  0.
         23    2    1    2    0    0  0.10830521671E+02 -0.28038059014E+02 -0.19396047929E+03  0.21738095399E+03  0.93436495438E+02 0.  0.
          5    1    3    3  502    0  0.31080791764E+02  0.65204629590E+02 -0.34121642347E+03  0.34880335346E+03  0.41800000000E+01 0. -1.
         -5    1    3    3    0  502 -0.41911313434E+02 -0.37166570575E+02 -0.24242398720E+03  0.24884688894E+03  0.41800000000E+01 0. -1.
        -11    1    4    4    0    0 -0.25222905425E+02 -0.31455706227E+02 -0.32152487075E+02  0.51569747308E+02  0.00000000000E+00 0.  1.
         11    1    4    4    0    0  0.36053427096E+02  0.34176472127E+01 -0.16180799221E+03  0.16581120668E+03  0.00000000000E+00 0. -1.
</event>
<event>
 8    1  0.7102339E-009  0.2050056E+03  0.7561462E-02  0.1145583E+00
          1   -1    0    0  501    0  0.00000000000E+00  0.00000000000E+00  0.64837582184E+03  0.64837582184E+03  0.00000000000E+00 0. -1.
         -1   -1    0    0    0  501 -0.00000000000E+00 -0.00000000000E+00 -0.88946997377E+02  0.88946997377E+02  0.00000000000E+00 0.  1.
         25    2    1    2    0    0  0.35635179190E+01 -0.18851567272E+03  0.13434057716E+03  0.26314600336E+03  0.12509025099E+03 0.  0.
         23    2    1    2    0    0 -0.35635179190E+01  0.18851567272E+03  0.42508824731E+03  0.47417681586E+03  0.92697233916E+02 0.  0.
          5    1    3    3  502    0  0.12718915035E+02 -0.20154456545E+03  0.10071301476E+03  0.22570459988E+03  0.41800000000E+01 0.  1.
         -5    1    3    3    0  502 -0.91553971158E+01  0.13028892734E+02  0.33627562394E+02  0.37441403483E+02  0.41800000000E+01 0.  1.
        -11    1    4    4    0    0  0.14944470750E+02  0.10171982610E+03  0.12834355570E+03  0.16444551839E+03  0.00000000000E+00 0.  1.
         11    1    4    4    0    0 -0.18507988669E+02  0.86795846620E+02  0.29674469161E+03  0.30973129747E+03  0.00000000000E+00 0. -1.
</event>
<event>
 8    1  0.7102339E-009  0.7323666E+02  0.7561462E-02  0.1349420E+00
          1   -1    0    0  501    0  0.00000000000E+00  0.00000000000E+00  0.53869544973E+02  0.53869544973E+02  0.00000000000E+00 0. -1.
         -1   -1    0    0    0  501 -0.00000000000E+00 -0.00000000000E+00 -0.37744158777E+03  0.37744158777E+03  0.00000000000E+00 0.  1.
         25    2    1    2    0    0 -0.37123188251E+02  0.11067670031E+02 -0.30432101263E+03  0.33129843375E+03  0.12508696597E+03 0.  0.
         23    2    1    2    0    0  0.37123188251E+02 -0.11067670031E+02 -0.19251030169E+02  0.10001269899E+03  0.90173795366E+02 0.  0.
          5    1    3    3  502    0  0.13995926629E+02  0.20856892838E+01 -0.26658250287E+03  0.26699052286E+03  0.41800000000E+01 0.  1.
         -5    1    3    3    0  502 -0.51119114880E+02  0.89819807471E+01 -0.37738509757E+02  0.64307910889E+02  0.41800000000E+01 0.  1.
        -11    1    4    4    0    0  0.89291179939E+01 -0.38970930556E+02  0.19566807894E+02  0.44512049467E+02  0.00000000000E+00 0. -1.
         11    1    4    4    0    0  0.28194070257E+02  0.27903260525E+02 -0.38817838062E+02  0.55500649523E+02  0.00000000000E+00 0.  1.
</event>
<event>
 8    1  0.7102339E-009  0.1067506E+03  0.7561462E-02  0.1266708E+00
         -1   -1    0    0    0  501 -0.00000000000E+00  0.00000000000E+00  0.15878607745E+03  0.15878607745E+03  0.00000000000E+00 0.  1.
          1   -1    0    0  501    0  0.00000000000E+00 -0.00000000000E+00 -0.85793093122E+02  0.85793093122E+02  0.00000000000E+00 0. -1.
         25    2    1    2    0    0  0.33253392119E+02  0.71747928820E+01  0.74815062997E+01  0.12984931359E+03  0.12509038957E+03 0.  0.
         23    2    1    2    0    0 -0.33253392119E+02 -0.71747928820E+01  0.65511478031E+02  0.11472985699E+03  0.87828927980E+02 0.  0.
          5    1    3    3  502    0  0.76883452874E+02 -0.64237704987E+00  0.26505070941E+02  0.81433833016E+02  0.41800000000E+01 0.  1.
         -5    1    3    3    0  502 -0.43630060755E+02  0.78171699319E+01 -0.19023564642E+02  0.48415480571E+02  0.41800000000E+01 0.  1.
        -11    1    4    4    0    0 -0.23596675895E+02 -0.46146555071E+02  0.24472026980E+02  0.57316557492E+02  0.00000000000E+00 0.  1.
         11    1    4    4    0    0 -0.96567162239E+01  0.38971762189E+02  0.41039451050E+02  0.57413299495E+02  0.00000000000E+00 0. -1.
</event>
<event>
 8    1  0.7102339E-009  0.1078027E+03  0.7561462E-02  0.1264694E+00
         -2   -1    0    0    0  501 -0.00000000000E+00  0.00000000000E+00  0.15169344250E+02  0.15169344250E+02  0.00000000000E+00 0.  1.
          2   -1    0    0  501    0  0.00000000000E+00 -0.00000000000E+00 -0.84280284823E+03  0.84280284823E+03  0.00000000000E+00 0. -1.
         25    2    1    2    0    0  0.21560937605E+02 -0.31660157021E+02 -0.44553175110E+03  0.46434222557E+03  0.12509165296E+03 0.  0.
         23    2    1    2    0    0 -0.21560937605E+02  0.31660157021E+02 -0.38210175288E+03  0.39362996691E+03  0.86461330779E+02 0.  0.
          5    1    3    3  502    0 -0.39344393696E+02  0.25546905700E+02 -0.15351915753E+03  0.16058091367E+03  0.41800000000E+01 0. -1.
         -5    1    3    3    0  502  0.60905331302E+02 -0.57207062721E+02 -0.29201259357E+03  0.30376131190E+03  0.41800000000E+01 0. -1.
        -11    1    4    4    0    0 -0.45171928701E+02  0.39459303049E+02 -0.33540139581E+03  0.34072222712E+03  0.00000000000E+00 0.  1.
         11    1    4    4    0    0  0.23610991096E+02 -0.77991460280E+01 -0.46700357071E+02  0.52907739791E+02  0.00000000000E+00 0. -1.
</event>
<event>
 8    1  0.7102339E-009  0.2342086E+03  0.7561462E-02  0.1123712E+00
          2   -1    0    0  501    0  0.00000000000E+00  0.00000000000E+00  0.45426698204E+03  0.45426698204E+03  0.00000000000E+00 0. -1.
         -2   -1    0    0    0  501 -0.00000000000E+00 -0.00000000000E+00 -0.14424625287E+03  0.14424625287E+03  0.00000000000E+00 0.  1.
         25    2    1    2    0    0  0.37135021812E+02  0.22468937504E+03  0.11337623901E+03  0.28348818021E+03  0.12508817550E+03 0.  0.
         23    2    1    2    0    0 -0.37135021812E+02 -0.22468937504E+03  0.19664449016E+03  0.31502505470E+03  0.93313474267E+02 0.  0.
          5    1    3    3  502    0  0.17362899894E+02  0.17912457961E+03  0.13900917155E+03  0.22743813992E+03  0.41800000000E+01 0.  1.
         -5    1    3    3    0  502  0.19772121918E+02  0.45564795423E+02 -0.25632932534E+02  0.56050040298E+02  0.41800000000E+01 0.  1.
        -11    1    4    4    0    0 -0.35624357010E+02 -0.38838447226E+02  0.79327527225E+02  0.95238523566E+02  0.00000000000E+00 0. -1.
         11    1    4    4    0    0 -0.15106648018E+01 -0.18585092781E+03  0.11731696293E+03  0.21978653113E+03  0.00000000000E+00 0.  1.
</event>
<event>
 8    1  0.7102339E-009  0.1160632E+03  0.7561462E-02  0.1249737E+00
          4   -1    0    0  501    0  0.00000000000E+00  0.00000000000E+00  0.89443147163E+02  0.89443147163E+02  0.00000000000E+00 0. -1.
         -4   -1    0    0    0  501 -0.00000000000E+00 -0.00000000000E+00 -0.26793719480E+03  0.26793719480E+03  0.00000000000E+00 0.  1.
         25    2    1    2    0    0  0.55548213424E+02 -0.95104086595E+02 -0.10750722684E+03  0.19833302870E+03  0.12509114736E+03 0.  0.
         23    2    1    2    0    0 -0.55548213424E+02  0.95104086595E+02 -0.70986820792E+02  0.15904731326E+03  0.90147256352E+02 0.  0.
          5    1    3    3  502    0  0.11317922631E+02 -0.62301345527E+02 -0.12518240462E+03  0.14034835180E+03  0.41800000000E+01 0. -1.
         -5    1    3    3    0  502  0.44230290793E+02 -0.32802741068E+02  0.17675177778E+02  0.57984676896E+02  0.41800000000E+01 0. -1.
        -11    1    4    4    0    0 -0.18638924151E+02  0.11115629702E+02  0.20235610657E+02  0.29672321376E+02  0.00000000000E+00 0. -1.
         11    1    4    4    0    0 -0.36909289273E+02  0.83988456893E+02 -0.91222431449E+02  0.12937499189E+03  0.00000000000E+00 0.  1.
</event>
<event>
 8    1  0.7102339E-009  0.1256279E+03  0.7561462E-02  0.1234091E+00
         -1   -1    0    0    0  501 -0.00000000000E+00  0.00000000000E+00  0.20711822729E+02  0.20711822729E+02  0.00000000000E+00 0.  1.
          1   -1    0    0  501    0  0.00000000000E+00 -0.00000000000E+00 -0.85987936233E+03  0.85987936233E+03  0.00000000000E+00 0. -1.
         25    2    1    2    0    0  0.33751417827E+02 -0.62976407643E+02 -0.36353539769E+03  0.39103730562E+03  0.12508798058E+03 0.  0.
         23    2    1    2    0    0 -0.33751417827E+02  0.62976407643E+02 -0.47563214191E+03  0.48955387944E+03  0.91279134150E+02 0.  0.
          5    1    3    3  502    0  0.48717026203E+02  0.18941296957E+02 -0.81298051384E+02  0.96741753815E+02  0.41800000000E+01 0. -1.
         -5    1    3    3    0  502 -0.14965608376E+02 -0.81917704600E+02 -0.28223734631E+03  0.29429555180E+03  0.41800000000E+01 0. -1.
        -11    1    4    4    0    0 -0.52702016626E+02  0.75972243059E+02 -0.36201699395E+03  0.37363831198E+03  0.00000000000E+00 0. -1.
         11    1    4    4    0    0  0.18950598799E+02 -0.12995835417E+02 -0.11361514796E+03  0.11591556746E+03  0.00000000000E+00 0.  1.
</event>
<event>
 8    1  0.7102339E-009  0.1358131E+03  0.7561462E-02  0.1219076E+00
          2   -1    0    0  501    0  0.00000000000E+00  0.00000000000E+00  0.39500613119E+03  0.39500613119E+03  0.00000000000E+00 0. -1.
         -2   -1    0    0    0  501 -0.00000000000E+00 -0.00000000000E+00 -0.58527506726E+02  0.58527506726E+02  0.00000000000E+00 0.  1.
         25    2    1    2    0    0  0.73133583354E+01  0.10500972684E+03  0.16804003623E+03  0.23444693700E+03  0.12508950616E+03 0.  0.
         23    2    1    2    0    0 -0.73133583354E+01 -0.10500972684E+03  0.16843858823E+03  0.21908670091E+03  0.92449427101E+02 0.  0.
          5    1    3    3  502    0 -0.21825172036E+02 -0.18395917992E+02  0.74595633315E+01  0.29797070632E+02  0.41800000000E+01 0. -1.
         -5    1    3    3    0  502  0.29138530371E+02  0.12340564483E+03  0.16058047290E+03  0.20464986637E+03  0.41800000000E+01 0. -1.
        -11    1    4    4    0    0  0.20637994216E+02 -0.52778491749E+02  0.21422499817E+02  0.60583987117E+02  0.00000000000E+00 0.  1.
         11    1    4    4    0    0 -0.27951352552E+02 -0.52231235087E+02  0.14701608841E+03  0.15850271380E+03  0.00000000000E+00 0. -1.
</event>
<event>
 8    1  0.7102339E-009  0.1059513E+03  0.7561462E-02  0.1268257E+00
         -1   -1    0    0    0  501 -0.00000000000E+00  0.00000000000E+00  0.10378107784E+03  0.10378107784E+03  0.00000000000E+00 0.  1.
          1   -1    0    0  501    0  0.00000000000E+00 -0.00000000000E+00 -0.15895963779E+03  0.15895963779E+03  0.00000000000E+00 0. -1.
         25    2    1    2    0    0 -0.39113121440E+02 -0.49841498113E+02 -0.55205155053E+02  0.15069804183E+03  0.12509308320E+03 0.  0.
         23    2    1    2    0    0  0.39113121440E+02  0.49841498113E+02  0.26595105526E-01  0.11204267380E+03  0.92409679372E+02 0.  0.
          5    1    3    3  502    0 -0.71376421243E+02 -0.71408203327E+01 -0.64092437235E+02  0.96285501168E+02  0.41800000000E+01 0. -1.
         -5    1    3    3    0  502  0.32263299803E+02 -0.42700677780E+02  0.88872821823E+01  0.54412540665E+02  0.41800000000E+01 0. -1.
        -11    1    4    4    0    0  0.20591003833E+02 -0.10593787625E+02 -0.33319714430E+02  0.40576115447E+02  0.00000000000E+00 0. -1.
         11    1    4    4    0    0  0.18522117608E+02  0.60435285738E+02  0.33346309536E+02  0.71466558351E+02  0.00000000000E+00 0.  1.
</event>
<event>
 8    1  0.7102339E-009  0.9668798E+02  0.7561462E-02  0.1287419E+00
          1   -1    0    0  501    0  0.00000000000E+00  0.00000000000E+00  0.28124401174E+02  0.28124401174E+02  0.00000000000E+00 0. -1.
         -1   -1    0    0    0  501 -0.00000000000E+00 -0.00000000000E+00 -0.47381991805E+03  0.47381991805E+03  0.00000000000E+00 0.  1.
         25    2    1    2    0    0  0.33986644807E+00 -0.33071546140E+02 -0.29743381294E+03  0.32435970136E+03  0.12509396513E+03 0.  0.
         23    2    1    2    0    0 -0.33986644807E+00  0.33071546140E+02 -0.14826170393E+03  0.17758461786E+03  0.91983264650E+02 0.  0.
          5    1    3    3  502    0 -0.44571988509E+02 -0.41462507973E+02 -0.72341178956E+02  0.94638894223E+02  0.41800000000E+01 0. -1.
         -5    1    3    3    0  502  0.44911854957E+02  0.83909618328E+01 -0.22509263399E+03  0.22972080714E+03  0.41800000000E+01 0. -1.
        -11    1    4    4    0    0 -0.29362093796E+02 -0.12932473848E+02 -0.18862588537E+02  0.37217988638E+02  0.00000000000E+00 0. -1.
         11    1    4    4    0    0  0.29022227348E+02  0.46004019988E+02 -0.12939911539E+03  0.14036662922E+03  0.00000000000E+00 0.  1.
</event>
<event>
 8    1  0.7102339E-009  0.1862079E+03  0.7561462E-02  0.1161927E+00
         -2   -1    0    0    0  501 -0.00000000000E+00  0.00000000000E+00  0.15962613689E+03  0.15962613689E+03  0.00000000000E+00 0.  1.
          2   -1    0    0  501    0  0.00000000000E+00 -0.00000000000E+00 -0.30222434275E+03  0.30222434275E+03  0.00000000000E+00 0. -1.
         25    2    1    2    0    0  0.17494725858E+03 -0.25259545960E+02 -0.14883487107E+03  0.26274334224E+03  0.12505061815E+03 0.  0.
         23    2    1    2    0    0 -0.17494725858E+03  0.25259545960E+02  0.62366652070E+01  0.19910713741E+03  0.91433955546E+02 0.  0.
          5    1    3    3  502    0  0.36432330941E+02  0.11844812196E+02 -0.10636297718E+03  0.11312899552E+03  0.41800000000E+01 0.  1.
         -5    1    3    3    0  502  0.13851492764E+03 -0.37104358157E+02 -0.42471893888E+02  0.14961434672E+03  0.41800000000E+01 0.  1.
        -11    1    4    4    0    0 -0.79766082698E+02  0.47278386987E+02  0.31967579194E+02  0.98080578835E+02  0.00000000000E+00 0.  1.
         11    1    4    4    0    0 -0.95181175882E+02 -0.22018841026E+02 -0.25730913987E+02  0.10102655857E+03  0.00000000000E+00 0. -1.
</event>
<event>
 8    1  0.7102339E-009  0.1902754E+03  0.7561462E-02  0.1158213E+00
          1   -1    0    0  501    0  0.00000000000E+00  0.00000000000E+00  0.27759616167E+03  0.27759616167E+03  0.00000000000E+00 0. -1.
         -1   -1    0    0    0  501 -0.00000000000E+00 -0.00000000000E+00 -0.13532531685E+03  0.13532531685E+03  0.00000000000E+00 0.  1.
         25    2    1    2    0    0 -0.40166122276E+02 -0.15316936395E+03  0.47312602838E+02  0.20725612118E+03  0.12506976433E+03 0.  0.
         23    2    1    2    0    0  0.40166122276E+02  0.15316936395E+03  0.94958241981E+02  0.20566535735E+03  0.90592494509E+02 0.  0.
          5    1    3    3  502    0 -0.45831356858E+02 -0.17364972616E+03  0.46587915658E+02  0.18558730278E+03  0.41800000000E+01 0. -1.
         -5    1    3    3    0  502  0.56652345822E+01  0.20480362217E+02  0.72468718043E+00  0.21668818401E+02  0.41800000000E+01 0. -1.
        -11    1    4    4    0    0  0.64868667392E+02  0.13044646989E+03  0.91234911179E+02  0.17189541743E+03  0.00000000000E+00 0.  1.
         11    1    4    4    0    0 -0.24702545116E+02  0.22722894055E+02  0.37233308017E+01  0.33769939913E+02  0.00000000000E+00 0. -1.
</event>
<event>
 8    1  0.7102339E-009  0.1691206E+03  0.7561462E-02  0.1178768E+00
         -1   -1    0    0    0  501 -0.00000000000E+00  0.00000000000E+00  0.46821301250E+03  0.46821301250E+03  0.00000000000E+00 0.  1.
          1   -1    0    0  501    0  0.00000000000E+00 -0.00000000000E+00 -0.72658582072E+02  0.72658582072E+02  0.00000000000E+00 0. -1.
         25    2    1    2    0    0  0.13372755170E+03  0.28605637395E+02  0.11295198731E+03  0.21704189395E+03  0.12509073394E+03 0.  0.
         23    2    1    2    0    0 -0.13372755170E+03 -0.28605637395E+02  0.28260244312E+03  0.32382970062E+03  0.79373758742E+02 0.  0.
          5    1    3    3  502    0  0.14297195985E+03 -0.86138003701E+01  0.10502229440E+03  0.17765791168E+03  0.41800000000E+01 0. -1.
         -5    1    3    3    0  502 -0.92444081546E+01  0.37219437765E+02  0.79296929054E+01  0.39383982267E+02  0.41800000000E+01 0. -1.
        -11    1    4    4    0    0 -0.53826304295E+01 -0.27500021817E+02  0.71187807888E+02  0.76504430605E+02  0.00000000000E+00 0. -1.
         11    1    4    4    0    0 -0.12834492127E+03 -0.11056155774E+01  0.21141463523E+03  0.24732527002E+03  0.00000000000E+00 0.  1.
</event>
<event>
 8    1  0.7102339E-009  0.2043774E+03  0.7561462E-02  0.1146097E+00
          2   -1    0    0  501    0  0.00000000000E+00  0.00000000000E+00  0.58621119896E+03  0.58621119896E+03  0.00000000000E+00 0. -1.
         -2   -1    0    0    0  501 -0.00000000000E+00 -0.00000000000E+00 -0.18287341876E+03  0.18287341876E+03  0.00000000000E+00 0.  1.
         25    2    1    2    0    0  0.10842074444E+02 -0.19178017156E+03  0.48914062592E+03  0.54018831037E+03  0.12509066293E+03 0.  0.
         23    2    1    2    0    0 -0.10842074444E+02  0.19178017156E+03 -0.85802845722E+02  0.22889630735E+03  0.90189835363E+02 0.  0.
          5    1    3    3  502    0  0.14237135462E+02 -0.20333714167E+03  0.38852953495E+03  0.43877256197E+03  0.41800000000E+01 0. -1.
         -5    1    3    3    0  502 -0.33950610182E+01  0.11556970109E+02  0.10061109097E+03  0.10141574840E+03  0.41800000000E+01 0. -1.
        -11    1    4    4    0    0 -0.24111492112E+01  0.76959357716E+02 -0.83725563084E+02  0.11374764303E+03  0.00000000000E+00 0.  1.
         11    1    4    4    0    0 -0.84309252324E+01  0.11482081385E+03 -0.20772826382E+01  0.11514866433E+03  0.00000000000E+00 0. -1.
</event>
<event>
 8    1  0.7102339E-009  0.1170774E+03  0.7561462E-02  0.1247998E+00
         -1   -1    0    0    0  501 -0.00000000000E+00  0.00000000000E+00  0.43472080766E+02  0.43472080766E+02  0.00000000000E+00 0.  1.
          1   -1    0    0  501    0  0.00000000000E+00 -0.00000000000E+00 -0.44286071208E+03  0.44286071208E+03  0.00000000000E+00 0. -1.
         25    2    1    2    0    0  0.73620665919E+02 -0.36419860887E+02 -0.23403641772E+03  0.27778958070E+03  0.12509035777E+03 0.  0.
         23    2    1    2    0    0 -0.73620665919E+02  0.36419860887E+02 -0.16535221360E+03  0.20854321215E+03  0.96966530701E+02 0.  0.
          5    1    3    3  502    0  0.38227273262E+02 -0.80470977243E+02 -0.17214954396E+03  0.19388099568E+03  0.41800000000E+01 0. -1.
         -5    1    3    3    0  502  0.35393392657E+02  0.44051116356E+02 -0.61886873757E+02  0.83908585016E+02  0.41800000000E+01 0. -1.
        -11    1    4    4    0    0 -0.15996991518E+02  0.24814593893E+02  0.35201467138E+01  0.29733133716E+02  0.00000000000E+00 0.  1.
         11    1    4    4    0    0 -0.57623674401E+02  0.11605266994E+02 -0.16887236031E+03  0.17881007844E+03  0.00000000000E+00 0. -1.
</event>
<event>
 8    1  0.7102339E-009  0.1087746E+03  0.7561462E-02  0.1262856E+00
         -2   -1    0    0    0  501 -0.00000000000E+00  0.00000000000E+00  0.32219842860E+02  0.32219842860E+02  0.00000000000E+00 0. -1.
          2   -1    0    0  501    0  0.00000000000E+00 -0.00000000000E+00 -0.46285823051E+03  0.46285823051E+03  0.00000000000E+00 0.  1.
         25    2    1    2    0    0 -0.56823696940E+02  0.60149028261E+01 -0.21844160423E+03  0.25812368054E+03  0.12508392547E+03 0.  0.
         23    2    1    2    0    0  0.56823696940E+02 -0.60149028261E+01 -0.21219678343E+03  0.23695439283E+03  0.88627297117E+02 0.  0.
          5    1    3    3  502    0 -0.30235678198E+02  0.51431733298E+02 -0.18777686808E+03  0.19707116484E+03  0.41800000000E+01 0.  1.
         -5    1    3    3    0  502 -0.26588018742E+02 -0.45416830472E+02 -0.30664736148E+02  0.61052515704E+02  0.41800000000E+01 0.  1.
        -11    1    4    4    0    0  0.68244092102E+02  0.24389056987E+02 -0.13546539197E+03  0.15363253116E+03  0.00000000000E+00 0. -1.
         11    1    4    4    0    0 -0.11420395162E+02 -0.30403959813E+02 -0.76731391452E+02  0.83321861670E+02  0.00000000000E+00 0.  1.
</event>
<event>
 8    1  0.7102339E-009  0.3028807E+03  0.7561462E-02  0.1083809E+00
         -2   -1    0    0    0  501 -0.00000000000E+00  0.00000000000E+00  0.18842239126E+03  0.18842239126E+03  0.00000000000E+00 0.  1.
          2   -1    0    0  501    0  0.00000000000E+00 -0.00000000000E+00 -0.53692684422E+03  0.53692684422E+03  0.00000000000E+00 0. -1.
         25    2    1    2    0    0 -0.24822319995E+03 -0.15013475700E+03 -0.96097552156E+02  0.33021100880E+03  0.12509743624E+03 0.  0.
         23    2    1    2    0    0  0.24822319995E+03  0.15013475700E+03 -0.25240690080E+03  0.39513822667E+03  0.90938288713E+02 0.  0.
          5    1    3    3  502    0 -0.94397764467E+02 -0.12933433023E+03 -0.57723717604E+02  0.17025805968E+03  0.41800000000E+01 0. -1.
         -5    1    3    3    0  502 -0.15382543548E+03 -0.20800426771E+02 -0.38373834552E+02  0.15995294912E+03  0.41800000000E+01 0. -1.
        -11    1    4    4    0    0  0.73465101132E+02  0.50389947902E+02 -0.13627690701E+03  0.16281174195E+03  0.00000000000E+00 0.  1.
         11    1    4    4    0    0  0.17475809881E+03  0.99744809102E+02 -0.11612999379E+03  0.23232648472E+03  0.00000000000E+00 0. -1.
</event>
<event>
 8    1  0.7102339E-009  0.9655123E+02  0.7561462E-02  0.1287720E+00
         -1   -1    0    0    0  501 -0.00000000000E+00  0.00000000000E+00  0.11278518853E+03  0.11278518853E+03  0.00000000000E+00 0.  1.
          1   -1    0    0  501    0  0.00000000000E+00 -0.00000000000E+00 -0.12617325834E+03  0.12617325834E+03  0.00000000000E+00 0. -1.
         25    2    1    2    0    0  0.12191136157E+02 -0.30299594355E+02 -0.44621569366E+02  0.13677017235E+03  0.12509319075E+03 0.  0.
         23    2    1    2    0    0 -0.12191136157E+02  0.30299594355E+02  0.31233499562E+02  0.10218827452E+03  0.91652729016E+02 0.  0.
          5    1    3    3  502    0 -0.84880056892E+01 -0.62188773374E+02 -0.67455652587E+02  0.92234631458E+02  0.41800000000E+01 0. -1.
         -5    1    3    3    0  502  0.20679141846E+02  0.31889179019E+02  0.22834083221E+02  0.44535540892E+02  0.41800000000E+01 0. -1.
        -11    1    4    4    0    0  0.27636635072E+02 -0.15161247013E+02 -0.47044848096E+01  0.31871290944E+02  0.00000000000E+00 0.  1.
         11    1    4    4    0    0 -0.39827771229E+02  0.45460841368E+02  0.35937984372E+02  0.70316983579E+02  0.00000000000E+00 0. -1.
</event>
<event>
 8    1  0.7102339E-009  0.1976554E+03  0.7561462E-02  0.1151732E+00
         -1   -1    0    0    0  501 -0.00000000000E+00  0.00000000000E+00  0.52368266590E+02  0.52368266590E+02  0.00000000000E+00 0.  1.
          1   -1    0    0  501    0  0.00000000000E+00 -0.00000000000E+00 -0.10100747149E+04  0.10100747149E+04  0.00000000000E+00 0. -1.
         25    2    1    2    0    0 -0.91893133313E+02 -0.17388826291E+03 -0.39303074583E+03  0.45694811918E+03  0.12508773132E+03 0.  0.
         23    2    1    2    0    0  0.91893133313E+02  0.17388826291E+03 -0.56467570251E+03  0.60549486234E+03  0.95309513625E+02 0.  0.
          5    1    3    3  502    0 -0.18290022824E+02 -0.22746541018E+02 -0.19470697381E+03  0.19692691059E+03  0.41800000000E+01 0. -1.
         -5    1    3    3    0  502 -0.73603110489E+02 -0.15114172189E+03 -0.19832377202E+03  0.26002120859E+03  0.41800000000E+01 0. -1.
        -11    1    4    4    0    0  0.61493696372E+02  0.95498343321E+02 -0.18882584439E+03  0.22035563932E+03  0.00000000000E+00 0.  1.
         11    1    4    4    0    0  0.30399436940E+02  0.78389919589E+02 -0.37584985812E+03  0.38513922302E+03  0.00000000000E+00 0. -1.
</event>
<event>
 8    1  0.7102339E-009  0.1219315E+03  0.7561462E-02  0.1239944E+00
          1   -1    0    0  501    0  0.00000000000E+00  0.00000000000E+00  0.36280412847E+03  0.36280412847E+03  0.00000000000E+00 0. -1.
         -1   -1    0    0    0  501 -0.00000000000E+00 -0.00000000000E+00 -0.55773200810E+02  0.55773200810E+02  0.00000000000E+00 0.  1.
         25    2    1    2    0    0 -0.89380085929E+02 -0.51654716562E+01  0.14196385487E+03  0.20932367913E+03  0.12508870732E+03 0.  0.
         23    2    1    2    0    0  0.89380085929E+02  0.51654716562E+01  0.16506707279E+03  0.20925365015E+03  0.92328054904E+02 0.  0.
          5    1    3    3  502    0 -0.10118595379E+01 -0.53000454722E+02  0.45897652870E+02  0.70243426735E+02  0.41800000000E+01 0.  1.
         -5    1    3    3    0  502 -0.88368226392E+02  0.47834983066E+02  0.96066201997E+02  0.13908025240E+03  0.41800000000E+01 0.  1.
        -11    1    4    4    0    0  0.48217902626E+02 -0.23463946086E+01  0.15997828696E+03  0.16710333330E+03  0.00000000000E+00 0. -1.
         11    1    4    4    0    0  0.41162183303E+02  0.75118662648E+01  0.50887858300E+01  0.42150316847E+02  0.00000000000E+00 0.  1.
</event>
<event>
 8    1  0.7102339E-009  0.1527718E+03  0.7561462E-02  0.1197108E+00
          2   -1    0    0  501    0  0.00000000000E+00  0.00000000000E+00  0.30609557159E+03  0.30609557159E+03  0.00000000000E+00 0. -1.
         -2   -1    0    0    0  501 -0.00000000000E+00 -0.00000000000E+00 -0.78230585183E+02  0.78230585183E+02  0.00000000000E+00 0.  1.
         25    2    1    2    0    0  0.57087331574E+02  0.89575353137E+02  0.10313697205E+03  0.19382423519E+03  0.12509153379E+03 0.  0.
         23    2    1    2    0    0 -0.57087331574E+02 -0.89575353137E+02  0.12472801435E+03  0.19050192158E+03  0.97217268255E+02 0.  0.
          5    1    3    3  502    0  0.20940118143E+01  0.10597386255E+03  0.73926396605E+02  0.12929589686E+03  0.41800000000E+01 0.  1.
         -5    1    3    3    0  502  0.54993319760E+02 -0.16398509416E+02  0.29210575446E+02  0.64528338326E+02  0.41800000000E+01 0.  1.
        -11    1    4    4    0    0 -0.83569313977E+02 -0.66384083669E+02  0.78950081073E+02  0.13275463120E+03  0.00000000000E+00 0. -1.
         11    1    4    4    0    0  0.26481982403E+02 -0.23191269467E+02  0.45777933281E+02  0.57747290387E+02  0.00000000000E+00 0.  1.
</event>
<event>
 8    1  0.7102339E-009  0.8902987E+02  0.7561462E-02  0.1305218E+00
          2   -1    0    0  501    0  0.00000000000E+00  0.00000000000E+00  0.35850994511E+02  0.35850994511E+02  0.00000000000E+00 0. -1.
         -2   -1    0    0    0  501 -0.00000000000E+00 -0.00000000000E+00 -0.33080713922E+03  0.33080713922E+03  0.00000000000E+00 0.  1.
         25    2    1    2    0    0  0.43595602656E+01 -0.11169223629E+02 -0.16496289830E+03  0.20737756538E+03  0.12509572129E+03 0.  0.
         23    2    1    2    0    0 -0.43595602656E+01  0.11169223629E+02 -0.12999324641E+03  0.15928056836E+03  0.91259509205E+02 0.  0.
          5    1    3    3  502    0 -0.11295121246E+02  0.49672684120E+02 -0.32113414176E+02  0.60363060572E+02  0.41800000000E+01 0. -1.
         -5    1    3    3    0  502  0.15654681512E+02 -0.60841907749E+02 -0.13284948412E+03  0.14701450481E+03  0.41800000000E+01 0. -1.
        -11    1    4    4    0    0 -0.33330308526E+02  0.10717436490E+02 -0.10833580017E+02  0.36648865839E+02  0.00000000000E+00 0. -1.
         11    1    4    4    0    0  0.28970748260E+02  0.45178713950E+00 -0.11915966640E+03  0.12263170252E+03  0.00000000000E+00 0.  1.
</event>
<event>
 8    1  0.7102339E-009  0.1529361E+03  0.7561462E-02  0.1196911E+00
         -1   -1    0    0    0  501 -0.00000000000E+00  0.00000000000E+00  0.56534807042E+02  0.56534807042E+02  0.00000000000E+00 0.  1.
          1   -1    0    0  501    0  0.00000000000E+00 -0.00000000000E+00 -0.43342033052E+03  0.43342033052E+03  0.00000000000E+00 0. -1.
         25    2    1    2    0    0  0.12957035656E+02  0.10684768057E+03 -0.24239525184E+03  0.29323288780E+03  0.12508299947E+03 0.  0.
         23    2    1    2    0    0 -0.12957035656E+02 -0.10684768057E+03 -0.13449027164E+03  0.19672224976E+03  0.95014202991E+02 0.  0.
          5    1    3    3  502    0  0.36260990341E+02 -0.14217593251E+02 -0.38497621863E+02  0.54923024930E+02  0.41800000000E+01 0. -1.
         -5    1    3    3    0  502 -0.23303954686E+02  0.12106527382E+03 -0.20389762998E+03  0.23830986287E+03  0.41800000000E+01 0. -1.
        -11    1    4    4    0    0 -0.53888834016E+02 -0.51839759434E+02 -0.75678715565E+02  0.10638907406E+03  0.00000000000E+00 0. -1.
         11    1    4    4    0    0  0.40931798360E+02 -0.55007921138E+02 -0.58811556072E+02  0.90333175703E+02  0.00000000000E+00 0.  1.
</event>
<event>
 7    1  0.7102339E-009  0.1484164E+03  0.7561462E-02  0.1202432E+00
         -2   -1    0    0    0  501 -0.00000000000E+00  0.00000000000E+00  0.29302510054E+02  0.29302510054E+02  0.00000000000E+00 0.  1.
          2   -1    0    0  501    0  0.00000000000E+00 -0.00000000000E+00 -0.98825741442E+03  0.98825741442E+03  0.00000000000E+00 0. -1.
         25    2    1    2    0    0 -0.10374472771E+03 -0.12080514841E+02 -0.55446678857E+03  0.57791827718E+03  0.12508880091E+03 0.  0.
          5    1    3    3  502    0 -0.74257906606E+02 -0.45329010275E+02 -0.49984903641E+03  0.50738100818E+03  0.41800000000E+01 0.  1.
         -5    1    3    3    0  502 -0.29486821103E+02  0.33248495434E+02 -0.54617752158E+02  0.70537269001E+02  0.41800000000E+01 0.  1.
        -11    1    1    2    0    0 -0.18811811414E+02 -0.30090872465E+02 -0.43789718203E+02  0.56363856103E+02  0.00000000000E+00 0.  1.
         11    1    1    2    0    0  0.12255653912E+03  0.42171387306E+02 -0.36069839760E+03  0.38327779119E+03  0.00000000000E+00 0. -1.
</event>
<event>
 8    1  0.7102339E-009  0.1295539E+03  0.7561462E-02  0.1228119E+00
         -2   -1    0    0    0  501 -0.00000000000E+00  0.00000000000E+00  0.13611829210E+02  0.13611829210E+02  0.00000000000E+00 0. -1.
          2   -1    0    0  501    0  0.00000000000E+00 -0.00000000000E+00 -0.13104380082E+04  0.13104380082E+04  0.00000000000E+00 0.  1.
         25    2    1    2    0    0 -0.70795862007E+02  0.25120750823E+02 -0.61127833969E+03  0.62844990692E+03  0.12507985743E+03 0.  0.
         23    2    1    2    0    0  0.70795862007E+02 -0.25120750823E+02 -0.68554783928E+03  0.69559993047E+03  0.90776192519E+02 0.  0.
          5    1    3    3  502    0  0.27819344315E+02  0.31788964990E+02 -0.26260374489E+03  0.26601250617E+03  0.41800000000E+01 0.  1.
         -5    1    3    3    0  502 -0.98615206321E+02 -0.66682141662E+01 -0.34867459480E+03  0.36243740075E+03  0.41800000000E+01 0.  1.
        -11    1    4    4    0    0  0.71069566759E+02  0.19034091552E+02 -0.44201300840E+03  0.44809449847E+03  0.00000000000E+00 0.  1.
         11    1    4    4    0    0 -0.27370475233E+00 -0.44154842375E+02 -0.24353483088E+03  0.24750543200E+03  0.00000000000E+00 0. -1.
</event>
<event>
 8    1  0.7102339E-009  0.9429904E+02  0.7561462E-02  0.1292763E+00
          1   -1    0    0  501    0  0.00000000000E+00  0.00000000000E+00  0.40673239092E+03  0.40673239092E+03  0.00000000000E+00 0. -1.
         -1   -1    0    0    0  501 -0.00000000000E+00 -0.00000000000E+00 -0.31759425322E+02  0.31759425322E+02  0.00000000000E+00 0.  1.
         25    2    1    2    0    0  0.44359299737E+02  0.77876078253E-01  0.22520194325E+03  0.26140346225E+03  0.12509237105E+03 0.  0.
         23    2    1    2    0    0 -0.44359299737E+02 -0.77876078253E-01  0.14977102235E+03  0.17708835399E+03  0.83433640979E+02 0.  0.
          5    1    3    3  502    0  0.48630286338E+02 -0.56976537384E+02  0.13672164951E+03  0.15595355849E+03  0.41800000000E+01 0. -1.
         -5    1    3    3    0  502 -0.42709866013E+01  0.57054413463E+02  0.88480293748E+02  0.10544990376E+03  0.41800000000E+01 0. -1.
        -11    1    4    4    0    0 -0.28454376842E+02  0.16777286224E+02  0.15032066437E+03  0.15390721565E+03  0.00000000000E+00 0. -1.
         11    1    4    4    0    0 -0.15904922895E+02 -0.16855162302E+02 -0.54964201532E+00  0.23181138343E+02  0.00000000000E+00 0.  1.
</event>
<event>
 8    1  0.7102339E-009  0.1492649E+03  0.7561462E-02  0.1201379E+00
         -2   -1    0    0    0  501 -0.00000000000E+00  0.00000000000E+00  0.48928749192E+02  0.48928749192E+02  0.00000000000E+00 0. -1.
          2   -1    0    0  501    0  0.00000000000E+00 -0.00000000000E+00 -0.52029033005E+03  0.52029033005E+03  0.00000000000E+00 0.  1.
         25    2    1    2    0    0 -0.11557741112E+03  0.16215030871E+02 -0.26328809753E+03  0.31398900781E+03  0.12508960603E+03 0.  0.
         23    2    1    2    0    0  0.11557741112E+03 -0.16215030871E+02 -0.20807348333E+03  0.25523007144E+03  0.90701431705E+02 0.  0.
          5    1    3    3  502    0  0.25379709737E+01 -0.35182112032E+02 -0.26209159848E+02  0.44143116832E+02  0.41800000000E+01 0. -1.
         -5    1    3    3    0  502 -0.11811538209E+03  0.51397142902E+02 -0.23707893768E+03  0.26984589097E+03  0.41800000000E+01 0. -1.
        -11    1    4    4    0    0  0.62789369029E+02 -0.41836617869E+02 -0.61473579686E+02  0.97323216435E+02  0.00000000000E+00 0. -1.
         11    1    4    4    0    0  0.52788042087E+02  0.25621586998E+02 -0.14659990365E+03  0.15790685500E+03  0.00000000000E+00 0.  1.
</event>
<event>
 8    1  0.7102339E-009  0.1170574E+03  0.7561462E-02  0.1248032E+00
         -1   -1    0    0    0  501 -0.00000000000E+00  0.00000000000E+00  0.25161427397E+02  0.25161427397E+02  0.00000000000E+00 0.  1.
          1   -1    0    0  501    0  0.00000000000E+00 -0.00000000000E+00 -0.66829248502E+03  0.66829248502E+03  0.00000000000E+00 0. -1.
         25    2    1    2    0    0  0.59727877729E+01 -0.48768858540E+02 -0.49776695804E+03  0.51558993972E+03  0.12508783182E+03 0.  0.
         23    2    1    2    0    0 -0.59727877729E+01  0.48768858540E+02 -0.14536409958E+03  0.17786397269E+03  0.89948849786E+02 0.  0.
          5    1    3    3  502    0 -0.18939795461E+02  0.38522412497E+02 -0.14240279210E+03  0.14879085897E+03  0.41800000000E+01 0. -1.
         -5    1    3    3    0  502  0.24912583234E+02 -0.87291271037E+02 -0.35536416594E+03  0.36679908075E+03  0.41800000000E+01 0. -1.
        -11    1    4    4    0    0  0.17983665849E+01 -0.25437108985E+02 -0.21937403657E+02  0.33638226991E+02  0.00000000000E+00 0.  1.
         11    1    4    4    0    0 -0.77711543578E+01  0.74205967525E+02 -0.12342669592E+03  0.14422574570E+03  0.00000000000E+00 0. -1.
</event>
<event>
 8    1  0.7102339E-009  0.1074011E+03  0.7561462E-02  0.1265460E+00
          2   -1    0    0  501    0  0.00000000000E+00  0.00000000000E+00  0.25143794232E+03  0.25143794232E+03  0.00000000000E+00 0. -1.
         -2   -1    0    0    0  501 -0.00000000000E+00 -0.00000000000E+00 -0.95689019924E+02  0.95689019924E+02  0.00000000000E+00 0.  1.
         25    2    1    2    0    0  0.41078958776E+02 -0.56577598046E+02 -0.11394577360E+02  0.14375388326E+03  0.12508731792E+03 0.  0.
         23    2    1    2    0    0 -0.41078958776E+02  0.56577598046E+02  0.16714349976E+03  0.20337307899E+03  0.92385898767E+02 0.  0.
          5    1    3    3  502    0 -0.21042136104E+02 -0.13358409736E+02  0.43405025727E+02  0.50226360219E+02  0.41800000000E+01 0.  1.
         -5    1    3    3    0  502  0.62121094880E+02 -0.43219188310E+02 -0.54799603087E+02  0.93527523038E+02  0.41800000000E+01 0.  1.
        -11    1    4    4    0    0 -0.42452568401E+02 -0.12805081613E+02  0.46914349119E+02  0.64553441676E+02  0.00000000000E+00 0.  1.
         11    1    4    4    0    0  0.13736096253E+01  0.69382679659E+02  0.12022915064E+03  0.13881963731E+03  0.00000000000E+00 0. -1.
</event>
<event>
 8    1  0.7102339E-009  0.9349776E+02  0.7561462E-02  0.1294596E+00
          2   -1    0    0  501    0  0.00000000000E+00  0.00000000000E+00  0.79448765013E+02  0.79448765013E+02  0.00000000000E+00 0.  1.
         -2   -1    0    0    0  501 -0.00000000000E+00 -0.00000000000E+00 -0.19217656832E+03  0.19217656832E+03  0.00000000000E+00 0. -1.
         25    2    1    2    0    0  0.47602015829E+02  0.33907469857E+02 -0.52117745731E+02  0.14758041519E+03  0.12509217044E+03 0.  0.
         23    2    1    2    0    0 -0.47602015829E+02 -0.33907469857E+02 -0.60610057578E+02  0.12404491814E+03  0.91092778061E+02 0.  0.
          5    1    3    3  502    0  0.56122317982E+02  0.70778947659E+02 -0.10274011165E+02  0.91007701392E+02  0.41800000000E+01 0. -1.
         -5    1    3    3    0  502 -0.85203021525E+01 -0.36871477802E+02 -0.41843734565E+02  0.56572713798E+02  0.41800000000E+01 0. -1.
        -11    1    4    4    0    0 -0.24949854037E+02 -0.16249478515E+02  0.21715883194E+02  0.36852684453E+02  0.00000000000E+00 0.  1.
         11    1    4    4    0    0 -0.22652161792E+02 -0.17657991342E+02 -0.82325940772E+02  0.87192233692E+02  0.00000000000E+00 0. -1.
</event>
<event>
 8    1  0.7102339E-009  0.1187385E+03  0.7561462E-02  0.1245193E+00
          2   -1    0    0  501    0  0.00000000000E+00  0.00000000000E+00  0.61962582544E+03  0.61962582544E+03  0.00000000000E+00 0. -1.
         -2   -1    0    0    0  501 -0.00000000000E+00 -0.00000000000E+00 -0.30828561986E+02  0.30828561986E+02  0.00000000000E+00 0.  1.
         25    2    1    2    0    0  0.10849330844E+02  0.72253989393E+02  0.42716054716E+03  0.45105578211E+03  0.12508732373E+03 0.  0.
         23    2    1    2    0    0 -0.10849330844E+02 -0.72253989393E+02  0.16163671629E+03  0.19939860531E+03  0.91077048623E+02 0.  0.
          5    1    3    3  502    0 -0.33498721222E+02 -0.12422222788E+02  0.47841968049E+02  0.59856513842E+02  0.41800000000E+01 0.  1.
         -5    1    3    3    0  502  0.44348052066E+02  0.84676212181E+02  0.37931857911E+03  0.39119926827E+03  0.41800000000E+01 0.  1.
        -11    1    4    4    0    0 -0.41050432535E+02 -0.61147807663E+02  0.14621334504E+03  0.16371479671E+03  0.00000000000E+00 0. -1.
         11    1    4    4    0    0  0.30201101690E+02 -0.11106181730E+02  0.15423371245E+02  0.35683808604E+02  0.00000000000E+00 0.  1.
</event>
<event>
 8    1  0.7102339E-009  0.1186884E+03  0.7561462E-02  0.1245277E+00
         -1   -1    0    0    0  501 -0.00000000000E+00  0.00000000000E+00  0.10060638768E+03  0.10060638768E+03  0.00000000000E+00 0.  1.
          1   -1    0    0  501    0  0.00000000000E+00 -0.00000000000E+00 -0.15004541928E+03  0.15004541928E+03  0.00000000000E+00 0. -1.
         25    2    1    2    0    0  0.29011993588E+01  0.57152502337E+02 -0.27897520509E+02  0.14035626577E+03  0.12508710649E+03 0.  0.
         23    2    1    2    0    0 -0.29011993588E+01 -0.57152502337E+02 -0.21541511096E+02  0.11029554119E+03  0.91794576229E+02 0.  0.
          5    1    3    3  502    0 -0.55734462469E+02  0.14877983977E+02 -0.34998363415E+02  0.67602089876E+02  0.41800000000E+01 0.  1.
         -5    1    3    3    0  502  0.58635661827E+02  0.42274518360E+02  0.71008429059E+01  0.72754175897E+02  0.41800000000E+01 0.  1.
        -11    1    4    4    0    0 -0.24217776500E+01 -0.82122456517E+02 -0.99380338323E+01  0.82757038298E+02  0.00000000000E+00 0.  1.
         11    1    4    4    0    0 -0.47942170883E+00  0.24969954180E+02 -0.11603477263E+02  0.27538502892E+02  0.00000000000E+00 0. -1.
</event>
<event>
 8    1  0.7102339E-009  0.1406670E+03  0.7561462E-02  0.1212434E+00
         -1   -1    0    0    0  501 -0.00000000000E+00  0.00000000000E+00  0.73163707835E+02  0.73163707835E+02  0.00000000000E+00 0.  1.
          1   -1    0    0  501    0  0.00000000000E+00 -0.00000000000E+00 -0.35841963148E+03  0.35841963148E+03  0.00000000000E+00 0. -1.
         25    2    1    2    0    0 -0.29149584153E+02 -0.10843858006E+03 -0.20854496176E+03  0.26785557284E+03  0.12508790079E+03 0.  0.
         23    2    1    2    0    0  0.29149584153E+02  0.10843858006E+03 -0.76710961885E+02  0.16372776647E+03  0.91178867828E+02 0.  0.
          5    1    3    3  502    0  0.32232446058E+02  0.22795723097E+01 -0.13450127822E+02  0.35249189597E+02  0.41800000000E+01 0. -1.
         -5    1    3    3    0  502 -0.61382030211E+02 -0.11071815237E+03 -0.19509483394E+03  0.23260638325E+03  0.41800000000E+01 0. -1.
        -11    1    4    4    0    0  0.38797267716E+02  0.52261081136E+02  0.36660955783E+01  0.65191171493E+02  0.00000000000E+00 0.  1.
         11    1    4    4    0    0 -0.96476835628E+01  0.56177498926E+02 -0.80377057463E+02  0.98536594979E+02  0.00000000000E+00 0. -1.
</event>
<event>
 8    1  0.7102339E-009  0.1053568E+03  0.7561462E-02  0.1269418E+00
         -2   -1    0    0    0  501 -0.00000000000E+00  0.00000000000E+00  0.94138939641E+02  0.94138939641E+02  0.00000000000E+00 0.  1.
          2   -1    0    0  501    0  0.00000000000E+00 -0.00000000000E+00 -0.32211541941E+03  0.32211541941E+03  0.00000000000E+00 0. -1.
         25    2    1    2    0    0  0.40937946449E+02  0.23740617647E+02 -0.27185104736E+03  0.30296213909E+03  0.12507411158E+03 0.  0.
         23    2    1    2    0    0 -0.40937946449E+02 -0.23740617647E+02  0.43874567595E+02  0.11329221996E+03  0.93116148090E+02 0.  0.
          5    1    3    3  502    0  0.63006483854E+02  0.57511941451E+02 -0.22677137876E+03  0.24232245262E+03  0.41800000000E+01 0. -1.
         -5    1    3    3    0  502 -0.22068537405E+02 -0.33771323805E+02 -0.45079668600E+02  0.60639686475E+02  0.41800000000E+01 0.  1.
        -11    1    4    4    0    0 -0.68028423233E+01  0.24624479069E+02  0.47552290355E+02  0.53980218146E+02  0.00000000000E+00 0.  1.
         11    1    4    4    0    0 -0.34135104125E+02 -0.48365096715E+02 -0.36777227597E+01  0.59312001809E+02  0.00000000000E+00 0. -1.
</event>
<event>
 8    1  0.7102339E-009  0.9426866E+02  0.7561462E-02  0.1292832E+00
          1   -1    0    0  501    0  0.00000000000E+00  0.00000000000E+00  0.38612083555E+03  0.38612083555E+03  0.00000000000E+00 0. -1.
         -1   -1    0    0    0  501 -0.00000000000E+00 -0.00000000000E+00 -0.30572755325E+02  0.30572755325E+02  0.00000000000E+00 0.  1.
         25    2    1    2    0    0  0.20067376568E+02 -0.35103318638E+02  0.21557117817E+03  0.25249565351E+03  0.12509268405E+03 0.  0.
         23    2    1    2    0    0 -0.20067376568E+02  0.35103318638E+02  0.13997690206E+03  0.16419793737E+03  0.75713188709E+02 0.  0.
          5    1    3    3  502    0 -0.42531961478E+02  0.20704627547E+02  0.76470075777E+02  0.90015522207E+02  0.41800000000E+01 0. -1.
         -5    1    3    3    0  502  0.62599338045E+02 -0.55807946184E+02  0.13910110239E+03  0.16248013130E+03  0.41800000000E+01 0. -1.
        -11    1    4    4    0    0 -0.10106815116E+02  0.43123964893E+02  0.14410612556E+03  0.15075940927E+03  0.00000000000E+00 0. -1.
         11    1    4    4    0    0 -0.99605614520E+01 -0.80206462560E+01 -0.41292234984E+01  0.13438528100E+02  0.00000000000E+00 0.  1.
</event>
<event>
 8    1  0.7102339E-009  0.1094296E+03  0.7561462E-02  0.1261630E+00
          2   -1    0    0  501    0  0.00000000000E+00  0.00000000000E+00  0.68841431104E+03  0.68841431104E+03  0.00000000000E+00 0. -1.
         -2   -1    0    0    0  501 -0.00000000000E+00 -0.00000000000E+00 -0.20697354229E+02  0.20697354229E+02  0.00000000000E+00 0.  1.
         25    2    1    2    0    0 -0.24135506721E+02 -0.30654088684E+01  0.24343337955E+03  0.27476466189E+03  0.12507553608E+03 0.  0.
         23    2    1    2    0    0  0.24135506721E+02  0.30654088684E+01  0.42428357726E+03  0.43434700338E+03  0.89715360988E+02 0.  0.
          5    1    3    3  502    0 -0.32261799467E+01 -0.63300402187E+02  0.12062875126E+03  0.13633091060E+03  0.41800000000E+01 0. -1.
         -5    1    3    3    0  502 -0.20909326774E+02  0.60234993319E+02  0.12280462829E+03  0.13843375129E+03  0.41800000000E+01 0. -1.
        -11    1    4    4    0    0 -0.21302506699E+02 -0.28887683007E+02  0.20617663650E+03  0.20927756798E+03  0.00000000000E+00 0.  1.
         11    1    4    4    0    0  0.45438013420E+02  0.31953091875E+02  0.21810694076E+03  0.22506943540E+03  0.00000000000E+00 0. -1.
</event>
<event>
 8    1  0.7102339E-009  0.1053263E+03  0.7561462E-02  0.1269478E+00
          1   -1    0    0  501    0  0.00000000000E+00  0.00000000000E+00  0.37034129762E+03  0.37034129762E+03  0.00000000000E+00 0. -1.
         -1   -1    0    0    0  501 -0.00000000000E+00 -0.00000000000E+00 -0.56019087319E+02  0.56019087319E+02  0.00000000000E+00 0.  1.
         25    2    1    2    0    0 -0.42469493437E+02 -0.36414983530E+02  0.28290644814E+03  0.31434580774E+03  0.12509004577E+03 0.  0.
         23    2    1    2    0    0  0.42469493437E+02  0.36414983530E+02  0.31415762159E+02  0.11201457719E+03  0.91818334188E+02 0.  0.
          5    1    3    3  502    0 -0.24458770024E+02 -0.75292048424E+02  0.24314882358E+03  0.25574586369E+03  0.41800000000E+01 0. -1.
         -5    1    3    3    0  502 -0.18010723413E+02  0.38877064894E+02  0.39757624562E+02  0.58599944057E+02  0.41800000000E+01 0. -1.
        -11    1    4    4    0    0  0.39330274569E+02  0.56033744598E+02 -0.69484438135E+01  0.68810841463E+02  0.00000000000E+00 0.  1.
         11    1    4    4    0    0  0.31392188680E+01 -0.19618761069E+02  0.38364205973E+02  0.43203735728E+02  0.00000000000E+00 0. -1.
</event>
<event>
 8    1  0.7102339E-009  0.9149959E+02  0.7561462E-02  0.1299260E+00
         -2   -1    0    0    0  501 -0.00000000000E+00  0.00000000000E+00  0.49577855130E+02  0.49577855130E+02  0.00000000000E+00 0. -1.
          2   -1    0    0  501    0  0.00000000000E+00 -0.00000000000E+00 -0.23882015518E+03  0.23882015518E+03  0.00000000000E+00 0.  1.
         25    2    1    2    0    0  0.20941027040E+00  0.99302736935E+01 -0.12949497451E+03  0.18031853081E+03  0.12508864833E+03 0.  0.
         23    2    1    2    0    0 -0.20941027040E+00 -0.99302736935E+01 -0.59747325541E+02  0.10807947950E+03  0.89514115041E+02 0.  0.
          5    1    3    3  502    0 -0.61343769253E+02  0.27565974226E+00 -0.78385104356E+02  0.99623446033E+02  0.41800000000E+01 0.  1.
         -5    1    3    3    0  502  0.61553179524E+02  0.96546139513E+01 -0.51109870152E+02  0.80695084776E+02  0.41800000000E+01 0.  1.
        -11    1    4    4    0    0  0.17825698245E+02  0.18313055819E+02 -0.68778774300E+02  0.73373314806E+02  0.00000000000E+00 0.  1.
         11    1    4    4    0    0 -0.18035108516E+02 -0.28243329513E+02  0.90314487586E+01  0.34706164695E+02  0.00000000000E+00 0. -1.
</event>
<event>
 8    1  0.7102339E-009  0.1690427E+03  0.7561462E-02  0.1178850E+00
          1   -1    0    0  501    0  0.00000000000E+00  0.00000000000E+00  0.18217707688E+03  0.18217707688E+03  0.00000000000E+00 0. -1.
         -1   -1    0    0    0  501 -0.00000000000E+00 -0.00000000000E+00 -0.19422794261E+03  0.19422794261E+03  0.00000000000E+00 0.  1.
         25    2    1    2    0    0  0.13122777017E+03 -0.67736822483E+02 -0.48572792216E+02  0.19953833923E+03  0.12508887999E+03 0.  0.
         23    2    1    2    0    0 -0.13122777017E+03  0.67736822483E+02  0.36521926488E+02  0.17686668025E+03  0.90216221853E+02 0.  0.
          5    1    3    3  502    0  0.13646689427E+03 -0.48877247905E+02  0.21260290449E+01  0.14503168962E+03  0.41800000000E+01 0.  1.
         -5    1    3    3    0  502 -0.52391241034E+01 -0.18859574578E+02 -0.50698821260E+02  0.54506649611E+02  0.41800000000E+01 0.  1.
        -11    1    4    4    0    0 -0.33538047649E+02 -0.22239866028E+02  0.82837106658E+01  0.41085668346E+02  0.00000000000E+00 0. -1.
         11    1    4    4    0    0 -0.97689722519E+02  0.89976688510E+02  0.28238215822E+02  0.13578101190E+03  0.00000000000E+00 0.  1.
</event>
<event>
 8    1  0.7102339E-009  0.1365728E+03  0.7561462E-02  0.1218016E+00
         -2   -1    0    0    0  501 -0.00000000000E+00  0.00000000000E+00  0.16202767087E+03  0.16202767087E+03  0.00000000000E+00 0.  1.
          2   -1    0    0  501    0  0.00000000000E+00 -0.00000000000E+00 -0.45502275640E+03  0.45502275640E+03  0.00000000000E+00 0. -1.
         25    2    1    2    0    0  0.48427067194E+02  0.10937421373E+03 -0.39690582958E+03  0.43300097045E+03  0.12509078061E+03 0.  0.
         23    2    1    2    0    0 -0.48427067194E+02 -0.10937421373E+03  0.10391074404E+03  0.18404945681E+03  0.93642193272E+02 0.  0.
          5    1    3    3  502    0  0.46678601545E+02  0.86041467719E+02 -0.11928506713E+03  0.15436458678E+03  0.41800000000E+01 0.  1.
         -5    1    3    3    0  502  0.17484656487E+01  0.23332746008E+02 -0.27762076244E+03  0.27863638368E+03  0.41800000000E+01 0.  1.
        -11    1    4    4    0    0 -0.27516515369E+02 -0.12326310420E+03  0.80827064863E+02  0.14994654344E+03  0.00000000000E+00 0.  1.
         11    1    4    4    0    0 -0.20910551825E+02  0.13888890473E+02  0.23083679181E+02  0.34102913376E+02  0.00000000000E+00 0. -1.
</event>
<event>
 8    1  0.7102339E-009  0.1551081E+03  0.7561462E-02  0.1194333E+00
          2   -1    0    0  501    0  0.00000000000E+00  0.00000000000E+00  0.32108823839E+03  0.32108823839E+03  0.00000000000E+00 0. -1.
         -2   -1    0    0    0  501 -0.00000000000E+00 -0.00000000000E+00 -0.10818846351E+03  0.10818846351E+03  0.00000000000E+00 0.  1.
         25    2    1    2    0    0 -0.77517912177E+02  0.10129154257E+03  0.18550631615E+02  0.17961403173E+03  0.12509225059E+03 0.  0.
         23    2    1    2    0    0  0.77517912177E+02 -0.10129154257E+03  0.19434914327E+03  0.24966267017E+03  0.91054138173E+02 0.  0.
          5    1    3    3  502    0 -0.99200419972E+02  0.38246256011E+02  0.32739602512E+02  0.11132319342E+03  0.41800000000E+01 0.  1.
         -5    1    3    3    0  502  0.21682507794E+02  0.63045286562E+02 -0.14188970897E+02  0.68290838309E+02  0.41800000000E+01 0.  1.
        -11    1    4    4    0    0 -0.47306682842E+01 -0.22933203898E+02 -0.12706197380E+01  0.23450491210E+02  0.00000000000E+00 0.  1.
         11    1    4    4    0    0  0.82248580462E+02 -0.78358338674E+02  0.19561976301E+03  0.22621217896E+03  0.00000000000E+00 0. -1.
</event>
<event>
 8    1  0.7102339E-009  0.1144610E+03  0.7561462E-02  0.1252525E+00
         -1   -1    0    0    0  501 -0.00000000000E+00  0.00000000000E+00  0.14629083768E+03  0.14629083768E+03  0.00000000000E+00 0.  1.
          1   -1    0    0  501    0  0.00000000000E+00 -0.00000000000E+00 -0.11683666356E+03  0.11683666356E+03  0.00000000000E+00 0. -1.
         25    2    1    2    0    0  0.43133354377E+02  0.52865831802E+02  0.43106068247E+02  0.14885650860E+03  0.12507935321E+03 0.  0.
         23    2    1    2    0    0 -0.43133354377E+02 -0.52865831802E+02 -0.13651894128E+02  0.11427099265E+03  0.90643273968E+02 0.  0.
          5    1    3    3  502    0  0.59298089209E+02  0.76091782635E+02  0.61839157010E+02  0.11466375412E+03  0.41800000000E+01 0.  1.
         -5    1    3    3    0  502 -0.16164734833E+02 -0.23225950833E+02 -0.18733088764E+02  0.34192754480E+02  0.41800000000E+01 0.  1.
        -11    1    4    4    0    0 -0.53378616465E+01  0.20524568762E+02 -0.22890694234E+02  0.31204720353E+02  0.00000000000E+00 0. -1.
         11    1    4    4    0    0 -0.37795492730E+02 -0.73390400564E+02  0.92388001053E+01  0.83066272295E+02  0.00000000000E+00 0.  1.
</event>
<event>
 8    1  0.7102339E-009  0.1885505E+03  0.7561462E-02  0.1159775E+00
          1   -1    0    0  501    0  0.00000000000E+00  0.00000000000E+00  0.13915583111E+04  0.13915583111E+04  0.00000000000E+00 0. -1.
         -1   -1    0    0    0  501 -0.00000000000E+00 -0.00000000000E+00 -0.28496642121E+02  0.28496642121E+02  0.00000000000E+00 0.  1.
         25    2    1    2    0    0  0.11501283932E+03 -0.11368458009E+03  0.85240857685E+03  0.87658442497E+03  0.12509090800E+03 0.  0.
         23    2    1    2    0    0 -0.11501283932E+03  0.11368458009E+03  0.51065309214E+03  0.54347052826E+03  0.91877623010E+02 0.  0.
          5    1    3    3  502    0  0.13744710647E+03 -0.11301045882E+03  0.69037341683E+03  0.71294880457E+03  0.41800000000E+01 0. -1.
         -5    1    3    3    0  502 -0.22434267144E+02 -0.67412126989E+00  0.16203516002E+03  0.16363562040E+03  0.41800000000E+01 0. -1.
        -11    1    4    4    0    0 -0.12485159152E+03  0.10432863307E+03  0.50114487280E+03  0.52689521455E+03  0.00000000000E+00 0. -1.
         11    1    4    4    0    0  0.98387521953E+01  0.93559470197E+01  0.95082193426E+01  0.16575313706E+02  0.00000000000E+00 0.  1.
</event>
<event>
 8    1  0.7102339E-009  0.1407473E+03  0.7561462E-02  0.1212327E+00
          3   -1    0    0  501    0  0.00000000000E+00  0.00000000000E+00  0.14912676616E+03  0.14912676616E+03  0.00000000000E+00 0. -1.
         -3   -1    0    0    0  501 -0.00000000000E+00 -0.00000000000E+00 -0.16622928162E+03  0.16622928162E+03  0.00000000000E+00 0.  1.
         25    2    1    2    0    0  0.11268463697E+03  0.55495006018E+01 -0.26727117884E+02  0.17056219097E+03  0.12509395585E+03 0.  0.
         23    2    1    2    0    0 -0.11268463697E+03 -0.55495006018E+01  0.96246024261E+01  0.14479385681E+03  0.90244133499E+02 0.  0.
          5    1    3    3  502    0  0.14006578697E+03  0.12168434978E+01 -0.18530190601E+02  0.14135326579E+03  0.41800000000E+01 0. -1.
         -5    1    3    3    0  502 -0.27381149998E+02  0.43326571040E+01 -0.81969272828E+01  0.29208925172E+02  0.41800000000E+01 0. -1.
        -11    1    4    4    0    0 -0.35359564612E+02 -0.67181665529E+01  0.46758397354E+02  0.59006612295E+02  0.00000000000E+00 0. -1.
         11    1    4    4    0    0 -0.77325072357E+02  0.11686659511E+01 -0.37133794927E+02  0.85787244512E+02  0.00000000000E+00 0.  1.
</event>
<event>
 8    1  0.7102339E-009  0.1115292E+03  0.7561462E-02  0.1257764E+00
          1   -1    0    0  501    0  0.00000000000E+00  0.00000000000E+00  0.45514047989E+03  0.45514047989E+03  0.00000000000E+00 0. -1.
         -1   -1    0    0    0  501 -0.00000000000E+00 -0.00000000000E+00 -0.41345468596E+02  0.41345468596E+02  0.00000000000E+00 0.  1.
         25    2    1    2    0    0 -0.26720836166E+02  0.60423665206E+02  0.13694577301E+03  0.19688919850E+03  0.12508472864E+03 0.  0.
         23    2    1    2    0    0  0.26720836166E+02 -0.60423665206E+02  0.27684923829E+03  0.29959674999E+03  0.93529083504E+02 0.  0.
          5    1    3    3  502    0 -0.14218248602E+02 -0.27953455192E+02 -0.19883778286E+01  0.31701424209E+02  0.41800000000E+01 0.  1.
         -5    1    3    3    0  502 -0.12502587563E+02  0.88377120399E+02  0.13893415083E+03  0.16518777429E+03  0.41800000000E+01 0.  1.
        -11    1    4    4    0    0 -0.15003387326E+01  0.18338088927E+02  0.12297618572E+02  0.22130701397E+02  0.00000000000E+00 0.  1.
         11    1    4    4    0    0  0.28221174898E+02 -0.78761754133E+02  0.26455161971E+03  0.27746604859E+03  0.00000000000E+00 0. -1.
</event>
<event>
 8    1  0.7102339E-009  0.8897379E+02  0.7561462E-02  0.1305356E+00
          1   -1    0    0  501    0  0.00000000000E+00  0.00000000000E+00  0.35787859186E+02  0.35787859186E+02  0.00000000000E+00 0. -1.
         -1   -1    0    0    0  501 -0.00000000000E+00 -0.00000000000E+00 -0.58996345268E+03  0.58996345268E+03  0.00000000000E+00 0.  1.
         25    2    1    2    0    0  0.85751207803E+01  0.60950702261E+02 -0.45119363265E+03  0.47224021922E+03  0.12508640896E+03 0.  0.
         23    2    1    2    0    0 -0.85751207803E+01 -0.60950702261E+02 -0.10298196084E+03  0.15351109264E+03  0.95769778648E+02 0.  0.
          5    1    3    3  502    0 -0.28680472577E+02  0.59786249222E+02 -0.10659421378E+03  0.12560558871E+03  0.41800000000E+01 0. -1.
         -5    1    3    3    0  502  0.37255593357E+02  0.11644530388E+01 -0.34459941887E+03  0.34663463051E+03  0.41800000000E+01 0. -1.
        -11    1    4    4    0    0 -0.23795836010E+02 -0.49597048335E+02 -0.67489665254E+01  0.55422536608E+02  0.00000000000E+00 0. -1.
         11    1    4    4    0    0  0.15220715229E+02 -0.11353653926E+02 -0.96232994314E+02  0.98088556031E+02  0.00000000000E+00 0.  1.
</event>
<event>
 8    1  0.7102339E-009  0.1127020E+03  0.7561462E-02  0.1255647E+00
          2   -1    0    0  501    0  0.00000000000E+00  0.00000000000E+00  0.17605059219E+03  0.17605059219E+03  0.00000000000E+00 0. -1.
         -2   -1    0    0    0  501 -0.00000000000E+00 -0.00000000000E+00 -0.80408457448E+02  0.80408457448E+02  0.00000000000E+00 0.  1.
         25    2    1    2    0    0  0.25031341531E+02 -0.41965406417E+02  0.53040932992E+02  0.14438960686E+03  0.12508938645E+03 0.  0.
         23    2    1    2    0    0 -0.25031341531E+02  0.41965406417E+02  0.42601201749E+02  0.11206944277E+03  0.91416815843E+02 0.  0.
          5    1    3    3  502    0  0.54595638710E+02 -0.64303631134E+02  0.63493884116E+02  0.10566260674E+03  0.41800000000E+01 0.  1.
         -5    1    3    3    0  502 -0.29564297179E+02  0.22338224718E+02 -0.10452951124E+02  0.38727000122E+02  0.41800000000E+01 0.  1.
        -11    1    4    4    0    0 -0.45034322756E+02  0.61148143314E+02  0.31275490906E+02  0.82130030977E+02  0.00000000000E+00 0.  1.
         11    1    4    4    0    0  0.20002981225E+02 -0.19182736897E+02  0.11325710843E+02  0.29939411798E+02  0.00000000000E+00 0. -1.
</event>
<event>
 8    1  0.7102339E-009  0.1150724E+03  0.7561462E-02  0.1251455E+00
         -1   -1    0    0    0  501 -0.00000000000E+00  0.00000000000E+00  0.97241432605E+03  0.97241432605E+03  0.00000000000E+00 0.  1.
          1   -1    0    0  501    0  0.00000000000E+00 -0.00000000000E+00 -0.30085922112E+02  0.30085922112E+02  0.00000000000E+00 0. -1.
         25    2    1    2    0    0  0.24810188299E+02 -0.79098964819E+02  0.80180964980E+03  0.81572729576E+03  0.12506044485E+03 0.  0.
         23    2    1    2    0    0 -0.24810188299E+02  0.79098964819E+02  0.14051875414E+03  0.18677295240E+03  0.90919875733E+02 0.  0.
          5    1    3    3  502    0 -0.31190344455E+02  0.15512385286E+02  0.29713182832E+03  0.29919603521E+03  0.41800000000E+01 0.  1.
         -5    1    3    3    0  502  0.56000532754E+02 -0.94611350106E+02  0.50467782148E+03  0.51653126056E+03  0.41800000000E+01 0.  1.
        -11    1    4    4    0    0 -0.10632123839E+02  0.61625569312E+02  0.22240280483E+02  0.66373058739E+02  0.00000000000E+00 0. -1.
         11    1    4    4    0    0 -0.14178064460E+02  0.17473395507E+02  0.11827847366E+03  0.12039989366E+03  0.00000000000E+00 0.  1.
</event>
<event>
 8    1  0.7102339E-009  0.1266317E+03  0.7561462E-02  0.1232541E+00
          2   -1    0    0  501    0  0.00000000000E+00  0.00000000000E+00  0.54598629046E+03  0.54598629046E+03  0.00000000000E+00 0. -1.
         -2   -1    0    0    0  501 -0.00000000000E+00 -0.00000000000E+00 -0.40330847691E+02  0.40330847691E+02  0.00000000000E+00 0.  1.
         25    2    1    2    0    0  0.83627132418E+02  0.56660067565E+02  0.25950162870E+03  0.30527562973E+03  0.12509298252E+03 0.  0.
         23    2    1    2    0    0 -0.83627132418E+02 -0.56660067565E+02  0.24615381407E+03  0.28104150843E+03  0.90491815892E+02 0.  0.
          5    1    3    3  502    0  0.19099649666E+02  0.51642773053E+02  0.22526970006E+03  0.23193896350E+03  0.41800000000E+01 0. -1.
         -5    1    3    3    0  502  0.64527482752E+02  0.50172945127E+01  0.34231928640E+02  0.73336666225E+02  0.41800000000E+01 0. -1.
        -11    1    4    4    0    0 -0.24817458323E+02 -0.68797830623E+02  0.10836695395E+03  0.13073807572E+03  0.00000000000E+00 0. -1.
         11    1    4    4    0    0 -0.58809674095E+02  0.12137763058E+02  0.13778686013E+03  0.15030343271E+03  0.00000000000E+00 0.  1.
</event>
<event>
 8    1  0.7102339E-009  0.6686748E+02  0.7561462E-02  0.1371081E+00
         -2   -1    0    0    0  501 -0.00000000000E+00  0.00000000000E+00  0.12836405533E+03  0.12836405533E+03  0.00000000000E+00 0.  1.
          2   -1    0    0  501    0  0.00000000000E+00 -0.00000000000E+00 -0.10559414771E+03  0.10559414771E+03  0.00000000000E+00 0. -1.
         25    2    1    2    0    0  0.85214598270E+01 -0.53583165160E+02  0.10892104733E+02  0.13678431367E+03  0.12509012612E+03 0.  0.
         23    2    1    2    0    0 -0.85214598270E+01  0.53583165160E+02  0.11877802883E+02  0.97173889379E+02  0.79736514280E+02 0.  0.
          5    1    3    3  502    0 -0.94674791260E+01 -0.30175498209E+02 -0.55494102426E+02  0.64009855938E+02  0.41800000000E+01 0.  1.
         -5    1    3    3    0  502  0.17988938953E+02 -0.23407666951E+02  0.66386207159E+02  0.72774457728E+02  0.41800000000E+01 0.  1.
        -11    1    4    4    0    0 -0.19376785724E+02  0.22005860112E+01  0.34785060842E+02  0.39878601549E+02  0.00000000000E+00 0.  1.
         11    1    4    4    0    0  0.10855325897E+02  0.51382579149E+02 -0.22907257959E+02  0.57295287830E+02  0.00000000000E+00 0. -1.
</event>
<event>
 8    1  0.7102339E-009  0.2041835E+03  0.7561462E-02  0.1146257E+00
          2   -1    0    0  501    0  0.00000000000E+00  0.00000000000E+00  0.99997083123E+03  0.99997083123E+03  0.00000000000E+00 0.  1.
         -2   -1    0    0    0  501 -0.00000000000E+00 -0.00000000000E+00 -0.43883606564E+02  0.43883606564E+02  0.00000000000E+00 0. -1.
         25    2    1    2    0    0  0.13523510738E+03  0.11608749126E+03  0.54256750598E+03  0.58463014958E+03  0.12509225937E+03 0.  0.
         23    2    1    2    0    0 -0.13523510738E+03 -0.11608749126E+03  0.41351971868E+03  0.45922428821E+03  0.90130734211E+02 0.  0.
          5    1    3    3  502    0  0.19353727130E+02 -0.26495003930E+02  0.10331546693E+03  0.10848092042E+03  0.41800000000E+01 0.  1.
         -5    1    3    3    0  502  0.11588138025E+03  0.14258249519E+03  0.43925203905E+03  0.47614922916E+03  0.41800000000E+01 0.  1.
        -11    1    4    4    0    0 -0.83256830114E+02 -0.25510075365E+02  0.25444896334E+03  0.26893630966E+03  0.00000000000E+00 0.  1.
         11    1    4    4    0    0 -0.51978277263E+02 -0.90577415898E+02  0.15907075534E+03  0.19028797855E+03  0.00000000000E+00 0. -1.
</event>
<event>
 8    1  0.7102339E-009  0.8196767E+02  0.7561462E-02  0.1323558E+00
          1   -1    0    0  501    0  0.00000000000E+00  0.00000000000E+00  0.17605808385E+04  0.17605808385E+04  0.00000000000E+00 0. -1.
         -1   -1    0    0    0  501 -0.00000000000E+00 -0.00000000000E+00 -0.10506765145E+02  0.10506765145E+02  0.00000000000E+00 0.  1.
         25    2    1    2    0    0 -0.27027625817E+02  0.40091333010E+02  0.13957875794E+04  0.14022155425E+04  0.12509058019E+03 0.  0.
         23    2    1    2    0    0  0.27027625817E+02 -0.40091333010E+02  0.35428649396E+03  0.36887206116E+03  0.90608333845E+02 0.  0.
          5    1    3    3  502    0 -0.35182191245E+02  0.38122184645E+02  0.13904617863E+04  0.13914354240E+04  0.41800000000E+01 0.  1.
         -5    1    3    3    0  502  0.81545654287E+01  0.19691483653E+01  0.53257930679E+01  0.10780118479E+02  0.41800000000E+01 0.  1.
        -11    1    4    4    0    0 -0.51602975759E+01  0.27327437891E+02  0.86604053148E+02  0.90959768878E+02  0.00000000000E+00 0.  1.
         11    1    4    4    0    0  0.32187923393E+02 -0.67418770901E+02  0.26768244081E+03  0.27791229228E+03  0.00000000000E+00 0. -1.
</event>
<event>
 8    1  0.7102339E-009  0.1167723E+03  0.7561462E-02  0.1248519E+00
         -3   -1    0    0    0  501 -0.00000000000E+00  0.00000000000E+00  0.79625772141E+02  0.79625772141E+02  0.00000000000E+00 0.  1.
          3   -1    0    0  501    0  0.00000000000E+00 -0.00000000000E+00 -0.25174535893E+03  0.25174535893E+03  0.00000000000E+00 0. -1.
         25    2    1    2    0    0 -0.72246226052E+02 -0.45555832659E+02 -0.61559897983E+02  0.16346920104E+03  0.12505082000E+03 0.  0.
         23    2    1    2    0    0  0.72246226052E+02  0.45555832659E+02 -0.11055968880E+03  0.16790193002E+03  0.93127666400E+02 0.  0.
          5    1    3    3  502    0 -0.62028777359E+02  0.30154273993E+02 -0.51760514484E+02  0.86333497093E+02  0.41800000000E+01 0.  1.
         -5    1    3    3    0  502 -0.10217448694E+02 -0.75710106652E+02 -0.97993834984E+01  0.77135703951E+02  0.41800000000E+01 0.  1.
        -11    1    4    4    0    0  0.29142254231E+02  0.30740203354E+02 -0.11456724171E+03  0.12214697686E+03  0.00000000000E+00 0. -1.
         11    1    4    4    0    0  0.43103971822E+02  0.14815629305E+02  0.40075529044E+01  0.45754953161E+02  0.00000000000E+00 0.  1.
</event>
<event>
 8    1  0.7102339E-009  0.1174703E+03  0.7561462E-02  0.1247329E+00
         -2   -1    0    0    0  501 -0.00000000000E+00  0.00000000000E+00  0.27345870440E+03  0.27345870440E+03  0.00000000000E+00 0.  1.
          2   -1    0    0  501    0  0.00000000000E+00 -0.00000000000E+00 -0.73842819749E+02  0.73842819749E+02  0.00000000000E+00 0. -1.
         25    2    1    2    0    0  0.70437546230E+02 -0.24294004374E+02  0.17246096801E+03  0.22570333475E+03  0.12509022049E+03 0.  0.
         23    2    1    2    0    0 -0.70437546230E+02  0.24294004374E+02  0.27154916642E+02  0.12159818940E+03  0.92179626819E+02 0.  0.
          5    1    3    3  502    0  0.61378036548E+02 -0.70321829135E+02  0.84735076464E+02  0.12613456547E+03  0.41800000000E+01 0. -1.
         -5    1    3    3    0  502  0.90595096822E+01  0.46027824761E+02  0.87725891544E+02  0.99568769275E+02  0.41800000000E+01 0. -1.
        -11    1    4    4    0    0 -0.26848390471E+02 -0.19064435777E+02  0.46649133682E+02  0.57100179121E+02  0.00000000000E+00 0.  1.
         11    1    4    4    0    0 -0.43589155759E+02  0.43358440151E+02 -0.19494217040E+02  0.64498010280E+02  0.00000000000E+00 0. -1.
</event>
<event>
 8    1  0.7102339E-009  0.7040093E+02  0.7561462E-02  0.1358735E+00
         -1   -1    0    0    0  501 -0.00000000000E+00  0.00000000000E+00  0.44254425225E+02  0.44254425225E+02  0.00000000000E+00 0.  1.
          1   -1    0    0  501    0  0.00000000000E+00 -0.00000000000E+00 -0.37507714122E+03  0.37507714122E+03  0.00000000000E+00 0. -1.
         25    2    1    2    0    0  0.81355282666E+01  0.41468740962E+00 -0.74689256888E+02  0.14592054273E+03  0.12509180992E+03 0.  0.
         23    2    1    2    0    0 -0.81355282666E+01 -0.41468740962E+00 -0.25613345911E+03  0.27341102372E+03  0.95304145920E+02 0.  0.
          5    1    3    3  502    0  0.30626325320E+02  0.13231914173E+02  0.25600098401E+02  0.42259824815E+02  0.41800000000E+01 0.  1.
         -5    1    3    3    0  502 -0.22490797053E+02 -0.12817226763E+02 -0.10028935529E+03  0.10366071791E+03  0.41800000000E+01 0.  1.
        -11    1    4    4    0    0 -0.38166539584E+02  0.21476062899E+02 -0.20821488747E+03  0.21277064033E+03  0.00000000000E+00 0. -1.
         11    1    4    4    0    0  0.30031011317E+02 -0.21890750308E+02 -0.47918571641E+02  0.60640383391E+02  0.00000000000E+00 0.  1.
</event>
<event>
 8    1  0.7102339E-009  0.1293345E+03  0.7561462E-02  0.1228447E+00
          3   -1    0    0  501    0  0.00000000000E+00  0.00000000000E+00  0.47420268271E+02  0.47420268271E+02  0.00000000000E+00 0. -1.
         -3   -1    0    0    0  501 -0.00000000000E+00 -0.00000000000E+00 -0.53638433864E+03  0.53638433864E+03  0.00000000000E+00 0.  1.
         25    2    1    2    0    0  0.95813895690E+02 -0.81600751433E+01 -0.38286173431E+03  0.41409790579E+03  0.12508828301E+03 0.  0.
         23    2    1    2    0    0 -0.95813895690E+02  0.81600751433E+01 -0.10610233605E+03  0.16970670112E+03  0.91081113601E+02 0.  0.
          5    1    3    3  502    0  0.62113086202E+02 -0.57895462416E+02 -0.29900942895E+03  0.31086014709E+03  0.41800000000E+01 0.  1.
         -5    1    3    3    0  502  0.33700809488E+02  0.49735387273E+02 -0.83852305360E+02  0.10323775870E+03  0.41800000000E+01 0.  1.
        -11    1    4    4    0    0 -0.71440166108E+01 -0.19322258697E+02  0.84464842715E+01  0.22264989357E+02  0.00000000000E+00 0. -1.
         11    1    4    4    0    0 -0.88669879079E+02  0.27482333841E+02 -0.11454882033E+03  0.14744171176E+03  0.00000000000E+00 0.  1.
</event>
<event>
 8    1  0.7102339E-009  0.8021499E+02  0.7561462E-02  0.1328442E+00
         -1   -1    0    0    0  501 -0.00000000000E+00  0.00000000000E+00  0.68823554949E+02  0.68823554949E+02  0.00000000000E+00 0.  1.
          1   -1    0    0  501    0  0.00000000000E+00 -0.00000000000E+00 -0.27686733664E+03  0.27686733664E+03  0.00000000000E+00 0. -1.
         25    2    1    2    0    0 -0.55212129974E+02 -0.40242238014E+02 -0.54090972313E+02  0.15245157497E+03  0.12509129629E+03 0.  0.
         23    2    1    2    0    0  0.55212129974E+02  0.40242238014E+02 -0.15395280938E+03  0.19323931662E+03  0.94721428181E+02 0.  0.
          5    1    3    3  502    0 -0.76512841201E+01 -0.42971512186E+02 -0.84907235386E+02  0.95560473153E+02  0.41800000000E+01 0. -1.
         -5    1    3    3    0  502 -0.47560845854E+02  0.27292741716E+01  0.30816263073E+02  0.56891101814E+02  0.41800000000E+01 0. -1.
        -11    1    4    4    0    0  0.22634463954E+02  0.11858915703E+02 -0.14732679131E+03  0.14952637318E+03  0.00000000000E+00 0. -1.
         11    1    4    4    0    0  0.32577666019E+02  0.28383322311E+02 -0.66260180701E+01  0.43712943440E+02  0.00000000000E+00 0.  1.
</event>
<event>
 8    1  0.7102339E-009  0.2012759E+03  0.7561462E-02  0.1148667E+00
          2   -1    0    0  501    0  0.00000000000E+00  0.00000000000E+00  0.43086317152E+03  0.43086317152E+03  0.00000000000E+00 0. -1.
         -2   -1    0    0    0  501 -0.00000000000E+00 -0.00000000000E+00 -0.12032623201E+03  0.12032623201E+03  0.00000000000E+00 0.  1.
         25    2    1    2    0    0  0.87411366856E+02  0.14929045209E+03  0.40081944387E+02  0.21721580133E+03  0.12509099064E+03 0.  0.
         23    2    1    2    0    0 -0.87411366856E+02 -0.14929045209E+03  0.27045499513E+03  0.33397360220E+03  0.92000415403E+02 0.  0.
          5    1    3    3  502    0  0.72258925522E+02  0.17717826701E+02 -0.10758024537E+02  0.75289316590E+02  0.41800000000E+01 0. -1.
         -5    1    3    3    0  502  0.15152441334E+02  0.13157262539E+03  0.50839968924E+02  0.14192648474E+03  0.41800000000E+01 0. -1.
        -11    1    4    4    0    0 -0.16821879417E+02 -0.11647357130E+03  0.17327325739E+03  0.20945808689E+03  0.00000000000E+00 0.  1.
         11    1    4    4    0    0 -0.70589487439E+02 -0.32816880789E+02  0.97181737739E+02  0.12451551531E+03  0.00000000000E+00 0. -1.
</event>
<event>
 8    1  0.7102339E-009  0.1359978E+03  0.7561462E-02  0.1218818E+00
         -2   -1    0    0    0  501 -0.00000000000E+00  0.00000000000E+00  0.10879563417E+02  0.10879563417E+02  0.00000000000E+00 0.  1.
          2   -1    0    0  501    0  0.00000000000E+00 -0.00000000000E+00 -0.22651152684E+04  0.22651152684E+04  0.00000000000E+00 0. -1.
         25    2    1    2    0    0 -0.93587740051E+02  0.12063277537E+02 -0.16609178186E+04  0.16682923564E+04  0.12508876299E+03 0.  0.
         23    2    1    2    0    0  0.93587740051E+02 -0.12063277537E+02 -0.59331788643E+03  0.60770247544E+03  0.91498614954E+02 0.  0.
          5    1    3    3  502    0 -0.86131304777E+02 -0.38143856396E+02 -0.13444629781E+04  0.13477654570E+04  0.41800000000E+01 0.  1.
         -5    1    3    3    0  502 -0.74564352735E+01  0.50207133933E+02 -0.31645484054E+03  0.32052689938E+03  0.41800000000E+01 0.  1.
        -11    1    4    4    0    0  0.21284482230E+02 -0.43116564560E+02 -0.15200392619E+03  0.15942791757E+03  0.00000000000E+00 0.  1.
         11    1    4    4    0    0  0.72303257821E+02  0.31053287023E+02 -0.44131396024E+03  0.44827455787E+03  0.00000000000E+00 0. -1.
</event>
<event>
 8    1  0.7102339E-009  0.1008433E+03  0.7561462E-02  0.1278532E+00
          2   -1    0    0  501    0  0.00000000000E+00  0.00000000000E+00  0.12236893595E+04  0.12236893595E+04  0.00000000000E+00 0. -1.
         -2   -1    0    0    0  501 -0.00000000000E+00 -0.00000000000E+00 -0.24278165820E+02  0.24278165820E+02  0.00000000000E+00 0.  1.
         25    2    1    2    0    0  0.81767427600E+02  0.51828439042E+02  0.95761611470E+03  0.97059070595E+03  0.12508235694E+03 0.  0.
         23    2    1    2    0    0 -0.81767427600E+02 -0.51828439042E+02  0.24179507899E+03  0.27737681939E+03  0.95398849054E+02 0.  0.
          5    1    3    3  502    0  0.32533136571E+02  0.24790011533E+02  0.69942232049E+02  0.81131608335E+02  0.41800000000E+01 0. -1.
         -5    1    3    3    0  502  0.49234291029E+02  0.27038427510E+02  0.88767388266E+03  0.88945909761E+03  0.41800000000E+01 0. -1.
        -11    1    4    4    0    0 -0.28529070254E+02 -0.40949947912E+02  0.20681763388E+03  0.21275417685E+03  0.00000000000E+00 0. -1.
         11    1    4    4    0    0 -0.53238357346E+02 -0.10878491130E+02  0.34977445107E+02  0.64622642536E+02  0.00000000000E+00 0.  1.
</event>
<event>
 8    1  0.7102339E-009  0.1077244E+03  0.7561462E-02  0.1264843E+00
          2   -1    0    0  501    0  0.00000000000E+00  0.00000000000E+00  0.69305912459E+02  0.69305912459E+02  0.00000000000E+00 0. -1.
         -2   -1    0    0    0  501 -0.00000000000E+00 -0.00000000000E+00 -0.19623808410E+03  0.19623808410E+03  0.00000000000E+00 0.  1.
         25    2    1    2    0    0  0.91730858752E+00  0.14133576982E+02 -0.26477707042E+02  0.12864081991E+03  0.12508713812E+03 0.  0.
         23    2    1    2    0    0 -0.91730858752E+00 -0.14133576982E+02 -0.10045446460E+03  0.13690317665E+03  0.91928128806E+02 0.  0.
          5    1    3    3  502    0 -0.15975432503E+02  0.66773923491E+02 -0.24971863915E+02  0.73178123024E+02  0.41800000000E+01 0.  1.
         -5    1    3    3    0  502  0.16892741090E+02 -0.52640346509E+02 -0.15058431266E+01  0.55462696884E+02  0.41800000000E+01 0.  1.
        -11    1    4    4    0    0  0.20703627183E+02  0.33232248426E+02 -0.30146515006E+02  0.49414925690E+02  0.00000000000E+00 0. -1.
         11    1    4    4    0    0 -0.21620935770E+02 -0.47365825407E+02 -0.70307949597E+02  0.87488250963E+02  0.00000000000E+00 0.  1.
</event>
<event>
 8    1  0.7102339E-009  0.1136602E+03  0.7561462E-02  0.1253938E+00
          2   -1    0    0  501    0  0.00000000000E+00  0.00000000000E+00  0.12539641988E+04  0.12539641988E+04  0.00000000000E+00 0. -1.
         -2   -1    0    0    0  501 -0.00000000000E+00 -0.00000000000E+00 -0.11826418308E+02  0.11826418308E+02  0.00000000000E+00 0.  1.
         25    2    1    2    0    0  0.43091017071E+02 -0.32795245144E+02  0.74564468149E+03  0.75800143383E+03  0.12509124190E+03 0.  0.
         23    2    1    2    0    0 -0.43091017071E+02  0.32795245144E+02  0.49649309904E+03  0.50778918331E+03  0.91717465300E+02 0.  0.
          5    1    3    3  502    0  0.24586889714E+02 -0.72758788956E+02  0.28363207127E+03  0.29387579140E+03  0.41800000000E+01 0.  1.
         -5    1    3    3    0  502  0.18504127358E+02  0.39963543811E+02  0.46201261022E+03  0.46412564243E+03  0.41800000000E+01 0.  1.
        -11    1    4    4    0    0 -0.23183972955E+02  0.64607276657E+02  0.30108759075E+03  0.30881278164E+03  0.00000000000E+00 0.  1.
         11    1    4    4    0    0 -0.19907044116E+02 -0.31812031513E+02  0.19540550828E+03  0.19897640167E+03  0.00000000000E+00 0. -1.
</event>
<event>
 8    1  0.7102339E-009  0.1987033E+03  0.7561462E-02  0.1150838E+00
         -1   -1    0    0    0  501 -0.00000000000E+00  0.00000000000E+00  0.10796684178E+03  0.10796684178E+03  0.00000000000E+00 0.  1.
          1   -1    0    0  501    0  0.00000000000E+00 -0.00000000000E+00 -0.40453828583E+03  0.40453828583E+03  0.00000000000E+00 0. -1.
         25    2    1    2    0    0  0.69182667096E+02 -0.16015351985E+03 -0.20237562941E+03  0.29502316058E+03  0.12508948220E+03 0.  0.
         23    2    1    2    0    0 -0.69182667096E+02  0.16015351985E+03 -0.94195814644E+02  0.21748196702E+03  0.89387712444E+02 0.  0.
          5    1    3    3  502    0  0.72727923778E+02 -0.17312405780E+03 -0.20764226303E+03  0.27998941423E+03  0.41800000000E+01 0.  1.
         -5    1    3    3    0  502 -0.35452566824E+01  0.12970537955E+02  0.52666336181E+01  0.15033746355E+02  0.41800000000E+01 0.  1.
        -11    1    4    4    0    0 -0.70855683010E+02  0.53380849090E+02 -0.34845506949E+02  0.95311343600E+02  0.00000000000E+00 0. -1.
         11    1    4    4    0    0  0.16730159147E+01  0.10677267076E+03 -0.59350307696E+02  0.12217062342E+03  0.00000000000E+00 0.  1.
</event>
<event>
 8    1  0.7102339E-009  0.1515289E+03  0.7561462E-02  0.1198607E+00
         -1   -1    0    0    0  501 -0.00000000000E+00  0.00000000000E+00  0.45172468710E+03  0.45172468710E+03  0.00000000000E+00 0.  1.
          1   -1    0    0  501    0  0.00000000000E+00 -0.00000000000E+00 -0.57397664386E+02  0.57397664386E+02  0.00000000000E+00 0. -1.
         25    2    1    2    0    0  0.12386073870E+01  0.10630648775E+03  0.29136977653E+03  0.33443454505E+03  0.12509002664E+03 0.  0.
         23    2    1    2    0    0 -0.12386073870E+01 -0.10630648775E+03  0.10295724619E+03  0.17468780643E+03  0.92806420515E+02 0.  0.
          5    1    3    3  502    0  0.61632344307E+02  0.53792021815E+02  0.12050536038E+03  0.14570909977E+03  0.41800000000E+01 0. -1.
         -5    1    3    3    0  502 -0.60393736920E+02  0.52514465934E+02  0.17086441615E+03  0.18872544528E+03  0.41800000000E+01 0. -1.
        -11    1    4    4    0    0  0.42690826493E+02 -0.27501892748E+02  0.40540987320E+02  0.64980246416E+02  0.00000000000E+00 0.  1.
         11    1    4    4    0    0 -0.43929433880E+02 -0.78804595001E+02  0.62416258868E+02  0.10970756002E+03  0.00000000000E+00 0. -1.
</event>
<event>
 8    1  0.7102339E-009  0.1144649E+03  0.7561462E-02  0.1252518E+00
         -1   -1    0    0    0  501 -0.00000000000E+00  0.00000000000E+00  0.11644680956E+03  0.11644680956E+03  0.00000000000E+00 0.  1.
          1   -1    0    0  501    0  0.00000000000E+00 -0.00000000000E+00 -0.27740809088E+03  0.27740809088E+03  0.00000000000E+00 0. -1.
         25    2    1    2    0    0  0.61139593976E+02 -0.24329945096E+02 -0.22335849646E+03  0.26432271153E+03  0.12508989450E+03 0.  0.
         23    2    1    2    0    0 -0.61139593976E+02  0.24329945096E+02  0.62397215141E+02  0.12953218891E+03  0.92494212397E+02 0.  0.
          5    1    3    3  502    0  0.73210760187E+02  0.23835834765E+02 -0.18806785106E+03  0.20326079658E+03  0.41800000000E+01 0.  1.
         -5    1    3    3    0  502 -0.12071166210E+02 -0.48165779862E+02 -0.35290645408E+02  0.61061914944E+02  0.41800000000E+01 0.  1.
        -11    1    4    4    0    0 -0.77222697205E+02  0.57768891865E+01  0.69414326838E+02  0.10399551040E+03  0.00000000000E+00 0.  1.
         11    1    4    4    0    0  0.16083103228E+02  0.18553055910E+02 -0.70171116964E+01  0.25536678516E+02  0.00000000000E+00 0. -1.
</event>
<event>
 8    1  0.7102339E-009  0.1120488E+03  0.7561462E-02  0.1256822E+00
         -2   -1    0    0    0  501 -0.00000000000E+00  0.00000000000E+00  0.15500685886E+02  0.15500685886E+02  0.00000000000E+00 0.  1.
          2   -1    0    0  501    0  0.00000000000E+00 -0.00000000000E+00 -0.10241509300E+04  0.10241509300E+04  0.00000000000E+00 0. -1.
         25    2    1    2    0    0  0.23454636938E+02  0.24688919452E+02 -0.78422187167E+03  0.79486543199E+03  0.12508976069E+03 0.  0.
         23    2    1    2    0    0 -0.23454636938E+02 -0.24688919452E+02 -0.22442837247E+03  0.24478618392E+03  0.91610691146E+02 0.  0.
          5    1    3    3  502    0  0.67019157851E+02  0.45140788910E+02 -0.45936146333E+03  0.46643293702E+03  0.41800000000E+01 0. -1.
         -5    1    3    3    0  502 -0.43564520913E+02 -0.20451869458E+02 -0.32486040834E+03  0.32843249497E+03  0.41800000000E+01 0. -1.
        -11    1    4    4    0    0 -0.36588803425E+02  0.24455290876E+02 -0.13387310158E+03  0.14092128695E+03  0.00000000000E+00 0. -1.
         11    1    4    4    0    0  0.13134166487E+02 -0.49144210327E+02 -0.90555270892E+02  0.10386489698E+03  0.00000000000E+00 0.  1.
</event>
<event>
 8    1  0.7102339E-009  0.7183285E+02  0.7561462E-02  0.1353969E+00
         -3   -1    0    0    0  501 -0.00000000000E+00  0.00000000000E+00  0.33924171592E+03  0.33924171592E+03  0.00000000000E+00 0.  1.
          3   -1    0    0  501    0  0.00000000000E+00 -0.00000000000E+00 -0.47756738039E+02  0.47756738039E+02  0.00000000000E+00 0. -1.
         25    2    1    2    0    0  0.49722778945E+02 -0.21359743712E+02  0.22336120941E+03  0.26168176526E+03  0.12513402018E+03 0.  0.
         23    2    1    2    0    0 -0.49722778945E+02  0.21359743712E+02  0.68123768472E+02  0.12531668870E+03  0.90193299293E+02 0.  0.
          5    1    3    3  502    0  0.55726600117E+02 -0.33253694120E+02  0.37039518395E+02  0.74837560464E+02  0.41800000000E+01 0.  1.
         -5    1    3    3    0  502 -0.60038211720E+01  0.11893950407E+02  0.18632169101E+03  0.18684420480E+03  0.41800000000E+01 0.  1.
        -11    1    4    4    0    0 -0.24626321469E+02  0.29371184585E+02 -0.12644269427E+02  0.40360868950E+02  0.00000000000E+00 0. -1.
         11    1    4    4    0    0 -0.25096457477E+02 -0.80114408731E+01  0.80768037899E+02  0.84955819746E+02  0.00000000000E+00 0.  1.
</event>
<event>
 8    1  0.7102339E-009  0.9460398E+02  0.7561462E-02  0.1292071E+00
         -1   -1    0    0    0  501 -0.00000000000E+00  0.00000000000E+00  0.19782536194E+03  0.19782536194E+03  0.00000000000E+00 0.  1.
          1   -1    0    0  501    0  0.00000000000E+00 -0.00000000000E+00 -0.79109205161E+02  0.79109205161E+02  0.00000000000E+00 0. -1.
         25    2    1    2    0    0  0.27652051074E+01  0.57965601957E+02  0.42604627902E+02  0.14432550401E+03  0.12508812662E+03 0.  0.
         23    2    1    2    0    0 -0.27652051074E+01 -0.57965601957E+02  0.76111528879E+02  0.13260906309E+03  0.91785300648E+02 0.  0.
          5    1    3    3  502    0 -0.53355132555E+02  0.42913266603E+02  0.50986213816E+02  0.85471545088E+02  0.41800000000E+01 0. -1.
         -5    1    3    3    0  502  0.56120337662E+02  0.15052335354E+02 -0.83815859142E+01  0.58853958927E+02  0.41800000000E+01 0. -1.
        -11    1    4    4    0    0 -0.10438093964E+02 -0.12677883901E+02  0.84357993646E+02  0.85941571069E+02  0.00000000000E+00 0.  1.
         11    1    4    4    0    0  0.76728888566E+01 -0.45287718056E+02 -0.82464647667E+01  0.46667492019E+02  0.00000000000E+00 0. -1.
</event>
<event>
 8    1  0.7102339E-009  0.1623112E+03  0.7561462E-02  0.1186112E+00
         -3   -1    0    0    0  501 -0.00000000000E+00  0.00000000000E+00  0.47186972889E+03  0.47186972889E+03  0.00000000000E+00 0.  1.
          3   -1    0    0  501    0  0.00000000000E+00 -0.00000000000E+00 -0.68088173598E+02  0.68088173598E+02  0.00000000000E+00 0. -1.
         25    2    1    2    0    0 -0.13235723342E+03 -0.16132440319E+02  0.28960742494E+03  0.34248854820E+03  0.12508897711E+03 0.  0.
         23    2    1    2    0    0  0.13235723342E+03  0.16132440319E+02  0.11417413035E+03  0.19746935429E+03  0.90441809866E+02 0.  0.
          5    1    3    3  502    0 -0.15326713706E+03  0.40095201343E+01  0.24751630227E+03  0.29118496501E+03  0.41800000000E+01 0. -1.
         -5    1    3    3    0  502  0.20909903634E+02 -0.20141960454E+02  0.42091122667E+02  0.51303583191E+02  0.41800000000E+01 0. -1.
        -11    1    4    4    0    0  0.12282815230E+03  0.28704890636E+02  0.12558821884E+03  0.17799754620E+03  0.00000000000E+00 0.  1.
         11    1    4    4    0    0  0.95290811264E+01 -0.12572450317E+02 -0.11414088489E+02  0.19471808086E+02  0.00000000000E+00 0. -1.
</event>
<event>
 8    1  0.7102339E-009  0.1204080E+03  0.7561462E-02  0.1242426E+00
          2   -1    0    0  501    0  0.00000000000E+00  0.00000000000E+00  0.11108589087E+04  0.11108589087E+04  0.00000000000E+00 0. -1.
         -2   -1    0    0    0  501 -0.00000000000E+00 -0.00000000000E+00 -0.16837670891E+02  0.16837670891E+02  0.00000000000E+00 0.  1.
         25    2    1    2    0    0 -0.10752165054E+01 -0.52452415243E+02  0.85352785158E+03  0.86423912556E+03  0.12508821195E+03 0.  0.
         23    2    1    2    0    0  0.10752165054E+01  0.52452415243E+02  0.24049338627E+03  0.26345745407E+03  0.93916714759E+02 0.  0.
          5    1    3    3  502    0  0.59301429773E+02 -0.72032033141E+01  0.40048388556E+03  0.40493624277E+03  0.41800000000E+01 0.  1.
         -5    1    3    3    0  502 -0.60376646279E+02 -0.45249211929E+02  0.45304396602E+03  0.45930288279E+03  0.41800000000E+01 0.  1.
        -11    1    4    4    0    0 -0.24465285845E+02  0.70149551185E+02  0.19189485431E+03  0.20577450001E+03  0.00000000000E+00 0. -1.
         11    1    4    4    0    0  0.25540502350E+02 -0.17697135943E+02  0.48598531962E+02  0.57682954065E+02  0.00000000000E+00 0.  1.
</event>
<event>
 8    1  0.7102339E-009  0.1679734E+03  0.7561462E-02  0.1179978E+00
          1   -1    0    0  501    0  0.00000000000E+00  0.00000000000E+00  0.33283111305E+03  0.33283111305E+03  0.00000000000E+00 0. -1.
         -1   -1    0    0    0  501 -0.00000000000E+00 -0.00000000000E+00 -0.94836564096E+02  0.94836564096E+02  0.00000000000E+00 0.  1.
         25    2    1    2    0    0 -0.16019324471E+01  0.13840015871E+03  0.14132932967E+03  0.23404471885E+03  0.12508309590E+03 0.  0.
         23    2    1    2    0    0  0.16019324471E+01 -0.13840015871E+03  0.96665219282E+02  0.19362295829E+03  0.94807780474E+02 0.  0.
          5    1    3    3  502    0  0.27839306820E+02  0.15035248030E+03  0.12752016677E+03  0.19914758514E+03  0.41800000000E+01 0.  1.
         -5    1    3    3    0  502 -0.29441239267E+02 -0.11952321588E+02  0.13809162902E+02  0.34897133707E+02  0.41800000000E+01 0.  1.
        -11    1    4    4    0    0 -0.22451895298E+02 -0.11570225079E+03  0.33836592667E+02  0.12262142327E+03  0.00000000000E+00 0.  1.
         11    1    4    4    0    0  0.24053827745E+02 -0.22697907922E+02  0.62828626615E+02  0.71001535023E+02  0.00000000000E+00 0. -1.
</event>
<event>
 8    1  0.7102339E-009  0.1146725E+03  0.7561462E-02  0.1252154E+00
         -2   -1    0    0    0  501 -0.00000000000E+00  0.00000000000E+00  0.10514053131E+03  0.10514053131E+03  0.00000000000E+00 0.  1.
          2   -1    0    0  501    0  0.00000000000E+00 -0.00000000000E+00 -0.18039570780E+03  0.18039570780E+03  0.00000000000E+00 0. -1.
         25    2    1    2    0    0 -0.59075082564E+01  0.61100517723E+02  0.19300708813E+02  0.14065833192E+03  0.12507628496E+03 0.  0.
         23    2    1    2    0    0  0.59075082564E+01 -0.61100517723E+02 -0.94555885298E+02  0.14487790718E+03  0.90997915503E+02 0.  0.
          5    1    3    3  502    0  0.38628359504E+02  0.78737030455E+02  0.27227411699E+02  0.91926462299E+02  0.41800000000E+01 0.  1.
         -5    1    3    3    0  502 -0.44535867761E+02 -0.17636512732E+02 -0.79267028860E+01  0.48731869626E+02  0.41800000000E+01 0.  1.
        -11    1    4    4    0    0  0.33322409777E+02 -0.56597093821E+02 -0.96829812823E+02  0.11700267806E+03  0.00000000000E+00 0. -1.
         11    1    4    4    0    0 -0.27414901521E+02 -0.45034239017E+01  0.22739275252E+01  0.27875229123E+02  0.00000000000E+00 0.  1.
</event>
<event>
 8    1  0.7102339E-009  0.4284288E+03  0.7561462E-02  0.1034357E+00
         -1   -1    0    0    0  501 -0.00000000000E+00  0.00000000000E+00  0.22569220523E+03  0.22569220523E+03  0.00000000000E+00 0.  1.
          1   -1    0    0  501    0  0.00000000000E+00 -0.00000000000E+00 -0.83100558711E+03  0.83100558711E+03  0.00000000000E+00 0. -1.
         25    2    1    2    0    0  0.21249086967E+03  0.35679672915E+03 -0.37738484308E+03  0.57490551670E+03  0.12506301503E+03 0.  0.
         23    2    1    2    0    0 -0.21249086967E+03 -0.35679672915E+03 -0.22792853881E+03  0.48179227563E+03  0.87841348082E+02 0.  0.
          5    1    3    3  502    0  0.11693637440E+03  0.84755438440E+02 -0.10920592591E+03  0.18111048191E+03  0.41800000000E+01 0.  1.
         -5    1    3    3    0  502  0.95554495263E+02  0.27204129071E+03 -0.26817891716E+03  0.39379503479E+03  0.41800000000E+01 0.  1.
        -11    1    4    4    0    0 -0.96888494069E+02 -0.24383890163E+03 -0.15184252351E+03  0.30315168180E+03  0.00000000000E+00 0. -1.
         11    1    4    4    0    0 -0.11560237560E+03 -0.11295782752E+03 -0.76086015295E+02  0.17864059384E+03  0.00000000000E+00 0.  1.
</event>
<event>
 8    1  0.7102339E-009  0.9184378E+02  0.7561462E-02  0.1298447E+00
         -2   -1    0    0    0  501 -0.00000000000E+00  0.00000000000E+00  0.25908667855E+03  0.25908667855E+03  0.00000000000E+00 0.  1.
          2   -1    0    0  501    0  0.00000000000E+00 -0.00000000000E+00 -0.62214349805E+02  0.62214349805E+02  0.00000000000E+00 0. -1.
         25    2    1    2    0    0  0.17172001060E+02 -0.13305495862E+02  0.66188935661E+02  0.14317987652E+03  0.12509031936E+03 0.  0.
         23    2    1    2    0    0 -0.17172001060E+02  0.13305495862E+02  0.13068339309E+03  0.17812115183E+03  0.11906755083E+03 0.  0.
          5    1    3    3  502    0  0.32023165862E+02  0.32656586901E+02 -0.15256900449E+02  0.48396086940E+02  0.41800000000E+01 0. -1.
         -5    1    3    3    0  502 -0.14851164802E+02 -0.45962082763E+02  0.81445836109E+02  0.94783789581E+02  0.41800000000E+01 0. -1.
        -11    1    4    4    0    0 -0.11044295618E+02 -0.36993016614E+02  0.12037289548E+03  0.12641239540E+03  0.00000000000E+00 0.  1.
         11    1    4    4    0    0 -0.61277054418E+01  0.50298512475E+02  0.10310497604E+02  0.51708756435E+02  0.00000000000E+00 0. -1.
</event>
<event>
 8    1  0.7102339E-009  0.1252443E+03  0.7561462E-02  0.1234688E+00
         -2   -1    0    0    0  501 -0.00000000000E+00  0.00000000000E+00  0.72013531095E+02  0.72013531095E+02  0.00000000000E+00 0.  1.
          2   -1    0    0  501    0  0.00000000000E+00 -0.00000000000E+00 -0.26167242774E+03  0.26167242774E+03  0.00000000000E+00 0. -1.
         25    2    1    2    0    0  0.44186165122E+02 -0.55752299932E+02 -0.51114679052E+02  0.15271293491E+03  0.12509114253E+03 0.  0.
         23    2    1    2    0    0 -0.44186165122E+02  0.55752299932E+02 -0.13854421759E+03  0.18097302392E+03  0.92173743669E+02 0.  0.
          5    1    3    3  502    0  0.75332002993E+02 -0.72498428216E+02 -0.52521672705E+02  0.11707660429E+03  0.41800000000E+01 0.  1.
         -5    1    3    3    0  502 -0.31145837871E+02  0.16746128283E+02  0.14069936526E+01  0.35636330623E+02  0.41800000000E+01 0.  1.
        -11    1    4    4    0    0  0.68781325469E+01  0.58694822186E+02 -0.44710900658E+02  0.74104355448E+02  0.00000000000E+00 0.  1.
         11    1    4    4    0    0 -0.51064297669E+02 -0.29425222539E+01 -0.93833316932E+02  0.10686866847E+03  0.00000000000E+00 0. -1.
</event>
<event>
 8    1  0.7102339E-009  0.1128443E+03  0.7561462E-02  0.1255392E+00
         -2   -1    0    0    0  501 -0.00000000000E+00  0.00000000000E+00  0.30284325159E+03  0.30284325159E+03  0.00000000000E+00 0.  1.
          2   -1    0    0  501    0  0.00000000000E+00 -0.00000000000E+00 -0.71785508684E+02  0.71785508684E+02  0.00000000000E+00 0. -1.
         25    2    1    2    0    0 -0.45084280370E+02 -0.53232725995E+02  0.20124320624E+03  0.24700735782E+03  0.12508993286E+03 0.  0.
         23    2    1    2    0    0  0.45084280370E+02  0.53232725995E+02  0.29814536662E+02  0.12762140246E+03  0.10262553442E+03 0.  0.
          5    1    3    3  502    0 -0.42729097554E+02  0.74912135902E+01  0.17558142131E+03  0.18090937501E+03  0.41800000000E+01 0.  1.
         -5    1    3    3    0  502 -0.23551828164E+01 -0.60723939586E+02  0.25661784933E+02  0.66097982805E+02  0.41800000000E+01 0.  1.
        -11    1    4    4    0    0 -0.31401546889E+02  0.82757607548E+01 -0.39093397200E+01  0.32708229853E+02  0.00000000000E+00 0. -1.
         11    1    4    4    0    0  0.76485827259E+02  0.44956965241E+02  0.33723876382E+02  0.94913172602E+02  0.00000000000E+00 0.  1.
</event>
<event>
 8    1  0.7102339E-009  0.8018755E+02  0.7561462E-02  0.1328520E+00
          1   -1    0    0  501    0  0.00000000000E+00  0.00000000000E+00  0.15668648743E+03  0.15668648743E+03  0.00000000000E+00 0. -1.
         -1   -1    0    0    0  501 -0.00000000000E+00 -0.00000000000E+00 -0.11849750467E+03  0.11849750467E+03  0.00000000000E+00 0.  1.
         25    2    1    2    0    0  0.53429670064E+02 -0.28003432059E+02 -0.34992114247E+02  0.14321659441E+03  0.12509045929E+03 0.  0.
         23    2    1    2    0    0 -0.53429670064E+02  0.28003432059E+02  0.73181097016E+02  0.13196739769E+03  0.91766002646E+02 0.  0.
          5    1    3    3  502    0 -0.65050446277E+01 -0.31183804987E+02  0.37257260438E+02  0.49196759593E+02  0.41800000000E+01 0.  1.
         -5    1    3    3    0  502  0.59934714691E+02  0.31803729272E+01 -0.72249374686E+02  0.94019834820E+02  0.41800000000E+01 0.  1.
        -11    1    4    4    0    0 -0.26943340210E+02  0.31404692985E+02  0.90930582908E+02  0.99902798915E+02  0.00000000000E+00 0.  1.
         11    1    4    4    0    0 -0.26486329854E+02 -0.34012609257E+01 -0.17749485892E+02  0.32064598772E+02  0.00000000000E+00 0. -1.
</event>
<event>
 8    1  0.7102339E-009  0.9877674E+02  0.7561462E-02  0.1282890E+00
         -3   -1    0    0    0  501 -0.00000000000E+00  0.00000000000E+00  0.10811001729E+03  0.10811001729E+03  0.00000000000E+00 0.  1.
          3   -1    0    0  501    0  0.00000000000E+00 -0.00000000000E+00 -0.16912312424E+03  0.16912312424E+03  0.00000000000E+00 0. -1.
         25    2    1    2    0    0 -0.56605610057E+01  0.11771733867E+00  0.54160913290E+02  0.13642768475E+03  0.12508818021E+03 0.  0.
         23    2    1    2    0    0  0.56605610057E+01 -0.11771733867E+00 -0.11517402024E+03  0.14080545679E+03  0.80802635570E+02 0.  0.
          5    1    3    3  502    0  0.39361677264E+02 -0.42028101916E+02  0.59540006080E+01  0.58039861397E+02  0.41800000000E+01 0.  1.
         -5    1    3    3    0  502 -0.45022238269E+02  0.42145819255E+02  0.48206912682E+02  0.78387823351E+02  0.41800000000E+01 0.  1.
        -11    1    4    4    0    0 -0.18809097968E+02  0.32308458375E+02 -0.36423644600E+02  0.52194832454E+02  0.00000000000E+00 0.  1.
         11    1    4    4    0    0  0.24469658974E+02 -0.32426175713E+02 -0.78750375637E+02  0.88610624333E+02  0.00000000000E+00 0. -1.
</event>
<event>
 8    1  0.7102339E-009  0.6493977E+02  0.7561462E-02  0.1378198E+00
          1   -1    0    0  501    0  0.00000000000E+00  0.00000000000E+00  0.70042979801E+02  0.70042979801E+02  0.00000000000E+00 0. -1.
         -1   -1    0    0    0  501 -0.00000000000E+00 -0.00000000000E+00 -0.27714747180E+03  0.27714747180E+03  0.00000000000E+00 0.  1.
         25    2    1    2    0    0  0.28965702365E+02 -0.34221257931E+02 -0.20781791121E+03  0.24666488350E+03  0.12508067047E+03 0.  0.
         23    2    1    2    0    0 -0.28965702365E+02  0.34221257931E+02  0.71341921626E+00  0.10052556809E+03  0.89970964571E+02 0.  0.
          5    1    3    3  502    0  0.15152816449E+02  0.60115890476E+01  0.13302203543E+02  0.21451528344E+02  0.41800000000E+01 0.  1.
         -5    1    3    3    0  502  0.13812885916E+02 -0.40232846978E+02 -0.22112011475E+03  0.22521335516E+03  0.41800000000E+01 0.  1.
        -11    1    4    4    0    0  0.87617925606E+01 -0.92547121023E+01 -0.31909792285E+02  0.34360639526E+02  0.00000000000E+00 0.  1.
         11    1    4    4    0    0 -0.37727494926E+02  0.43475970033E+02  0.32623211502E+02  0.66164928568E+02  0.00000000000E+00 0. -1.
</event>
<event>
 8    1  0.7102339E-009  0.1057135E+03  0.7561462E-02  0.1268720E+00
          2   -1    0    0  501    0  0.00000000000E+00  0.00000000000E+00  0.15929491607E+03  0.15929491607E+03  0.00000000000E+00 0. -1.
         -2   -1    0    0    0  501 -0.00000000000E+00 -0.00000000000E+00 -0.14718859815E+03  0.14718859815E+03  0.00000000000E+00 0.  1.
         25    2    1    2    0    0  0.13504828163E+02 -0.71839299127E+02 -0.72398727977E+02  0.16197292924E+03  0.12510151363E+03 0.  0.
         23    2    1    2    0    0 -0.13504828163E+02  0.71839299127E+02  0.84505045895E+02  0.14451058498E+03  0.91645736983E+02 0.  0.
          5    1    3    3  502    0  0.31166088621E+02 -0.84661960748E+02 -0.43832732756E+01  0.90419346172E+02  0.41800000000E+01 0. -1.
         -5    1    3    3    0  502 -0.17661260458E+02  0.12822661621E+02 -0.68015454701E+02  0.71553583071E+02  0.41800000000E+01 0. -1.
        -11    1    4    4    0    0 -0.29977447933E+02  0.54237309329E+01  0.67418218669E+02  0.73981622383E+02  0.00000000000E+00 0. -1.
         11    1    4    4    0    0  0.16472619770E+02  0.66415568194E+02  0.17086827226E+02  0.70528962599E+02  0.00000000000E+00 0.  1.
</event>
<event>
 8    1  0.7102339E-009  0.2544279E+03  0.7561462E-02  0.1110538E+00
          2   -1    0    0  501    0  0.00000000000E+00  0.00000000000E+00  0.20798490988E+03  0.20798490988E+03  0.00000000000E+00 0. -1.
         -2   -1    0    0    0  501 -0.00000000000E+00 -0.00000000000E+00 -0.36342571924E+03  0.36342571924E+03  0.00000000000E+00 0.  1.
         25    2    1    2    0    0  0.24295582894E+03  0.88705699150E+01 -0.18391517216E+02  0.27402862292E+03  0.12508883421E+03 0.  0.
         23    2    1    2    0    0 -0.24295582894E+03 -0.88705699150E+01 -0.13704929214E+03  0.29738200620E+03  0.10270018165E+03 0.  0.
          5    1    3    3  502    0  0.23835902477E+03  0.11011297019E+02  0.15837219405E+02  0.23917475467E+03  0.41800000000E+01 0.  1.
         -5    1    3    3    0  502  0.45968041678E+01 -0.21407271041E+01 -0.34228736621E+02  0.34853868246E+02  0.41800000000E+01 0.  1.
        -11    1    4    4    0    0 -0.50252163260E+02 -0.45137727915E+02 -0.41221467575E+02  0.79132191822E+02  0.00000000000E+00 0.  1.
         11    1    4    4    0    0 -0.19270366568E+03  0.36267158000E+02 -0.95827824567E+02  0.21824981438E+03  0.00000000000E+00 0. -1.
</event>
<event>
 8    1  0.7102339E-009  0.6083763E+02  0.7561462E-02  0.1394350E+00
          3   -1    0    0  501    0  0.00000000000E+00  0.00000000000E+00  0.74943708183E+02  0.74943708183E+02  0.00000000000E+00 0. -1.
         -3   -1    0    0    0  501 -0.00000000000E+00 -0.00000000000E+00 -0.17472702262E+03  0.17472702262E+03  0.00000000000E+00 0.  1.
         25    2    1    2    0    0 -0.14685458594E+02  0.20933084379E+02 -0.88385460674E+02  0.15528590652E+03  0.12509143212E+03 0.  0.
         23    2    1    2    0    0  0.14685458594E+02 -0.20933084379E+02 -0.11397853763E+02  0.94384824282E+02  0.90137269033E+02 0.  0.
          5    1    3    3  502    0 -0.10299883128E+01  0.86931390578E+01  0.32001007869E+02  0.33439025811E+02  0.41800000000E+01 0. -1.
         -5    1    3    3    0  502 -0.13655470281E+02  0.12239945322E+02 -0.12038646854E+03  0.12184688071E+03  0.41800000000E+01 0. -1.
        -11    1    4    4    0    0  0.52458573524E+02 -0.70868686414E+01 -0.11424540384E+02  0.54153908135E+02  0.00000000000E+00 0.  1.
         11    1    4    4    0    0 -0.37773114931E+02 -0.13846215738E+02  0.26686621783E-01  0.40230916147E+02  0.00000000000E+00 0. -1.
</event>
<event>
 8    1  0.7102339E-009  0.7897201E+02  0.7561462E-02  0.1331994E+00
         -2   -1    0    0    0  501 -0.00000000000E+00  0.00000000000E+00  0.82211423782E+02  0.82211423782E+02  0.00000000000E+00 0.  1.
          2   -1    0    0  501    0  0.00000000000E+00 -0.00000000000E+00 -0.14625041664E+03  0.14625041664E+03  0.00000000000E+00 0. -1.
         25    2    1    2    0    0 -0.20744219651E+02  0.11550703430E+02 -0.20332288127E+02  0.12894571073E+03  0.12509937241E+03 0.  0.
         23    2    1    2    0    0  0.20744219651E+02 -0.11550703430E+02 -0.43706704736E+02  0.99516129694E+02  0.86194214607E+02 0.  0.
          5    1    3    3  502    0  0.82889889778E+01  0.57368756698E+02 -0.40597460419E+02  0.70890815878E+02  0.41800000000E+01 0.  1.
         -5    1    3    3    0  502 -0.29033208629E+02 -0.45818053268E+02  0.20265172293E+02  0.58054894855E+02  0.41800000000E+01 0.  1.
        -11    1    4    4    0    0 -0.51501303939E+00  0.12965656211E+02  0.22392893025E+02  0.25880787033E+02  0.00000000000E+00 0.  1.
         11    1    4    4    0    0  0.21259232690E+02 -0.24516359641E+02 -0.66099597761E+02  0.73635342661E+02  0.00000000000E+00 0. -1.
</event>
<event>
 8    1  0.7102339E-009  0.1071168E+03  0.7561462E-02  0.1266004E+00
         -1   -1    0    0    0  501 -0.00000000000E+00  0.00000000000E+00  0.93113614578E+02  0.93113614578E+02  0.00000000000E+00 0.  1.
          1   -1    0    0  501    0  0.00000000000E+00 -0.00000000000E+00 -0.21238419929E+03  0.21238419929E+03  0.00000000000E+00 0. -1.
         25    2    1    2    0    0  0.65253216511E+02 -0.12969573511E+02  0.15750717247E+00  0.14168085308E+03  0.12508895723E+03 0.  0.
         23    2    1    2    0    0 -0.65253216511E+02  0.12969573511E+02 -0.11942809188E+03  0.16381696078E+03  0.90259267710E+02 0.  0.
          5    1    3    3  502    0  0.81316389955E+02 -0.20372821346E+02  0.43605398756E+02  0.94584937097E+02  0.41800000000E+01 0. -1.
         -5    1    3    3    0  502 -0.16063173444E+02  0.74032478345E+01 -0.43447891584E+02  0.47095915987E+02  0.41800000000E+01 0. -1.
        -11    1    4    4    0    0  0.11030423497E+02 -0.24697748281E+02 -0.29366050107E+02  0.39925103776E+02  0.00000000000E+00 0. -1.
         11    1    4    4    0    0 -0.76283640008E+02  0.37667321792E+02 -0.90062041778E+02  0.12389185701E+03  0.00000000000E+00 0.  1.
</event>
<event>
 8    1  0.7102339E-009  0.8698648E+02  0.7561462E-02  0.1310318E+00
         -3   -1    0    0    0  501 -0.00000000000E+00  0.00000000000E+00  0.86942258243E+02  0.86942258243E+02  0.00000000000E+00 0.  1.
          3   -1    0    0  501    0  0.00000000000E+00 -0.00000000000E+00 -0.14524362552E+03  0.14524362552E+03  0.00000000000E+00 0. -1.
         25    2    1    2    0    0  0.18003528034E+02 -0.29559583135E+02 -0.28459587364E+02  0.13287555175E+03  0.12509223862E+03 0.  0.
         23    2    1    2    0    0 -0.18003528034E+02  0.29559583135E+02 -0.29841779917E+02  0.99310332020E+02  0.88170937618E+02 0.  0.
          5    1    3    3  502    0  0.69027942773E+02 -0.14554639504E+02 -0.35464031579E+02  0.79068731812E+02  0.41800000000E+01 0. -1.
         -5    1    3    3    0  502 -0.51024414738E+02 -0.15004943631E+02  0.70044442150E+01  0.53806819935E+02  0.41800000000E+01 0. -1.
        -11    1    4    4    0    0  0.50980181944E+01  0.26102630040E+02 -0.57353413351E+02  0.63219863236E+02  0.00000000000E+00 0. -1.
         11    1    4    4    0    0 -0.23101546228E+02  0.34569530947E+01  0.27511633434E+02  0.36090468784E+02  0.00000000000E+00 0.  1.
</event>
<event>
 8    1  0.7102339E-009  0.1568816E+03  0.7561462E-02  0.1192263E+00
          2   -1    0    0  501    0  0.00000000000E+00  0.00000000000E+00  0.15579845846E+04  0.15579845846E+04  0.00000000000E+00 0.  1.
         -2   -1    0    0    0  501 -0.00000000000E+00 -0.00000000000E+00 -0.19704020160E+02  0.19704020160E+02  0.00000000000E+00 0. -1.
         25    2    1    2    0    0  0.12695609665E+03 -0.43161528307E+02  0.93805276817E+03  0.95580922132E+03  0.12508998234E+03 0.  0.
         23    2    1    2    0    0 -0.12695609665E+03  0.43161528307E+02  0.60022779627E+03  0.62187938345E+03  0.92085786817E+02 0.  0.
          5    1    3    3  502    0  0.22593590650E+02 -0.40574247672E+02  0.60404974180E+03  0.60584676518E+03  0.41800000000E+01 0. -1.
         -5    1    3    3    0  502  0.10436250600E+03 -0.25872806342E+01  0.33400302637E+03  0.34996245613E+03  0.41800000000E+01 0. -1.
        -11    1    4    4    0    0 -0.10405409032E+03 -0.10234557718E+02  0.38920753697E+03  0.40300683210E+03  0.00000000000E+00 0.  1.
         11    1    4    4    0    0 -0.22902006330E+02  0.53396086025E+02  0.21102025931E+03  0.21887255135E+03  0.00000000000E+00 0. -1.
</event>
<event>
 8    1  0.7102339E-009  0.1448844E+03  0.7561462E-02  0.1206904E+00
         -1   -1    0    0    0  501 -0.00000000000E+00  0.00000000000E+00  0.41335852573E+03  0.41335852573E+03  0.00000000000E+00 0.  1.
          1   -1    0    0  501    0  0.00000000000E+00 -0.00000000000E+00 -0.70415496514E+02  0.70415496514E+02  0.00000000000E+00 0. -1.
         25    2    1    2    0    0  0.11509336072E+02  0.12440579150E+03  0.17344349960E+03  0.24767476855E+03  0.12510346777E+03 0.  0.
         23    2    1    2    0    0 -0.11509336072E+02 -0.12440579150E+03  0.16949952962E+03  0.23609925369E+03  0.10678717750E+03 0.  0.
          5    1    3    3  502    0 -0.40681685513E+02  0.24219202381E+02  0.93939629660E+01  0.48448820836E+02  0.41800000000E+01 0. -1.
         -5    1    3    3    0  502  0.52191021585E+02  0.10018658912E+03  0.16404953664E+03  0.19922594772E+03  0.41800000000E+01 0. -1.
        -11    1    4    4    0    0  0.11173775908E+02 -0.56742668798E+02  0.15198676630E+03  0.16261783685E+03  0.00000000000E+00 0.  1.
         11    1    4    4    0    0 -0.22683111979E+02 -0.67663122701E+02  0.17512763314E+02  0.73481416846E+02  0.00000000000E+00 0. -1.
</event>
<event>
 8    1  0.7102339E-009  0.1540487E+03  0.7561462E-02  0.1195584E+00
          3   -1    0    0  501    0  0.00000000000E+00  0.00000000000E+00  0.23388517998E+03  0.23388517998E+03  0.00000000000E+00 0. -1.
         -3   -1    0    0    0  501 -0.00000000000E+00 -0.00000000000E+00 -0.15006084538E+03  0.15006084538E+03  0.00000000000E+00 0.  1.
         25    2    1    2    0    0 -0.12790281770E+03 -0.72262412594E+01 -0.40610420222E+02  0.18359697430E+03  0.12508914182E+03 0.  0.
         23    2    1    2    0    0  0.12790281770E+03  0.72262412594E+01  0.12443475482E+03  0.20034905105E+03  0.90798594211E+02 0.  0.
          5    1    3    3  502    0  0.25143334110E+02  0.26561898713E+01 -0.60262267801E+01  0.26325470632E+02  0.41800000000E+01 0.  1.
         -5    1    3    3    0  502 -0.15304615181E+03 -0.98824311307E+01 -0.34584193442E+02  0.15727150367E+03  0.41800000000E+01 0.  1.
        -11    1    4    4    0    0  0.41524938520E+02  0.96722844095E+01 -0.68444624107E+01  0.43182406956E+02  0.00000000000E+00 0.  1.
         11    1    4    4    0    0  0.86377879184E+02 -0.24460431501E+01  0.13127921723E+03  0.15716664410E+03  0.00000000000E+00 0. -1.
</event>
<event>
 8    1  0.7102339E-009  0.2460038E+03  0.7561462E-02  0.1115857E+00
          1   -1    0    0  501    0  0.00000000000E+00  0.00000000000E+00  0.55615845886E+03  0.55615845886E+03  0.00000000000E+00 0. -1.
         -1   -1    0    0    0  501 -0.00000000000E+00 -0.00000000000E+00 -0.26579910115E+03  0.26579910115E+03  0.00000000000E+00 0.  1.
         25    2    1    2    0    0 -0.19795154126E+03 -0.13138076342E+03  0.44836383963E+03  0.52261075872E+03  0.12508459041E+03 0.  0.
         23    2    1    2    0    0  0.19795154126E+03  0.13138076342E+03 -0.15800448192E+03  0.29934680130E+03  0.90539347570E+02 0.  0.
          5    1    3    3  502    0 -0.10873064519E+03 -0.22832271871E+02  0.11087934188E+03  0.15702027480E+03  0.41800000000E+01 0. -1.
         -5    1    3    3    0  502 -0.89220896069E+02 -0.10854849155E+03  0.33748449774E+03  0.36559048392E+03  0.41800000000E+01 0. -1.
        -11    1    4    4    0    0  0.13542596648E+03  0.10900537782E+03 -0.66161513003E+02  0.18600997445E+03  0.00000000000E+00 0. -1.
         11    1    4    4    0    0  0.62525574779E+02  0.22375385602E+02 -0.91842968913E+02  0.11333682685E+03  0.00000000000E+00 0.  1.
</event>
<event>
 8    1  0.7102339E-009  0.1010195E+03  0.7561462E-02  0.1278166E+00
         -2   -1    0    0    0  501 -0.00000000000E+00  0.00000000000E+00  0.16827994264E+02  0.16827994264E+02  0.00000000000E+00 0.  1.
          2   -1    0    0  501    0  0.00000000000E+00 -0.00000000000E+00 -0.92174724608E+03  0.92174724608E+03  0.00000000000E+00 0. -1.
         25    2    1    2    0    0 -0.59989462078E+02  0.18400321884E+01 -0.45245429489E+03  0.47324224086E+03  0.12506481639E+03 0.  0.
         23    2    1    2    0    0  0.59989462078E+02 -0.18400321884E+01 -0.45246495693E+03  0.46533299948E+03  0.90598796222E+02 0.  0.
          5    1    3    3  502    0 -0.69128109343E+02  0.20458798865E+02 -0.44498269436E+03  0.45080409119E+03  0.41800000000E+01 0. -1.
         -5    1    3    3    0  502  0.91386472650E+01 -0.18618766677E+02 -0.74716005250E+01  0.22438149674E+02  0.41800000000E+01 0. -1.
        -11    1    4    4    0    0  0.23329954684E+02  0.44101991133E+02 -0.20517134880E+03  0.21115055003E+03  0.00000000000E+00 0. -1.
         11    1    4    4    0    0  0.36659507393E+02 -0.45942023321E+02 -0.24729360813E+03  0.25418244945E+03  0.00000000000E+00 0.  1.
</event>
<event>
 8    1  0.7102339E-009  0.1579586E+03  0.7561462E-02  0.1191021E+00
          2   -1    0    0  501    0  0.00000000000E+00  0.00000000000E+00  0.18587679103E+03  0.18587679103E+03  0.00000000000E+00 0.  1.
         -2   -1    0    0    0  501 -0.00000000000E+00 -0.00000000000E+00 -0.15570237359E+03  0.15570237359E+03  0.00000000000E+00 0. -1.
         25    2    1    2    0    0 -0.12089712897E+03  0.44066455138E+02  0.39286995633E+02  0.18368904783E+03  0.12506090519E+03 0.  0.
         23    2    1    2    0    0  0.12089712897E+03 -0.44066455138E+02 -0.91125781912E+01  0.15789011678E+03  0.91040000195E+02 0.  0.
          5    1    3    3  502    0 -0.45974745278E+02  0.81104848665E+02  0.56308905750E+01  0.93492529162E+02  0.41800000000E+01 0. -1.
         -5    1    3    3    0  502 -0.74922383689E+02 -0.37038393527E+02  0.33656105057E+02  0.90196518670E+02  0.41800000000E+01 0. -1.
        -11    1    4    4    0    0  0.78950974431E+02 -0.12327367381E+01 -0.42078303031E+02  0.89472675099E+02  0.00000000000E+00 0.  1.
         11    1    4    4    0    0  0.41946154536E+02 -0.42833718400E+02  0.32965724840E+02  0.68417441684E+02  0.00000000000E+00 0. -1.
</event>
<event>
 8    1  0.7102339E-009  0.1673709E+03  0.7561462E-02  0.1180618E+00
          4   -1    0    0  501    0  0.00000000000E+00  0.00000000000E+00  0.11177161726E+03  0.11177161726E+03  0.00000000000E+00 0. -1.
         -4   -1    0    0    0  501 -0.00000000000E+00 -0.00000000000E+00 -0.28684606088E+03  0.28684606088E+03  0.00000000000E+00 0.  1.
         25    2    1    2    0    0  0.10568481510E+01 -0.14123348691E+03 -0.82708484615E+02  0.20599840214E+03  0.12508650409E+03 0.  0.
         23    2    1    2    0    0 -0.10568481510E+01  0.14123348691E+03 -0.92365959001E+02  0.19261927600E+03  0.92858496389E+02 0.  0.
          5    1    3    3  502    0 -0.29535560975E+02 -0.14584991491E+03 -0.41968657681E+02  0.15467187097E+03  0.41800000000E+01 0. -1.
         -5    1    3    3    0  502  0.30592409126E+02  0.46164280015E+01 -0.40739826934E+02  0.51326531173E+02  0.41800000000E+01 0. -1.
        -11    1    4    4    0    0  0.30871616606E+02  0.63092589856E+02 -0.39095642078E+01  0.70349245191E+02  0.00000000000E+00 0. -1.
         11    1    4    4    0    0 -0.31928464757E+02  0.78140897050E+02 -0.88456394794E+02  0.12227003081E+03  0.00000000000E+00 0.  1.
</event>
<event>
 8    1  0.7102339E-009  0.9152150E+02  0.7561462E-02  0.1299208E+00
         -2   -1    0    0    0  501 -0.00000000000E+00  0.00000000000E+00  0.93089068695E+02  0.93089068695E+02  0.00000000000E+00 0.  1.
          2   -1    0    0  501    0  0.00000000000E+00 -0.00000000000E+00 -0.14691466017E+03  0.14691466017E+03  0.00000000000E+00 0. -1.
         25    2    1    2    0    0 -0.31250534627E+02  0.16596821359E+02 -0.47729569540E+02  0.13849251161E+03  0.12510001427E+03 0.  0.
         23    2    1    2    0    0  0.31250534627E+02 -0.16596821359E+02 -0.60960219318E+01  0.10151121725E+03  0.94949014482E+02 0.  0.
          5    1    3    3  502    0 -0.21800607565E+01 -0.32726564224E+02  0.28095008242E+02  0.43388737697E+02  0.41800000000E+01 0.  1.
         -5    1    3    3    0  502 -0.29070473871E+02  0.49323385582E+02 -0.75824577783E+02  0.95103773912E+02  0.41800000000E+01 0.  1.
        -11    1    4    4    0    0  0.23382046356E+02  0.34057589125E+02 -0.23312616916E+02  0.47435404249E+02  0.00000000000E+00 0.  1.
         11    1    4    4    0    0  0.78684882707E+01 -0.50654410484E+02  0.17216594984E+02  0.54075813003E+02  0.00000000000E+00 0. -1.
</event>
<event>
 8    1  0.7102339E-009  0.8562843E+02  0.7561462E-02  0.1313797E+00
         -4   -1    0    0    0  501 -0.00000000000E+00  0.00000000000E+00  0.88340256707E+03  0.88340256707E+03  0.00000000000E+00 0.  1.
          4   -1    0    0  501    0  0.00000000000E+00 -0.00000000000E+00 -0.14129646023E+02  0.14129646023E+02  0.00000000000E+00 0. -1.
         25    2    1    2    0    0 -0.16225033167E+02 -0.19157300225E+02  0.53829770468E+03  0.55321155228E+03  0.12509336056E+03 0.  0.
         23    2    1    2    0    0  0.16225033167E+02  0.19157300225E+02  0.33097521637E+03  0.34432066082E+03  0.91552551913E+02 0.  0.
          5    1    3    3  502    0 -0.44974051590E+02 -0.11146105249E+02  0.70638134896E+02  0.84582028116E+02  0.41800000000E+01 0. -1.
         -5    1    3    3    0  502  0.28749018423E+02 -0.80111949762E+01  0.46765956978E+03  0.46862952416E+03  0.41800000000E+01 0. -1.
        -11    1    4    4    0    0 -0.51783153628E+01  0.53707081289E+02  0.20289775278E+03  0.20994943108E+03  0.00000000000E+00 0.  1.
         11    1    4    4    0    0  0.21403348530E+02 -0.34549781064E+02  0.12807746359E+03  0.13437122974E+03  0.00000000000E+00 0. -1.
</event>
<event>
 8    1  0.7102339E-009  0.2159699E+03  0.7561462E-02  0.1136924E+00
         -2   -1    0    0    0  501 -0.00000000000E+00  0.00000000000E+00  0.33503280617E+03  0.33503280617E+03  0.00000000000E+00 0.  1.
          2   -1    0    0  501    0  0.00000000000E+00 -0.00000000000E+00 -0.20408699497E+03  0.20408699497E+03  0.00000000000E+00 0. -1.
         25    2    1    2    0    0 -0.14845748329E+03  0.11567526330E+03  0.21620737643E+03  0.31275127171E+03  0.12508931790E+03 0.  0.
         23    2    1    2    0    0  0.14845748329E+03 -0.11567526330E+03 -0.85261565220E+02  0.22636852943E+03  0.92481272302E+02 0.  0.
          5    1    3    3  502    0 -0.16201527475E+03  0.73405454790E+02  0.19296568975E+03  0.26247007423E+03  0.41800000000E+01 0.  1.
         -5    1    3    3    0  502  0.13557791459E+02  0.42269808512E+02  0.23241686674E+02  0.50281197483E+02  0.41800000000E+01 0.  1.
        -11    1    4    4    0    0  0.11307434270E+03 -0.30369240450E+02 -0.42022243164E+02  0.12439439965E+03  0.00000000000E+00 0. -1.
         11    1    4    4    0    0  0.35383140590E+02 -0.85306022852E+02 -0.43239322056E+02  0.10197412978E+03  0.00000000000E+00 0.  1.
</event>
<event>
 8    1  0.7102339E-009  0.9775837E+02  0.7561462E-02  0.1285082E+00
          3   -1    0    0  501    0  0.00000000000E+00  0.00000000000E+00  0.38661149638E+02  0.38661149638E+02  0.00000000000E+00 0. -1.
         -3   -1    0    0    0  501 -0.00000000000E+00 -0.00000000000E+00 -0.30289658515E+03  0.30289658515E+03  0.00000000000E+00 0.  1.
         25    2    1    2    0    0 -0.54017642798E+01  0.46452190679E+01 -0.14122686565E+03  0.18879344256E+03  0.12508868555E+03 0.  0.
         23    2    1    2    0    0  0.54017642798E+01 -0.46452190679E+01 -0.12300856987E+03  0.15276429223E+03  0.90305390781E+02 0.  0.
          5    1    3    3  502    0  0.48337633222E+02  0.25546303306E+02 -0.11042078207E+03  0.12328569224E+03  0.41800000000E+01 0. -1.
         -5    1    3    3    0  502 -0.53739397502E+02 -0.20901084238E+02 -0.30806083583E+02  0.65507750319E+02  0.41800000000E+01 0. -1.
        -11    1    4    4    0    0 -0.37781589456E+02  0.63482722571E+01 -0.88392825198E+02  0.96338157596E+02  0.00000000000E+00 0.  1.
         11    1    4    4    0    0  0.43183353736E+02 -0.10993491325E+02 -0.34615744668E+02  0.56426134639E+02  0.00000000000E+00 0. -1.
</event>
<event>
 8    1  0.7102339E-009  0.2426597E+03  0.7561462E-02  0.1118034E+00
         -2   -1    0    0    0  501 -0.00000000000E+00  0.00000000000E+00  0.61708161061E+03  0.61708161061E+03  0.00000000000E+00 0.  1.
          2   -1    0    0  501    0  0.00000000000E+00 -0.00000000000E+00 -0.15098449944E+03  0.15098449944E+03  0.00000000000E+00 0. -1.
         25    2    1    2    0    0 -0.18165866626E+01 -0.22786804209E+03  0.21413975916E+02  0.26083425214E+03  0.12509518029E+03 0.  0.
         23    2    1    2    0    0  0.18165866626E+01  0.22786804209E+03  0.44468313526E+03  0.50723185791E+03  0.87257792218E+02 0.  0.
          5    1    3    3  502    0  0.46304132385E+02 -0.50379596725E+02 -0.21698361427E+02  0.71905964500E+02  0.41800000000E+01 0. -1.
         -5    1    3    3    0  502 -0.48120719048E+02 -0.17748844536E+03  0.43112337342E+02  0.18892828764E+03  0.41800000000E+01 0. -1.
        -11    1    4    4    0    0  0.24740107005E+02  0.11043560936E+03  0.29260140969E+03  0.31372548775E+03  0.00000000000E+00 0.  1.
         11    1    4    4    0    0 -0.22923520343E+02  0.11743243273E+03  0.15208172557E+03  0.19350637016E+03  0.00000000000E+00 0. -1.
</event>
<event>
 8    1  0.7102339E-009  0.9978859E+02  0.7561462E-02  0.1280741E+00
          2   -1    0    0  501    0  0.00000000000E+00  0.00000000000E+00  0.94730908192E+02  0.94730908192E+02  0.00000000000E+00 0. -1.
         -2   -1    0    0    0  501 -0.00000000000E+00 -0.00000000000E+00 -0.19219281271E+03  0.19219281271E+03  0.00000000000E+00 0.  1.
         25    2    1    2    0    0 -0.39327433706E+02 -0.75220525948E+02 -0.43581172739E+02  0.15732762859E+03  0.12509152463E+03 0.  0.
         23    2    1    2    0    0  0.39327433706E+02  0.75220525948E+02 -0.53880731780E+02  0.12959609232E+03  0.81775542314E+02 0.  0.
          5    1    3    3  502    0 -0.52719985565E+02 -0.63150486698E+02 -0.81036220189E+02  0.11554965266E+03  0.41800000000E+01 0.  1.
         -5    1    3    3    0  502  0.13392551860E+02 -0.12070039250E+02  0.37455047450E+02  0.41777975924E+02  0.41800000000E+01 0.  1.
        -11    1    4    4    0    0  0.43654240389E+02  0.29299373894E+02  0.71898285560E+01  0.53064485762E+02  0.00000000000E+00 0. -1.
         11    1    4    4    0    0 -0.43268066829E+01  0.45921152054E+02 -0.61070560336E+02  0.76531606555E+02  0.00000000000E+00 0.  1.
</event>
<event>
 8    1  0.7102339E-009  0.8354876E+02  0.7561462E-02  0.1319272E+00
          4   -1    0    0  501    0  0.00000000000E+00  0.00000000000E+00  0.17653618958E+03  0.17653618958E+03  0.00000000000E+00 0.  1.
         -4   -1    0    0    0  501 -0.00000000000E+00 -0.00000000000E+00 -0.96954857440E+02  0.96954857440E+02  0.00000000000E+00 0. -1.
         25    2    1    2    0    0 -0.74319374404E+01  0.43567053240E+02 -0.17289999522E+02  0.13378918452E+03  0.12508908821E+03 0.  0.
         23    2    1    2    0    0  0.74319374404E+01 -0.43567053240E+02  0.96871331666E+02  0.13970186250E+03  0.90439115792E+02 0.  0.
          5    1    3    3  502    0  0.24549198270E+02  0.44529699621E+01  0.46121036932E+02  0.52603369900E+02  0.41800000000E+01 0.  1.
         -5    1    3    3    0  502 -0.31981135710E+02  0.39114083278E+02 -0.63411036454E+02  0.81185814624E+02  0.41800000000E+01 0.  1.
        -11    1    4    4    0    0  0.30132679216E+02  0.10940524829E+02  0.80624843901E+01  0.33055666607E+02  0.00000000000E+00 0. -1.
         11    1    4    4    0    0 -0.22700741776E+02 -0.54507578069E+02  0.88808847276E+02  0.10664619589E+03  0.00000000000E+00 0.  1.
</event>
<event>
 8    1  0.7102339E-009  0.1299858E+03  0.7561462E-02  0.1227477E+00
          1   -1    0    0  501    0  0.00000000000E+00  0.00000000000E+00  0.34584417306E+03  0.34584417306E+03  0.00000000000E+00 0. -1.
         -1   -1    0    0    0  501 -0.00000000000E+00 -0.00000000000E+00 -0.68189694688E+02  0.68189694688E+02  0.00000000000E+00 0.  1.
         25    2    1    2    0    0 -0.58837118617E+02 -0.86539965251E+02  0.19143266670E+03  0.25148689552E+03  0.12509284801E+03 0.  0.
         23    2    1    2    0    0  0.58837118617E+02  0.86539965251E+02  0.86221811675E+02  0.16254697223E+03  0.89645665043E+02 0.  0.
          5    1    3    3  502    0  0.87572762987E+01  0.17068579355E+02 -0.41108563458E+01  0.20059856163E+02  0.41800000000E+01 0.  1.
         -5    1    3    3    0  502 -0.67594394915E+02 -0.10360854461E+03  0.19554352305E+03  0.23142703935E+03  0.41800000000E+01 0.  1.
        -11    1    4    4    0    0  0.56371610933E+00  0.44979629368E+02  0.78606543462E+02  0.90567508020E+02  0.00000000000E+00 0. -1.
         11    1    4    4    0    0  0.58273402507E+02  0.41560335883E+02  0.76152682131E+01  0.71979464213E+02  0.00000000000E+00 0.  1.
</event>
<event>
 8    1  0.7102339E-009  0.1546407E+03  0.7561462E-02  0.1194884E+00
         -1   -1    0    0    0  501 -0.00000000000E+00  0.00000000000E+00  0.33473171616E+02  0.33473171616E+02  0.00000000000E+00 0. -1.
          1   -1    0    0  501    0  0.00000000000E+00 -0.00000000000E+00 -0.87299345271E+03  0.87299345271E+03  0.00000000000E+00 0.  1.
         25    2    1    2    0    0  0.11107359827E+03  0.68312761764E+02 -0.49735937276E+03  0.52916651425E+03  0.12508747533E+03 0.  0.
         23    2    1    2    0    0 -0.11107359827E+03 -0.68312761764E+02 -0.34216090833E+03  0.37730011007E+03  0.90979713199E+02 0.  0.
          5    1    3    3  502    0  0.62160078680E+02  0.99570337168E+02 -0.38659148367E+03  0.40404031367E+03  0.41800000000E+01 0.  1.
         -5    1    3    3    0  502  0.48913519595E+02 -0.31257575404E+02 -0.11076788909E+03  0.12512620058E+03  0.41800000000E+01 0.  1.
        -11    1    4    4    0    0 -0.59970322481E+02 -0.19770619997E+02 -0.62319262442E+02  0.88718698508E+02  0.00000000000E+00 0. -1.
         11    1    4    4    0    0 -0.51103275794E+02 -0.48542141768E+02 -0.27984164589E+03  0.28858141156E+03  0.00000000000E+00 0.  1.
</event>
<event>
 8    1  0.7102339E-009  0.1301323E+03  0.7561462E-02  0.1227260E+00
          2   -1    0    0  501    0  0.00000000000E+00  0.00000000000E+00  0.47637031696E+03  0.47637031696E+03  0.00000000000E+00 0. -1.
         -2   -1    0    0    0  501 -0.00000000000E+00 -0.00000000000E+00 -0.45200772106E+02  0.45200772106E+02  0.00000000000E+00 0.  1.
         25    2    1    2    0    0  0.30999844369E+02  0.62174883710E+02  0.16843815539E+03  0.22101280562E+03  0.12509413073E+03 0.  0.
         23    2    1    2    0    0 -0.30999844369E+02 -0.62174883710E+02  0.26273138946E+03  0.30055828344E+03  0.12837753784E+03 0.  0.
          5    1    3    3  502    0  0.69872335568E+02  0.24681899354E+02  0.46500920180E+02  0.87585086693E+02  0.41800000000E+01 0. -1.
         -5    1    3    3    0  502 -0.38872491199E+02  0.37492984355E+02  0.12193723521E+03  0.13342771893E+03  0.41800000000E+01 0. -1.
        -11    1    4    4    0    0  0.28240875773E+02 -0.66728751814E+02  0.77797594078E+02  0.10631434065E+03  0.00000000000E+00 0.  1.
         11    1    4    4    0    0 -0.59240720142E+02  0.45538681042E+01  0.18493379538E+03  0.19424394280E+03  0.00000000000E+00 0. -1.
</event>
<event>
 8    1  0.7102339E-009  0.1590932E+03  0.7561462E-02  0.1189724E+00
          2   -1    0    0  501    0  0.00000000000E+00  0.00000000000E+00  0.48702435783E+03  0.48702435783E+03  0.00000000000E+00 0. -1.
         -2   -1    0    0    0  501 -0.00000000000E+00 -0.00000000000E+00 -0.83892092056E+02  0.83892092056E+02  0.00000000000E+00 0.  1.
         25    2    1    2    0    0 -0.13742687139E+03  0.46501963321E+02  0.33770491419E+03  0.38825342234E+03  0.12509010080E+03 0.  0.
         23    2    1    2    0    0  0.13742687139E+03 -0.46501963321E+02  0.65427351581E+02  0.18266302754E+03  0.89646336915E+02 0.  0.
          5    1    3    3  502    0  0.48316901535E+01 -0.95423876320E+01 -0.53312834750E+01  0.12660859961E+02  0.41800000000E+01 0.  1.
         -5    1    3    3    0  502 -0.14225856155E+03  0.56044350953E+02  0.34303619767E+03  0.37559256238E+03  0.41800000000E+01 0.  1.
        -11    1    4    4    0    0  0.13064845432E+03 -0.55943965064E+02  0.80726981262E+02  0.16344904817E+03  0.00000000000E+00 0. -1.
         11    1    4    4    0    0  0.67784170696E+01  0.94420017438E+01 -0.15299629681E+02  0.19213979371E+02  0.00000000000E+00 0.  1.
</event>
<event>
 8    1  0.7102339E-009  0.1032722E+03  0.7561462E-02  0.1273562E+00
          2   -1    0    0  501    0  0.00000000000E+00  0.00000000000E+00  0.39045511851E+03  0.39045511851E+03  0.00000000000E+00 0. -1.
         -2   -1    0    0    0  501 -0.00000000000E+00 -0.00000000000E+00 -0.56716364559E+02  0.56716364559E+02  0.00000000000E+00 0.  1.
         25    2    1    2    0    0  0.66579062447E+02  0.77726655424E+01  0.66415079964E+02  0.15668905118E+03  0.12508920828E+03 0.  0.
         23    2    1    2    0    0 -0.66579062447E+02 -0.77726655424E+01  0.26732367398E+03  0.29048243188E+03  0.91787312174E+02 0.  0.
          5    1    3    3  502    0  0.16416788362E+02  0.34934093053E+02 -0.26904461846E+02  0.47235836658E+02  0.41800000000E+01 0. -1.
         -5    1    3    3    0  502  0.50162274085E+02 -0.27161427511E+02  0.93319541810E+02  0.10945321452E+03  0.41800000000E+01 0. -1.
        -11    1    4    4    0    0 -0.49147830581E+02  0.37623246521E+02  0.18248025323E+03  0.19269162086E+03  0.00000000000E+00 0. -1.
         11    1    4    4    0    0 -0.17431231866E+02 -0.45395912063E+02  0.84843420751E+02  0.97790811026E+02  0.00000000000E+00 0.  1.
</event>
<event>
 8    1  0.7102339E-009  0.1337429E+03  0.7561462E-02  0.1222005E+00
          2   -1    0    0  501    0  0.00000000000E+00  0.00000000000E+00  0.60803429204E+03  0.60803429204E+03  0.00000000000E+00 0. -1.
         -2   -1    0    0    0  501 -0.00000000000E+00 -0.00000000000E+00 -0.76810637923E+02  0.76810637923E+02  0.00000000000E+00 0.  1.
         25    2    1    2    0    0 -0.74583998296E+02  0.76504001690E+02  0.51796944991E+03  0.54346330412E+03  0.12507748319E+03 0.  0.
         23    2    1    2    0    0  0.74583998296E+02 -0.76504001690E+02  0.13254204200E+02  0.14138162584E+03  0.91637629392E+02 0.  0.
          5    1    3    3  502    0 -0.56832763871E+02  0.96983589297E+01  0.41724361565E+03  0.42122883142E+03  0.41800000000E+01 0.  1.
         -5    1    3    3    0  502 -0.17751234425E+02  0.66805642760E+02  0.10072583426E+03  0.12223447270E+03  0.41800000000E+01 0.  1.
        -11    1    4    4    0    0  0.51676622509E+02 -0.96861238113E+02  0.63498331800E+01  0.10996769136E+03  0.00000000000E+00 0. -1.
         11    1    4    4    0    0  0.22907375787E+02  0.20357236423E+02  0.69043710199E+01  0.31413934478E+02  0.00000000000E+00 0.  1.
</event>
<event>
 8    1  0.7102339E-009  0.1285992E+03  0.7561462E-02  0.1229549E+00
         -1   -1    0    0    0  501 -0.00000000000E+00  0.00000000000E+00  0.58496877347E+02  0.58496877347E+02  0.00000000000E+00 0.  1.
          1   -1    0    0  501    0  0.00000000000E+00 -0.00000000000E+00 -0.35327209843E+03  0.35327209843E+03  0.00000000000E+00 0. -1.
         25    2    1    2    0    0  0.10227430995E+02  0.74318554099E+02 -0.78617887814E+02  0.16569816939E+03  0.12508902121E+03 0.  0.
         23    2    1    2    0    0 -0.10227430995E+02 -0.74318554099E+02 -0.21615733327E+03  0.24607080639E+03  0.90548336276E+02 0.  0.
          5    1    3    3  502    0  0.28965792045E+02  0.10217534934E+03 -0.38085682331E+02  0.11290177465E+03  0.41800000000E+01 0. -1.
         -5    1    3    3    0  502 -0.18738361050E+02 -0.27856795239E+02 -0.40532205482E+02  0.52796394736E+02  0.41800000000E+01 0. -1.
        -11    1    4    4    0    0 -0.45635869461E+02 -0.15070028107E+02 -0.10010271420E+03  0.11104184670E+03  0.00000000000E+00 0. -1.
         11    1    4    4    0    0  0.35408438466E+02 -0.59248525993E+02 -0.11605461908E+03  0.13502895969E+03  0.00000000000E+00 0.  1.
</event>
<event>
 8    1  0.7102339E-009  0.1097212E+03  0.7561462E-02  0.1261087E+00
         -1   -1    0    0    0  501 -0.00000000000E+00  0.00000000000E+00  0.17099531119E+03  0.17099531119E+03  0.00000000000E+00 0.  1.
          1   -1    0    0  501    0  0.00000000000E+00 -0.00000000000E+00 -0.74119437269E+02  0.74119437269E+02  0.00000000000E+00 0. -1.
         25    2    1    2    0    0  0.13553528060E+01  0.25056711697E+02  0.41826088587E+02  0.13422085581E+03  0.12504455472E+03 0.  0.
         23    2    1    2    0    0 -0.13553528060E+01 -0.25056711697E+02  0.55049785336E+02  0.11089389265E+03  0.92937079678E+02 0.  0.
          5    1    3    3  502    0 -0.24831575612E+01  0.75869190610E+02  0.30088751804E+02  0.81762494705E+02  0.41800000000E+01 0.  1.
         -5    1    3    3    0  502  0.38385103673E+01 -0.50812478914E+02  0.11737336783E+02  0.52458361106E+02  0.41800000000E+01 0.  1.
        -11    1    4    4    0    0 -0.26491414910E+02 -0.50184286122E+02  0.17954325455E+02  0.59519874329E+02  0.00000000000E+00 0. -1.
         11    1    4    4    0    0  0.25136062104E+02  0.25127574426E+02  0.37095459880E+02  0.51374018320E+02  0.00000000000E+00 0.  1.
</event>
<event>
 8    1  0.7102339E-009  0.1130520E+03  0.7561462E-02  0.1255020E+00
          1   -1    0    0  501    0  0.00000000000E+00  0.00000000000E+00  0.19454885852E+04  0.19454885852E+04  0.00000000000E+00 0. -1.
         -1   -1    0    0    0  501 -0.00000000000E+00 -0.00000000000E+00 -0.77086062969E+01  0.77086062969E+01  0.00000000000E+00 0.  1.
         25    2    1    2    0    0  0.19691485122E+02  0.40149684914E+02  0.13780375448E+04  0.13844256957E+04  0.12508908930E+03 0.  0.
         23    2    1    2    0    0 -0.19691485122E+02 -0.40149684914E+02  0.55974243414E+03  0.56877149583E+03  0.90496796111E+02 0.  0.
          5    1    3    3  502    0 -0.32321201118E+02 -0.25497444923E+02  0.70001008222E+03  0.70123203532E+03  0.41800000000E+01 0.  1.
         -5    1    3    3    0  502  0.52012686240E+02  0.65647129837E+02  0.67802746253E+03  0.68319366034E+03  0.41800000000E+01 0.  1.
        -11    1    4    4    0    0 -0.51017872737E+02 -0.13999961327E+01  0.27210927088E+03  0.27685418297E+03  0.00000000000E+00 0. -1.
         11    1    4    4    0    0  0.31326387615E+02 -0.38749688781E+02  0.28763316326E+03  0.29191731286E+03  0.00000000000E+00 0.  1.
</event>
<event>
 8    1  0.7102339E-009  0.6448792E+02  0.7561462E-02  0.1379908E+00
          1   -1    0    0  501    0  0.00000000000E+00  0.00000000000E+00  0.20651422871E+03  0.20651422871E+03  0.00000000000E+00 0. -1.
         -1   -1    0    0    0  501 -0.00000000000E+00 -0.00000000000E+00 -0.71277298115E+02  0.71277298115E+02  0.00000000000E+00 0.  1.
         25    2    1    2    0    0 -0.43575854616E+02 -0.33830090297E+02  0.77174206902E+02  0.15699209464E+03  0.12508928592E+03 0.  0.
         23    2    1    2    0    0  0.43575854616E+02  0.33830090297E+02  0.58062723693E+02  0.12079943219E+03  0.90431702513E+02 0.  0.
          5    1    3    3  502    0  0.12552544080E+01 -0.24434276974E+02  0.10182558124E+03  0.10480711307E+03  0.41800000000E+01 0.  1.
         -5    1    3    3    0  502 -0.44831109024E+02 -0.93958133226E+01 -0.24651374340E+02  0.52184981567E+02  0.41800000000E+01 0.  1.
        -11    1    4    4    0    0  0.21745346502E+02  0.55663035288E+01  0.77119774409E+02  0.80320006439E+02  0.00000000000E+00 0. -1.
         11    1    4    4    0    0  0.21830508114E+02  0.28263786768E+02 -0.19057050717E+02  0.40479425749E+02  0.00000000000E+00 0.  1.
</event>
<event>
 8    1  0.7102339E-009  0.1885183E+03  0.7561462E-02  0.1159805E+00
          1   -1    0    0  501    0  0.00000000000E+00  0.00000000000E+00  0.91334839383E+02  0.91334839383E+02  0.00000000000E+00 0. -1.
         -1   -1    0    0    0  501 -0.00000000000E+00 -0.00000000000E+00 -0.53017120658E+03  0.53017120658E+03  0.00000000000E+00 0.  1.
         25    2    1    2    0    0  0.47015416288E+02  0.18151415673E+03 -0.17512941849E+03  0.28543938377E+03  0.12508992814E+03 0.  0.
         23    2    1    2    0    0 -0.47015416288E+02 -0.18151415673E+03 -0.26370694871E+03  0.33606666220E+03  0.90783303435E+02 0.  0.
          5    1    3    3  502    0  0.42814575424E+02  0.12085430816E+03 -0.35524888805E+02  0.13311026180E+03  0.41800000000E+01 0.  1.
         -5    1    3    3    0  502  0.42008408640E+01  0.60659848564E+02 -0.13960452969E+03  0.15232912197E+03  0.41800000000E+01 0.  1.
        -11    1    4    4    0    0 -0.14869582874E+01 -0.18304589266E+02 -0.95724071592E+02  0.97469825666E+02  0.00000000000E+00 0.  1.
         11    1    4    4    0    0 -0.45528458001E+02 -0.16320956746E+03 -0.16798287712E+03  0.23859683653E+03  0.00000000000E+00 0. -1.
</event>
<event>
 8    1  0.7102339E-009  0.4588208E+03  0.7561462E-02  0.1025124E+00
         -1   -1    0    0    0  501 -0.00000000000E+00  0.00000000000E+00  0.35096367377E+03  0.35096367377E+03  0.00000000000E+00 0.  1.
          1   -1    0    0  501    0  0.00000000000E+00 -0.00000000000E+00 -0.82149551160E+03  0.82149551160E+03  0.00000000000E+00 0. -1.
         25    2    1    2    0    0  0.14981462591E+02 -0.45790035162E+03  0.44662765431E+02  0.47701124486E+03  0.12509112227E+03 0.  0.
         23    2    1    2    0    0 -0.14981462591E+02  0.45790035162E+03 -0.51519460326E+03  0.69544794051E+03  0.91242438031E+02 0.  0.
          5    1    3    3  502    0 -0.20439772704E+01 -0.25598957327E+03 -0.36641925687E+02  0.25864056640E+03  0.41800000000E+01 0.  1.
         -5    1    3    3    0  502  0.17025439861E+02 -0.20191077835E+03  0.81304691118E+02  0.21837067847E+03  0.41800000000E+01 0.  1.
        -11    1    4    4    0    0 -0.22901221235E+02  0.32927894533E+03 -0.30804953131E+03  0.45149042461E+03  0.00000000000E+00 0.  1.
         11    1    4    4    0    0  0.79197586443E+01  0.12862140629E+03 -0.20714507195E+03  0.24395751590E+03  0.00000000000E+00 0. -1.
</event>
<event>
 8    1  0.7102339E-009  0.1190396E+03  0.7561462E-02  0.1244690E+00
          2   -1    0    0  501    0  0.00000000000E+00  0.00000000000E+00  0.32182509884E+03  0.32182509884E+03  0.00000000000E+00 0.  1.
         -2   -1    0    0    0  501 -0.00000000000E+00 -0.00000000000E+00 -0.47373906819E+02  0.47373906819E+02  0.00000000000E+00 0. -1.
         25    2    1    2    0    0  0.47414246803E+02 -0.16062959107E+02  0.19746984121E+03  0.23905428426E+03  0.12508590320E+03 0.  0.
         23    2    1    2    0    0 -0.47414246803E+02  0.16062959107E+02  0.76981350815E+02  0.13014472141E+03  0.92224675015E+02 0.  0.
          5    1    3    3  502    0  0.89519778385E+02 -0.17017710801E+02  0.14901828665E+03  0.17472067811E+03  0.41800000000E+01 0. -1.
         -5    1    3    3    0  502 -0.42105531582E+02  0.95475169359E+00  0.48451554564E+02  0.64333606150E+02  0.41800000000E+01 0. -1.
        -11    1    4    4    0    0  0.12910908489E+01  0.46882239846E+02  0.28930229665E+02  0.55105077053E+02  0.00000000000E+00 0. -1.
         11    1    4    4    0    0 -0.48705337652E+02 -0.30819280738E+02  0.48051121150E+02  0.75039644354E+02  0.00000000000E+00 0.  1.
</event>
<event>
 8    1  0.7102339E-009  0.1484746E+03  0.7561462E-02  0.1202360E+00
          2   -1    0    0  501    0  0.00000000000E+00  0.00000000000E+00  0.72620537634E+03  0.72620537634E+03  0.00000000000E+00 0. -1.
         -2   -1    0    0    0  501 -0.00000000000E+00 -0.00000000000E+00 -0.64580799464E+02  0.64580799464E+02  0.00000000000E+00 0.  1.
         25    2    1    2    0    0 -0.92915835595E+02 -0.53842367151E+02  0.62363011154E+03  0.64505065734E+03  0.12507390417E+03 0.  0.
         23    2    1    2    0    0  0.92915835595E+02  0.53842367151E+02  0.37994465339E+02  0.14573551847E+03  0.90900544240E+02 0.  0.
          5    1    3    3  502    0 -0.23494973238E+02 -0.80903825520E+02  0.24436536818E+03  0.25851372946E+03  0.41800000000E+01 0.  1.
         -5    1    3    3    0  502 -0.69420862357E+02  0.27061458369E+02  0.37926474336E+03  0.38653692788E+03  0.41800000000E+01 0.  1.
        -11    1    4    4    0    0  0.41105507324E+02 -0.21614179507E+02 -0.48602685037E+00  0.46444286088E+02  0.00000000000E+00 0.  1.
         11    1    4    4    0    0  0.51810328270E+02  0.75456546658E+02  0.38480492189E+02  0.99291232383E+02  0.00000000000E+00 0. -1.
</event>
<event>
 8    1  0.7102339E-009  0.1396771E+03  0.7561462E-02  0.1213764E+00
          2   -1    0    0  501    0  0.00000000000E+00  0.00000000000E+00  0.59034892358E+03  0.59034892358E+03  0.00000000000E+00 0. -1.
         -2   -1    0    0    0  501 -0.00000000000E+00 -0.00000000000E+00 -0.43814939783E+02  0.43814939783E+02  0.00000000000E+00 0.  1.
         25    2    1    2    0    0 -0.77962034982E+02  0.64410717144E+02  0.42944868669E+03  0.45858446093E+03  0.12508682554E+03 0.  0.
         23    2    1    2    0    0  0.77962034982E+02 -0.64410717144E+02  0.11708529711E+03  0.17557940243E+03  0.83020120324E+02 0.  0.
          5    1    3    3  502    0 -0.71015306600E+02  0.10010828424E+03  0.35457908728E+03  0.37524477862E+03  0.41800000000E+01 0.  1.
         -5    1    3    3    0  502 -0.69467283823E+01 -0.35697567095E+02  0.74869599410E+02  0.83339682311E+02  0.41800000000E+01 0.  1.
        -11    1    4    4    0    0  0.51204114408E+02 -0.11128504249E+01  0.16593845145E+02  0.53837305515E+02  0.00000000000E+00 0.  1.
         11    1    4    4    0    0  0.26757920573E+02 -0.63297866720E+02  0.10049145196E+03  0.12174209692E+03  0.00000000000E+00 0. -1.
</event>
<event>
 8    1  0.7102339E-009  0.1789133E+03  0.7561462E-02  0.1168859E+00
         -1   -1    0    0    0  501 -0.00000000000E+00  0.00000000000E+00  0.61965732648E+03  0.61965732648E+03  0.00000000000E+00 0.  1.
          1   -1    0    0  501    0  0.00000000000E+00 -0.00000000000E+00 -0.84312925816E+02  0.84312925816E+02  0.00000000000E+00 0. -1.
         25    2    1    2    0    0 -0.60045604675E+02  0.15790545451E+03  0.10755233097E+03  0.23612307444E+03  0.12508794978E+03 0.  0.
         23    2    1    2    0    0  0.60045604675E+02 -0.15790545451E+03  0.42779206969E+03  0.46784717786E+03  0.85646481143E+02 0.  0.
          5    1    3    3  502    0 -0.24400522187E+02  0.17433592699E+02  0.83933286176E+02  0.89227711871E+02  0.41800000000E+01 0. -1.
         -5    1    3    3    0  502 -0.35645082488E+02  0.14047186181E+03  0.23619044796E+02  0.14689536257E+03  0.41800000000E+01 0. -1.
        -11    1    4    4    0    0  0.45178386129E+02 -0.31001514006E+02  0.19195573793E+03  0.19962260836E+03  0.00000000000E+00 0.  1.
         11    1    4    4    0    0  0.14867218546E+02 -0.12690394051E+03  0.23583633176E+03  0.26822456950E+03  0.00000000000E+00 0. -1.
</event>
<event>
 8    1  0.7102339E-009  0.1636700E+03  0.7561462E-02  0.1184615E+00
          1   -1    0    0  501    0  0.00000000000E+00  0.00000000000E+00  0.48159345460E+02  0.48159345460E+02  0.00000000000E+00 0. -1.
         -1   -1    0    0    0  501 -0.00000000000E+00 -0.00000000000E+00 -0.67625564638E+03  0.67625564638E+03  0.00000000000E+00 0.  1.
         25    2    1    2    0    0 -0.13058526323E+03  0.45184801532E+02 -0.25401223105E+03  0.31506195959E+03  0.12509055757E+03 0.  0.
         23    2    1    2    0    0  0.13058526323E+03 -0.45184801532E+02 -0.37408406987E+03  0.40935303225E+03  0.92395002141E+02 0.  0.
          5    1    3    3  502    0  0.65457532772E+01  0.20272570836E+02 -0.11902410496E+03  0.12098774308E+03  0.41800000000E+01 0. -1.
         -5    1    3    3    0  502 -0.13713101651E+03  0.24912230696E+02 -0.13498812609E+03  0.19407421651E+03  0.41800000000E+01 0. -1.
        -11    1    4    4    0    0  0.53759078733E+02 -0.67404805317E+02 -0.18996405206E+03  0.20861396741E+03  0.00000000000E+00 0.  1.
         11    1    4    4    0    0  0.76826184500E+02  0.22220003785E+02 -0.18412001781E+03  0.20073906484E+03  0.00000000000E+00 0. -1.
</event>
<event>
 8    1  0.7102339E-009  0.1397261E+03  0.7561462E-02  0.1213698E+00
          1   -1    0    0  501    0  0.00000000000E+00  0.00000000000E+00  0.24099497854E+03  0.24099497854E+03  0.00000000000E+00 0. -1.
         -1   -1    0    0    0  501 -0.00000000000E+00 -0.00000000000E+00 -0.10891651550E+03  0.10891651550E+03  0.00000000000E+00 0.  1.
         25    2    1    2    0    0  0.31570609014E+02  0.11549675965E+03  0.79774073445E+02  0.19064987123E+03  0.12508903135E+03 0.  0.
         23    2    1    2    0    0 -0.31570609014E+02 -0.11549675965E+03  0.52304389593E+02  0.15926162280E+03  0.91062124313E+02 0.  0.
          5    1    3    3  502    0  0.12587926711E+02  0.10797333626E+03  0.10949564221E+03  0.15434851896E+03  0.41800000000E+01 0. -1.
         -5    1    3    3    0  502  0.18982682303E+02  0.75234233856E+01 -0.29721568763E+02  0.36301352270E+02  0.41800000000E+01 0. -1.
        -11    1    4    4    0    0 -0.13322501115E+02  0.13837976873E+02  0.20744271898E+01  0.19320504343E+02  0.00000000000E+00 0.  1.
         11    1    4    4    0    0 -0.18248107899E+02 -0.12933473652E+03  0.50229962403E+02  0.13994111846E+03  0.00000000000E+00 0. -1.
</event>
<event>
 8    1  0.7102339E-009  0.8895081E+02  0.7561462E-02  0.1305413E+00
         -2   -1    0    0    0  501 -0.00000000000E+00  0.00000000000E+00  0.25930936520E+02  0.25930936520E+02  0.00000000000E+00 0.  1.
          2   -1    0    0  501    0  0.00000000000E+00 -0.00000000000E+00 -0.61681248610E+03  0.61681248610E+03  0.00000000000E+00 0. -1.
         25    2    1    2    0    0  0.60066389933E+02 -0.21224114286E+02 -0.36473889721E+03  0.39082020273E+03  0.12509010152E+03 0.  0.
         23    2    1    2    0    0 -0.60066389933E+02  0.21224114286E+02 -0.22614265237E+03  0.25192321988E+03  0.90919608838E+02 0.  0.
          5    1    3    3  502    0  0.19474966764E+02  0.22039506905E+01  0.28414402691E+01  0.20240501770E+02  0.41800000000E+01 0. -1.
         -5    1    3    3    0  502  0.40591423169E+02 -0.23428064977E+02 -0.36758033748E+03  0.37057970096E+03  0.41800000000E+01 0. -1.
        -11    1    4    4    0    0 -0.35884227311E+02  0.57161938165E+02 -0.14518571205E+03  0.16010638940E+03  0.00000000000E+00 0. -1.
         11    1    4    4    0    0 -0.24182162622E+02 -0.35937823879E+02 -0.80956940315E+02  0.91816830480E+02  0.00000000000E+00 0.  1.
</event>
<event>
 8    1  0.7102339E-009  0.2063501E+03  0.7561462E-02  0.1144489E+00
         -2   -1    0    0    0  501 -0.00000000000E+00  0.00000000000E+00  0.67439079051E+02  0.67439079051E+02  0.00000000000E+00 0.  1.
          2   -1    0    0  501    0  0.00000000000E+00 -0.00000000000E+00 -0.78006186612E+03  0.78006186612E+03  0.00000000000E+00 0. -1.
         25    2    1    2    0    0 -0.38650528698E+02  0.17457732262E+03 -0.54172532162E+03  0.58402452333E+03  0.12508882774E+03 0.  0.
         23    2    1    2    0    0  0.38650528698E+02 -0.17457732262E+03 -0.17089746545E+03  0.26347642184E+03  0.90789736344E+02 0.  0.
          5    1    3    3  502    0  0.42092387446E+02  0.47134912272E+02 -0.11339514210E+03  0.12988225317E+03  0.41800000000E+01 0. -1.
         -5    1    3    3    0  502 -0.80742916145E+02  0.12744241035E+03 -0.42833017951E+03  0.45414227016E+03  0.41800000000E+01 0. -1.
        -11    1    4    4    0    0 -0.17831481213E+02 -0.11489708680E+03 -0.11852766677E+03  0.16603647210E+03  0.00000000000E+00 0. -1.
         11    1    4    4    0    0  0.56482009911E+02 -0.59680235822E+02 -0.52369798680E+02  0.97439949740E+02  0.00000000000E+00 0.  1.
</event>
<event>
 8    1  0.7102339E-009  0.2163251E+03  0.7561462E-02  0.1136653E+00
         -2   -1    0    0    0  501 -0.00000000000E+00  0.00000000000E+00  0.20448607566E+03  0.20448607566E+03  0.00000000000E+00 0.  1.
          2   -1    0    0  501    0  0.00000000000E+00 -0.00000000000E+00 -0.30068629402E+03  0.30068629402E+03  0.00000000000E+00 0. -1.
         25    2    1    2    0    0 -0.16360729530E+03 -0.12659028090E+03  0.34067089218E+02  0.24412902377E+03  0.12508384143E+03 0.  0.
         23    2    1    2    0    0  0.16360729530E+03  0.12659028090E+03 -0.13026730758E+03  0.26104334591E+03  0.91551137209E+02 0.  0.
          5    1    3    3  502    0 -0.10641310003E+03 -0.11030650575E+03  0.76114156183E+02  0.17117859165E+03  0.41800000000E+01 0. -1.
         -5    1    3    3    0  502 -0.57194195277E+02 -0.16283775149E+02 -0.42047066965E+02  0.72950432122E+02  0.41800000000E+01 0. -1.
        -11    1    4    4    0    0  0.55828659860E+02  0.32617157533E+01 -0.62287633229E+02  0.83709182918E+02  0.00000000000E+00 0. -1.
         11    1    4    4    0    0  0.10777863544E+03  0.12332856515E+03 -0.67979674354E+02  0.17733416299E+03  0.00000000000E+00 0.  1.
</event>
<event>
 8    1  0.7102339E-009  0.1196146E+03  0.7561462E-02  0.1243734E+00
          2   -1    0    0  501    0  0.00000000000E+00  0.00000000000E+00  0.41858657821E+02  0.41858657821E+02  0.00000000000E+00 0. -1.
         -2   -1    0    0    0  501 -0.00000000000E+00 -0.00000000000E+00 -0.43168188262E+03  0.43168188262E+03  0.00000000000E+00 0.  1.
         25    2    1    2    0    0  0.48091965718E+02 -0.24467365569E+02 -0.12552758507E+03  0.18524931063E+03  0.12509453758E+03 0.  0.
         23    2    1    2    0    0 -0.48091965718E+02  0.24467365569E+02 -0.26429563973E+03  0.28829122981E+03  0.10172590063E+03 0.  0.
          5    1    3    3  502    0  0.90885267536E+02 -0.17931381050E+02 -0.86646183683E+02  0.12691217368E+03  0.41800000000E+01 0. -1.
         -5    1    3    3    0  502 -0.42793301818E+02 -0.65359845188E+01 -0.38881401385E+02  0.58337136952E+02  0.41800000000E+01 0. -1.
        -11    1    4    4    0    0 -0.99691259520E+01 -0.32760445114E+02 -0.15817859831E+03  0.16184282252E+03  0.00000000000E+00 0. -1.
         11    1    4    4    0    0 -0.38122839766E+02  0.57227810682E+02 -0.10611704142E+03  0.12644840730E+03  0.00000000000E+00 0.  1.
</event>
<event>
 8    1  0.7102339E-009  0.1132060E+03  0.7561462E-02  0.1254746E+00
          2   -1    0    0  501    0  0.00000000000E+00  0.00000000000E+00  0.40072244220E+03  0.40072244220E+03  0.00000000000E+00 0.  1.
         -2   -1    0    0    0  501 -0.00000000000E+00 -0.00000000000E+00 -0.54769004895E+02  0.54769004895E+02  0.00000000000E+00 0. -1.
         25    2    1    2    0    0  0.80964409943E+01 -0.80083186285E+02  0.28029794711E+03  0.31732228146E+03  0.12509045558E+03 0.  0.
         23    2    1    2    0    0 -0.80964409943E+01  0.80083186285E+02  0.65655490194E+02  0.13816916563E+03  0.91110953543E+02 0.  0.
          5    1    3    3  502    0  0.43069577637E+01  0.11869999185E+02  0.18243223935E+03  0.18291648674E+03  0.41800000000E+01 0.  1.
         -5    1    3    3    0  502  0.37894832306E+01 -0.91953185470E+02  0.97865707757E+02  0.13440579473E+03  0.41800000000E+01 0.  1.
        -11    1    4    4    0    0  0.40471455331E+02  0.25101569289E+02  0.19275576469E+02  0.51376797541E+02  0.00000000000E+00 0. -1.
         11    1    4    4    0    0 -0.48567896326E+02  0.54981616997E+02  0.46379913726E+02  0.86792368088E+02  0.00000000000E+00 0.  1.
</event>
<event>
 8    1  0.7102339E-009  0.6216418E+03  0.7561462E-02  0.9861496E-01
          2   -1    0    0  501    0  0.00000000000E+00  0.00000000000E+00  0.32226349745E+04  0.32226349745E+04  0.00000000000E+00 0. -1.
         -2   -1    0    0    0  501 -0.00000000000E+00 -0.00000000000E+00 -0.14581967232E+03  0.14581967232E+03  0.00000000000E+00 0.  1.
         25    2    1    2    0    0  0.23795913054E+03  0.56654179893E+03  0.22415527017E+04  0.23276174044E+04  0.12510039595E+03 0.  0.
         23    2    1    2    0    0 -0.23795913054E+03 -0.56654179893E+03  0.83526260045E+03  0.10408372424E+04  0.89913267455E+02 0.  0.
          5    1    3    3  502    0  0.18386372884E+03  0.28597716440E+03  0.11423349615E+04  0.11918621758E+04  0.41800000000E+01 0.  1.
         -5    1    3    3    0  502  0.54095401695E+02  0.28056463453E+03  0.10992177402E+04  0.11357552286E+04  0.41800000000E+01 0.  1.
        -11    1    4    4    0    0 -0.19840370385E+03 -0.51921658284E+03  0.78156411766E+03  0.95905805852E+03  0.00000000000E+00 0.  1.
         11    1    4    4    0    0 -0.39555426686E+02 -0.47325216085E+02  0.53698482792E+02  0.81779183854E+02  0.00000000000E+00 0. -1.
</event>
<event>
 8    1  0.7102339E-009  0.1293860E+03  0.7561462E-02  0.1228370E+00
         -2   -1    0    0    0  501 -0.00000000000E+00  0.00000000000E+00  0.30790149755E+02  0.30790149755E+02  0.00000000000E+00 0.  1.
          2   -1    0    0  501    0  0.00000000000E+00 -0.00000000000E+00 -0.57502070517E+03  0.57502070517E+03  0.00000000000E+00 0. -1.
         25    2    1    2    0    0  0.57399632180E+02  0.45813810647E+02 -0.35602873771E+03  0.38444449527E+03  0.12508990706E+03 0.  0.
         23    2    1    2    0    0 -0.57399632180E+02 -0.45813810647E+02 -0.18820181770E+03  0.22136635966E+03  0.90495955597E+02 0.  0.
          5    1    3    3  502    0  0.56981590230E+02  0.86109905901E+02 -0.27672108166E+03  0.29538762153E+03  0.41800000000E+01 0. -1.
         -5    1    3    3    0  502  0.41804194968E+00 -0.40296095253E+02 -0.79307656048E+02  0.89056873736E+02  0.41800000000E+01 0. -1.
        -11    1    4    4    0    0 -0.59086343809E+01 -0.60959057481E+02 -0.81722934455E+02  0.10212520093E+03  0.00000000000E+00 0.  1.
         11    1    4    4    0    0 -0.51490997799E+02  0.15145246833E+02 -0.10647888325E+03  0.11924115872E+03  0.00000000000E+00 0. -1.
</event>
<event>
 8    1  0.7102339E-009  0.2872863E+03  0.7561462E-02  0.1091775E+00
         -1   -1    0    0    0  501 -0.00000000000E+00  0.00000000000E+00  0.14739365343E+03  0.14739365343E+03  0.00000000000E+00 0.  1.
          1   -1    0    0  501    0  0.00000000000E+00 -0.00000000000E+00 -0.13563769323E+04  0.13563769323E+04  0.00000000000E+00 0. -1.
         25    2    1    2    0    0  0.26043367248E+03  0.85113210985E+02 -0.11746759347E+04  0.12126749377E+04  0.12508795539E+03 0.  0.
         23    2    1    2    0    0 -0.26043367248E+03 -0.85113210985E+02 -0.34307344202E+02  0.29109564804E+03  0.92139709107E+02 0.  0.
          5    1    3    3  502    0  0.13760739872E+03  0.25793028265E+00 -0.38195548081E+03  0.40600902013E+03  0.41800000000E+01 0.  1.
         -5    1    3    3    0  502  0.12282627376E+03  0.84855280703E+02 -0.79272045386E+03  0.80666591756E+03  0.41800000000E+01 0.  1.
        -11    1    4    4    0    0 -0.60427259196E+02 -0.61401148853E+02 -0.23981143622E+02  0.89423989979E+02  0.00000000000E+00 0. -1.
         11    1    4    4    0    0 -0.20000641329E+03 -0.23712062133E+02 -0.10326200580E+02  0.20167165806E+03  0.00000000000E+00 0.  1.
</event>
<event>
 8    1  0.7102339E-009  0.1798570E+03  0.7561462E-02  0.1167942E+00
         -2   -1    0    0    0  501 -0.00000000000E+00  0.00000000000E+00  0.49714168023E+03  0.49714168023E+03  0.00000000000E+00 0. -1.
          2   -1    0    0  501    0  0.00000000000E+00 -0.00000000000E+00 -0.71786650117E+02  0.71786650117E+02  0.00000000000E+00 0.  1.
         25    2    1    2    0    0 -0.13592344046E+03 -0.65751989329E+02  0.17978862550E+03  0.26602442519E+03  0.12508612702E+03 0.  0.
         23    2    1    2    0    0  0.13592344046E+03  0.65751989329E+02  0.24556640461E+03  0.30290390515E+03  0.93002209211E+02 0.  0.
          5    1    3    3  502    0 -0.14185122609E+03 -0.17019877648E+02  0.15510458295E+03  0.21091787650E+03  0.41800000000E+01 0.  1.
         -5    1    3    3    0  502  0.59277856315E+01 -0.48732111681E+02  0.24684042552E+02  0.55106548686E+02  0.41800000000E+01 0.  1.
        -11    1    4    4    0    0  0.77505064098E+02 -0.26649775413E+01  0.65086011749E+02  0.10124389360E+03  0.00000000000E+00 0.  1.
         11    1    4    4    0    0  0.58418376357E+02  0.68416966870E+02  0.18048039286E+03  0.20166001155E+03  0.00000000000E+00 0. -1.
</event>
<event>
 8    1  0.7102339E-009  0.5982491E+02  0.7561462E-02  0.1398568E+00
          2   -1    0    0  501    0  0.00000000000E+00  0.00000000000E+00  0.80186465886E+02  0.80186465886E+02  0.00000000000E+00 0. -1.
         -2   -1    0    0    0  501 -0.00000000000E+00 -0.00000000000E+00 -0.19053062862E+03  0.19053062862E+03  0.00000000000E+00 0.  1.
         25    2    1    2    0    0  0.21432815670E+02  0.15811327608E+02 -0.10557162529E+03  0.16583791108E+03  0.12508989175E+03 0.  0.
         23    2    1    2    0    0 -0.21432815670E+02 -0.15811327608E+02 -0.47725374440E+01  0.10487918342E+03  0.10132868465E+03 0.  0.
          5    1    3    3  502    0  0.77924444178E+01 -0.28674901833E+01 -0.13093152236E+03  0.13126111624E+03  0.41800000000E+01 0.  1.
         -5    1    3    3    0  502  0.13640371252E+02  0.18678817791E+02  0.25359897070E+02  0.34576794840E+02  0.41800000000E+01 0.  1.
        -11    1    4    4    0    0  0.31567120816E+02 -0.89408823503E-01  0.26630592893E+02  0.41299873951E+02  0.00000000000E+00 0. -1.
         11    1    4    4    0    0 -0.52999936487E+02 -0.15721918785E+02 -0.31403130337E+02  0.63579309471E+02  0.00000000000E+00 0.  1.
</event>
<event>
 8    1  0.7102339E-009  0.2000852E+03  0.7561462E-02  0.1149667E+00
          2   -1    0    0  501    0  0.00000000000E+00  0.00000000000E+00  0.87833846271E+03  0.87833846271E+03  0.00000000000E+00 0.  1.
         -2   -1    0    0    0  501 -0.00000000000E+00 -0.00000000000E+00 -0.53778842697E+02  0.53778842697E+02  0.00000000000E+00 0. -1.
         25    2    1    2    0    0  0.11205214891E+01 -0.17230692916E+03  0.59157088205E+03  0.62872488363E+03  0.12509171595E+03 0.  0.
         23    2    1    2    0    0 -0.11205214891E+01  0.17230692916E+03  0.23298873797E+03  0.30339242178E+03  0.89845846689E+02 0.  0.
          5    1    3    3  502    0 -0.21637787530E+01 -0.19188739261E+03  0.51844354585E+03  0.55283508934E+03  0.41800000000E+01 0.  1.
         -5    1    3    3    0  502  0.32843002421E+01  0.19580463442E+02  0.73127336200E+02  0.75889794284E+02  0.41800000000E+01 0.  1.
        -11    1    4    4    0    0 -0.37774994944E+02  0.75514310331E+02  0.14384057178E+03  0.16679170063E+03  0.00000000000E+00 0. -1.
         11    1    4    4    0    0  0.36654473455E+02  0.96792618833E+02  0.89148166183E+02  0.13660072115E+03  0.00000000000E+00 0.  1.
</event>
<event>
 8    1  0.7102339E-009  0.1617633E+03  0.7561462E-02  0.1186720E+00
          2   -1    0    0  501    0  0.00000000000E+00  0.00000000000E+00  0.90120982009E+03  0.90120982009E+03  0.00000000000E+00 0. -1.
         -2   -1    0    0    0  501 -0.00000000000E+00 -0.00000000000E+00 -0.40766147765E+02  0.40766147765E+02  0.00000000000E+00 0.  1.
         25    2    1    2    0    0  0.15944559885E+02  0.14576371637E+03  0.59382839235E+03  0.62432427084E+03  0.12508935045E+03 0.  0.
         23    2    1    2    0    0 -0.15944559885E+02 -0.14576371637E+03  0.26661527997E+03  0.31765169701E+03  0.91200894200E+02 0.  0.
          5    1    3    3  502    0 -0.41021321868E+02  0.64112296872E+02  0.39074767031E+03  0.39811348848E+03  0.41800000000E+01 0. -1.
         -5    1    3    3    0  502  0.56965881753E+02  0.81651419494E+02  0.20308072204E+03  0.22621078236E+03  0.41800000000E+01 0. -1.
        -11    1    4    4    0    0  0.37917028884E+01 -0.21843750544E+02  0.13110464861E+03  0.13296599316E+03  0.00000000000E+00 0.  1.
         11    1    4    4    0    0 -0.19736262773E+02 -0.12391996582E+03  0.13551063136E+03  0.18468570386E+03  0.00000000000E+00 0. -1.
</event>
<event>
 8    1  0.7102339E-009  0.1050286E+03  0.7561462E-02  0.1270063E+00
         -1   -1    0    0    0  501 -0.00000000000E+00  0.00000000000E+00  0.23471364166E+02  0.23471364166E+02  0.00000000000E+00 0.  1.
          1   -1    0    0  501    0  0.00000000000E+00 -0.00000000000E+00 -0.98354305458E+03  0.98354305458E+03  0.00000000000E+00 0. -1.
         25    2    1    2    0    0  0.97425030152E+01 -0.52530038680E+02 -0.82812875738E+03  0.83922468453E+03  0.12508601436E+03 0.  0.
         23    2    1    2    0    0 -0.97425030152E+01  0.52530038680E+02 -0.13194293303E+03  0.16778973422E+03  0.88826437525E+02 0.  0.
          5    1    3    3  502    0  0.54001048731E+02 -0.60010765824E+02 -0.66792154272E+03  0.67279570815E+03  0.41800000000E+01 0. -1.
         -5    1    3    3    0  502 -0.44258545716E+02  0.74807271443E+01 -0.16020721466E+03  0.16642897637E+03  0.41800000000E+01 0. -1.
        -11    1    4    4    0    0 -0.23219867253E+02  0.62954143807E+02 -0.48927565765E+02  0.83043923013E+02  0.00000000000E+00 0.  1.
         11    1    4    4    0    0  0.13477364237E+02 -0.10424105127E+02 -0.83015367267E+02  0.84745811206E+02  0.00000000000E+00 0. -1.
</event>
<event>
 8    1  0.7102339E-009  0.2093670E+03  0.7561462E-02  0.1142068E+00
         -2   -1    0    0    0  501 -0.00000000000E+00  0.00000000000E+00  0.18178444069E+02  0.18178444069E+02  0.00000000000E+00 0.  1.
          2   -1    0    0  501    0  0.00000000000E+00 -0.00000000000E+00 -0.32944569906E+04  0.32944569906E+04  0.00000000000E+00 0. -1.
         25    2    1    2    0    0  0.16729094191E+03 -0.11007556540E+03 -0.22883375062E+04  0.23004863860E+04  0.12508469337E+03 0.  0.
         23    2    1    2    0    0 -0.16729094191E+03  0.11007556540E+03 -0.98794104027E+03  0.10121490486E+04  0.91188311837E+02 0.  0.
          5    1    3    3  502    0  0.11440295698E+03 -0.40561983340E+02 -0.18204862173E+04  0.18245330501E+04  0.41800000000E+01 0. -1.
         -5    1    3    3    0  502  0.52887984938E+02 -0.69513582062E+02 -0.46785128895E+03  0.47595333596E+03  0.41800000000E+01 0. -1.
        -11    1    4    4    0    0  0.35242820651E+01  0.12773734170E+02 -0.17250952271E+02  0.21752797589E+02  0.00000000000E+00 0.  1.
         11    1    4    4    0    0 -0.17081522398E+03  0.97301831233E+02 -0.97069008799E+03  0.99039625102E+03  0.00000000000E+00 0. -1.
</event>
<event>
 8    1  0.7102339E-009  0.1229363E+03  0.7561462E-02  0.1238330E+00
         -1   -1    0    0    0  501 -0.00000000000E+00  0.00000000000E+00  0.25818190892E+02  0.25818190892E+02  0.00000000000E+00 0.  1.
          1   -1    0    0  501    0  0.00000000000E+00 -0.00000000000E+00 -0.76598576656E+03  0.76598576656E+03  0.00000000000E+00 0. -1.
         25    2    1    2    0    0  0.85351892398E+02  0.12750744928E+02 -0.34144129727E+03  0.37372655844E+03  0.12506739770E+03 0.  0.
         23    2    1    2    0    0 -0.85351892398E+02 -0.12750744928E+02 -0.39872627840E+03  0.41807739902E+03  0.91425048261E+02 0.  0.
          5    1    3    3  502    0  0.92034323139E+02  0.44421229553E+02 -0.31660144266E+03  0.33271235048E+03  0.41800000000E+01 0.  1.
         -5    1    3    3    0  502 -0.66824307410E+01 -0.31670484625E+02 -0.24839854609E+02  0.41014207953E+02  0.41800000000E+01 0.  1.
        -11    1    4    4    0    0 -0.89851559987E+01  0.24422697248E+02 -0.30084283991E+02  0.39777698682E+02  0.00000000000E+00 0.  1.
         11    1    4    4    0    0 -0.76366736400E+02 -0.37173442175E+02 -0.36864199441E+03  0.37829970034E+03  0.00000000000E+00 0. -1.
</event>
<event>
 8    1  0.7102339E-009  0.9560276E+02  0.7561462E-02  0.1289824E+00
          2   -1    0    0  501    0  0.00000000000E+00  0.00000000000E+00  0.19966309473E+03  0.19966309473E+03  0.00000000000E+00 0. -1.
         -2   -1    0    0    0  501 -0.00000000000E+00 -0.00000000000E+00 -0.63916903238E+02  0.63916903238E+02  0.00000000000E+00 0.  1.
         25    2    1    2    0    0  0.88344853297E+01 -0.35162653118E+02  0.94110911096E+02  0.16068155309E+03  0.12508891881E+03 0.  0.
         23    2    1    2    0    0 -0.88344853297E+01  0.35162653118E+02  0.41635280400E+02  0.10289844489E+03  0.86833939681E+02 0.  0.
          5    1    3    3  502    0  0.57355355908E+02 -0.13708027316E+02  0.82859375967E+01  0.59696532781E+02  0.41800000000E+01 0. -1.
         -5    1    3    3    0  502 -0.48520870578E+02 -0.21454625802E+02  0.85824973499E+02  0.10098502031E+03  0.41800000000E+01 0. -1.
        -11    1    4    4    0    0 -0.37816147344E+02  0.32326009251E+02  0.52021956018E+02  0.71981357184E+02  0.00000000000E+00 0. -1.
         11    1    4    4    0    0  0.28981662015E+02  0.28366438665E+01 -0.10386675618E+02  0.30917087702E+02  0.00000000000E+00 0.  1.
</event>
<event>
 8    1  0.7102339E-009  0.2801860E+03  0.7561462E-02  0.1095587E+00
          2   -1    0    0  501    0  0.00000000000E+00  0.00000000000E+00  0.20590823239E+03  0.20590823239E+03  0.00000000000E+00 0. -1.
         -2   -1    0    0    0  501 -0.00000000000E+00 -0.00000000000E+00 -0.44352475088E+03  0.44352475088E+03  0.00000000000E+00 0.  1.
         25    2    1    2    0    0 -0.11284341524E+03  0.23769062254E+03 -0.22840798280E+03  0.37020070340E+03  0.12509150966E+03 0.  0.
         23    2    1    2    0    0  0.11284341524E+03 -0.23769062254E+03 -0.92085356907E+01  0.27923227987E+03  0.93034405389E+02 0.  0.
          5    1    3    3  502    0 -0.10054159707E+03  0.68863579255E+02 -0.91430296788E+02  0.15240661685E+03  0.41800000000E+01 0. -1.
         -5    1    3    3    0  502 -0.12301818175E+02  0.16882704328E+03 -0.13697768601E+03  0.21779408656E+03  0.41800000000E+01 0. -1.
        -11    1    4    4    0    0  0.32080145675E+02 -0.13340530957E+03  0.32289381315E+02  0.14095643481E+03  0.00000000000E+00 0. -1.
         11    1    4    4    0    0  0.80763269567E+02 -0.10428531297E+03 -0.41497917005E+02  0.13827584506E+03  0.00000000000E+00 0.  1.
</event>
<event>
 8    1  0.7102339E-009  0.1661293E+03  0.7561462E-02  0.1181946E+00
          1   -1    0    0  501    0  0.00000000000E+00  0.00000000000E+00  0.35736162223E+03  0.35736162223E+03  0.00000000000E+00 0. -1.
         -1   -1    0    0    0  501 -0.00000000000E+00 -0.00000000000E+00 -0.91379271712E+02  0.91379271712E+02  0.00000000000E+00 0.  1.
         25    2    1    2    0    0 -0.12556514974E+03 -0.67863423418E+02  0.12732955006E+03  0.22853326283E+03  0.12507032756E+03 0.  0.
         23    2    1    2    0    0  0.12556514974E+03  0.67863423418E+02  0.13865280046E+03  0.22020763111E+03  0.94311985765E+02 0.  0.
          5    1    3    3  502    0 -0.37392806287E+02  0.36783564628E+02  0.40701997124E+02  0.66523511322E+02  0.41800000000E+01 0.  1.
         -5    1    3    3    0  502 -0.88172343448E+02 -0.10464698805E+03  0.86627552933E+02  0.16200975151E+03  0.41800000000E+01 0.  1.
        -11    1    4    4    0    0  0.33311051623E+02  0.18588739794E+02 -0.90680635184E+01  0.39209656761E+02  0.00000000000E+00 0.  1.
         11    1    4    4    0    0  0.92254098112E+02  0.49274683624E+02  0.14772086398E+03  0.18099797435E+03  0.00000000000E+00 0. -1.
</event>
<event>
 8    1  0.7102339E-009  0.1379609E+03  0.7561462E-02  0.1216099E+00
          1   -1    0    0  501    0  0.00000000000E+00  0.00000000000E+00  0.60607042800E+02  0.60607042800E+02  0.00000000000E+00 0. -1.
         -1   -1    0    0    0  501 -0.00000000000E+00 -0.00000000000E+00 -0.43908224048E+03  0.43908224048E+03  0.00000000000E+00 0.  1.
         25    2    1    2    0    0 -0.77202732922E+02  0.77841564943E+02 -0.12221308624E+03  0.20640408835E+03  0.12508812108E+03 0.  0.
         23    2    1    2    0    0  0.77202732922E+02 -0.77841564943E+02 -0.25626211144E+03  0.29328519493E+03  0.91248915623E+02 0.  0.
          5    1    3    3  502    0 -0.51692967866E+02 -0.26796190593E+02 -0.47481442891E+02  0.75247316073E+02  0.41800000000E+01 0. -1.
         -5    1    3    3    0  502 -0.25509765055E+02  0.10463775554E+03 -0.74731643352E+02  0.13115677228E+03  0.41800000000E+01 0. -1.
        -11    1    4    4    0    0  0.52887239807E+02 -0.56765908703E+02 -0.70740104715E+02  0.10499328998E+03  0.00000000000E+00 0. -1.
         11    1    4    4    0    0  0.24315493115E+02 -0.21075656239E+02 -0.18552200672E+03  0.18829190495E+03  0.00000000000E+00 0.  1.
</event>
<event>
 8    1  0.7102339E-009  0.9981577E+02  0.7561462E-02  0.1280684E+00
         -2   -1    0    0    0  501 -0.00000000000E+00  0.00000000000E+00  0.10474835641E+03  0.10474835641E+03  0.00000000000E+00 0.  1.
          2   -1    0    0  501    0  0.00000000000E+00 -0.00000000000E+00 -0.17487801140E+03  0.17487801140E+03  0.00000000000E+00 0. -1.
         25    2    1    2    0    0  0.39806001989E+02 -0.63418030330E+02 -0.75975631347E+02  0.16439515108E+03  0.12508838786E+03 0.  0.
         23    2    1    2    0    0 -0.39806001989E+02  0.63418030330E+02  0.58459763511E+01  0.11523121673E+03  0.87393898549E+02 0.  0.
          5    1    3    3  502    0  0.17657775758E+02 -0.88839106397E+02 -0.11346820516E+02  0.91380559235E+02  0.41800000000E+01 0.  1.
         -5    1    3    3    0  502  0.22148226231E+02  0.25421076068E+02 -0.64628810831E+02  0.73014591850E+02  0.41800000000E+01 0.  1.
        -11    1    4    4    0    0 -0.11283419387E+02  0.21522772150E+02  0.45029241583E+02  0.51168133360E+02  0.00000000000E+00 0.  1.
         11    1    4    4    0    0 -0.28522582602E+02  0.41895258180E+02 -0.39183265231E+02  0.64063083367E+02  0.00000000000E+00 0. -1.
</event>
<event>
 8    1  0.7102339E-009  0.7985962E+02  0.7561462E-02  0.1329450E+00
         -2   -1    0    0    0  501 -0.00000000000E+00  0.00000000000E+00  0.48156863791E+02  0.48156863791E+02  0.00000000000E+00 0.  1.
          2   -1    0    0  501    0  0.00000000000E+00 -0.00000000000E+00 -0.28874962694E+03  0.28874962694E+03  0.00000000000E+00 0. -1.
         25    2    1    2    0    0  0.21551735271E+01  0.27371987702E+02 -0.19751224064E+03  0.23540232731E+03  0.12509716231E+03 0.  0.
         23    2    1    2    0    0 -0.21551735271E+01 -0.27371987702E+02 -0.43080522515E+02  0.10150416342E+03  0.87711420513E+02 0.  0.
          5    1    3    3  502    0  0.47123803686E+02  0.47739696550E+02 -0.63252825539E+02  0.92293682553E+02  0.41800000000E+01 0.  1.
         -5    1    3    3    0  502 -0.44968630159E+02 -0.20367708848E+02 -0.13425941510E+03  0.14310864476E+03  0.41800000000E+01 0.  1.
        -11    1    4    4    0    0  0.13982785907E+02 -0.21789183984E+02 -0.67163917210E+02  0.71981099015E+02  0.00000000000E+00 0. -1.
         11    1    4    4    0    0 -0.16137959434E+02 -0.55828037177E+01  0.24083394694E+02  0.29523064408E+02  0.00000000000E+00 0.  1.
</event>
<event>
 8    1  0.7102339E-009  0.1811450E+03  0.7561462E-02  0.1166699E+00
         -2   -1    0    0    0  501 -0.00000000000E+00  0.00000000000E+00  0.13299577000E+03  0.13299577000E+03  0.00000000000E+00 0.  1.
          2   -1    0    0  501    0  0.00000000000E+00 -0.00000000000E+00 -0.31718515665E+03  0.31718515665E+03  0.00000000000E+00 0. -1.
         25    2    1    2    0    0  0.12734781774E+03  0.11753785506E+03 -0.11023620388E+03  0.24048188606E+03  0.12508758060E+03 0.  0.
         23    2    1    2    0    0 -0.12734781774E+03 -0.11753785506E+03 -0.73953182763E+02  0.20969904059E+03  0.92043469765E+02 0.  0.
          5    1    3    3  502    0  0.50928086230E+01  0.79761108636E+01 -0.70857183246E+02  0.71608434292E+02  0.41800000000E+01 0. -1.
         -5    1    3    3    0  502  0.12225500912E+03  0.10956174419E+03 -0.39379020637E+02  0.16887345177E+03  0.41800000000E+01 0. -1.
        -11    1    4    4    0    0 -0.71690135153E+02 -0.18367915352E+02  0.75159465332E-01  0.74005820323E+02  0.00000000000E+00 0.  1.
         11    1    4    4    0    0 -0.55657682591E+02 -0.99169939703E+02 -0.74028342228E+02  0.13569322026E+03  0.00000000000E+00 0. -1.
</event>
<event>
 8    1  0.7102339E-009  0.1060402E+03  0.7561462E-02  0.1268084E+00
         -2   -1    0    0    0  501 -0.00000000000E+00  0.00000000000E+00  0.11458191579E+03  0.11458191579E+03  0.00000000000E+00 0.  1.
          2   -1    0    0  501    0  0.00000000000E+00 -0.00000000000E+00 -0.15849120458E+03  0.15849120458E+03  0.00000000000E+00 0. -1.
         25    2    1    2    0    0  0.25031279115E+02 -0.69599215500E+02  0.34185345749E+01  0.14536116288E+03  0.12509022969E+03 0.  0.
         23    2    1    2    0    0 -0.25031279115E+02  0.69599215500E+02 -0.47327823366E+02  0.12771195748E+03  0.92735136207E+02 0.  0.
          5    1    3    3  502    0  0.19914773113E+02  0.25159986544E+02  0.32657176965E+02  0.45973761194E+02  0.41800000000E+01 0.  1.
         -5    1    3    3    0  502  0.51165060028E+01 -0.94759202044E+02 -0.29238642390E+02  0.99387401689E+02  0.41800000000E+01 0.  1.
        -11    1    4    4    0    0  0.10509966539E+02  0.28614223716E+02 -0.64058478268E+02  0.70941679100E+02  0.00000000000E+00 0. -1.
         11    1    4    4    0    0 -0.35541245654E+02  0.40984991784E+02  0.16730654902E+02  0.56770278383E+02  0.00000000000E+00 0.  1.
</event>
<event>
 8    1  0.7102339E-009  0.1124217E+03  0.7561462E-02  0.1256150E+00
          2   -1    0    0  501    0  0.00000000000E+00  0.00000000000E+00  0.77664785732E+02  0.77664785732E+02  0.00000000000E+00 0. -1.
         -2   -1    0    0    0  501 -0.00000000000E+00 -0.00000000000E+00 -0.19993831046E+03  0.19993831046E+03  0.00000000000E+00 0.  1.
         25    2    1    2    0    0  0.39306403859E+02  0.23220812048E+02 -0.22194778080E+02  0.13499757581E+03  0.12509011874E+03 0.  0.
         23    2    1    2    0    0 -0.39306403859E+02 -0.23220812048E+02 -0.10007874665E+03  0.14260552038E+03  0.90754500796E+02 0.  0.
          5    1    3    3  502    0 -0.12231212749E+02 -0.40360519989E+02  0.15058237068E+02  0.44975516036E+02  0.41800000000E+01 0. -1.
         -5    1    3    3    0  502  0.51537616609E+02  0.63581332036E+02 -0.37253015148E+02  0.90022059779E+02  0.41800000000E+01 0. -1.
        -11    1    4    4    0    0 -0.32209314328E+02  0.31665521229E+02 -0.55393096981E+02  0.71474053735E+02  0.00000000000E+00 0.  1.
         11    1    4    4    0    0 -0.70970895314E+01 -0.54886333277E+02 -0.44685649666E+02  0.71131466641E+02  0.00000000000E+00 0. -1.
</event>
<event>
 8    1  0.7102339E-009  0.1468650E+03  0.7561462E-02  0.1204379E+00
          1   -1    0    0  501    0  0.00000000000E+00  0.00000000000E+00  0.22099403632E+02  0.22099403632E+02  0.00000000000E+00 0. -1.
         -1   -1    0    0    0  501 -0.00000000000E+00 -0.00000000000E+00 -0.13512896926E+04  0.13512896926E+04  0.00000000000E+00 0.  1.
         25    2    1    2    0    0  0.85386456805E+02  0.88923574048E+02 -0.90714302839E+03  0.92398836712E+03  0.12509108521E+03 0.  0.
         23    2    1    2    0    0 -0.85386456805E+02 -0.88923574048E+02 -0.42204726056E+03  0.44940072909E+03  0.92945554667E+02 0.  0.
          5    1    3    3  502    0  0.11174090758E+03  0.50642188167E+02 -0.53333685771E+03  0.54728085828E+03  0.41800000000E+01 0. -1.
         -5    1    3    3    0  502 -0.26354450777E+02  0.38281385881E+02 -0.37380617067E+03  0.37670750884E+03  0.41800000000E+01 0. -1.
        -11    1    4    4    0    0 -0.29711949560E+02 -0.42320466668E+02 -0.55999310645E+02  0.76221680895E+02  0.00000000000E+00 0. -1.
         11    1    4    4    0    0 -0.55674507246E+02 -0.46603107380E+02 -0.36604794992E+03  0.37317904820E+03  0.00000000000E+00 0.  1.
</event>
<event>
 8    1  0.7102339E-009  0.2270553E+03  0.7561462E-02  0.1128730E+00
         -2   -1    0    0    0  501 -0.00000000000E+00  0.00000000000E+00  0.38491348315E+03  0.38491348315E+03  0.00000000000E+00 0.  1.
          2   -1    0    0  501    0  0.00000000000E+00 -0.00000000000E+00 -0.17196627812E+03  0.17196627812E+03  0.00000000000E+00 0. -1.
         25    2    1    2    0    0  0.16221309204E+03  0.15769915557E+03  0.16771314348E+03  0.30815134598E+03  0.12508973834E+03 0.  0.
         23    2    1    2    0    0 -0.16221309204E+03 -0.15769915557E+03  0.45234061555E+02  0.24872841529E+03  0.92938653682E+02 0.  0.
          5    1    3    3  502    0  0.58820161135E+02  0.57971394733E+02 -0.57480508406E+01  0.82891534259E+02  0.41800000000E+01 0. -1.
         -5    1    3    3    0  502  0.10339293090E+03  0.99727760841E+02  0.17346119432E+03  0.22525981172E+03  0.41800000000E+01 0. -1.
        -11    1    4    4    0    0 -0.51650319039E+02 -0.34197957266E+02  0.54780074764E+02  0.82692879556E+02  0.00000000000E+00 0. -1.
         11    1    4    4    0    0 -0.11056277300E+03 -0.12350119831E+03 -0.95460132094E+01  0.16603553573E+03  0.00000000000E+00 0.  1.
</event>
<event>
 8    1  0.7102339E-009  0.9390764E+02  0.7561462E-02  0.1293655E+00
         -3   -1    0    0    0  501 -0.00000000000E+00  0.00000000000E+00  0.28650500708E+02  0.28650500708E+02  0.00000000000E+00 0.  1.
          3   -1    0    0  501    0  0.00000000000E+00 -0.00000000000E+00 -0.62955462460E+03  0.62955462460E+03  0.00000000000E+00 0. -1.
         25    2    1    2    0    0  0.11487520029E+02 -0.48491176237E+02 -0.48477803512E+03  0.50313108469E+03  0.12509111782E+03 0.  0.
         23    2    1    2    0    0 -0.11487520029E+02  0.48491176237E+02 -0.11612608877E+03  0.15507404062E+03  0.89885106059E+02 0.  0.
          5    1    3    3  502    0  0.39662474013E+02 -0.60704378226E+02 -0.14731247886E+03  0.16424546328E+03  0.41800000000E+01 0. -1.
         -5    1    3    3    0  502 -0.28174953984E+02  0.12213201989E+02 -0.33746555626E+03  0.33888562141E+03  0.41800000000E+01 0. -1.
        -11    1    4    4    0    0  0.28615972280E+02  0.17924636301E+02 -0.64709237417E+01  0.34380798568E+02  0.00000000000E+00 0. -1.
         11    1    4    4    0    0 -0.40103492309E+02  0.30566539936E+02 -0.10965516503E+03  0.12069324205E+03  0.00000000000E+00 0.  1.
</event>
<event>
 8    1  0.7102339E-009  0.1259421E+03  0.7561462E-02  0.1233604E+00
          2   -1    0    0  501    0  0.00000000000E+00  0.00000000000E+00  0.36295609835E+04  0.36295609835E+04  0.00000000000E+00 0. -1.
         -2   -1    0    0    0  501 -0.00000000000E+00 -0.00000000000E+00 -0.83577602356E+01  0.83577602356E+01  0.00000000000E+00 0.  1.
         25    2    1    2    0    0 -0.65796392092E+02 -0.14305888980E+02  0.31470611456E+04  0.31502660606E+04  0.12509426382E+03 0.  0.
         23    2    1    2    0    0  0.65796392092E+02  0.14305888980E+02  0.47414207766E+03  0.48765268311E+03  0.91981551801E+02 0.  0.
          5    1    3    3  502    0  0.15288641410E+02 -0.48699821169E+02  0.87815832093E+03  0.87965045566E+03  0.41800000000E+01 0.  1.
         -5    1    3    3    0  502 -0.81085033502E+02  0.34393932190E+02  0.22689028247E+04  0.22706156049E+04  0.41800000000E+01 0.  1.
        -11    1    4    4    0    0  0.84627526249E+02 -0.59494677999E+01  0.38852938326E+03  0.39768366326E+03  0.00000000000E+00 0. -1.
         11    1    4    4    0    0 -0.18831134157E+02  0.20255356780E+02  0.85612694399E+02  0.89969019858E+02  0.00000000000E+00 0.  1.
</event>
<event>
 8    1  0.7102339E-009  0.1158010E+03  0.7561462E-02  0.1250189E+00
         -3   -1    0    0    0  501 -0.00000000000E+00  0.00000000000E+00  0.35764822670E+03  0.35764822670E+03  0.00000000000E+00 0.  1.
          3   -1    0    0  501    0  0.00000000000E+00 -0.00000000000E+00 -0.95866089416E+02  0.95866089416E+02  0.00000000000E+00 0. -1.
         25    2    1    2    0    0  0.64278138110E+01 -0.69618165210E+02  0.29890791792E+03  0.33148226846E+03  0.12508615109E+03 0.  0.
         23    2    1    2    0    0 -0.64278138110E+01  0.69618165210E+02 -0.37125780638E+02  0.12203204765E+03  0.92873523395E+02 0.  0.
          5    1    3    3  502    0 -0.31127470415E+02  0.52431507151E+01  0.14533662567E+02  0.35001568414E+02  0.41800000000E+01 0.  1.
         -5    1    3    3    0  502  0.37555284226E+02 -0.74861315925E+02  0.28437425535E+03  0.29648070005E+03  0.41800000000E+01 0.  1.
        -11    1    4    4    0    0 -0.47629288408E+02  0.20665978120E+02 -0.11972391452E+02  0.53281984976E+02  0.00000000000E+00 0.  1.
         11    1    4    4    0    0  0.41201474597E+02  0.48952187090E+02 -0.25153389186E+02  0.68750062672E+02  0.00000000000E+00 0. -1.
</event>
<event>
 8    1  0.7102339E-009  0.2187458E+03  0.7561462E-02  0.1134822E+00
          1   -1    0    0  501    0  0.00000000000E+00  0.00000000000E+00  0.13513143319E+04  0.13513143319E+04  0.00000000000E+00 0. -1.
         -1   -1    0    0    0  501 -0.00000000000E+00 -0.00000000000E+00 -0.49618776248E+02  0.49618776248E+02  0.00000000000E+00 0.  1.
         25    2    1    2    0    0 -0.20623558912E+03 -0.43407708626E+02  0.39073923246E+03  0.46123941198E+03  0.12508916816E+03 0.  0.
         23    2    1    2    0    0  0.20623558912E+03  0.43407708626E+02  0.91095632315E+03  0.93969369613E+03  0.93624101976E+02 0.  0.
          5    1    3    3  502    0 -0.87672589377E+02 -0.15278390886E+02  0.28906536361E+03  0.30248333672E+03  0.41800000000E+01 0.  1.
         -5    1    3    3    0  502 -0.11856299974E+03 -0.28129317740E+02  0.10167386886E+03  0.15875607526E+03  0.41800000000E+01 0.  1.
        -11    1    4    4    0    0  0.10880559175E+03  0.64913995454E+02  0.41967387028E+03  0.43838184383E+03  0.00000000000E+00 0.  1.
         11    1    4    4    0    0  0.97429997370E+02 -0.21506286828E+02  0.49128245286E+03  0.50131185230E+03  0.00000000000E+00 0. -1.
</event>
<event>
 8    1  0.7102339E-009  0.1154763E+03  0.7561462E-02  0.1250752E+00
         -2   -1    0    0    0  501 -0.00000000000E+00  0.00000000000E+00  0.50566696876E+02  0.50566696876E+02  0.00000000000E+00 0.  1.
          2   -1    0    0  501    0  0.00000000000E+00 -0.00000000000E+00 -0.40766193272E+03  0.40766193272E+03  0.00000000000E+00 0. -1.
         25    2    1    2    0    0 -0.65415497631E+01 -0.90784744256E+02 -0.16164053431E+03  0.22373900683E+03  0.12508724628E+03 0.  0.
         23    2    1    2    0    0  0.65415497631E+01  0.90784744256E+02 -0.19545470154E+03  0.23448962277E+03  0.92185580061E+02 0.  0.
          5    1    3    3  502    0  0.18846487972E+02 -0.34847194312E+02  0.10266083449E+02  0.41138569855E+02  0.41800000000E+01 0. -1.
         -5    1    3    3    0  502 -0.25388037736E+02 -0.55937549944E+02 -0.17190661776E+03  0.18260043697E+03  0.41800000000E+01 0. -1.
        -11    1    4    4    0    0  0.90613623362E+01  0.10989529046E+03 -0.16567696541E+03  0.19901743648E+03  0.00000000000E+00 0.  1.
         11    1    4    4    0    0 -0.25198125731E+01 -0.19110546208E+02 -0.29777736127E+02  0.35472186296E+02  0.00000000000E+00 0. -1.
</event>
<event>
 8    1  0.7102339E-009  0.1172960E+03  0.7561462E-02  0.1247626E+00
          2   -1    0    0  501    0  0.00000000000E+00  0.00000000000E+00  0.77572214679E+03  0.77572214679E+03  0.00000000000E+00 0. -1.
         -2   -1    0    0    0  501 -0.00000000000E+00 -0.00000000000E+00 -0.20935526705E+02  0.20935526705E+02  0.00000000000E+00 0.  1.
         25    2    1    2    0    0  0.71704388769E+02  0.10717187886E+02  0.49597934415E+03  0.51661849162E+03  0.12507109407E+03 0.  0.
         23    2    1    2    0    0 -0.71704388769E+02 -0.10717187886E+02  0.25880727594E+03  0.28003918188E+03  0.78640700826E+02 0.  0.
          5    1    3    3  502    0  0.43616603936E+02 -0.46423768286E+02  0.36929874294E+03  0.37477541053E+03  0.41800000000E+01 0.  1.
         -5    1    3    3    0  502  0.28087784833E+02  0.57140956171E+02  0.12668060121E+03  0.14184308109E+03  0.41800000000E+01 0.  1.
        -11    1    4    4    0    0 -0.19562550386E+00  0.26385710636E+02  0.65796493134E+02  0.70890214443E+02  0.00000000000E+00 0.  1.
         11    1    4    4    0    0 -0.71508763265E+02 -0.37102898522E+02  0.19301078280E+03  0.20914896744E+03  0.00000000000E+00 0. -1.
</event>
<event>
 8    1  0.7102339E-009  0.3094239E+03  0.7561462E-02  0.1080622E+00
          2   -1    0    0  501    0  0.00000000000E+00  0.00000000000E+00  0.16428824974E+04  0.16428824974E+04  0.00000000000E+00 0.  1.
         -2   -1    0    0    0  501 -0.00000000000E+00 -0.00000000000E+00 -0.61241412030E+02  0.61241412030E+02  0.00000000000E+00 0. -1.
         25    2    1    2    0    0  0.41659048946E+02 -0.29248830464E+03  0.90038027372E+03  0.95583321656E+03  0.12509043077E+03 0.  0.
         23    2    1    2    0    0 -0.41659048946E+02  0.29248830464E+03  0.68126081169E+03  0.74829069291E+03  0.92400123586E+02 0.  0.
          5    1    3    3  502    0  0.43435211994E+02 -0.42607443846E+02  0.97961960592E+02  0.11539510403E+03  0.41800000000E+01 0. -1.
         -5    1    3    3    0  502 -0.17761630487E+01 -0.24988086079E+03  0.80241831313E+03  0.84043811253E+03  0.41800000000E+01 0. -1.
        -11    1    4    4    0    0 -0.66264144811E+02  0.15990812375E+03  0.42036898038E+03  0.45461150952E+03  0.00000000000E+00 0. -1.
         11    1    4    4    0    0  0.24605095866E+02  0.13258018089E+03  0.26089183132E+03  0.29367918339E+03  0.00000000000E+00 0.  1.
</event>
<event>
 8    1  0.7102339E-009  0.9935300E+02  0.7561462E-02  0.1281662E+00
          3   -1    0    0  501    0  0.00000000000E+00  0.00000000000E+00  0.12841012573E+03  0.12841012573E+03  0.00000000000E+00 0. -1.
         -3   -1    0    0    0  501 -0.00000000000E+00 -0.00000000000E+00 -0.11814233362E+03  0.11814233362E+03  0.00000000000E+00 0.  1.
         25    2    1    2    0    0 -0.38363087305E+02  0.26856440282E+02  0.40798725744E+02  0.13966093953E+03  0.12509055582E+03 0.  0.
         23    2    1    2    0    0  0.38363087305E+02 -0.26856440282E+02 -0.30530933630E+02  0.10689151982E+03  0.91107981261E+02 0.  0.
          5    1    3    3  502    0 -0.44419870698E+02 -0.20175510879E+02 -0.27690183199E+02  0.56252953679E+02  0.41800000000E+01 0.  1.
         -5    1    3    3    0  502  0.60567833926E+01  0.47031951161E+02  0.68488908943E+02  0.83407985848E+02  0.41800000000E+01 0.  1.
        -11    1    4    4    0    0  0.35003125185E+02  0.29441057798E+02 -0.17764115019E+02  0.49066877213E+02  0.00000000000E+00 0. -1.
         11    1    4    4    0    0  0.33599621205E+01 -0.56297498080E+02 -0.12766818611E+02  0.57824642610E+02  0.00000000000E+00 0.  1.
</event>
<event>
 8    1  0.7102339E-009  0.7184883E+02  0.7561462E-02  0.1353917E+00
          1   -1    0    0  501    0  0.00000000000E+00  0.00000000000E+00  0.41138400435E+02  0.41138400435E+02  0.00000000000E+00 0. -1.
         -1   -1    0    0    0  501 -0.00000000000E+00 -0.00000000000E+00 -0.41135423084E+03  0.41135423084E+03  0.00000000000E+00 0.  1.
         25    2    1    2    0    0  0.42773705458E+02 -0.20230071028E+02 -0.30043842736E+03  0.32886329061E+03  0.12509584174E+03 0.  0.
         23    2    1    2    0    0 -0.42773705458E+02  0.20230071028E+02 -0.69777403046E+02  0.12362934067E+03  0.90423903069E+02 0.  0.
          5    1    3    3  502    0  0.61530559031E+02 -0.45657097460E+01 -0.29754392353E+03  0.30390247486E+03  0.41800000000E+01 0. -1.
         -5    1    3    3    0  502 -0.18756853572E+02 -0.15664361282E+02 -0.28945038368E+01  0.24960815747E+02  0.41800000000E+01 0. -1.
        -11    1    4    4    0    0 -0.17495524261E+02  0.25806611510E+02 -0.87079915728E+02  0.92493168883E+02  0.00000000000E+00 0.  1.
         11    1    4    4    0    0 -0.25278181197E+02 -0.55765404823E+01  0.17302512683E+02  0.31136171786E+02  0.00000000000E+00 0. -1.
</event>
<event>
 8    1  0.7102339E-009  0.9259066E+02  0.7561462E-02  0.1296697E+00
          2   -1    0    0  501    0  0.00000000000E+00  0.00000000000E+00  0.32274594727E+02  0.32274594727E+02  0.00000000000E+00 0. -1.
         -2   -1    0    0    0  501 -0.00000000000E+00 -0.00000000000E+00 -0.47345518384E+03  0.47345518384E+03  0.00000000000E+00 0.  1.
         25    2    1    2    0    0  0.32737911455E+02 -0.45645013268E+02 -0.21223769939E+03  0.25268157476E+03  0.12509156285E+03 0.  0.
         23    2    1    2    0    0 -0.32737911455E+02  0.45645013268E+02 -0.22894288973E+03  0.25304820381E+03  0.91996242396E+02 0.  0.
          5    1    3    3  502    0  0.33191820566E+02 -0.70890310413E+02 -0.61086313144E+02  0.99378786048E+02  0.41800000000E+01 0.  1.
         -5    1    3    3    0  502 -0.45390911141E+00  0.25245297145E+02 -0.15115138625E+03  0.15330278871E+03  0.41800000000E+01 0.  1.
        -11    1    4    4    0    0 -0.49668975160E+02  0.38412804420E+02 -0.22580403734E+03  0.23437152966E+03  0.00000000000E+00 0.  1.
         11    1    4    4    0    0  0.16931063705E+02  0.72322088482E+01 -0.31388523827E+01  0.18676674150E+02  0.00000000000E+00 0. -1.
</event>
<event>
 8    1  0.7102339E-009  0.1704438E+03  0.7561462E-02  0.1177386E+00
          1   -1    0    0  501    0  0.00000000000E+00  0.00000000000E+00  0.18433191153E+04  0.18433191153E+04  0.00000000000E+00 0. -1.
         -1   -1    0    0    0  501 -0.00000000000E+00 -0.00000000000E+00 -0.19646168432E+02  0.19646168432E+02  0.00000000000E+00 0.  1.
         25    2    1    2    0    0 -0.63029994051E+02  0.12193877120E+03  0.13150869595E+04  0.13281350857E+04  0.12508897135E+03 0.  0.
         23    2    1    2    0    0  0.63029994051E+02 -0.12193877120E+03  0.50858598730E+03  0.53483019796E+03  0.92421805336E+02 0.  0.
          5    1    3    3  502    0 -0.96609620577E+02  0.88266561685E+02  0.11029194705E+04  0.11106634213E+04  0.41800000000E+01 0. -1.
         -5    1    3    3    0  502  0.33579626526E+02  0.33672209519E+02  0.21216748908E+03  0.21747166444E+03  0.41800000000E+01 0. -1.
        -11    1    4    4    0    0  0.73223678465E+02 -0.47930506677E+02  0.32622589163E+03  0.33776082207E+03  0.00000000000E+00 0.  1.
         11    1    4    4    0    0 -0.10193684414E+02 -0.74008264527E+02  0.18236009567E+03  0.19706937589E+03  0.00000000000E+00 0. -1.
</event>
<event>
 8    1  0.7102339E-009  0.1232305E+03  0.7561462E-02  0.1237861E+00
         -2   -1    0    0    0  501 -0.00000000000E+00  0.00000000000E+00  0.17575655376E+03  0.17575655376E+03  0.00000000000E+00 0.  1.
          2   -1    0    0  501    0  0.00000000000E+00 -0.00000000000E+00 -0.11030832536E+03  0.11030832536E+03  0.00000000000E+00 0. -1.
         25    2    1    2    0    0 -0.44690642024E+02  0.92093736570E+01  0.97038603690E+02  0.16475919880E+03  0.12508811668E+03 0.  0.
         23    2    1    2    0    0  0.44690642024E+02 -0.92093736570E+01 -0.31590375297E+02  0.12130568033E+03  0.10786588997E+03 0.  0.
          5    1    3    3  502    0  0.71634110661E+01 -0.52045162936E+02  0.41315020208E+02  0.66965787816E+02  0.41800000000E+01 0. -1.
         -5    1    3    3    0  502 -0.51854053090E+02  0.61254536593E+02  0.55723583482E+02  0.97793410980E+02  0.41800000000E+01 0. -1.
        -11    1    4    4    0    0  0.12240564201E+02  0.46958121738E+02 -0.28688893856E+02  0.56373302545E+02  0.00000000000E+00 0. -1.
         11    1    4    4    0    0  0.32450077823E+02 -0.56167495395E+02 -0.29014814408E+01  0.64932377780E+02  0.00000000000E+00 0.  1.
</event>
<event>
 8    1  0.7102339E-009  0.8487347E+02  0.7561462E-02  0.1315764E+00
         -2   -1    0    0    0  501 -0.00000000000E+00  0.00000000000E+00  0.22477231610E+03  0.22477231610E+03  0.00000000000E+00 0.  1.
          2   -1    0    0  501    0  0.00000000000E+00 -0.00000000000E+00 -0.56502350954E+02  0.56502350954E+02  0.00000000000E+00 0. -1.
         25    2    1    2    0    0  0.16603647942E+02  0.21564790873E+02  0.80700179344E+02  0.15135086074E+03  0.12511531789E+03 0.  0.
         23    2    1    2    0    0 -0.16603647942E+02 -0.21564790873E+02  0.87569785806E+02  0.12992380632E+03  0.92038072183E+02 0.  0.
          5    1    3    3  502    0  0.34377679056E+01 -0.26789242944E+02  0.95174445356E+02  0.99020852524E+02  0.41800000000E+01 0. -1.
         -5    1    3    3    0  502  0.13165880037E+02  0.48354033817E+02 -0.14474266012E+02  0.52330008218E+02  0.41800000000E+01 0. -1.
        -11    1    4    4    0    0  0.32835848172E+02 -0.26837663100E+02  0.22422154624E+02  0.47970888087E+02  0.00000000000E+00 0. -1.
         11    1    4    4    0    0 -0.49439496115E+02  0.52728722270E+01  0.65147631182E+02  0.81952918229E+02  0.00000000000E+00 0.  1.
</event>
<event>
 8    1  0.7102339E-009  0.1033936E+03  0.7561462E-02  0.1273317E+00
          1   -1    0    0  501    0  0.00000000000E+00  0.00000000000E+00  0.95135986854E+03  0.95135986854E+03  0.00000000000E+00 0. -1.
         -1   -1    0    0    0  501 -0.00000000000E+00 -0.00000000000E+00 -0.13127241058E+02  0.13127241058E+02  0.00000000000E+00 0.  1.
         25    2    1    2    0    0  0.24802720003E+02 -0.80871230078E+01  0.51997782225E+03  0.53544641328E+03  0.12508137105E+03 0.  0.
         23    2    1    2    0    0 -0.24802720003E+02  0.80871230078E+01  0.41825480523E+03  0.42904069632E+03  0.91968801889E+02 0.  0.
          5    1    3    3  502    0 -0.41871598326E+02  0.96934003327E+01  0.88582107345E+02  0.98546714293E+02  0.41800000000E+01 0. -1.
         -5    1    3    3    0  502  0.66674318329E+02 -0.17780523340E+02  0.43139571491E+03  0.43689969899E+03  0.41800000000E+01 0. -1.
        -11    1    4    4    0    0 -0.36391843080E+02  0.43789896650E+02  0.21897131785E+03  0.22625286591E+03  0.00000000000E+00 0.  1.
         11    1    4    4    0    0  0.11589123077E+02 -0.35702773642E+02  0.19928348738E+03  0.20278783041E+03  0.00000000000E+00 0. -1.
</event>
<event>
 8    1  0.7102339E-009  0.9232729E+02  0.7561462E-02  0.1297312E+00
          1   -1    0    0  501    0  0.00000000000E+00  0.00000000000E+00  0.35117746144E+02  0.35117746144E+02  0.00000000000E+00 0. -1.
         -1   -1    0    0    0  501 -0.00000000000E+00 -0.00000000000E+00 -0.44575099571E+03  0.44575099571E+03  0.00000000000E+00 0.  1.
         25    2    1    2    0    0  0.48368388709E+02  0.38834815507E+02 -0.21925428881E+03  0.25993498696E+03  0.12508441295E+03 0.  0.
         23    2    1    2    0    0 -0.48368388709E+02 -0.38834815507E+02 -0.19137896076E+03  0.22093375489E+03  0.91313599803E+02 0.  0.
          5    1    3    3  502    0  0.67594105231E+01 -0.30274205286E+02 -0.59663740948E+01  0.31863570989E+02  0.41800000000E+01 0.  1.
         -5    1    3    3    0  502  0.41608978186E+02  0.69109020793E+02 -0.21328791472E+03  0.22807141597E+03  0.41800000000E+01 0.  1.
        -11    1    4    4    0    0 -0.39184235130E+02 -0.74617059174E+01 -0.18284925563E+03  0.18714949004E+03  0.00000000000E+00 0.  1.
         11    1    4    4    0    0 -0.91841535792E+01 -0.31373109589E+02 -0.85297051308E+01  0.33784264856E+02  0.00000000000E+00 0. -1.
</event>
<event>
 7    1  0.7102339E-009  0.1729248E+03  0.7561462E-02  0.1174832E+00
         -2   -1    0    0    0  501 -0.00000000000E+00  0.00000000000E+00  0.10413927833E+04  0.10413927833E+04  0.00000000000E+00 0.  1.
          2   -1    0    0  501    0  0.00000000000E+00 -0.00000000000E+00 -0.29691389052E+02  0.29691389052E+02  0.00000000000E+00 0. -1.
         25    2    1    2    0    0 -0.30105626954E+02  0.10376871152E+03  0.47767183840E+03  0.50546252981E+03  0.12509072541E+03 0.  0.
          5    1    3    3  502    0  0.39360025104E+02  0.55240296005E+01  0.72548094069E+02  0.82827681558E+02  0.41800000000E+01 0.  1.
         -5    1    3    3    0  502 -0.69465652057E+02  0.98244681923E+02  0.40512374433E+03  0.42263484826E+03  0.41800000000E+01 0.  1.
        -11    1    1    2    0    0  0.22044379264E+01  0.39483718616E+02  0.13808934443E+03  0.14364014282E+03  0.00000000000E+00 0. -1.
         11    1    1    2    0    0  0.27901189027E+02 -0.14325243014E+03  0.39594021141E+03  0.42198149971E+03  0.00000000000E+00 0.  1.
</event>
<event>
 8    1  0.7102339E-009  0.9993181E+02  0.7561462E-02  0.1280439E+00
         -4   -1    0    0    0  501 -0.00000000000E+00  0.00000000000E+00  0.25908561674E+03  0.25908561674E+03  0.00000000000E+00 0.  1.
          4   -1    0    0  501    0  0.00000000000E+00 -0.00000000000E+00 -0.48543681308E+02  0.48543681308E+02  0.00000000000E+00 0. -1.
         25    2    1    2    0    0 -0.20161419768E+02  0.91744922941E+01  0.10250183253E+03  0.16322962145E+03  0.12508648804E+03 0.  0.
         23    2    1    2    0    0  0.20161419768E+02 -0.91744922941E+01  0.10804010290E+03  0.14439967660E+03  0.93209165919E+02 0.  0.
          5    1    3    3  502    0 -0.20984790007E+01  0.63514888120E+02  0.78276520590E+02  0.10091199484E+03  0.41800000000E+01 0. -1.
         -5    1    3    3    0  502 -0.18062940767E+02 -0.54340395826E+02  0.24225311941E+02  0.62317626610E+02  0.41800000000E+01 0. -1.
        -11    1    4    4    0    0  0.30461433314E+02 -0.37679044609E+02  0.10279380849E+03  0.11364055784E+03  0.00000000000E+00 0.  1.
         11    1    4    4    0    0 -0.10300013546E+02  0.28504552315E+02  0.52462944087E+01  0.30759118758E+02  0.00000000000E+00 0. -1.
</event>
<event>
 8    1  0.7102339E-009  0.1440627E+03  0.7561462E-02  0.1207965E+00
          2   -1    0    0  501    0  0.00000000000E+00  0.00000000000E+00  0.12252409300E+03  0.12252409300E+03  0.00000000000E+00 0. -1.
         -2   -1    0    0    0  501 -0.00000000000E+00 -0.00000000000E+00 -0.28018731293E+03  0.28018731293E+03  0.00000000000E+00 0.  1.
         25    2    1    2    0    0  0.10529449568E+03  0.88397502094E+01  0.32261885530E+02  0.16689193913E+03  0.12508804133E+03 0.  0.
         23    2    1    2    0    0 -0.10529449568E+03 -0.88397502094E+01 -0.18992510546E+03  0.23581946681E+03  0.91510672798E+02 0.  0.
          5    1    3    3  502    0  0.96145401709E+02 -0.46292324931E+02  0.29457443302E+02  0.11077965058E+03  0.41800000000E+01 0.  1.
         -5    1    3    3    0  502  0.91490939725E+01  0.55132075140E+02  0.28044422286E+01  0.56112288547E+02  0.41800000000E+01 0.  1.
        -11    1    4    4    0    0 -0.53096691712E+02  0.29300221837E+02 -0.14478319764E+03  0.15697113107E+03  0.00000000000E+00 0.  1.
         11    1    4    4    0    0 -0.52197803970E+02 -0.38139972047E+02 -0.45141907826E+02  0.78848335742E+02  0.00000000000E+00 0. -1.
</event>
<event>
 8    1  0.7102339E-009  0.9510373E+02  0.7561462E-02  0.1290943E+00
         -2   -1    0    0    0  501 -0.00000000000E+00  0.00000000000E+00  0.41645449612E+02  0.41645449612E+02  0.00000000000E+00 0.  1.
          2   -1    0    0  501    0  0.00000000000E+00 -0.00000000000E+00 -0.42392945496E+03  0.42392945496E+03  0.00000000000E+00 0. -1.
         25    2    1    2    0    0 -0.11923398585E+02  0.45896514389E+02 -0.10408863018E+03  0.16951592922E+03  0.12511015091E+03 0.  0.
         23    2    1    2    0    0  0.11923398585E+02 -0.45896514389E+02 -0.27819537517E+03  0.29605897535E+03  0.89496327590E+02 0.  0.
          5    1    3    3  502    0 -0.51726274851E+02  0.29784003529E+02 -0.11073203938E+03  0.12586401917E+03  0.41800000000E+01 0. -1.
         -5    1    3    3    0  502  0.39802876266E+02  0.16112510860E+02  0.66434092035E+01  0.43651910051E+02  0.41800000000E+01 0. -1.
        -11    1    4    4    0    0 -0.29511669529E+02 -0.68517657624E+01 -0.18017126804E+03  0.18270076945E+03  0.00000000000E+00 0. -1.
         11    1    4    4    0    0  0.41435068114E+02 -0.39044748627E+02 -0.98024107131E+02  0.11335820589E+03  0.00000000000E+00 0.  1.
</event>
<event>
 8    1  0.7102339E-009  0.7205444E+02  0.7561462E-02  0.1353243E+00
         -2   -1    0    0    0  501 -0.00000000000E+00  0.00000000000E+00  0.29122029973E+02  0.29122029973E+02  0.00000000000E+00 0.  1.
          2   -1    0    0  501    0  0.00000000000E+00 -0.00000000000E+00 -0.72746952076E+03  0.72746952076E+03  0.00000000000E+00 0. -1.
         25    2    1    2    0    0 -0.45189601136E+02  0.78414197193E+01 -0.60053793442E+03  0.61513831827E+03  0.12508298053E+03 0.  0.
         23    2    1    2    0    0  0.45189601136E+02 -0.78414197193E+01 -0.97809556375E+02  0.14145323247E+03  0.91316590733E+02 0.  0.
          5    1    3    3  502    0 -0.39089955228E+02 -0.17315532810E+02 -0.59082701628E+02  0.73048547610E+02  0.41800000000E+01 0. -1.
         -5    1    3    3    0  502 -0.60996459074E+01  0.25156952530E+02 -0.54145523279E+03  0.54208977066E+03  0.41800000000E+01 0. -1.
        -11    1    4    4    0    0  0.24426079995E+02 -0.33791924820E+02 -0.99798937461E+02  0.10815893623E+03  0.00000000000E+00 0. -1.
         11    1    4    4    0    0  0.20763521140E+02  0.25950505101E+02  0.19893810863E+01  0.33294296242E+02  0.00000000000E+00 0.  1.
</event>
<event>
 8    1  0.7102339E-009  0.2283852E+03  0.7561462E-02  0.1127782E+00
          2   -1    0    0  501    0  0.00000000000E+00  0.00000000000E+00  0.70439341945E+03  0.70439341945E+03  0.00000000000E+00 0. -1.
         -2   -1    0    0    0  501 -0.00000000000E+00 -0.00000000000E+00 -0.93470910630E+02  0.93470910630E+02  0.00000000000E+00 0.  1.
         25    2    1    2    0    0 -0.21308002476E+03  0.48104970059E+02  0.19083087105E+03  0.31588242630E+03  0.12509236908E+03 0.  0.
         23    2    1    2    0    0  0.21308002476E+03 -0.48104970059E+02  0.42009163777E+03  0.48198190378E+03  0.90068786792E+02 0.  0.
          5    1    3    3  502    0 -0.12374422145E+03  0.11845667558E+02  0.29403740182E+02  0.12780846810E+03  0.41800000000E+01 0. -1.
         -5    1    3    3    0  502 -0.89335803308E+02  0.36259302502E+02  0.16142713087E+03  0.18807395820E+03  0.41800000000E+01 0. -1.
        -11    1    4    4    0    0  0.14735813859E+03  0.10632625188E+02  0.24942358870E+03  0.28989584393E+03  0.00000000000E+00 0.  1.
         11    1    4    4    0    0  0.65721886169E+02 -0.58737595247E+02  0.17066804907E+03  0.19208605985E+03  0.00000000000E+00 0. -1.
</event>
<event>
 8    1  0.7102339E-009  0.1035968E+03  0.7561462E-02  0.1272909E+00
         -1   -1    0    0    0  501 -0.00000000000E+00  0.00000000000E+00  0.55963201861E+02  0.55963201861E+02  0.00000000000E+00 0.  1.
          1   -1    0    0  501    0  0.00000000000E+00 -0.00000000000E+00 -0.27217325784E+03  0.27217325784E+03  0.00000000000E+00 0. -1.
         25    2    1    2    0    0  0.20865652602E+02  0.46868858475E+02 -0.14606093825E+03  0.19903129693E+03  0.12509034385E+03 0.  0.
         23    2    1    2    0    0 -0.20865652602E+02 -0.46868858475E+02 -0.70149117727E+02  0.12910516276E+03  0.95473446470E+02 0.  0.
          5    1    3    3  502    0  0.52468684911E+02 -0.19576343621E+02 -0.91409885554E+02  0.10728203812E+03  0.41800000000E+01 0.  1.
         -5    1    3    3    0  502 -0.31603032309E+02  0.66445202097E+02 -0.54651052694E+02  0.91749258816E+02  0.41800000000E+01 0.  1.
        -11    1    4    4    0    0  0.18222473417E+02 -0.29254748169E+02  0.11955528327E+02  0.36480590531E+02  0.00000000000E+00 0.  1.
         11    1    4    4    0    0 -0.39088126019E+02 -0.17614110306E+02 -0.82104646054E+02  0.92624572232E+02  0.00000000000E+00 0. -1.
</event>
<event>
 8    1  0.7102339E-009  0.1035853E+03  0.7561462E-02  0.1272932E+00
          2   -1    0    0  501    0  0.00000000000E+00  0.00000000000E+00  0.77448873372E+03  0.77448873372E+03  0.00000000000E+00 0.  1.
         -2   -1    0    0    0  501 -0.00000000000E+00 -0.00000000000E+00 -0.19796411555E+02  0.19796411555E+02  0.00000000000E+00 0. -1.
         25    2    1    2    0    0  0.19046860691E+02 -0.12319670733E+02  0.60255911532E+03  0.61582386388E+03  0.12508791583E+03 0.  0.
         23    2    1    2    0    0 -0.19046860691E+02  0.12319670733E+02  0.15213320685E+03  0.17846128139E+03  0.90495077992E+02 0.  0.
          5    1    3    3  502    0  0.48643850711E+02 -0.47656366476E+02  0.21638451675E+03  0.22688562089E+03  0.41800000000E+01 0.  1.
         -5    1    3    3    0  502 -0.29596990020E+02  0.35336695743E+02  0.38617459856E+03  0.38893824299E+03  0.41800000000E+01 0.  1.
        -11    1    4    4    0    0 -0.48410626144E+02  0.31345283937E+02  0.10450659574E+03  0.11936391457E+03  0.00000000000E+00 0. -1.
         11    1    4    4    0    0  0.29363765454E+02 -0.19025613203E+02  0.47626611111E+02  0.59097366822E+02  0.00000000000E+00 0.  1.
</event>
<event>
 8    1  0.7102339E-009  0.6573785E+02  0.7561462E-02  0.1375217E+00
         -1   -1    0    0    0  501 -0.00000000000E+00  0.00000000000E+00  0.42642375719E+03  0.42642375719E+03  0.00000000000E+00 0.  1.
          1   -1    0    0  501    0  0.00000000000E+00 -0.00000000000E+00 -0.35571306820E+02  0.35571306820E+02  0.00000000000E+00 0. -1.
         25    2    1    2    0    0  0.10226140989E+02 -0.44336708557E+02  0.15181759757E+03  0.20190566342E+03  0.12508795428E+03 0.  0.
         23    2    1    2    0    0 -0.10226140989E+02  0.44336708557E+02  0.23903485280E+03  0.26008940059E+03  0.91861405166E+02 0.  0.
          5    1    3    3  502    0 -0.54752187378E+01 -0.30563736279E+02  0.17063286507E+03  0.17348535107E+03  0.41800000000E+01 0. -1.
         -5    1    3    3    0  502  0.15701359727E+02 -0.13772972278E+02 -0.18815267503E+02  0.28420312346E+02  0.41800000000E+01 0. -1.
        -11    1    4    4    0    0  0.21933432942E+01  0.59333139970E+02  0.23185480348E+03  0.23933633688E+03  0.00000000000E+00 0.  1.
         11    1    4    4    0    0 -0.12419484283E+02 -0.14996431414E+02  0.71800493191E+01  0.20753063707E+02  0.00000000000E+00 0. -1.
</event>
<event>
 8    1  0.7102339E-009  0.8069424E+02  0.7561462E-02  0.1327093E+00
          2   -1    0    0  501    0  0.00000000000E+00  0.00000000000E+00  0.83329447807E+03  0.83329447807E+03  0.00000000000E+00 0. -1.
         -2   -1    0    0    0  501 -0.00000000000E+00 -0.00000000000E+00 -0.21133868623E+02  0.21133868623E+02  0.00000000000E+00 0.  1.
         25    2    1    2    0    0  0.29659211367E+02  0.53808363925E+02  0.59530357060E+03  0.61139679082E+03  0.12507871841E+03 0.  0.
         23    2    1    2    0    0 -0.29659211367E+02 -0.53808363925E+02  0.21685703884E+03  0.24303155587E+03  0.90897486263E+02 0.  0.
          5    1    3    3  502    0 -0.49825457552E+01 -0.10564115569E+02  0.83264601817E+00  0.12433503100E+02  0.41800000000E+01 0.  1.
         -5    1    3    3    0  502  0.34641757122E+02  0.64372479494E+02  0.59447092459E+03  0.59896328772E+03  0.41800000000E+01 0.  1.
        -11    1    4    4    0    0  0.66648412277E+01 -0.33478598600E+02  0.15629227144E+02  0.37543433699E+02  0.00000000000E+00 0.  1.
         11    1    4    4    0    0 -0.36324052594E+02 -0.20329765325E+02  0.20122781169E+03  0.20548812217E+03  0.00000000000E+00 0. -1.
</event>
<event>
 8    1  0.7102339E-009  0.5997044E+02  0.7561462E-02  0.1397956E+00
          4   -1    0    0  501    0  0.00000000000E+00  0.00000000000E+00  0.57601507813E+02  0.57601507813E+02  0.00000000000E+00 0. -1.
         -4   -1    0    0    0  501 -0.00000000000E+00 -0.00000000000E+00 -0.29494018580E+03  0.29494018580E+03  0.00000000000E+00 0.  1.
         25    2    1    2    0    0  0.41261497276E+02 -0.19147613397E+02 -0.54286930895E+02  0.14375385880E+03  0.12509579848E+03 0.  0.
         23    2    1    2    0    0 -0.41261497276E+02  0.19147613397E+02 -0.18305174709E+03  0.20878783482E+03  0.89528071565E+02 0.  0.
          5    1    3    3  502    0  0.43340916149E+02  0.76137025950E+01  0.31167177066E+02  0.54085754188E+02  0.41800000000E+01 0. -1.
         -5    1    3    3    0  502 -0.20794188726E+01 -0.26761315992E+02 -0.85454107962E+02  0.89668104608E+02  0.41800000000E+01 0. -1.
        -11    1    4    4    0    0 -0.26315853834E+02  0.20789768622E+02 -0.18948773223E+03  0.19243268773E+03  0.00000000000E+00 0.  1.
         11    1    4    4    0    0 -0.14945643443E+02 -0.16421552249E+01  0.64359851331E+01  0.16355147090E+02  0.00000000000E+00 0. -1.
</event>
<event>
 8    1  0.7102339E-009  0.3347266E+03  0.7561462E-02  0.1069064E+00
         -2   -1    0    0    0  501 -0.00000000000E+00  0.00000000000E+00  0.53229870304E+02  0.53229870304E+02  0.00000000000E+00 0.  1.
          2   -1    0    0  501    0  0.00000000000E+00 -0.00000000000E+00 -0.23294738142E+04  0.23294738142E+04  0.00000000000E+00 0. -1.
         25    2    1    2    0    0 -0.21561719121E+03 -0.25459102844E+03 -0.10559295473E+04  0.11144244609E+04  0.12508918905E+03 0.  0.
         23    2    1    2    0    0  0.21561719121E+03  0.25459102844E+03 -0.12203143966E+04  0.12682792236E+04  0.89764122329E+02 0.  0.
          5    1    3    3  502    0 -0.15759489295E+03 -0.16818699125E+03 -0.88257065151E+03  0.91217950077E+03  0.41800000000E+01 0.  1.
         -5    1    3    3    0  502 -0.58022298257E+02 -0.86404037191E+02 -0.17335889578E+03  0.20224496010E+03  0.41800000000E+01 0.  1.
        -11    1    4    4    0    0  0.16703169062E+03  0.21392911721E+03 -0.84104210908E+03  0.88375170841E+03  0.00000000000E+00 0.  1.
         11    1    4    4    0    0  0.48585500587E+02  0.40661911231E+02 -0.37927228749E+03  0.38452751521E+03  0.00000000000E+00 0. -1.
</event>
<event>
 8    1  0.7102339E-009  0.1058202E+03  0.7561462E-02  0.1268512E+00
         -1   -1    0    0    0  501 -0.00000000000E+00  0.00000000000E+00  0.23761575093E+02  0.23761575093E+02  0.00000000000E+00 0.  1.
          1   -1    0    0  501    0  0.00000000000E+00 -0.00000000000E+00 -0.10464049878E+04  0.10464049878E+04  0.00000000000E+00 0. -1.
         25    2    1    2    0    0 -0.20928545343E+02  0.57242230832E+02 -0.87713946019E+03  0.88810749437E+03  0.12508641786E+03 0.  0.
         23    2    1    2    0    0  0.20928545343E+02 -0.57242230832E+02 -0.14550395248E+03  0.18205906849E+03  0.90881391001E+02 0.  0.
          5    1    3    3  502    0 -0.61693080213E+02  0.32443119221E+02 -0.73080482378E+03  0.73413333598E+03  0.41800000000E+01 0.  1.
         -5    1    3    3    0  502  0.40764534870E+02  0.24799111611E+02 -0.14633463641E+03  0.15397415839E+03  0.41800000000E+01 0.  1.
        -11    1    4    4    0    0 -0.24244363196E+02 -0.48298809412E+01 -0.90065137881E+02  0.93396177429E+02  0.00000000000E+00 0. -1.
         11    1    4    4    0    0  0.45172908539E+02 -0.52412349891E+02 -0.55438814603E+02  0.88662891062E+02  0.00000000000E+00 0.  1.
</event>
<event>
 8    1  0.7102339E-009  0.1625265E+03  0.7561462E-02  0.1185873E+00
         -4   -1    0    0    0  501 -0.00000000000E+00  0.00000000000E+00  0.70192279395E+02  0.70192279395E+02  0.00000000000E+00 0.  1.
          4   -1    0    0  501    0  0.00000000000E+00 -0.00000000000E+00 -0.48237736856E+03  0.48237736856E+03  0.00000000000E+00 0. -1.
         25    2    1    2    0    0  0.10372588584E+03 -0.10431824625E+03 -0.24916596071E+03  0.31523576032E+03  0.12509417538E+03 0.  0.
         23    2    1    2    0    0 -0.10372588584E+03  0.10431824625E+03 -0.16301912845E+03  0.23733388763E+03  0.90059880546E+02 0.  0.
          5    1    3    3  502    0  0.53067913821E+02  0.56180533540E+01 -0.14814188744E+03  0.15751589512E+03  0.41800000000E+01 0.  1.
         -5    1    3    3    0  502  0.50657972021E+02 -0.10993629960E+03 -0.10102407327E+03  0.15771986520E+03  0.41800000000E+01 0.  1.
        -11    1    4    4    0    0 -0.31424202050E+02  0.53451472545E+02 -0.13224644845E+02  0.63398987555E+02  0.00000000000E+00 0.  1.
         11    1    4    4    0    0 -0.72301683792E+02  0.50866773700E+02 -0.14979448361E+03  0.17393490008E+03  0.00000000000E+00 0. -1.
</event>
<event>
 8    1  0.7102339E-009  0.4528236E+03  0.7561462E-02  0.1026883E+00
          1   -1    0    0  501    0  0.00000000000E+00  0.00000000000E+00  0.12376169455E+04  0.12376169455E+04  0.00000000000E+00 0. -1.
         -1   -1    0    0    0  501 -0.00000000000E+00 -0.00000000000E+00 -0.16972511073E+03  0.16972511073E+03  0.00000000000E+00 0.  1.
         25    2    1    2    0    0  0.30565829582E+03  0.31979149158E+03  0.46351483096E+03  0.65283028303E+03  0.12509111887E+03 0.  0.
         23    2    1    2    0    0 -0.30565829582E+03 -0.31979149158E+03  0.60437700379E+03  0.75451177319E+03  0.91229717087E+02 0.  0.
          5    1    3    3  502    0  0.52895914345E+01  0.60488414683E+02  0.84004955038E+02  0.10373588077E+03  0.41800000000E+01 0.  1.
         -5    1    3    3    0  502  0.30036870438E+03  0.25930307690E+03  0.37950987592E+03  0.54909440225E+03  0.41800000000E+01 0.  1.
        -11    1    4    4    0    0 -0.15497160809E+03 -0.11170997449E+03  0.21060715983E+03  0.28434256362E+03  0.00000000000E+00 0.  1.
         11    1    4    4    0    0 -0.15068668773E+03 -0.20808151710E+03  0.39376984396E+03  0.47016920957E+03  0.00000000000E+00 0. -1.
</event>
<event>
 8    1  0.7102339E-009  0.1385674E+03  0.7561462E-02  0.1215270E+00
          1   -1    0    0  501    0  0.00000000000E+00  0.00000000000E+00  0.13337077541E+03  0.13337077541E+03  0.00000000000E+00 0. -1.
         -1   -1    0    0    0  501 -0.00000000000E+00 -0.00000000000E+00 -0.16374407753E+03  0.16374407753E+03  0.00000000000E+00 0.  1.
         25    2    1    2    0    0 -0.99370479475E+02  0.65154575661E+01 -0.77812341241E+01  0.16007761921E+03  0.12508938080E+03 0.  0.
         23    2    1    2    0    0  0.99370479475E+02 -0.65154575661E+01 -0.22592067995E+02  0.13703723373E+03  0.91388503178E+02 0.  0.
          5    1    3    3  502    0 -0.29890971426E+02 -0.46062519038E+02  0.32553855556E+02  0.63972273247E+02  0.41800000000E+01 0. -1.
         -5    1    3    3    0  502 -0.69479508050E+02  0.52577976604E+02 -0.40335089680E+02  0.96105345960E+02  0.41800000000E+01 0. -1.
        -11    1    4    4    0    0 -0.12639449328E+02 -0.18261924591E+02 -0.20852477631E+00  0.22210291571E+02  0.00000000000E+00 0. -1.
         11    1    4    4    0    0  0.11200992880E+03  0.11746467025E+02 -0.22383543218E+02  0.11482694216E+03  0.00000000000E+00 0.  1.
</event>
<event>
 8    1  0.7102339E-009  0.3837014E+03  0.7561462E-02  0.1049574E+00
         -2   -1    0    0    0  501 -0.00000000000E+00  0.00000000000E+00  0.19809549163E+03  0.19809549163E+03  0.00000000000E+00 0.  1.
          2   -1    0    0  501    0  0.00000000000E+00 -0.00000000000E+00 -0.10695061308E+04  0.10695061308E+04  0.00000000000E+00 0. -1.
         25    2    1    2    0    0  0.37093423345E+03 -0.52078646720E+02 -0.10338504048E+03  0.40821600948E+03  0.12508977901E+03 0.  0.
         23    2    1    2    0    0 -0.37093423345E+03  0.52078646720E+02 -0.76802559864E+03  0.85938561290E+03  0.91520055198E+02 0.  0.
          5    1    3    3  502    0  0.20330291855E+03 -0.87176194322E+02 -0.36154839618E+02  0.22417941559E+03  0.41800000000E+01 0. -1.
         -5    1    3    3    0  502  0.16763131490E+03  0.35097547602E+02 -0.67230200863E+02  0.18403659389E+03  0.41800000000E+01 0. -1.
        -11    1    4    4    0    0 -0.67175764646E+02  0.14975716525E+02 -0.23381492442E+03  0.24373402373E+03  0.00000000000E+00 0. -1.
         11    1    4    4    0    0 -0.30375846880E+03  0.37102930195E+02 -0.53421067422E+03  0.61565158917E+03  0.00000000000E+00 0.  1.
</event>
<event>
 8    1  0.7102339E-009  0.2041480E+03  0.7561462E-02  0.1146286E+00
          1   -1    0    0  501    0  0.00000000000E+00  0.00000000000E+00  0.14419898873E+04  0.14419898873E+04  0.00000000000E+00 0. -1.
         -1   -1    0    0    0  501 -0.00000000000E+00 -0.00000000000E+00 -0.32826319830E+02  0.32826319830E+02  0.00000000000E+00 0.  1.
         25    2    1    2    0    0  0.18068474665E+03 -0.40642900271E+02  0.79399305377E+03  0.82484666511E+03  0.12509287946E+03 0.  0.
         23    2    1    2    0    0 -0.18068474665E+03  0.40642900271E+02  0.61517051374E+03  0.64996954206E+03  0.98624650164E+02 0.  0.
          5    1    3    3  502    0 -0.10685200303E+02 -0.18528402774E+02  0.18034556036E+03  0.18165755904E+03  0.41800000000E+01 0.  1.
         -5    1    3    3    0  502  0.19136994695E+03 -0.22114497496E+02  0.61364749341E+03  0.64318910607E+03  0.41800000000E+01 0.  1.
        -11    1    4    4    0    0 -0.68560367595E+02  0.44304639819E+02  0.14303434882E+03  0.16468834220E+03  0.00000000000E+00 0.  1.
         11    1    4    4    0    0 -0.11212437905E+03 -0.36617395486E+01  0.47213616492E+03  0.48528119986E+03  0.00000000000E+00 0. -1.
</event>
<event>
 8    1  0.7102339E-009  0.9820867E+02  0.7561462E-02  0.1284109E+00
         -1   -1    0    0    0  501 -0.00000000000E+00  0.00000000000E+00  0.13986159174E+03  0.13986159174E+03  0.00000000000E+00 0.  1.
          1   -1    0    0  501    0  0.00000000000E+00 -0.00000000000E+00 -0.13398210747E+03  0.13398210747E+03  0.00000000000E+00 0. -1.
         25    2    1    2    0    0 -0.11763965029E+02 -0.45340797670E+02 -0.64613362153E+02  0.14837958461E+03  0.12508971082E+03 0.  0.
         23    2    1    2    0    0  0.11763965029E+02  0.45340797670E+02  0.70492846425E+02  0.12546411460E+03  0.92616541977E+02 0.  0.
          5    1    3    3  502    0 -0.28644976391E+02 -0.70556859704E+02 -0.82948595944E+02  0.11267984333E+03  0.41800000000E+01 0.  1.
         -5    1    3    3    0  502  0.16881011363E+02  0.25216062034E+02  0.18335233792E+02  0.35699741278E+02  0.41800000000E+01 0.  1.
        -11    1    4    4    0    0 -0.32483490705E+02  0.14419287315E+02 -0.13922282529E+01  0.35567278706E+02  0.00000000000E+00 0. -1.
         11    1    4    4    0    0  0.44247455734E+02  0.30921510355E+02  0.71885074678E+02  0.89896835890E+02  0.00000000000E+00 0.  1.
</event>
<event>
 8    1  0.7102339E-009  0.1231790E+03  0.7561462E-02  0.1237943E+00
          3   -1    0    0  501    0  0.00000000000E+00  0.00000000000E+00  0.20635396707E+03  0.20635396707E+03  0.00000000000E+00 0. -1.
         -3   -1    0    0    0  501 -0.00000000000E+00 -0.00000000000E+00 -0.13537332330E+03  0.13537332330E+03  0.00000000000E+00 0.  1.
         25    2    1    2    0    0 -0.45341320227E+02 -0.90339277282E+02 -0.38116049335E+02  0.16527803759E+03  0.12508787372E+03 0.  0.
         23    2    1    2    0    0  0.45341320227E+02  0.90339277282E+02  0.10909669311E+03  0.17644925278E+03  0.94948565133E+02 0.  0.
          5    1    3    3  502    0  0.30485301610E+02 -0.42467787262E+02 -0.52679417344E+02  0.74333437838E+02  0.41800000000E+01 0. -1.
         -5    1    3    3    0  502 -0.75826621837E+02 -0.47871490021E+02  0.14563368009E+02  0.90944599750E+02  0.41800000000E+01 0. -1.
        -11    1    4    4    0    0  0.41526609045E+02  0.56657895057E+02  0.12150755734E+03  0.14035192489E+03  0.00000000000E+00 0. -1.
         11    1    4    4    0    0  0.38147111814E+01  0.33681382225E+02 -0.12410864228E+02  0.36097327891E+02  0.00000000000E+00 0.  1.
</event>
<event>
 8    1  0.7102339E-009  0.7530131E+02  0.7561462E-02  0.1342940E+00
          2   -1    0    0  501    0  0.00000000000E+00  0.00000000000E+00  0.21575572917E+03  0.21575572917E+03  0.00000000000E+00 0. -1.
         -2   -1    0    0    0  501 -0.00000000000E+00 -0.00000000000E+00 -0.59318874062E+02  0.59318874062E+02  0.00000000000E+00 0.  1.
         25    2    1    2    0    0 -0.29781024103E+02 -0.21095647305E+01  0.10428794837E+03  0.16557421525E+03  0.12508990735E+03 0.  0.
         23    2    1    2    0    0  0.29781024103E+02  0.21095647305E+01  0.52148906732E+02  0.10950038798E+03  0.91539427755E+02 0.  0.
          5    1    3    3  502    0 -0.40170010940E+02 -0.10516239288E+02  0.12986987761E+03  0.13641069818E+03  0.41800000000E+01 0. -1.
         -5    1    3    3    0  502  0.10388986837E+02  0.84066745573E+01 -0.25581929236E+02  0.29163517072E+02  0.41800000000E+01 0. -1.
        -11    1    4    4    0    0 -0.61129183017E+01  0.41284108745E+02  0.13734843139E+02  0.43936218784E+02  0.00000000000E+00 0.  1.
         11    1    4    4    0    0  0.35893942405E+02 -0.39174544014E+02  0.38414063592E+02  0.65564169192E+02  0.00000000000E+00 0. -1.
</event>
<event>
 8    1  0.7102339E-009  0.1932724E+03  0.7561462E-02  0.1155543E+00
          1   -1    0    0  501    0  0.00000000000E+00  0.00000000000E+00  0.11236557955E+04  0.11236557955E+04  0.00000000000E+00 0. -1.
         -1   -1    0    0    0  501 -0.00000000000E+00 -0.00000000000E+00 -0.35254791436E+02  0.35254791436E+02  0.00000000000E+00 0.  1.
         25    2    1    2    0    0  0.11753634532E+03 -0.10769461824E+03  0.70310921274E+03  0.73172636652E+03  0.12509191481E+03 0.  0.
         23    2    1    2    0    0 -0.11753634532E+03  0.10769461824E+03  0.38529179129E+03  0.42718422038E+03  0.92863719715E+02 0.  0.
          5    1    3    3  502    0  0.84400694557E+02 -0.13486197667E+03  0.53296108724E+03  0.55621598584E+03  0.41800000000E+01 0. -1.
         -5    1    3    3    0  502  0.33135650758E+02  0.27167358426E+02  0.17014812550E+03  0.17551038068E+03  0.41800000000E+01 0. -1.
        -11    1    4    4    0    0 -0.42397231688E+02  0.10023631188E+03  0.23582177123E+03  0.25972437556E+03  0.00000000000E+00 0.  1.
         11    1    4    4    0    0 -0.75139113627E+02  0.74583063581E+01  0.14947002006E+03  0.16745984482E+03  0.00000000000E+00 0. -1.
</event>
<event>
 8    1  0.7102339E-009  0.9562599E+02  0.7561462E-02  0.1289772E+00
         -2   -1    0    0    0  501 -0.00000000000E+00  0.00000000000E+00  0.48009646935E+02  0.48009646935E+02  0.00000000000E+00 0.  1.
          2   -1    0    0  501    0  0.00000000000E+00 -0.00000000000E+00 -0.25878343195E+03  0.25878343195E+03  0.00000000000E+00 0. -1.
         25    2    1    2    0    0 -0.23771649359E+02  0.83837316409E+01 -0.13310909467E+03  0.18439466344E+03  0.12509189643E+03 0.  0.
         23    2    1    2    0    0  0.23771649359E+02 -0.83837316409E+01 -0.77664690350E+02  0.12239841545E+03  0.91182178672E+02 0.  0.
          5    1    3    3  502    0 -0.50349961771E+02  0.37817134477E+02 -0.12986307324E+03  0.14438540266E+03  0.41800000000E+01 0. -1.
         -5    1    3    3    0  502  0.26578312413E+02 -0.29433402836E+02 -0.32460214326E+01  0.40009260783E+02  0.41800000000E+01 0. -1.
        -11    1    4    4    0    0  0.28876973495E+02 -0.43811431552E+02 -0.23544014435E+02  0.57512100888E+02  0.00000000000E+00 0.  1.
         11    1    4    4    0    0 -0.51053241366E+01  0.35427699911E+02 -0.54120675915E+02  0.64886314559E+02  0.00000000000E+00 0. -1.
</event>
<event>
 8    1  0.7102339E-009  0.2522808E+03  0.7561462E-02  0.1111872E+00
          2   -1    0    0  501    0  0.00000000000E+00  0.00000000000E+00  0.66500788637E+03  0.66500788637E+03  0.00000000000E+00 0. -1.
         -2   -1    0    0    0  501 -0.00000000000E+00 -0.00000000000E+00 -0.11665921443E+03  0.11665921443E+03  0.00000000000E+00 0.  1.
         25    2    1    2    0    0  0.21774136940E+03 -0.80534405416E+02  0.43144761260E+03  0.50565999484E+03  0.12509154075E+03 0.  0.
         23    2    1    2    0    0 -0.21774136940E+03  0.80534405416E+02  0.11690105935E+03  0.27600710596E+03  0.92827638444E+02 0.  0.
          5    1    3    3  502    0  0.78765776602E+02  0.29676455464E+02  0.16932060727E+03  0.18913402660E+03  0.41800000000E+01 0.  1.
         -5    1    3    3    0  502  0.13897559279E+03 -0.11021086088E+03  0.26212700532E+03  0.31652596824E+03  0.41800000000E+01 0.  1.
        -11    1    4    4    0    0 -0.14358907405E+03  0.15841682785E+02  0.36675668054E+02  0.14904323442E+03  0.00000000000E+00 0. -1.
         11    1    4    4    0    0 -0.74152295348E+02  0.64692722632E+02  0.80225391292E+02  0.12696387153E+03  0.00000000000E+00 0.  1.
</event>
<event>
 8    1  0.7102339E-009  0.2624918E+03  0.7561462E-02  0.1105655E+00
         -1   -1    0    0    0  501 -0.00000000000E+00  0.00000000000E+00  0.26536523539E+03  0.26536523539E+03  0.00000000000E+00 0.  1.
          1   -1    0    0  501    0  0.00000000000E+00 -0.00000000000E+00 -0.33113811217E+03  0.33113811217E+03  0.00000000000E+00 0. -1.
         25    2    1    2    0    0 -0.20571830001E+03 -0.12769224594E+03  0.10149919006E+03  0.29081806923E+03  0.12509090765E+03 0.  0.
         23    2    1    2    0    0  0.20571830001E+03  0.12769224594E+03 -0.16727206684E+03  0.30568527833E+03  0.82693508871E+02 0.  0.
          5    1    3    3  502    0 -0.13501832432E+03 -0.14294936205E+03  0.53197992123E+02  0.20374485706E+03  0.41800000000E+01 0. -1.
         -5    1    3    3    0  502 -0.70699975690E+02  0.15257116116E+02  0.48301197938E+02  0.87073212166E+02  0.41800000000E+01 0. -1.
        -11    1    4    4    0    0  0.53584546141E+02  0.80256129127E+02 -0.63303716775E+02  0.11541104975E+03  0.00000000000E+00 0.  1.
         11    1    4    4    0    0  0.15213375387E+03  0.47436116811E+02 -0.10396835007E+03  0.19027422858E+03  0.00000000000E+00 0. -1.
</event>
<event>
 8    1  0.7102339E-009  0.6228485E+02  0.7561462E-02  0.1388486E+00
         -2   -1    0    0    0  501 -0.00000000000E+00  0.00000000000E+00  0.18183189514E+03  0.18183189514E+03  0.00000000000E+00 0.  1.
          2   -1    0    0  501    0  0.00000000000E+00 -0.00000000000E+00 -0.72662117622E+02  0.72662117622E+02  0.00000000000E+00 0. -1.
         25    2    1    2    0    0  0.30243240405E+02  0.15025929758E+02  0.74799561317E+02  0.14960764119E+03  0.12508812803E+03 0.  0.
         23    2    1    2    0    0 -0.30243240405E+02 -0.15025929758E+02  0.34370216201E+02  0.10488637157E+03  0.93163335197E+02 0.  0.
          5    1    3    3  502    0  0.23894537417E+01  0.24989188712E+00 -0.34981354542E+02  0.35312030538E+02  0.41800000000E+01 0.  1.
         -5    1    3    3    0  502  0.27853786663E+02  0.14776037870E+02  0.10978091586E+03  0.11429561065E+03  0.41800000000E+01 0.  1.
        -11    1    4    4    0    0 -0.22774524470E+02 -0.48534020313E+02 -0.35564658911E+01  0.53729680273E+02  0.00000000000E+00 0. -1.
         11    1    4    4    0    0 -0.74687159349E+01  0.33508090556E+02  0.37926682092E+02  0.51156691302E+02  0.00000000000E+00 0.  1.
</event>
<event>
 8    1  0.7102339E-009  0.1180067E+03  0.7561462E-02  0.1246422E+00
         -2   -1    0    0    0  501 -0.00000000000E+00  0.00000000000E+00  0.12387870189E+02  0.12387870189E+02  0.00000000000E+00 0.  1.
          2   -1    0    0  501    0  0.00000000000E+00 -0.00000000000E+00 -0.13470080550E+04  0.13470080550E+04  0.00000000000E+00 0. -1.
         25    2    1    2    0    0 -0.68911732725E+02  0.15376675819E+01 -0.68215763013E+03  0.69694799995E+03  0.12508513484E+03 0.  0.
         23    2    1    2    0    0  0.68911732725E+02 -0.15376675819E+01 -0.65246255472E+03  0.66244792528E+03  0.91535113846E+02 0.  0.
          5    1    3    3  502    0 -0.76897199847E+02 -0.34434518839E+02 -0.26402963117E+03  0.27717870403E+03  0.41800000000E+01 0.  1.
         -5    1    3    3    0  502  0.79854671225E+01  0.35972186421E+02 -0.41812799896E+03  0.41976929591E+03  0.41800000000E+01 0.  1.
        -11    1    4    4    0    0 -0.19884589337E+02 -0.14801927669E+02 -0.14564622415E+03  0.14774070721E+03  0.00000000000E+00 0. -1.
         11    1    4    4    0    0  0.88796322061E+02  0.13264260087E+02 -0.50681633057E+03  0.51470721808E+03  0.00000000000E+00 0.  1.
</event>
<event>
 8    1  0.7102339E-009  0.1418624E+03  0.7561462E-02  0.1210845E+00
          1   -1    0    0  501    0  0.00000000000E+00  0.00000000000E+00  0.10942018653E+03  0.10942018653E+03  0.00000000000E+00 0. -1.
         -1   -1    0    0    0  501 -0.00000000000E+00 -0.00000000000E+00 -0.27119655781E+03  0.27119655781E+03  0.00000000000E+00 0.  1.
         25    2    1    2    0    0  0.29056718291E+02  0.11954669034E+03 -0.14240512766E+03  0.22596989539E+03  0.12508984446E+03 0.  0.
         23    2    1    2    0    0 -0.29056718291E+02 -0.11954669034E+03 -0.19371243629E+02  0.15464684895E+03  0.91677144159E+02 0.  0.
          5    1    3    3  502    0  0.60463280851E+02  0.71033635054E+02 -0.13961181159E+03  0.16795986418E+03  0.41800000000E+01 0. -1.
         -5    1    3    3    0  502 -0.31406562560E+02  0.48513055291E+02 -0.27933160619E+01  0.58010031203E+02  0.41800000000E+01 0. -1.
        -11    1    4    4    0    0 -0.10570798024E+02 -0.11190469419E+03 -0.45907139133E+02  0.12141609357E+03  0.00000000000E+00 0.  1.
         11    1    4    4    0    0 -0.18485920267E+02 -0.76419961505E+01  0.26535895505E+02  0.33230755386E+02  0.00000000000E+00 0. -1.
</event>
<event>
 7    1  0.7102339E-009  0.8109394E+02  0.7561462E-02  0.1325975E+00
         -2   -1    0    0    0  501 -0.00000000000E+00  0.00000000000E+00  0.41804328049E+02  0.41804328049E+02  0.00000000000E+00 0.  1.
          2   -1    0    0  501    0  0.00000000000E+00 -0.00000000000E+00 -0.34153161184E+03  0.34153161184E+03  0.00000000000E+00 0. -1.
         23    2    1    2    0    0  0.44043122372E+02  0.31461152973E+02 -0.13198633930E+03  0.16712926499E+03  0.87075809963E+02 0.  0.
          5    1    1    2  502    0 -0.26746481756E+02  0.18253093780E+02 -0.15944792013E+03  0.16275644796E+03  0.41800000000E+01 0.  1.
         -5    1    1    2    0  502 -0.17296640616E+02 -0.49714246753E+02 -0.82930243646E+01  0.53450226940E+02  0.41800000000E+01 0.  1.
        -11    1    3    3    0    0  0.53603493879E+02  0.11820939924E+02 -0.29451126877E+02  0.62293162153E+02  0.00000000000E+00 0.  1.
         11    1    3    3    0    0 -0.95603715067E+01  0.19640213049E+02 -0.10253521242E+03  0.10483610284E+03  0.00000000000E+00 0. -1.
</event>
<event>
 8    1  0.7102339E-009  0.1705732E+03  0.7561462E-02  0.1177251E+00
         -2   -1    0    0    0  501 -0.00000000000E+00  0.00000000000E+00  0.40538996476E+02  0.40538996476E+02  0.00000000000E+00 0.  1.
          2   -1    0    0  501    0  0.00000000000E+00 -0.00000000000E+00 -0.83132769061E+03  0.83132769061E+03  0.00000000000E+00 0. -1.
         25    2    1    2    0    0 -0.13225084200E+03 -0.23179692857E+02 -0.56027046114E+03  0.58955838228E+03  0.12509401712E+03 0.  0.
         23    2    1    2    0    0  0.13225084200E+03  0.23179692857E+02 -0.23051823299E+03  0.28230830480E+03  0.92367417672E+02 0.  0.
          5    1    3    3  502    0 -0.89533026975E+02  0.43109037197E+02 -0.37899523767E+03  0.39182829732E+03  0.41800000000E+01 0. -1.
         -5    1    3    3    0  502 -0.42717815029E+02 -0.66288730053E+02 -0.18127522348E+03  0.19773008496E+03  0.41800000000E+01 0. -1.
        -11    1    4    4    0    0  0.13022921280E+03 -0.89375624402E+01 -0.17843034934E+03  0.22108124628E+03  0.00000000000E+00 0.  1.
         11    1    4    4    0    0  0.20216292003E+01  0.32117255297E+02 -0.52087883645E+02  0.61227058520E+02  0.00000000000E+00 0. -1.
</event>
<event>
 8    1  0.7102339E-009  0.7225460E+02  0.7561462E-02  0.1352590E+00
          2   -1    0    0  501    0  0.00000000000E+00  0.00000000000E+00  0.34759334403E+03  0.34759334403E+03  0.00000000000E+00 0. -1.
         -2   -1    0    0    0  501 -0.00000000000E+00 -0.00000000000E+00 -0.36338792266E+02  0.36338792266E+02  0.00000000000E+00 0.  1.
         25    2    1    2    0    0  0.18378834712E+02 -0.12175974810E+02  0.22212953583E+03  0.25587726018E+03  0.12508239548E+03 0.  0.
         23    2    1    2    0    0 -0.18378834712E+02  0.12175974810E+02  0.89125015940E+02  0.12805487612E+03  0.89267838019E+02 0.  0.
          5    1    3    3  502    0 -0.13139653275E+02 -0.16260064227E+02  0.22279693217E+03  0.22381462321E+03  0.41800000000E+01 0.  1.
         -5    1    3    3    0  502  0.31518487986E+02  0.40840894174E+01 -0.66739634535E+00  0.32062636966E+02  0.41800000000E+01 0.  1.
        -11    1    4    4    0    0 -0.25138332261E+02  0.48264170560E+02  0.44715582256E+02  0.70433296140E+02  0.00000000000E+00 0.  1.
         11    1    4    4    0    0  0.67594975496E+01 -0.36088195749E+02  0.44409433684E+02  0.57621579983E+02  0.00000000000E+00 0. -1.
</event>
<event>
 8    1  0.7102339E-009  0.1356791E+03  0.7561462E-02  0.1219264E+00
         -1   -1    0    0    0  501 -0.00000000000E+00  0.00000000000E+00  0.18906830524E+02  0.18906830524E+02  0.00000000000E+00 0.  1.
          1   -1    0    0  501    0  0.00000000000E+00 -0.00000000000E+00 -0.11520739395E+04  0.11520739395E+04  0.00000000000E+00 0. -1.
         25    2    1    2    0    0  0.53295965020E+02  0.72227417577E+02 -0.74940938426E+03  0.76506150114E+03  0.12508963010E+03 0.  0.
         23    2    1    2    0    0 -0.53295965020E+02 -0.72227417577E+02 -0.38375772469E+03  0.40591926887E+03  0.97176138227E+02 0.  0.
          5    1    3    3  502    0 -0.40443794776E+02  0.13187018842E+02 -0.23265644459E+03  0.23655039973E+03  0.41800000000E+01 0.  1.
         -5    1    3    3    0  502  0.93739759796E+02  0.59040398735E+02 -0.51675293967E+03  0.52851110141E+03  0.41800000000E+01 0.  1.
        -11    1    4    4    0    0 -0.14211310089E+01 -0.65416437238E+02 -0.11676410737E+03  0.13384762472E+03  0.00000000000E+00 0.  1.
         11    1    4    4    0    0 -0.51874834011E+02 -0.68109803388E+01 -0.26699361732E+03  0.27207164414E+03  0.00000000000E+00 0. -1.
</event>
<event>
 8    1  0.7102339E-009  0.1057496E+03  0.7561462E-02  0.1268650E+00
          2   -1    0    0  501    0  0.00000000000E+00  0.00000000000E+00  0.99975327247E+03  0.99975327247E+03  0.00000000000E+00 0. -1.
         -2   -1    0    0    0  501 -0.00000000000E+00 -0.00000000000E+00 -0.15426282949E+02  0.15426282949E+02  0.00000000000E+00 0.  1.
         25    2    1    2    0    0  0.50050538386E+02 -0.53497565438E+01  0.67586564979E+03  0.68918502897E+03  0.12509177150E+03 0.  0.
         23    2    1    2    0    0 -0.50050538386E+02  0.53497565438E+01  0.30846133973E+03  0.32599452646E+03  0.92684178163E+02 0.  0.
          5    1    3    3  502    0  0.47548388451E+02 -0.49910580894E+02  0.20774880638E+03  0.21892682404E+03  0.41800000000E+01 0.  1.
         -5    1    3    3    0  502  0.25021499353E+01  0.44560824350E+02  0.46811684341E+03  0.47025820493E+03  0.41800000000E+01 0.  1.
        -11    1    4    4    0    0 -0.36454942629E+02 -0.37714207697E+02  0.10251196781E+03  0.11515219429E+03  0.00000000000E+00 0.  1.
         11    1    4    4    0    0 -0.13595595757E+02  0.43063964241E+02  0.20594937192E+03  0.21084233217E+03  0.00000000000E+00 0. -1.
</event>
<event>
 7    1  0.7102339E-009  0.8458885E+02  0.7561462E-02  0.1316511E+00
          1   -1    0    0  501    0  0.00000000000E+00  0.00000000000E+00  0.60834987809E+02  0.60834987809E+02  0.00000000000E+00 0. -1.
         -1   -1    0    0    0  501 -0.00000000000E+00 -0.00000000000E+00 -0.24276296031E+03  0.24276296031E+03  0.00000000000E+00 0.  1.
         25    2    1    2    0    0 -0.51019305732E+02  0.65640480064E+00 -0.29917514940E+02  0.13837004603E+03  0.12509121278E+03 0.  0.
          5    1    3    3  502    0 -0.56109600865E+02 -0.39034391874E+02  0.22690229822E+02  0.72140765089E+02  0.41800000000E+01 0.  1.
         -5    1    3    3    0  502  0.50902951326E+01  0.39690796675E+02 -0.52607744762E+02  0.66229280943E+02  0.41800000000E+01 0.  1.
        -11    1    1    2    0    0  0.65702846244E+01 -0.12798953068E+02 -0.15487108667E+02  0.21138409934E+02  0.00000000000E+00 0. -1.
         11    1    1    2    0    0  0.44449021108E+02  0.12142548267E+02 -0.13652334890E+03  0.14408949216E+03  0.00000000000E+00 0.  1.
</event>
<event>
 8    1  0.7102339E-009  0.1314385E+03  0.7561462E-02  0.1225337E+00
          1   -1    0    0  501    0  0.00000000000E+00  0.00000000000E+00  0.48629963483E+03  0.48629963483E+03  0.00000000000E+00 0. -1.
         -1   -1    0    0    0  501 -0.00000000000E+00 -0.00000000000E+00 -0.74882877686E+02  0.74882877686E+02  0.00000000000E+00 0.  1.
         25    2    1    2    0    0  0.91540345726E+02  0.91284549595E+02  0.34260419950E+03  0.38695903296E+03  0.12508857578E+03 0.  0.
         23    2    1    2    0    0 -0.91540345726E+02 -0.91284549595E+02  0.68812557644E+02  0.17422347955E+03  0.94372394509E+02 0.  0.
          5    1    3    3  502    0  0.53719616183E+02  0.32876418346E+02  0.29705653273E+03  0.30368851161E+03  0.41800000000E+01 0. -1.
         -5    1    3    3    0  502  0.37820729543E+02  0.58408131249E+02  0.45547666767E+02  0.83270521357E+02  0.41800000000E+01 0. -1.
        -11    1    4    4    0    0 -0.51017028083E+02 -0.40890788836E+02  0.85313303378E+02  0.10748559671E+03  0.00000000000E+00 0. -1.
         11    1    4    4    0    0 -0.40523317643E+02 -0.50393760758E+02 -0.16500745734E+02  0.66737882840E+02  0.00000000000E+00 0.  1.
</event>
<event>
 8    1  0.7102339E-009  0.9423436E+02  0.7561462E-02  0.1292910E+00
          1   -1    0    0  501    0  0.00000000000E+00  0.00000000000E+00  0.65094604046E+03  0.65094604046E+03  0.00000000000E+00 0. -1.
         -1   -1    0    0    0  501 -0.00000000000E+00 -0.00000000000E+00 -0.30917127354E+02  0.30917127354E+02  0.00000000000E+00 0.  1.
         25    2    1    2    0    0  0.15714685492E+02  0.70767236234E+02  0.46495618958E+03  0.48691587129E+03  0.12509138425E+03 0.  0.
         23    2    1    2    0    0 -0.15714685492E+02 -0.70767236234E+02  0.15507272352E+03  0.19494729652E+03  0.93284220416E+02 0.  0.
          5    1    3    3  502    0 -0.18899868347E+02  0.46054032376E+02  0.42652683767E+03  0.42944242289E+03  0.41800000000E+01 0. -1.
         -5    1    3    3    0  502  0.34614553839E+02  0.24713203858E+02  0.38429351916E+02  0.57473448401E+02  0.41800000000E+01 0. -1.
        -11    1    4    4    0    0 -0.30255370223E+02 -0.74799374939E+02  0.64977879598E+02  0.10359758084E+03  0.00000000000E+00 0.  1.
         11    1    4    4    0    0  0.14540684731E+02  0.40321387050E+01  0.90094843918E+02  0.91349715684E+02  0.00000000000E+00 0. -1.
</event>
<event>
 8    1  0.7102339E-009  0.8033367E+02  0.7561462E-02  0.1328107E+00
          1   -1    0    0  501    0  0.00000000000E+00  0.00000000000E+00  0.23353020241E+03  0.23353020241E+03  0.00000000000E+00 0. -1.
         -1   -1    0    0    0  501 -0.00000000000E+00 -0.00000000000E+00 -0.53927822517E+02  0.53927822517E+02  0.00000000000E+00 0.  1.
         25    2    1    2    0    0 -0.10622054909E+02  0.25740938049E+02  0.12225380287E+03  0.17711071976E+03  0.12508713282E+03 0.  0.
         23    2    1    2    0    0  0.10622054909E+02 -0.25740938049E+02  0.57348577028E+02  0.11034730517E+03  0.90067999469E+02 0.  0.
          5    1    3    3  502    0  0.15294873906E+02  0.37957619961E+02 -0.94948440416E+01  0.42217751530E+02  0.41800000000E+01 0. -1.
         -5    1    3    3    0  502 -0.25916928815E+02 -0.12216681912E+02  0.13174864691E+03  0.13489296823E+03  0.41800000000E+01 0. -1.
        -11    1    4    4    0    0  0.48677757465E+02 -0.16681227609E+02  0.17108675211E+02  0.54226323809E+02  0.00000000000E+00 0.  1.
         11    1    4    4    0    0 -0.38055702556E+02 -0.90597104402E+01  0.40239901817E+02  0.56120981358E+02  0.00000000000E+00 0. -1.
</event>
<event>
 8    1  0.7102339E-009  0.1112994E+03  0.7561462E-02  0.1258182E+00
          2   -1    0    0  501    0  0.00000000000E+00  0.00000000000E+00  0.78007107733E+02  0.78007107733E+02  0.00000000000E+00 0. -1.
         -2   -1    0    0    0  501 -0.00000000000E+00 -0.00000000000E+00 -0.28694881989E+03  0.28694881989E+03  0.00000000000E+00 0.  1.
         25    2    1    2    0    0  0.56239834485E+02 -0.85568626708E+02 -0.12708888941E+03  0.20563259301E+03  0.12509303992E+03 0.  0.
         23    2    1    2    0    0 -0.56239834485E+02  0.85568626708E+02 -0.81852822740E+02  0.15932333461E+03  0.90549055769E+02 0.  0.
          5    1    3    3  502    0  0.31257230931E+02 -0.28301588605E+02 -0.13594044085E+03  0.14239125767E+03  0.41800000000E+01 0.  1.
         -5    1    3    3    0  502  0.24982603554E+02 -0.57267038103E+02  0.88515514314E+01  0.63241335344E+02  0.41800000000E+01 0.  1.
        -11    1    4    4    0    0 -0.47959724749E+02  0.20740429182E+02  0.28597295400E+01  0.52330475382E+02  0.00000000000E+00 0. -1.
         11    1    4    4    0    0 -0.82801097363E+01  0.64828197525E+02 -0.84712552280E+02  0.10699285923E+03  0.00000000000E+00 0.  1.
</event>
<event>
 8    1  0.7102339E-009  0.1522393E+03  0.7561462E-02  0.1197748E+00
          2   -1    0    0  501    0  0.00000000000E+00  0.00000000000E+00  0.46173924492E+03  0.46173924492E+03  0.00000000000E+00 0. -1.
         -2   -1    0    0    0  501 -0.00000000000E+00 -0.00000000000E+00 -0.51536065232E+02  0.51536065232E+02  0.00000000000E+00 0.  1.
         25    2    1    2    0    0  0.13340629351E+02 -0.10647402703E+03  0.25552073331E+03  0.30405753578E+03  0.12508176960E+03 0.  0.
         23    2    1    2    0    0 -0.13340629351E+02  0.10647402703E+03  0.15468244638E+03  0.20921777438E+03  0.91272816735E+02 0.  0.
          5    1    3    3  502    0  0.69182598330E+02 -0.63572956215E+02  0.13834071740E+03  0.16728233369E+03  0.41800000000E+01 0.  1.
         -5    1    3    3    0  502 -0.55841968980E+02 -0.42901070817E+02  0.11718001591E+03  0.13677520209E+03  0.41800000000E+01 0.  1.
        -11    1    4    4    0    0  0.38524836394E+02  0.51402023741E+02  0.58797926090E+02  0.87083449497E+02  0.00000000000E+00 0.  1.
         11    1    4    4    0    0 -0.51865465745E+02  0.55072003292E+02  0.95884520288E+02  0.12213432488E+03  0.00000000000E+00 0. -1.
</event>
<event>
 8    1  0.7102339E-009  0.2373455E+03  0.7561462E-02  0.1121574E+00
          1   -1    0    0  501    0  0.00000000000E+00  0.00000000000E+00  0.26296024590E+04  0.26296024590E+04  0.00000000000E+00 0. -1.
         -1   -1    0    0    0  501 -0.00000000000E+00 -0.00000000000E+00 -0.26236212434E+02  0.26236212434E+02  0.00000000000E+00 0.  1.
         25    2    1    2    0    0  0.15342704292E+03  0.15524187695E+03  0.18314455057E+04  0.18486427577E+04  0.12508999847E+03 0.  0.
         23    2    1    2    0    0 -0.15342704292E+03 -0.15524187695E+03  0.77192074089E+03  0.80719591367E+03  0.89798190268E+02 0.  0.
          5    1    3    3  502    0  0.16618639160E+03  0.13179163050E+03  0.17504574657E+04  0.17632656528E+04  0.41800000000E+01 0.  1.
         -5    1    3    3    0  502 -0.12759348688E+02  0.23450246449E+02  0.80988039959E+02  0.85377104975E+02  0.41800000000E+01 0.  1.
        -11    1    4    4    0    0 -0.35167983913E+02 -0.98045674636E+02  0.36737857009E+03  0.38185960138E+03  0.00000000000E+00 0.  1.
         11    1    4    4    0    0 -0.11825905900E+03 -0.57196202309E+02  0.40454217081E+03  0.42533631229E+03  0.00000000000E+00 0. -1.
</event>
<event>
 8    1  0.7102339E-009  0.1179976E+03  0.7561462E-02  0.1246437E+00
         -2   -1    0    0    0  501 -0.00000000000E+00  0.00000000000E+00  0.45761650994E+02  0.45761650994E+02  0.00000000000E+00 0.  1.
          2   -1    0    0  501    0  0.00000000000E+00 -0.00000000000E+00 -0.33179867165E+03  0.33179867165E+03  0.00000000000E+00 0. -1.
         25    2    1    2    0    0  0.11643363147E+02  0.53698871537E+02 -0.14592649684E+03  0.19989971192E+03  0.12508483376E+03 0.  0.
         23    2    1    2    0    0 -0.11643363147E+02 -0.53698871537E+02 -0.14011052382E+03  0.17766061073E+03  0.94409729420E+02 0.  0.
          5    1    3    3  502    0 -0.55871498139E+02  0.22264562013E+02 -0.81239221744E+02  0.10116629170E+03  0.41800000000E+01 0.  1.
         -5    1    3    3    0  502  0.67514861286E+02  0.31434309524E+02 -0.64687275094E+02  0.98733420222E+02  0.41800000000E+01 0.  1.
        -11    1    4    4    0    0 -0.40753641287E+00 -0.76074927888E+02 -0.70637987371E+02  0.10381370815E+03  0.00000000000E+00 0.  1.
         11    1    4    4    0    0 -0.11235826734E+02  0.22376056351E+02 -0.69472536447E+02  0.73846902580E+02  0.00000000000E+00 0. -1.
</event>
<event>
 8    1  0.7102339E-009  0.1808080E+03  0.7561462E-02  0.1167023E+00
          2   -1    0    0  501    0  0.00000000000E+00  0.00000000000E+00  0.79919292469E+03  0.79919292469E+03  0.00000000000E+00 0. -1.
         -2   -1    0    0    0  501 -0.00000000000E+00 -0.00000000000E+00 -0.43031591486E+02  0.43031591486E+02  0.00000000000E+00 0.  1.
         25    2    1    2    0    0 -0.21469735179E+02 -0.14656092258E+03  0.45280939734E+03  0.49257102445E+03  0.12509520475E+03 0.  0.
         23    2    1    2    0    0  0.21469735179E+02  0.14656092258E+03  0.30335193587E+03  0.34965349173E+03  0.91072024940E+02 0.  0.
          5    1    3    3  502    0  0.45065563392E+02 -0.18822564390E+02  0.96649992339E+02  0.10836921774E+03  0.41800000000E+01 0. -1.
         -5    1    3    3    0  502 -0.66535298571E+02 -0.12773835820E+03  0.35615940500E+03  0.38420180671E+03  0.41800000000E+01 0. -1.
        -11    1    4    4    0    0  0.46727290416E+02  0.48899580135E+02  0.81252030727E+02  0.10571897230E+03  0.00000000000E+00 0. -1.
         11    1    4    4    0    0 -0.25257555237E+02  0.97661342450E+02  0.22209990514E+03  0.24393451943E+03  0.00000000000E+00 0.  1.
</event>
<event>
 8    1  0.7102339E-009  0.1104059E+03  0.7561462E-02  0.1259820E+00
         -1   -1    0    0    0  501 -0.00000000000E+00  0.00000000000E+00  0.28994074641E+03  0.28994074641E+03  0.00000000000E+00 0.  1.
          1   -1    0    0  501    0  0.00000000000E+00 -0.00000000000E+00 -0.65044472367E+02  0.65044472367E+02  0.00000000000E+00 0. -1.
         25    2    1    2    0    0  0.19912659168E+02  0.74709542841E+02  0.16791097444E+03  0.22319930696E+03  0.12508319432E+03 0.  0.
         23    2    1    2    0    0 -0.19912659168E+02 -0.74709542841E+02  0.56985299597E+02  0.13178591182E+03  0.90233986927E+02 0.  0.
          5    1    3    3  502    0  0.12019235114E+02 -0.27659038169E+02  0.87724148066E+02  0.92857325824E+02  0.41800000000E+01 0. -1.
         -5    1    3    3    0  502  0.78934240545E+01  0.10236858101E+03  0.80186826377E+02  0.13034198113E+03  0.41800000000E+01 0. -1.
        -11    1    4    4    0    0  0.34755549274E+01 -0.59737154189E+02  0.77027340711E+02  0.97538804020E+02  0.00000000000E+00 0.  1.
         11    1    4    4    0    0 -0.23388214096E+02 -0.14972388652E+02 -0.20042041113E+02  0.34247107798E+02  0.00000000000E+00 0. -1.
</event>
<event>
 8    1  0.7102339E-009  0.9504046E+02  0.7561462E-02  0.1291085E+00
         -3   -1    0    0    0  501 -0.00000000000E+00  0.00000000000E+00  0.20534992077E+03  0.20534992077E+03  0.00000000000E+00 0.  1.
          3   -1    0    0  501    0  0.00000000000E+00 -0.00000000000E+00 -0.82604299239E+02  0.82604299239E+02  0.00000000000E+00 0. -1.
         25    2    1    2    0    0  0.29969003227E+02 -0.18301358835E+02  0.13969445177E+03  0.19077399725E+03  0.12508835790E+03 0.  0.
         23    2    1    2    0    0 -0.29969003227E+02  0.18301358835E+02 -0.16948830237E+02  0.97180222757E+02  0.89014897400E+02 0.  0.
          5    1    3    3  502    0 -0.39647083486E+02 -0.40028902950E+02  0.68216379155E+02  0.88572857498E+02  0.41800000000E+01 0.  1.
         -5    1    3    3    0  502  0.69616086713E+02  0.21727544115E+02  0.71478072614E+02  0.10220113975E+03  0.41800000000E+01 0.  1.
        -11    1    4    4    0    0  0.70111325936E+01 -0.11212806993E+02  0.28596876372E+02  0.31506576443E+02  0.00000000000E+00 0.  1.
         11    1    4    4    0    0 -0.36980135820E+02  0.29514165828E+02 -0.45545706608E+02  0.65673646315E+02  0.00000000000E+00 0. -1.
</event>
<event>
 8    1  0.7102339E-009  0.2886065E+03  0.7561462E-02  0.1091079E+00
         -2   -1    0    0    0  501 -0.00000000000E+00  0.00000000000E+00  0.47822074932E+03  0.47822074932E+03  0.00000000000E+00 0.  1.
          2   -1    0    0  501    0  0.00000000000E+00 -0.00000000000E+00 -0.17660411875E+03  0.17660411875E+03  0.00000000000E+00 0. -1.
         25    2    1    2    0    0 -0.19971374482E+03  0.17762356616E+03  0.19212785354E+03  0.35213108211E+03  0.12508987070E+03 0.  0.
         23    2    1    2    0    0  0.19971374482E+03 -0.17762356616E+03  0.10948877704E+03  0.30269378596E+03  0.90553987417E+02 0.  0.
          5    1    3    3  502    0 -0.21359052687E+03  0.18121486619E+03  0.18129200021E+03  0.33368248776E+03  0.41800000000E+01 0.  1.
         -5    1    3    3    0  502  0.13876782049E+02 -0.35913000314E+01  0.10835853323E+02  0.18448594342E+02  0.41800000000E+01 0.  1.
        -11    1    4    4    0    0  0.81524193997E+02 -0.13262580155E+03  0.63351169526E+02  0.16807488844E+03  0.00000000000E+00 0. -1.
         11    1    4    4    0    0  0.11818955083E+03 -0.44997764616E+02  0.46137607511E+02  0.13461889753E+03  0.00000000000E+00 0.  1.
</event>
<event>
 8    1  0.7102339E-009  0.1222625E+03  0.7561462E-02  0.1239411E+00
         -1   -1    0    0    0  501 -0.00000000000E+00  0.00000000000E+00  0.26059802074E+03  0.26059802074E+03  0.00000000000E+00 0.  1.
          1   -1    0    0  501    0  0.00000000000E+00 -0.00000000000E+00 -0.69473401715E+02  0.69473401715E+02  0.00000000000E+00 0. -1.
         25    2    1    2    0    0  0.19926206522E+02 -0.62346310630E+02  0.16680462838E+03  0.21852953631E+03  0.12508900046E+03 0.  0.
         23    2    1    2    0    0 -0.19926206522E+02  0.62346310630E+02  0.24319990640E+02  0.11154188614E+03  0.86982838899E+02 0.  0.
          5    1    3    3  502    0 -0.49888336579E+02 -0.48592570804E+02  0.87226032531E+02  0.11169573499E+03  0.41800000000E+01 0. -1.
         -5    1    3    3    0  502  0.69814543101E+02 -0.13753739826E+02  0.79578595851E+02  0.10683380132E+03  0.41800000000E+01 0. -1.
        -11    1    4    4    0    0 -0.19290397146E+02 -0.16040820821E+02  0.21598868623E+02  0.33104961569E+02  0.00000000000E+00 0.  1.
         11    1    4    4    0    0 -0.63580937530E+00  0.78387131451E+02  0.27211220169E+01  0.78436924569E+02  0.00000000000E+00 0. -1.
</event>
<event>
 8    1  0.7102339E-009  0.1027071E+03  0.7561462E-02  0.1274704E+00
         -4   -1    0    0    0  501 -0.00000000000E+00  0.00000000000E+00  0.54778580773E+03  0.54778580773E+03  0.00000000000E+00 0.  1.
          4   -1    0    0  501    0  0.00000000000E+00 -0.00000000000E+00 -0.44333349565E+02  0.44333349565E+02  0.00000000000E+00 0. -1.
         25    2    1    2    0    0  0.57832418236E+02  0.59270539485E+02  0.13015332638E+03  0.19860564189E+03  0.12508687849E+03 0.  0.
         23    2    1    2    0    0 -0.57832418236E+02 -0.59270539485E+02  0.37329913178E+03  0.39351351541E+03  0.92968056713E+02 0.  0.
          5    1    3    3  502    0  0.26003479842E+02  0.11475589968E+02  0.13758530494E+03  0.14055268999E+03  0.41800000000E+01 0.  1.
         -5    1    3    3    0  502  0.31828938394E+02  0.47794949516E+02 -0.74319785544E+01  0.58052951896E+02  0.41800000000E+01 0.  1.
        -11    1    4    4    0    0 -0.53352211798E+02 -0.80962344864E+02  0.24816693764E+03  0.26643608751E+03  0.00000000000E+00 0.  1.
         11    1    4    4    0    0 -0.44802064388E+01  0.21691805379E+02  0.12513219414E+03  0.12707742790E+03  0.00000000000E+00 0. -1.
</event>
<event>
 8    1  0.7102339E-009  0.6225144E+02  0.7561462E-02  0.1388619E+00
         -1   -1    0    0    0  501 -0.00000000000E+00  0.00000000000E+00  0.20500022308E+03  0.20500022308E+03  0.00000000000E+00 0.  1.
          1   -1    0    0  501    0  0.00000000000E+00 -0.00000000000E+00 -0.68398199082E+02  0.68398199082E+02  0.00000000000E+00 0. -1.
         25    2    1    2    0    0  0.15091354602E+02  0.12389297951E+02  0.25744445165E+02  0.12919652434E+03  0.12509085401E+03 0.  0.
         23    2    1    2    0    0 -0.15091354602E+02 -0.12389297951E+02  0.11085757883E+03  0.14420189783E+03  0.90130687698E+02 0.  0.
          5    1    3    3  502    0  0.20774962447E+01 -0.73261691476E+01 -0.49481292473E+02  0.50238027925E+02  0.41800000000E+01 0.  1.
         -5    1    3    3    0  502  0.13013858357E+02  0.19715467099E+02  0.75225737638E+02  0.78958496411E+02  0.41800000000E+01 0.  1.
        -11    1    4    4    0    0  0.23794143374E+02 -0.38306451464E+02  0.61119758671E+02  0.75955055017E+02  0.00000000000E+00 0.  1.
         11    1    4    4    0    0 -0.38885497976E+02  0.25917153513E+02  0.49737820162E+02  0.68246842810E+02  0.00000000000E+00 0. -1.
</event>
<event>
 8    1  0.7102339E-009  0.1091844E+03  0.7561462E-02  0.1262088E+00
         -1   -1    0    0    0  501 -0.00000000000E+00  0.00000000000E+00  0.28069453589E+03  0.28069453589E+03  0.00000000000E+00 0.  1.
          1   -1    0    0  501    0  0.00000000000E+00 -0.00000000000E+00 -0.57258618302E+02  0.57258618302E+02  0.00000000000E+00 0. -1.
         25    2    1    2    0    0 -0.52418114669E+02  0.34714312158E+02  0.98181305366E+02  0.17099600192E+03  0.12508925507E+03 0.  0.
         23    2    1    2    0    0  0.52418114669E+02 -0.34714312158E+02  0.12525461222E+03  0.16695715228E+03  0.90737151154E+02 0.  0.
          5    1    3    3  502    0 -0.58544081283E+02  0.76551020345E+02  0.58234424128E+02  0.11267736562E+03  0.41800000000E+01 0.  1.
         -5    1    3    3    0  502  0.61259666143E+01 -0.41836708188E+02  0.39946881237E+02  0.58318636297E+02  0.41800000000E+01 0.  1.
        -11    1    4    4    0    0  0.47480725125E+02 -0.46611841344E+02  0.13519850433E+03  0.15068416833E+03  0.00000000000E+00 0.  1.
         11    1    4    4    0    0  0.49373895441E+01  0.11897529187E+02 -0.99438921089E+01  0.16272983947E+02  0.00000000000E+00 0. -1.
</event>
<event>
 8    1  0.7102339E-009  0.1169462E+03  0.7561462E-02  0.1248222E+00
         -2   -1    0    0    0  501 -0.00000000000E+00  0.00000000000E+00  0.43761808403E+02  0.43761808403E+02  0.00000000000E+00 0. -1.
          2   -1    0    0  501    0  0.00000000000E+00 -0.00000000000E+00 -0.35504667134E+03  0.35504667134E+03  0.00000000000E+00 0.  1.
         25    2    1    2    0    0 -0.39842479858E+02 -0.31561966523E+02 -0.11762935863E+03  0.17907143618E+03  0.12508530014E+03 0.  0.
         23    2    1    2    0    0  0.39842479858E+02  0.31561966523E+02 -0.19365550431E+03  0.21973704357E+03  0.90544646642E+02 0.  0.
          5    1    3    3  502    0 -0.65223629314E+02 -0.62113722204E+02 -0.10211676015E+03  0.13622606730E+03  0.41800000000E+01 0.  1.
         -5    1    3    3    0  502  0.25381149457E+02  0.30551755680E+02 -0.15512598479E+02  0.42845368880E+02  0.41800000000E+01 0.  1.
        -11    1    4    4    0    0  0.81932482950E+01 -0.31866410960E+02 -0.58345014099E+02  0.66983118286E+02  0.00000000000E+00 0.  1.
         11    1    4    4    0    0  0.31649231563E+02  0.63428377483E+02 -0.13531049021E+03  0.15275392528E+03  0.00000000000E+00 0. -1.
</event>
<event>
 8    1  0.7102339E-009  0.1129590E+03  0.7561462E-02  0.1255186E+00
          1   -1    0    0  501    0  0.00000000000E+00  0.00000000000E+00  0.91413242075E+03  0.91413242075E+03  0.00000000000E+00 0. -1.
         -1   -1    0    0    0  501 -0.00000000000E+00 -0.00000000000E+00 -0.23423514913E+02  0.23423514913E+02  0.00000000000E+00 0.  1.
         25    2    1    2    0    0 -0.37175631287E+02 -0.85803761288E+02  0.39031136334E+03  0.42039888441E+03  0.12509176091E+03 0.  0.
         23    2    1    2    0    0  0.37175631287E+02  0.85803761288E+02  0.50039754249E+03  0.51715705125E+03  0.91155921983E+02 0.  0.
          5    1    3    3  502    0 -0.42657272831E+02 -0.87242332587E+02  0.14254441371E+03  0.17253188054E+03  0.41800000000E+01 0. -1.
         -5    1    3    3    0  502  0.54816415438E+01  0.14385712991E+01  0.24776694963E+03  0.24786700388E+03  0.41800000000E+01 0. -1.
        -11    1    4    4    0    0  0.58953992102E+02  0.40855342116E+02  0.38167244969E+03  0.38835369319E+03  0.00000000000E+00 0. -1.
         11    1    4    4    0    0 -0.21778360815E+02  0.44948419172E+02  0.11872509280E+03  0.12880335805E+03  0.00000000000E+00 0.  1.
</event>
<event>
 8    1  0.7102339E-009  0.1037497E+03  0.7561462E-02  0.1272603E+00
          2   -1    0    0  501    0  0.00000000000E+00  0.00000000000E+00  0.49722178256E+03  0.49722178256E+03  0.00000000000E+00 0. -1.
         -2   -1    0    0    0  501 -0.00000000000E+00 -0.00000000000E+00 -0.63715933193E+02  0.63715933193E+02  0.00000000000E+00 0.  1.
         25    2    1    2    0    0 -0.73564690159E+02  0.45333216501E+02  0.54187186163E+02  0.16140384375E+03  0.12509230782E+03 0.  0.
         23    2    1    2    0    0  0.73564690159E+02 -0.45333216501E+02  0.37931866320E+03  0.39953387200E+03  0.90982429442E+02 0.  0.
          5    1    3    3  502    0 -0.65922783610E+02  0.31457155970E+02  0.93553216914E+02  0.11876465322E+03  0.41800000000E+01 0.  1.
         -5    1    3    3    0  502 -0.76419065493E+01  0.13876060531E+02 -0.39366030750E+02  0.42639190525E+02  0.41800000000E+01 0.  1.
        -11    1    4    4    0    0 -0.12070516110E+02 -0.28125095982E+02  0.16981228876E+03  0.17254834626E+03  0.00000000000E+00 0. -1.
         11    1    4    4    0    0  0.85635206269E+02 -0.17208120518E+02  0.20950637444E+03  0.22698552574E+03  0.00000000000E+00 0.  1.
</event>
<event>
 8    1  0.7102339E-009  0.1261076E+03  0.7561462E-02  0.1233348E+00
          2   -1    0    0  501    0  0.00000000000E+00  0.00000000000E+00  0.20230972595E+03  0.20230972595E+03  0.00000000000E+00 0. -1.
         -2   -1    0    0    0  501 -0.00000000000E+00 -0.00000000000E+00 -0.87113734443E+02  0.87113734443E+02  0.00000000000E+00 0.  1.
         25    2    1    2    0    0 -0.13224723926E+02 -0.83792826136E+02  0.49298871510E+02  0.15897940831E+03  0.12509173633E+03 0.  0.
         23    2    1    2    0    0  0.13224723926E+02  0.83792826136E+02  0.65897119998E+02  0.13044405209E+03  0.74007359542E+02 0.  0.
          5    1    3    3  502    0  0.38521521300E+02 -0.84215791441E+02  0.53258917792E+02  0.10691207535E+03  0.41800000000E+01 0.  1.
         -5    1    3    3    0  502 -0.51746245226E+02  0.42296530577E+00 -0.39600462818E+01  0.52067332956E+02  0.41800000000E+01 0.  1.
        -11    1    4    4    0    0 -0.26542179922E+02  0.43684341905E+02  0.12287460765E+02  0.52571767468E+02  0.00000000000E+00 0.  1.
         11    1    4    4    0    0  0.39766903848E+02  0.40108484231E+02  0.53609659233E+02  0.77872284620E+02  0.00000000000E+00 0. -1.
</event>
<event>
 8    1  0.7102339E-009  0.8777352E+02  0.7561462E-02  0.1308335E+00
         -2   -1    0    0    0  501 -0.00000000000E+00  0.00000000000E+00  0.19438373765E+02  0.19438373765E+02  0.00000000000E+00 0.  1.
          2   -1    0    0  501    0  0.00000000000E+00 -0.00000000000E+00 -0.90517196791E+03  0.90517196791E+03  0.00000000000E+00 0. -1.
         25    2    1    2    0    0  0.36016495117E+02  0.53753968277E+02 -0.63645220567E+03  0.65184820239E+03  0.12509193348E+03 0.  0.
         23    2    1    2    0    0 -0.36016495117E+02 -0.53753968277E+02 -0.24928138847E+03  0.27276213929E+03  0.89840397173E+02 0.  0.
          5    1    3    3  502    0  0.20311280767E+02  0.22512536960E+02 -0.25378409340E+02  0.39760514426E+02  0.41800000000E+01 0.  1.
         -5    1    3    3    0  502  0.15705214350E+02  0.31241431317E+02 -0.61107379633E+03  0.61208768796E+03  0.41800000000E+01 0.  1.
        -11    1    4    4    0    0 -0.26205547956E+02 -0.78683624887E+02 -0.17157537391E+03  0.19056744870E+03  0.00000000000E+00 0.  1.
         11    1    4    4    0    0 -0.98109471610E+01  0.24929656609E+02 -0.77706014559E+02  0.82194690592E+02  0.00000000000E+00 0. -1.
</event>
<event>
 8    1  0.7102339E-009  0.1175334E+03  0.7561462E-02  0.1247223E+00
          2   -1    0    0  501    0  0.00000000000E+00  0.00000000000E+00  0.55718476196E+02  0.55718476196E+02  0.00000000000E+00 0. -1.
         -2   -1    0    0    0  501 -0.00000000000E+00 -0.00000000000E+00 -0.37871375364E+03  0.37871375364E+03  0.00000000000E+00 0.  1.
         25    2    1    2    0    0 -0.94184373445E+02 -0.13731912009E+02 -0.17451955175E+03  0.23487210195E+03  0.12509423936E+03 0.  0.
         23    2    1    2    0    0  0.94184373445E+02  0.13731912009E+02 -0.14847572569E+03  0.19956012788E+03  0.93380629217E+02 0.  0.
          5    1    3    3  502    0 -0.86159500457E+02 -0.24300252636E+02 -0.19238151473E+03  0.21223119800E+03  0.41800000000E+01 0. -1.
         -5    1    3    3    0  502 -0.80248729879E+01  0.10568340627E+02  0.17861962976E+02  0.22640903945E+02  0.41800000000E+01 0. -1.
        -11    1    4    4    0    0  0.60822087946E+01  0.39324310709E+02 -0.60764054131E+02  0.72633772799E+02  0.00000000000E+00 0.  1.
         11    1    4    4    0    0  0.88102164650E+02 -0.25592398700E+02 -0.87711671557E+02  0.12692635508E+03  0.00000000000E+00 0. -1.
</event>
<event>
 8    1  0.7102339E-009  0.1940017E+03  0.7561462E-02  0.1154901E+00
         -2   -1    0    0    0  501 -0.00000000000E+00  0.00000000000E+00  0.50290072890E+02  0.50290072890E+02  0.00000000000E+00 0. -1.
          2   -1    0    0  501    0  0.00000000000E+00 -0.00000000000E+00 -0.10216405203E+04  0.10216405203E+04  0.00000000000E+00 0.  1.
         25    2    1    2    0    0  0.15363261514E+03 -0.90221996671E+02 -0.71164742682E+03  0.74419924812E+03  0.12508985441E+03 0.  0.
         23    2    1    2    0    0 -0.15363261514E+03  0.90221996671E+02 -0.25970302061E+03  0.32773134510E+03  0.90659729341E+02 0.  0.
          5    1    3    3  502    0  0.11776659572E+03 -0.30838018839E+02 -0.25860137108E+03  0.28585327705E+03  0.41800000000E+01 0.  1.
         -5    1    3    3    0  502  0.35866019420E+02 -0.59383977833E+02 -0.45304605574E+03  0.45834597107E+03  0.41800000000E+01 0.  1.
        -11    1    4    4    0    0 -0.32396515848E+02  0.65340631274E+02 -0.12565595873E+03  0.14528713742E+03  0.00000000000E+00 0.  1.
         11    1    4    4    0    0 -0.12123609930E+03  0.24881365398E+02 -0.13404706188E+03  0.18244420768E+03  0.00000000000E+00 0. -1.
</event>
<event>
 8    1  0.7102339E-009  0.9833290E+02  0.7561462E-02  0.1283841E+00
          1   -1    0    0  501    0  0.00000000000E+00  0.00000000000E+00  0.11590227978E+03  0.11590227978E+03  0.00000000000E+00 0. -1.
         -1   -1    0    0    0  501 -0.00000000000E+00 -0.00000000000E+00 -0.14716591299E+03  0.14716591299E+03  0.00000000000E+00 0.  1.
         25    2    1    2    0    0  0.51141945098E+02 -0.42565581333E+02 -0.48703523593E+02  0.14982384436E+03  0.12509126215E+03 0.  0.
         23    2    1    2    0    0 -0.51141945098E+02  0.42565581333E+02  0.17439890378E+02  0.11324434841E+03  0.89960021162E+02 0.  0.
          5    1    3    3  502    0 -0.21883361327E+02 -0.29169783175E+02 -0.64118921843E+02  0.73881434012E+02  0.41800000000E+01 0.  1.
         -5    1    3    3    0  502  0.73025306425E+02 -0.13395798158E+02  0.15415398250E+02  0.75942410351E+02  0.41800000000E+01 0.  1.
        -11    1    4    4    0    0 -0.60595081537E+02  0.24795937165E+02 -0.21913802596E+02  0.69042140397E+02  0.00000000000E+00 0.  1.
         11    1    4    4    0    0  0.94531364395E+01  0.17769644168E+02  0.39353692974E+02  0.44202208011E+02  0.00000000000E+00 0. -1.
</event>
<event>
 8    1  0.7102339E-009  0.4807019E+02  0.7561462E-02  0.1456037E+00
         -2   -1    0    0    0  501 -0.00000000000E+00  0.00000000000E+00  0.28325941467E+02  0.28325941467E+02  0.00000000000E+00 0. -1.
          2   -1    0    0  501    0  0.00000000000E+00 -0.00000000000E+00 -0.46606546659E+03  0.46606546659E+03  0.00000000000E+00 0.  1.
         25    2    1    2    0    0 -0.42974831977E+01 -0.62872561792E+01 -0.32652893960E+03  0.34975402814E+03  0.12509489940E+03 0.  0.
         23    2    1    2    0    0  0.42974831977E+01  0.62872561792E+01 -0.11121058552E+03  0.14463737991E+03  0.92163872441E+02 0.  0.
          5    1    3    3  502    0 -0.19250122299E+01 -0.12302549631E+02  0.78396744603E+01  0.15296774012E+02  0.41800000000E+01 0. -1.
         -5    1    3    3    0  502 -0.23724709678E+01  0.60152934522E+01 -0.33436861406E+03  0.33445725413E+03  0.41800000000E+01 0. -1.
        -11    1    4    4    0    0  0.94297327766E+01 -0.33697922787E+02 -0.94906629464E+02  0.10115205473E+03  0.00000000000E+00 0.  1.
         11    1    4    4    0    0 -0.51322495789E+01  0.39985178967E+02 -0.16303956058E+02  0.43485325178E+02  0.00000000000E+00 0. -1.
</event>
<event>
 8    1  0.7102339E-009  0.1272518E+03  0.7561462E-02  0.1231591E+00
          2   -1    0    0  501    0  0.00000000000E+00  0.00000000000E+00  0.93136745515E+02  0.93136745515E+02  0.00000000000E+00 0. -1.
         -2   -1    0    0    0  501 -0.00000000000E+00 -0.00000000000E+00 -0.19626084353E+03  0.19626084353E+03  0.00000000000E+00 0.  1.
         25    2    1    2    0    0  0.75338152958E+02  0.24347773644E+02 -0.55863627808E+02  0.15822988643E+03  0.12508917089E+03 0.  0.
         23    2    1    2    0    0 -0.75338152958E+02 -0.24347773644E+02 -0.47260470202E+02  0.13116770261E+03  0.93288599479E+02 0.  0.
          5    1    3    3  502    0  0.70140332924E+02  0.62547934458E+02 -0.49109084031E+01  0.94199255990E+02  0.41800000000E+01 0. -1.
         -5    1    3    3    0  502  0.51978200332E+01 -0.38200160814E+02 -0.50952719405E+02  0.64030630436E+02  0.41800000000E+01 0. -1.
        -11    1    4    4    0    0  0.77022838624E+01  0.24246479380E+02 -0.15768905996E+02  0.29931176644E+02  0.00000000000E+00 0.  1.
         11    1    4    4    0    0 -0.83040436820E+02 -0.48594253024E+02 -0.31491564206E+02  0.10123652597E+03  0.00000000000E+00 0. -1.
</event>
<event>
 8    1  0.7102339E-009  0.8520559E+02  0.7561462E-02  0.1314896E+00
         -2   -1    0    0    0  501 -0.00000000000E+00  0.00000000000E+00  0.22265927993E+02  0.22265927993E+02  0.00000000000E+00 0. -1.
          2   -1    0    0  501    0  0.00000000000E+00 -0.00000000000E+00 -0.17222244564E+04  0.17222244564E+04  0.00000000000E+00 0.  1.
         25    2    1    2    0    0 -0.82355316264E+01  0.17229818833E+02 -0.16082633705E+04  0.16132336667E+04  0.12508838347E+03 0.  0.
         23    2    1    2    0    0  0.82355316264E+01 -0.17229818833E+02 -0.91695157876E+02  0.13125671771E+03  0.91954517717E+02 0.  0.
          5    1    3    3  502    0  0.46443824256E+02 -0.28783288337E+02 -0.65833486787E+03  0.66061166895E+03  0.41800000000E+01 0.  1.
         -5    1    3    3    0  502 -0.54679355882E+02  0.46013107170E+02 -0.94992850264E+03  0.95262199771E+03  0.41800000000E+01 0.  1.
        -11    1    4    4    0    0  0.82728114713E+01 -0.30069273268E+02 -0.10689984103E+03  0.11135608029E+03  0.00000000000E+00 0.  1.
         11    1    4    4    0    0 -0.37279844927E-01  0.12839454435E+02  0.15204683157E+02  0.19900637424E+02  0.00000000000E+00 0. -1.
</event>
<event>
 8    1  0.7102339E-009  0.1772751E+03  0.7561462E-02  0.1170467E+00
         -3   -1    0    0    0  501 -0.00000000000E+00  0.00000000000E+00  0.90730805428E+02  0.90730805428E+02  0.00000000000E+00 0.  1.
          3   -1    0    0  501    0  0.00000000000E+00 -0.00000000000E+00 -0.42316270053E+03  0.42316270053E+03  0.00000000000E+00 0. -1.
         25    2    1    2    0    0 -0.10986673582E+03  0.10464724389E+03 -0.97757739767E+02  0.21960804520E+03  0.12509745218E+03 0.  0.
         23    2    1    2    0    0  0.10986673582E+03 -0.10464724389E+03 -0.23467415533E+03  0.29428546075E+03  0.92250896673E+02 0.  0.
          5    1    3    3  502    0  0.19577753345E+02 -0.97459967692E+01 -0.20720833956E+02  0.30415427646E+02  0.41800000000E+01 0. -1.
         -5    1    3    3    0  502 -0.12944448916E+03  0.11439324066E+03 -0.77036905812E+02  0.18919261756E+03  0.41800000000E+01 0. -1.
        -11    1    4    4    0    0  0.69804113077E+02 -0.95673481861E+02 -0.10502700217E+03  0.15829308424E+03  0.00000000000E+00 0.  1.
         11    1    4    4    0    0  0.40062622738E+02 -0.89737620249E+01 -0.12964715316E+03  0.13599237651E+03  0.00000000000E+00 0. -1.
</event>
<event>
 8    1  0.7102339E-009  0.2013968E+03  0.7561462E-02  0.1148566E+00
         -2   -1    0    0    0  501 -0.00000000000E+00  0.00000000000E+00  0.31628964121E+03  0.31628964121E+03  0.00000000000E+00 0.  1.
          2   -1    0    0  501    0  0.00000000000E+00 -0.00000000000E+00 -0.22734201505E+03  0.22734201505E+03  0.00000000000E+00 0. -1.
         25    2    1    2    0    0  0.80675242491E+02 -0.17377986901E+03 -0.10923406036E+03  0.25354821479E+03  0.12508668856E+03 0.  0.
         23    2    1    2    0    0 -0.80675242491E+02  0.17377986901E+03  0.19818168651E+03  0.29008344147E+03  0.90357537164E+02 0.  0.
          5    1    3    3  502    0 -0.96603306294E+01  0.16796348249E+01 -0.44579819909E+02  0.45836403700E+02  0.41800000000E+01 0.  1.
         -5    1    3    3    0  502  0.90335573121E+02 -0.17545950384E+03 -0.64654240447E+02  0.20771181109E+03  0.41800000000E+01 0.  1.
        -11    1    4    4    0    0 -0.33715601021E+02  0.11306786292E+03  0.17280545978E+03  0.20924342357E+03  0.00000000000E+00 0.  1.
         11    1    4    4    0    0 -0.46959641470E+02  0.60712006093E+02  0.25376226726E+02  0.80840017897E+02  0.00000000000E+00 0. -1.
</event>
<event>
 8    1  0.7102339E-009  0.1024482E+03  0.7561462E-02  0.1275230E+00
          1   -1    0    0  501    0  0.00000000000E+00  0.00000000000E+00  0.38949320347E+03  0.38949320347E+03  0.00000000000E+00 0. -1.
         -1   -1    0    0    0  501 -0.00000000000E+00 -0.00000000000E+00 -0.43192710982E+02  0.43192710982E+02  0.00000000000E+00 0.  1.
         25    2    1    2    0    0  0.17575465701E+02  0.60637457211E+02  0.24580347488E+03  0.28293582079E+03  0.12509009638E+03 0.  0.
         23    2    1    2    0    0 -0.17575465701E+02 -0.60637457211E+02  0.10049701761E+03  0.14975009366E+03  0.91321639228E+02 0.  0.
          5    1    3    3  502    0  0.41175420830E+02  0.66196111531E+02  0.24624931028E+03  0.25832834857E+03  0.41800000000E+01 0.  1.
         -5    1    3    3    0  502 -0.23599955129E+02 -0.55586543203E+01 -0.44583540057E+00  0.24607472222E+02  0.41800000000E+01 0.  1.
        -11    1    4    4    0    0 -0.49749565796E+02 -0.41514679995E+02  0.33345887826E+02  0.72872739669E+02  0.00000000000E+00 0. -1.
         11    1    4    4    0    0  0.32174100094E+02 -0.19122777216E+02  0.67151129789E+02  0.76877353995E+02  0.00000000000E+00 0.  1.
</event>
<event>
 8    1  0.7102339E-009  0.1625015E+03  0.7561462E-02  0.1185901E+00
         -4   -1    0    0    0  501 -0.00000000000E+00  0.00000000000E+00  0.87068794752E+02  0.87068794752E+02  0.00000000000E+00 0.  1.
          4   -1    0    0  501    0  0.00000000000E+00 -0.00000000000E+00 -0.31891823062E+03  0.31891823062E+03  0.00000000000E+00 0. -1.
         25    2    1    2    0    0 -0.12022867529E+03 -0.42021371760E+01 -0.15299868658E+03  0.23136322739E+03  0.12509097719E+03 0.  0.
         23    2    1    2    0    0  0.12022867529E+03  0.42021371760E+01 -0.78850749288E+02  0.17462379798E+03  0.99012311561E+02 0.  0.
          5    1    3    3  502    0  0.18986937496E+02 -0.24811777381E+02 -0.39381911570E+02  0.50443388577E+02  0.41800000000E+01 0. -1.
         -5    1    3    3    0  502 -0.13921561278E+03  0.20609640205E+02 -0.11361677501E+03  0.18091983881E+03  0.41800000000E+01 0. -1.
        -11    1    4    4    0    0  0.73294492312E+02  0.48710250299E+02 -0.28016066157E+02  0.92356218255E+02  0.00000000000E+00 0.  1.
         11    1    4    4    0    0  0.46934182974E+02 -0.44508113123E+02 -0.50834683131E+02  0.82267579728E+02  0.00000000000E+00 0. -1.
</event>
<event>
 8    1  0.7102339E-009  0.1050283E+03  0.7561462E-02  0.1270064E+00
          2   -1    0    0  501    0  0.00000000000E+00  0.00000000000E+00  0.10919990191E+04  0.10919990191E+04  0.00000000000E+00 0. -1.
         -2   -1    0    0    0  501 -0.00000000000E+00 -0.00000000000E+00 -0.13414763922E+02  0.13414763922E+02  0.00000000000E+00 0.  1.
         25    2    1    2    0    0 -0.20973177950E+02  0.42649438691E+02  0.71365283766E+03  0.72609034269E+03  0.12509182321E+03 0.  0.
         23    2    1    2    0    0  0.20973177950E+02 -0.42649438691E+02  0.36493141754E+03  0.37932344036E+03  0.91937392176E+02 0.  0.
          5    1    3    3  502    0  0.27314398719E+02 -0.16957188106E+02  0.62379719154E+02  0.70301666891E+02  0.41800000000E+01 0.  1.
         -5    1    3    3    0  502 -0.48287576669E+02  0.59606626798E+02  0.65127311851E+03  0.65578867580E+03  0.41800000000E+01 0.  1.
        -11    1    4    4    0    0 -0.35183785683E+02 -0.16875558868E+02  0.18523569783E+03  0.18930120710E+03  0.00000000000E+00 0. -1.
         11    1    4    4    0    0  0.56156963633E+02 -0.25773879823E+02  0.17969571972E+03  0.19002223325E+03  0.00000000000E+00 0.  1.
</event>
<event>
 8    1  0.7102339E-009  0.1089994E+03  0.7561462E-02  0.1262434E+00
          2   -1    0    0  501    0  0.00000000000E+00  0.00000000000E+00  0.84286243478E+02  0.84286243478E+02  0.00000000000E+00 0. -1.
         -2   -1    0    0    0  501 -0.00000000000E+00 -0.00000000000E+00 -0.20479439127E+03  0.20479439127E+03  0.00000000000E+00 0.  1.
         25    2    1    2    0    0  0.23269042526E+02 -0.20439971888E+02 -0.14201975492E+03  0.19177230723E+03  0.12509103181E+03 0.  0.
         23    2    1    2    0    0 -0.23269042526E+02  0.20439971888E+02  0.21511607132E+02  0.97308327519E+02  0.89704629603E+02 0.  0.
          5    1    3    3  502    0  0.31276851115E+02  0.48822463840E+02 -0.53413526387E+02  0.78945244265E+02  0.41800000000E+01 0. -1.
         -5    1    3    3    0  502 -0.80078085888E+01 -0.69262435728E+02 -0.88606228537E+02  0.11282706296E+03  0.41800000000E+01 0. -1.
        -11    1    4    4    0    0 -0.16494397530E+02 -0.32606087191E+02 -0.62236972566E+01  0.37066918935E+02  0.00000000000E+00 0.  1.
         11    1    4    4    0    0 -0.67746449957E+01  0.53046059079E+02  0.27735304389E+02  0.60241408584E+02  0.00000000000E+00 0. -1.
</event>
<event>
 8    1  0.7102339E-009  0.1250263E+03  0.7561462E-02  0.1235028E+00
         -2   -1    0    0    0  501 -0.00000000000E+00  0.00000000000E+00  0.44698386064E+02  0.44698386064E+02  0.00000000000E+00 0.  1.
          2   -1    0    0  501    0  0.00000000000E+00 -0.00000000000E+00 -0.66926805012E+03  0.66926805012E+03  0.00000000000E+00 0. -1.
         25    2    1    2    0    0  0.83498493254E+02  0.33078423147E+02 -0.53819222092E+03  0.55978895718E+03  0.12508648797E+03 0.  0.
         23    2    1    2    0    0 -0.83498493254E+02 -0.33078423147E+02 -0.86377443143E+02  0.15417747901E+03  0.90793457340E+02 0.  0.
          5    1    3    3  502    0 -0.20461186521E+02  0.10937702077E+02 -0.20377136706E+02  0.31160769902E+02  0.41800000000E+01 0.  1.
         -5    1    3    3    0  502  0.10395967978E+03  0.22140721070E+02 -0.51781508421E+03  0.52862818728E+03  0.41800000000E+01 0.  1.
        -11    1    4    4    0    0  0.69862847401E+01 -0.28673773063E+02 -0.74998805388E+00  0.29522125909E+02  0.00000000000E+00 0. -1.
         11    1    4    4    0    0 -0.90484777994E+02 -0.44046500840E+01 -0.85627455089E+02  0.12465535310E+03  0.00000000000E+00 0.  1.
</event>
<event>
 8    1  0.7102339E-009  0.1160487E+03  0.7561462E-02  0.1249762E+00
         -1   -1    0    0    0  501 -0.00000000000E+00  0.00000000000E+00  0.24563006106E+02  0.24563006106E+02  0.00000000000E+00 0.  1.
          1   -1    0    0  501    0  0.00000000000E+00 -0.00000000000E+00 -0.78431802430E+03  0.78431802430E+03  0.00000000000E+00 0. -1.
         25    2    1    2    0    0  0.69326070374E+02  0.33081285370E+02 -0.52128256275E+03  0.54155647591E+03  0.12508969143E+03 0.  0.
         23    2    1    2    0    0 -0.69326070374E+02 -0.33081285370E+02 -0.23847245545E+03  0.26732455450E+03  0.93235347128E+02 0.  0.
          5    1    3    3  502    0  0.95183224724E+02  0.52156802115E+02 -0.45490282084E+03  0.46769031109E+03  0.41800000000E+01 0. -1.
         -5    1    3    3    0  502 -0.25857154350E+02 -0.19075516745E+02 -0.66379741907E+02  0.73866164824E+02  0.41800000000E+01 0. -1.
        -11    1    4    4    0    0 -0.53925734053E+02  0.72307109909E+00 -0.44768427097E+02  0.70090796041E+02  0.00000000000E+00 0.  1.
         11    1    4    4    0    0 -0.15400336321E+02 -0.33804356469E+02 -0.19370402835E+03  0.19723375845E+03  0.00000000000E+00 0. -1.
</event>
<event>
 8    1  0.7102339E-009  0.1388164E+03  0.7561462E-02  0.1214931E+00
         -2   -1    0    0    0  501 -0.00000000000E+00  0.00000000000E+00  0.85900899514E+02  0.85900899514E+02  0.00000000000E+00 0.  1.
          2   -1    0    0  501    0  0.00000000000E+00 -0.00000000000E+00 -0.29195807701E+03  0.29195807701E+03  0.00000000000E+00 0. -1.
         25    2    1    2    0    0  0.77239617765E+02 -0.75647991563E+02 -0.15346361768E+03  0.22557500583E+03  0.12507767236E+03 0.  0.
         23    2    1    2    0    0 -0.77239617765E+02  0.75647991563E+02 -0.52593559817E+02  0.15228397070E+03  0.93465223572E+02 0.  0.
          5    1    3    3  502    0  0.50775448174E+02 -0.98976678010E+02 -0.15402969400E+03  0.19004512086E+03  0.41800000000E+01 0.  1.
         -5    1    3    3    0  502  0.26464169591E+02  0.23328686446E+02  0.56607632380E+00  0.35529884969E+02  0.41800000000E+01 0.  1.
        -11    1    4    4    0    0 -0.82799425823E+02  0.35218884947E+02 -0.57569712746E+01  0.90162395109E+02  0.00000000000E+00 0.  1.
         11    1    4    4    0    0  0.55598080579E+01  0.40429106617E+02 -0.46836588542E+02  0.62121575590E+02  0.00000000000E+00 0. -1.
</event>
<event>
 8    1  0.7102339E-009  0.1405005E+03  0.7561462E-02  0.1212657E+00
          3   -1    0    0  501    0  0.00000000000E+00  0.00000000000E+00  0.62863749936E+03  0.62863749936E+03  0.00000000000E+00 0. -1.
         -3   -1    0    0    0  501 -0.00000000000E+00 -0.00000000000E+00 -0.35904280620E+02  0.35904280620E+02  0.00000000000E+00 0.  1.
         25    2    1    2    0    0 -0.18991460413E+02  0.10172972060E+03  0.33678191222E+03  0.37387161131E+03  0.12509322013E+03 0.  0.
         23    2    1    2    0    0  0.18991460413E+02 -0.10172972060E+03  0.25595130652E+03  0.29067016867E+03  0.90931094913E+02 0.  0.
          5    1    3    3  502    0  0.50680974740E+02  0.27552382643E+02  0.15593056837E+03  0.16631148350E+03  0.41800000000E+01 0.  1.
         -5    1    3    3    0  502 -0.69672435153E+02  0.74177337960E+02  0.18085134385E+03  0.20756012781E+03  0.41800000000E+01 0.  1.
        -11    1    4    4    0    0  0.42107321096E+02 -0.55934696996E+02  0.21151758719E+03  0.22280351547E+03  0.00000000000E+00 0. -1.
         11    1    4    4    0    0 -0.23115860684E+02 -0.45795023607E+02  0.44433719338E+02  0.67866653200E+02  0.00000000000E+00 0.  1.
</event>
<event>
 8    1  0.7102339E-009  0.9084084E+02  0.7561462E-02  0.1300828E+00
          2   -1    0    0  501    0  0.00000000000E+00  0.00000000000E+00  0.56721447797E+02  0.56721447797E+02  0.00000000000E+00 0. -1.
         -2   -1    0    0    0  501 -0.00000000000E+00 -0.00000000000E+00 -0.33108318906E+03  0.33108318906E+03  0.00000000000E+00 0.  1.
         25    2    1    2    0    0 -0.40060521113E+02  0.51213391588E+02 -0.76337548535E+02  0.16029285906E+03  0.12505487803E+03 0.  0.
         23    2    1    2    0    0  0.40060521113E+02 -0.51213391588E+02 -0.19802419273E+03  0.22751177780E+03  0.91216069316E+02 0.  0.
          5    1    3    3  502    0 -0.44915037688E+02  0.77311303196E+02 -0.92675510032E+02  0.12884339631E+03  0.41800000000E+01 0. -1.
         -5    1    3    3    0  502  0.48545165743E+01 -0.26097911608E+02  0.16337961497E+02  0.31449462751E+02  0.41800000000E+01 0. -1.
        -11    1    4    4    0    0  0.16020542210E+02 -0.15826477836E+02  0.23312160030E+01  0.22640003123E+02  0.00000000000E+00 0. -1.
         11    1    4    4    0    0  0.24039978904E+02 -0.35386913752E+02 -0.20035540873E+03  0.20487177467E+03  0.00000000000E+00 0.  1.
</event>
<event>
 8    1  0.7102339E-009  0.7024234E+02  0.7561462E-02  0.1359271E+00
         -3   -1    0    0    0  501 -0.00000000000E+00  0.00000000000E+00  0.39728128398E+02  0.39728128398E+02  0.00000000000E+00 0.  1.
          3   -1    0    0  501    0  0.00000000000E+00 -0.00000000000E+00 -0.35999178403E+03  0.35999178403E+03  0.00000000000E+00 0. -1.
         25    2    1    2    0    0  0.39240916582E+02  0.11449107124E+02 -0.22738033232E+03  0.26271881255E+03  0.12509367433E+03 0.  0.
         23    2    1    2    0    0 -0.39240916582E+02 -0.11449107124E+02 -0.92883323314E+02  0.13700109987E+03  0.92038350859E+02 0.  0.
          5    1    3    3  502    0 -0.23409540885E+02  0.20406581409E+02 -0.18213048788E+03  0.18480644519E+03  0.41800000000E+01 0.  1.
         -5    1    3    3    0  502  0.62650457466E+02 -0.89574742848E+01 -0.45249844441E+02  0.77912367364E+02  0.41800000000E+01 0.  1.
        -11    1    4    4    0    0 -0.19132748804E+02 -0.16190967147E+02 -0.10833863060E+03  0.11120012758E+03  0.00000000000E+00 0. -1.
         11    1    4    4    0    0 -0.20108167778E+02  0.47418600230E+01  0.15455307287E+02  0.25800972292E+02  0.00000000000E+00 0.  1.
</event>
<event>
 8    1  0.7102339E-009  0.1409056E+03  0.7561462E-02  0.1212116E+00
          2   -1    0    0  501    0  0.00000000000E+00  0.00000000000E+00  0.71472860602E+02  0.71472860602E+02  0.00000000000E+00 0.  1.
         -2   -1    0    0    0  501 -0.00000000000E+00 -0.00000000000E+00 -0.31737008825E+03  0.31737008825E+03  0.00000000000E+00 0. -1.
         25    2    1    2    0    0  0.76781963037E+01  0.10105771934E+03 -0.16092938217E+03  0.22763494692E+03  0.12509110950E+03 0.  0.
         23    2    1    2    0    0 -0.76781963037E+01 -0.10105771934E+03 -0.84967845472E+02  0.16120800193E+03  0.92178456178E+02 0.  0.
          5    1    3    3  502    0  0.62028006663E+02  0.63256838448E+02 -0.12162921984E+03  0.15053252386E+03  0.41800000000E+01 0. -1.
         -5    1    3    3    0  502 -0.54349810360E+02  0.37800880895E+02 -0.39300162331E+02  0.77102423061E+02  0.41800000000E+01 0. -1.
        -11    1    4    4    0    0  0.15883162750E+02  0.61392100744E+01 -0.38353313858E+02  0.41963572812E+02  0.00000000000E+00 0.  1.
         11    1    4    4    0    0 -0.23561359053E+02 -0.10719692942E+03 -0.46614531614E+02  0.11924442911E+03  0.00000000000E+00 0. -1.
</event>
<event>
 8    1  0.7102339E-009  0.1153624E+03  0.7561462E-02  0.1250950E+00
         -1   -1    0    0    0  501 -0.00000000000E+00  0.00000000000E+00  0.88200432215E+02  0.88200432215E+02  0.00000000000E+00 0.  1.
          1   -1    0    0  501    0  0.00000000000E+00 -0.00000000000E+00 -0.15451147886E+03  0.15451147886E+03  0.00000000000E+00 0. -1.
         25    2    1    2    0    0  0.29671864933E+02  0.31518625762E+02 -0.48210803225E+02  0.14087594912E+03  0.12509159906E+03 0.  0.
         23    2    1    2    0    0 -0.29671864933E+02 -0.31518625762E+02 -0.18100243422E+02  0.10183596195E+03  0.90383079148E+02 0.  0.
          5    1    3    3  502    0  0.35173610854E+02  0.77764810634E+02 -0.27848829035E+02  0.89875348968E+02  0.41800000000E+01 0.  1.
         -5    1    3    3    0  502 -0.55017459207E+01 -0.46246184872E+02 -0.20361974190E+02  0.51000600157E+02  0.41800000000E+01 0.  1.
        -11    1    4    4    0    0 -0.21796933830E+02 -0.62685552711E+02 -0.20868237918E+02  0.69570598652E+02  0.00000000000E+00 0. -1.
         11    1    4    4    0    0 -0.78749311036E+01  0.31166926949E+02  0.27679944962E+01  0.32265363300E+02  0.00000000000E+00 0.  1.
</event>
<event>
 8    1  0.7102339E-009  0.7450596E+02  0.7561462E-02  0.1345408E+00
         -1   -1    0    0    0  501 -0.00000000000E+00  0.00000000000E+00  0.36342832477E+02  0.36342832477E+02  0.00000000000E+00 0.  1.
          1   -1    0    0  501    0  0.00000000000E+00 -0.00000000000E+00 -0.35738262954E+03  0.35738262954E+03  0.00000000000E+00 0. -1.
         25    2    1    2    0    0  0.35525442980E+02 -0.62633829582E+01 -0.18618511935E+03  0.22719123544E+03  0.12509864799E+03 0.  0.
         23    2    1    2    0    0 -0.35525442980E+02  0.62633829582E+01 -0.13485467772E+03  0.16653422658E+03  0.90810668181E+02 0.  0.
          5    1    3    3  502    0  0.73255974155E+00  0.22202984937E+02 -0.18024164095E+03  0.18165360089E+03  0.41800000000E+01 0. -1.
         -5    1    3    3    0  502  0.34792883238E+02 -0.28466367895E+02 -0.59434784027E+01  0.45537634553E+02  0.41800000000E+01 0. -1.
        -11    1    4    4    0    0 -0.48635857756E+02 -0.19462127450E+02 -0.36034610678E+02  0.63582342134E+02  0.00000000000E+00 0.  1.
         11    1    4    4    0    0  0.13110414776E+02  0.25725510408E+02 -0.98820067040E+02  0.10295188445E+03  0.00000000000E+00 0. -1.
</event>
<event>
 8    1  0.7102339E-009  0.1272865E+03  0.7561462E-02  0.1231539E+00
          1   -1    0    0  501    0  0.00000000000E+00  0.00000000000E+00  0.17713423750E+03  0.17713423750E+03  0.00000000000E+00 0. -1.
         -1   -1    0    0    0  501 -0.00000000000E+00 -0.00000000000E+00 -0.11900720933E+03  0.11900720933E+03  0.00000000000E+00 0.  1.
         25    2    1    2    0    0 -0.95219128815E+01 -0.94077360864E+02  0.19816544045E+02  0.15806605992E+03  0.12510382580E+03 0.  0.
         23    2    1    2    0    0  0.95219128815E+01  0.94077360864E+02  0.38310484130E+02  0.13807538691E+03  0.93037103485E+02 0.  0.
          5    1    3    3  502    0 -0.42391534032E+02 -0.88611323790E+02  0.52283609892E+02  0.11135554375E+03  0.41800000000E+01 0. -1.
         -5    1    3    3    0  502  0.32869621151E+02 -0.54660370745E+01 -0.32467065847E+02  0.46710516167E+02  0.41800000000E+01 0. -1.
        -11    1    4    4    0    0  0.20549144484E+00  0.10685714576E+03  0.12203758207E+02  0.10755195741E+03  0.00000000000E+00 0.  1.
         11    1    4    4    0    0  0.93164214366E+01 -0.12779784899E+02  0.26106725923E+02  0.30523429507E+02  0.00000000000E+00 0. -1.
</event>
<event>
 8    1  0.7102339E-009  0.1622210E+03  0.7561462E-02  0.1186212E+00
         -1   -1    0    0    0  501 -0.00000000000E+00  0.00000000000E+00  0.75810511303E+02  0.75810511303E+02  0.00000000000E+00 0.  1.
          1   -1    0    0  501    0  0.00000000000E+00 -0.00000000000E+00 -0.71896545816E+03  0.71896545816E+03  0.00000000000E+00 0. -1.
         25    2    1    2    0    0  0.17742045434E+01  0.13846590970E+03 -0.59113191338E+03  0.61988743254E+03  0.12509010375E+03 0.  0.
         23    2    1    2    0    0 -0.17742045434E+01 -0.13846590970E+03 -0.52023033485E+02  0.17488853693E+03  0.93293345880E+02 0.  0.
          5    1    3    3  502    0  0.56642023857E+02  0.39939412320E+02 -0.29292188140E+03  0.30103849675E+03  0.41800000000E+01 0.  1.
         -5    1    3    3    0  502 -0.54867819314E+02  0.98526497378E+02 -0.29821003198E+03  0.31884893579E+03  0.41800000000E+01 0.  1.
        -11    1    4    4    0    0 -0.14707955037E+02 -0.10887111516E+03  0.43199151837E+01  0.10994501046E+03  0.00000000000E+00 0.  1.
         11    1    4    4    0    0  0.12933750494E+02 -0.29594794539E+02 -0.56342948669E+02  0.64943526470E+02  0.00000000000E+00 0. -1.
</event>
<event>
 8    1  0.7102339E-009  0.1095526E+03  0.7561462E-02  0.1261401E+00
         -1   -1    0    0    0  501 -0.00000000000E+00  0.00000000000E+00  0.35212776788E+02  0.35212776788E+02  0.00000000000E+00 0.  1.
          1   -1    0    0  501    0  0.00000000000E+00 -0.00000000000E+00 -0.40380384616E+03  0.40380384616E+03  0.00000000000E+00 0. -1.
         25    2    1    2    0    0  0.18221589559E+02 -0.47524240833E+02 -0.23208992193E+03  0.26851793370E+03  0.12508224921E+03 0.  0.
         23    2    1    2    0    0 -0.18221589559E+02  0.47524240833E+02 -0.13650114744E+03  0.17049868924E+03  0.88581374946E+02 0.  0.
          5    1    3    3  502    0  0.60816937716E+02 -0.60825447250E+02 -0.11916993157E+03  0.14702850042E+03  0.41800000000E+01 0. -1.
         -5    1    3    3    0  502 -0.42595348157E+02  0.13301206417E+02 -0.11291999036E+03  0.12148943328E+03  0.41800000000E+01 0. -1.
        -11    1    4    4    0    0  0.27871178966E+02  0.21807487688E+02 -0.10065673828E+03  0.10669652336E+03  0.00000000000E+00 0. -1.
         11    1    4    4    0    0 -0.46092768524E+02  0.25716753145E+02 -0.35844409156E+02  0.63802165875E+02  0.00000000000E+00 0.  1.
</event>
<event>
 8    1  0.7102339E-009  0.1712129E+03  0.7561462E-02  0.1176589E+00
          3   -1    0    0  501    0  0.00000000000E+00  0.00000000000E+00  0.93694904688E+02  0.93694904688E+02  0.00000000000E+00 0. -1.
         -3   -1    0    0    0  501 -0.00000000000E+00 -0.00000000000E+00 -0.36553635950E+03  0.36553635950E+03  0.00000000000E+00 0.  1.
         25    2    1    2    0    0  0.11037789752E+03  0.10081147059E+03 -0.13050308079E+03  0.23457423538E+03  0.12509110660E+03 0.  0.
         23    2    1    2    0    0 -0.11037789752E+03 -0.10081147059E+03 -0.14133837403E+03  0.22465702881E+03  0.90266337902E+02 0.  0.
          5    1    3    3  502    0  0.56709414771E+02  0.12232903605E+03 -0.75148384021E+02  0.15441859605E+03  0.41800000000E+01 0. -1.
         -5    1    3    3    0  502  0.53668482745E+02 -0.21517565462E+02 -0.55354696765E+02  0.80155639337E+02  0.41800000000E+01 0. -1.
        -11    1    4    4    0    0 -0.15516887670E+02 -0.16352231449E+02 -0.80931217686E+02  0.84012090038E+02  0.00000000000E+00 0.  1.
         11    1    4    4    0    0 -0.94861009845E+02 -0.84459239136E+02 -0.60407156343E+02  0.14064493877E+03  0.00000000000E+00 0. -1.
</event>
<event>
 8    1  0.7102339E-009  0.1674252E+03  0.7561462E-02  0.1180560E+00
         -4   -1    0    0    0  501 -0.00000000000E+00  0.00000000000E+00  0.83260077664E+02  0.83260077664E+02  0.00000000000E+00 0.  1.
          4   -1    0    0  501    0  0.00000000000E+00 -0.00000000000E+00 -0.40322827583E+03  0.40322827583E+03  0.00000000000E+00 0. -1.
         25    2    1    2    0    0  0.13987521124E+03 -0.64610210773E+01 -0.98827295113E+02  0.21218475963E+03  0.12509483782E+03 0.  0.
         23    2    1    2    0    0 -0.13987521124E+03  0.64610210773E+01 -0.22114090305E+03  0.27430359386E+03  0.82050856729E+02 0.  0.
          5    1    3    3  502    0  0.25751801590E+02  0.52811850607E+02 -0.35554830620E+02  0.68803090266E+02  0.41800000000E+01 0. -1.
         -5    1    3    3    0  502  0.11412340965E+03 -0.59272871684E+02 -0.63272464493E+02  0.14338166937E+03  0.41800000000E+01 0. -1.
        -11    1    4    4    0    0 -0.57459438002E+02  0.25229395055E+02 -0.15420194934E+03  0.16648228306E+03  0.00000000000E+00 0. -1.
         11    1    4    4    0    0 -0.82415773236E+02 -0.18768373978E+02 -0.66938953706E+02  0.10782131080E+03  0.00000000000E+00 0.  1.
</event>
<event>
 8    1  0.7102339E-009  0.1877510E+03  0.7561462E-02  0.1160506E+00
         -2   -1    0    0    0  501 -0.00000000000E+00  0.00000000000E+00  0.37130806994E+02  0.37130806994E+02  0.00000000000E+00 0.  1.
          2   -1    0    0  501    0  0.00000000000E+00 -0.00000000000E+00 -0.10622147051E+04  0.10622147051E+04  0.00000000000E+00 0. -1.
         25    2    1    2    0    0  0.11678458968E+03 -0.11535946348E+03 -0.62938527005E+03  0.66235912579E+03  0.12508935668E+03 0.  0.
         23    2    1    2    0    0 -0.11678458968E+03  0.11535946348E+03 -0.39569862810E+03  0.43698638635E+03  0.86216305733E+02 0.  0.
          5    1    3    3  502    0  0.11367617562E+03 -0.41939008699E+02 -0.48950421083E+03  0.50429455498E+03  0.41800000000E+01 0.  1.
         -5    1    3    3    0  502  0.31084140608E+01 -0.73420454780E+02 -0.13988105922E+03  0.15806457081E+03  0.41800000000E+01 0.  1.
        -11    1    4    4    0    0 -0.81555182674E+02  0.27610266067E+02 -0.23818998872E+03  0.25327464409E+03  0.00000000000E+00 0.  1.
         11    1    4    4    0    0 -0.35229407010E+02  0.87749197411E+02 -0.15750863938E+03  0.18371174226E+03  0.00000000000E+00 0. -1.
</event>
<event>
 8    1  0.7102339E-009  0.8470535E+02  0.7561462E-02  0.1316205E+00
         -2   -1    0    0    0  501 -0.00000000000E+00  0.00000000000E+00  0.85541934786E+02  0.85541934786E+02  0.00000000000E+00 0.  1.
          2   -1    0    0  501    0  0.00000000000E+00 -0.00000000000E+00 -0.14188699438E+03  0.14188699438E+03  0.00000000000E+00 0. -1.
         25    2    1    2    0    0  0.91401313930E+01  0.14163663495E+02 -0.35685120925E+02  0.13116813637E+03  0.12508997073E+03 0.  0.
         23    2    1    2    0    0 -0.91401313930E+01 -0.14163663495E+02 -0.20659938671E+02  0.96260792803E+02  0.92494085214E+02 0.  0.
          5    1    3    3  502    0 -0.10710683792E+02 -0.30612405675E+02  0.33162060659E+02  0.46572876180E+02  0.41800000000E+01 0.  1.
         -5    1    3    3    0  502  0.19850815185E+02  0.44776069170E+02 -0.68847181584E+02  0.84595260186E+02  0.41800000000E+01 0.  1.
        -11    1    4    4    0    0 -0.83987379110E+01  0.36211453512E+02  0.83861277132E+01  0.38106893103E+02  0.00000000000E+00 0.  1.
         11    1    4    4    0    0 -0.74139348199E+00 -0.50375117008E+02 -0.29046066384E+02  0.58153899699E+02  0.00000000000E+00 0. -1.
</event>
<event>
 8    1  0.7102339E-009  0.1211644E+03  0.7561462E-02  0.1241188E+00
          1   -1    0    0  501    0  0.00000000000E+00  0.00000000000E+00  0.16257698102E+03  0.16257698102E+03  0.00000000000E+00 0. -1.
         -1   -1    0    0    0  501 -0.00000000000E+00 -0.00000000000E+00 -0.98261927620E+02  0.98261927620E+02  0.00000000000E+00 0.  1.
         25    2    1    2    0    0 -0.16343588115E+02 -0.61921785190E+02  0.50780957179E+02  0.14942514432E+03  0.12509095806E+03 0.  0.
         23    2    1    2    0    0  0.16343588115E+02  0.61921785190E+02  0.13534096223E+02  0.11141376432E+03  0.90157832528E+02 0.  0.
          5    1    3    3  502    0 -0.32695752716E+02  0.31419253576E+02  0.13370986033E+02  0.47459850489E+02  0.41800000000E+01 0.  1.
         -5    1    3    3    0  502  0.16352164600E+02 -0.93341038766E+02  0.37409971146E+02  0.10196529383E+03  0.41800000000E+01 0.  1.
        -11    1    4    4    0    0 -0.27672026873E+02  0.48640527595E+02  0.28842295721E+02  0.62956493061E+02  0.00000000000E+00 0. -1.
         11    1    4    4    0    0  0.44015614989E+02  0.13281257595E+02 -0.15308199499E+02  0.48457271260E+02  0.00000000000E+00 0.  1.
</event>
<event>
 8    1  0.7102339E-009  0.1344556E+03  0.7561462E-02  0.1220990E+00
          1   -1    0    0  501    0  0.00000000000E+00  0.00000000000E+00  0.29504637171E+02  0.29504637171E+02  0.00000000000E+00 0. -1.
         -1   -1    0    0    0  501 -0.00000000000E+00 -0.00000000000E+00 -0.67124443385E+03  0.67124443385E+03  0.00000000000E+00 0.  1.
         25    2    1    2    0    0 -0.23180018051E+02 -0.86456134977E+02 -0.37470530041E+03  0.40504488256E+03  0.12508124649E+03 0.  0.
         23    2    1    2    0    0  0.23180018051E+02  0.86456134977E+02 -0.26703449627E+03  0.29570418846E+03  0.90119744574E+02 0.  0.
          5    1    3    3  502    0 -0.21419745913E+02  0.29116524753E+02 -0.11807581418E+03  0.12355544433E+03  0.41800000000E+01 0. -1.
         -5    1    3    3    0  502 -0.17602721385E+01 -0.11557265973E+03 -0.25662948623E+03  0.28148943824E+03  0.41800000000E+01 0. -1.
        -11    1    4    4    0    0  0.33495915244E+02  0.39664552469E+01 -0.13910833715E+03  0.14313922792E+03  0.00000000000E+00 0. -1.
         11    1    4    4    0    0 -0.10315897193E+02  0.82489679730E+02 -0.12792615913E+03  0.15256496054E+03  0.00000000000E+00 0.  1.
</event>
<event>
 8    1  0.7102339E-009  0.1078424E+03  0.7561462E-02  0.1264618E+00
          2   -1    0    0  501    0  0.00000000000E+00  0.00000000000E+00  0.72983123017E+02  0.72983123017E+02  0.00000000000E+00 0.  1.
         -2   -1    0    0    0  501 -0.00000000000E+00 -0.00000000000E+00 -0.23936334949E+03  0.23936334949E+03  0.00000000000E+00 0. -1.
         25    2    1    2    0    0 -0.44735923168E+02  0.56128671115E+02 -0.12420902258E+03  0.19033440453E+03  0.12509026227E+03 0.  0.
         23    2    1    2    0    0  0.44735923168E+02 -0.56128671115E+02 -0.42171203893E+02  0.12201206798E+03  0.89200917887E+02 0.  0.
          5    1    3    3  502    0 -0.60870259048E+02  0.84807856364E+02 -0.11610097777E+03  0.15618729262E+03  0.41800000000E+01 0.  1.
         -5    1    3    3    0  502  0.16134335880E+02 -0.28679185249E+02 -0.81080448094E+01  0.34147111905E+02  0.41800000000E+01 0.  1.
        -11    1    4    4    0    0  0.35829738707E+02 -0.20427275630E+02  0.22961393663E+02  0.47204548133E+02  0.00000000000E+00 0.  1.
         11    1    4    4    0    0  0.89061844607E+01 -0.35701395485E+02 -0.65132597555E+02  0.74807519846E+02  0.00000000000E+00 0. -1.
</event>
<event>
 8    1  0.7102339E-009  0.9779623E+02  0.7561462E-02  0.1285000E+00
         -2   -1    0    0    0  501 -0.00000000000E+00  0.00000000000E+00  0.88652722475E+02  0.88652722475E+02  0.00000000000E+00 0.  1.
          2   -1    0    0  501    0  0.00000000000E+00 -0.00000000000E+00 -0.13745249881E+03  0.13745249881E+03  0.00000000000E+00 0. -1.
         25    2    1    2    0    0  0.77734638161E+01  0.10732667636E+02 -0.43191458585E+02  0.13299574054E+03  0.12508696180E+03 0.  0.
         23    2    1    2    0    0 -0.77734638161E+01 -0.10732667636E+02 -0.56083177473E+01  0.93109480743E+02  0.91990789115E+02 0.  0.
          5    1    3    3  502    0 -0.35563147610E+02 -0.28138650030E+02 -0.57059595933E+02  0.73005417481E+02  0.41800000000E+01 0.  1.
         -5    1    3    3    0  502  0.43336611427E+02  0.38871317666E+02  0.13868137348E+02  0.59990323058E+02  0.41800000000E+01 0.  1.
        -11    1    4    4    0    0  0.40229187153E+02 -0.16209195133E+02  0.49552303445E+01  0.43654092748E+02  0.00000000000E+00 0.  1.
         11    1    4    4    0    0 -0.48002650969E+02  0.54765274972E+01 -0.10563548092E+02  0.49455387995E+02  0.00000000000E+00 0. -1.
</event>
<event>
 8    1  0.7102339E-009  0.1499010E+03  0.7561462E-02  0.1200595E+00
          2   -1    0    0  501    0  0.00000000000E+00  0.00000000000E+00  0.24474473002E+02  0.24474473002E+02  0.00000000000E+00 0. -1.
         -2   -1    0    0    0  501 -0.00000000000E+00 -0.00000000000E+00 -0.10024908787E+04  0.10024908787E+04  0.00000000000E+00 0.  1.
         25    2    1    2    0    0 -0.79179438526E+02  0.77156114317E+02 -0.64921183363E+03  0.67033318728E+03  0.12509247608E+03 0.  0.
         23    2    1    2    0    0  0.79179438526E+02 -0.77156114317E+02 -0.32880457211E+03  0.35663216447E+03  0.82774420162E+02 0.  0.
          5    1    3    3  502    0  0.18626422080E+02  0.63633404807E+02 -0.21566647936E+03  0.22566713657E+03  0.41800000000E+01 0. -1.
         -5    1    3    3    0  502 -0.97805860606E+02  0.13522709511E+02 -0.43354535427E+03  0.44466605071E+03  0.41800000000E+01 0. -1.
        -11    1    4    4    0    0  0.55179272821E+02 -0.91303874569E+02 -0.28886934273E+03  0.30793935576E+03  0.00000000000E+00 0.  1.
         11    1    4    4    0    0  0.24000165705E+02  0.14147760252E+02 -0.39935229386E+02  0.48692808711E+02  0.00000000000E+00 0. -1.
</event>
<event>
 8    1  0.7102339E-009  0.9795185E+02  0.7561462E-02  0.1284663E+00
          3   -1    0    0  501    0  0.00000000000E+00  0.00000000000E+00  0.30771372124E+02  0.30771372124E+02  0.00000000000E+00 0. -1.
         -3   -1    0    0    0  501 -0.00000000000E+00 -0.00000000000E+00 -0.49237850243E+03  0.49237850243E+03  0.00000000000E+00 0.  1.
         25    2    1    2    0    0  0.14518805058E+02  0.27258201716E+02 -0.15426277403E+03  0.20099312933E+03  0.12508968512E+03 0.  0.
         23    2    1    2    0    0 -0.14518805058E+02 -0.27258201716E+02 -0.30734435627E+03  0.32215674522E+03  0.91491037259E+02 0.  0.
          5    1    3    3  502    0  0.63526908045E+02  0.28198269815E+02 -0.50046931416E+02  0.85749508514E+02  0.41800000000E+01 0.  1.
         -5    1    3    3    0  502 -0.49008102987E+02 -0.94006809810E+00 -0.10421584262E+03  0.11524362082E+03  0.41800000000E+01 0.  1.
        -11    1    4    4    0    0 -0.84522659683E+01 -0.51449260894E+02 -0.28132160948E+03  0.28611241708E+03  0.00000000000E+00 0.  1.
         11    1    4    4    0    0 -0.60665390896E+01  0.24191059177E+02 -0.26022746791E+02  0.36044328142E+02  0.00000000000E+00 0. -1.
</event>
<event>
 8    1  0.7102339E-009  0.1976231E+03  0.7561462E-02  0.1151760E+00
         -1   -1    0    0    0  501 -0.00000000000E+00  0.00000000000E+00  0.31159649011E+03  0.31159649011E+03  0.00000000000E+00 0.  1.
          1   -1    0    0  501    0  0.00000000000E+00 -0.00000000000E+00 -0.16195940821E+03  0.16195940821E+03  0.00000000000E+00 0. -1.
         25    2    1    2    0    0  0.91527378701E+01  0.18719614853E+03  0.15143611955E+02  0.22583952369E+03  0.12509192955E+03 0.  0.
         23    2    1    2    0    0 -0.91527378701E+01 -0.18719614853E+03  0.13449346994E+03  0.24771637463E+03  0.90270361502E+02 0.  0.
          5    1    3    3  502    0  0.56245108030E+01  0.55249853137E+02 -0.53308093738E+02  0.77093492925E+02  0.41800000000E+01 0. -1.
         -5    1    3    3    0  502  0.35282270672E+01  0.13194629540E+03  0.68451705693E+02  0.14874603076E+03  0.41800000000E+01 0. -1.
        -11    1    4    4    0    0 -0.47414193125E+02 -0.72890753225E+02  0.65155942287E+02  0.10865755579E+03  0.00000000000E+00 0.  1.
         11    1    4    4    0    0  0.38261455255E+02 -0.11430539531E+03  0.69337527655E+02  0.13905881884E+03  0.00000000000E+00 0. -1.
</event>
<event>
 8    1  0.7102339E-009  0.3244700E+03  0.7561462E-02  0.1073610E+00
         -2   -1    0    0    0  501 -0.00000000000E+00  0.00000000000E+00  0.76440270216E+02  0.76440270216E+02  0.00000000000E+00 0.  1.
          2   -1    0    0  501    0  0.00000000000E+00 -0.00000000000E+00 -0.17346243579E+04  0.17346243579E+04  0.00000000000E+00 0. -1.
         25    2    1    2    0    0  0.27241563669E+03  0.16938050264E+03 -0.50958038027E+03  0.61498808772E+03  0.12505259013E+03 0.  0.
         23    2    1    2    0    0 -0.27241563669E+03 -0.16938050264E+03 -0.11486037074E+04  0.11960765403E+04  0.91698309699E+02 0.  0.
          5    1    3    3  502    0  0.65415672300E+02  0.60397767070E+02 -0.25054755735E+03  0.26592978649E+03  0.41800000000E+01 0. -1.
         -5    1    3    3    0  502  0.20699996439E+03  0.10898273557E+03 -0.25903282292E+03  0.34905830123E+03  0.41800000000E+01 0. -1.
        -11    1    4    4    0    0 -0.25461615543E+03 -0.17279052366E+03 -0.11249653771E+04  0.11662902946E+04  0.00000000000E+00 0. -1.
         11    1    4    4    0    0 -0.17799481258E+02  0.34100210232E+01 -0.23638330304E+02  0.29786245752E+02  0.00000000000E+00 0.  1.
</event>
<event>
 8    1  0.7102339E-009  0.1232384E+03  0.7561462E-02  0.1237848E+00
         -1   -1    0    0    0  501 -0.00000000000E+00  0.00000000000E+00  0.62755542194E+02  0.62755542194E+02  0.00000000000E+00 0.  1.
          1   -1    0    0  501    0  0.00000000000E+00 -0.00000000000E+00 -0.38096036218E+03  0.38096036218E+03  0.00000000000E+00 0. -1.
         25    2    1    2    0    0 -0.74836597401E+02  0.58761957930E+02 -0.24056734438E+03  0.28736480463E+03  0.12510955099E+03 0.  0.
         23    2    1    2    0    0  0.74836597401E+02 -0.58761957930E+02 -0.77637475606E+02  0.15635109974E+03  0.96770887989E+02 0.  0.
          5    1    3    3  502    0  0.14452612122E+02 -0.13633801043E+02 -0.11619309811E+03  0.11795366453E+03  0.41800000000E+01 0. -1.
         -5    1    3    3    0  502 -0.89289209524E+02  0.72395758973E+02 -0.12437424627E+03  0.16941114010E+03  0.41800000000E+01 0. -1.
        -11    1    4    4    0    0  0.71811480117E+02 -0.23214473887E+02 -0.52539227475E+01  0.75653183533E+02  0.00000000000E+00 0.  1.
         11    1    4    4    0    0  0.30251172849E+01 -0.35547484043E+02 -0.72383552859E+02  0.80697916211E+02  0.00000000000E+00 0. -1.
</event>
<event>
 8    1  0.7102339E-009  0.1122265E+03  0.7561462E-02  0.1256501E+00
         -2   -1    0    0    0  501 -0.00000000000E+00  0.00000000000E+00  0.25722276742E+02  0.25722276742E+02  0.00000000000E+00 0.  1.
          2   -1    0    0  501    0  0.00000000000E+00 -0.00000000000E+00 -0.63099068579E+03  0.63099068579E+03  0.00000000000E+00 0. -1.
         25    2    1    2    0    0 -0.29684150496E+02  0.52002955969E+02 -0.40230041482E+03  0.42553317098E+03  0.12508956640E+03 0.  0.
         23    2    1    2    0    0  0.29684150496E+02 -0.52002955969E+02 -0.20296799423E+03  0.23117979155E+03  0.93073267481E+02 0.  0.
          5    1    3    3  502    0 -0.59446638352E+02  0.74637231419E+02 -0.22760671850E+03  0.24683376963E+03  0.41800000000E+01 0.  1.
         -5    1    3    3    0  502  0.29762487856E+02 -0.22634275450E+02 -0.17469369632E+03  0.17869940135E+03  0.41800000000E+01 0.  1.
        -11    1    4    4    0    0 -0.75056008877E+01  0.13814208633E+02 -0.12614852109E+01  0.15772055978E+02  0.00000000000E+00 0.  1.
         11    1    4    4    0    0  0.37189751384E+02 -0.65817164601E+02 -0.20170650902E+03  0.21540773557E+03  0.00000000000E+00 0. -1.
</event>
<event>
 8    1  0.7102339E-009  0.1035129E+03  0.7561462E-02  0.1273078E+00
         -2   -1    0    0    0  501 -0.00000000000E+00  0.00000000000E+00  0.30990976688E+03  0.30990976688E+03  0.00000000000E+00 0.  1.
          2   -1    0    0  501    0  0.00000000000E+00 -0.00000000000E+00 -0.43047547205E+02  0.43047547205E+02  0.00000000000E+00 0. -1.
         25    2    1    2    0    0 -0.23964778990E+02 -0.61710439442E+01  0.19399515121E+03  0.23214800641E+03  0.12508471438E+03 0.  0.
         23    2    1    2    0    0  0.23964778990E+02  0.61710439442E+01  0.72867068469E+02  0.12080930768E+03  0.93128334785E+02 0.  0.
          5    1    3    3  502    0 -0.19225162110E+02 -0.58987928980E+02  0.53890361220E+02  0.82285029355E+02  0.41800000000E+01 0. -1.
         -5    1    3    3    0  502 -0.47396168792E+01  0.52816885035E+02  0.14010478999E+03  0.14986297705E+03  0.41800000000E+01 0. -1.
        -11    1    4    4    0    0  0.87024685216E+01 -0.41081736896E+02  0.15082095900E+02  0.44619633363E+02  0.00000000000E+00 0.  1.
         11    1    4    4    0    0  0.15262310468E+02  0.47252780840E+02  0.57784972569E+02  0.76189674318E+02  0.00000000000E+00 0. -1.
</event>
<event>
 8    1  0.7102339E-009  0.1114576E+03  0.7561462E-02  0.1257894E+00
         -1   -1    0    0    0  501 -0.00000000000E+00  0.00000000000E+00  0.13102297041E+03  0.13102297041E+03  0.00000000000E+00 0.  1.
          1   -1    0    0  501    0  0.00000000000E+00 -0.00000000000E+00 -0.17716292176E+03  0.17716292176E+03  0.00000000000E+00 0. -1.
         25    2    1    2    0    0 -0.53528395162E+02  0.52122142908E+02  0.51437317977E+02  0.15451597649E+03  0.12508949772E+03 0.  0.
         23    2    1    2    0    0  0.53528395162E+02 -0.52122142908E+02 -0.97577269327E+02  0.15366991568E+03  0.92255691570E+02 0.  0.
          5    1    3    3  502    0 -0.62130365674E+02 -0.65975838413E+01 -0.15955495589E+02  0.64620126051E+02  0.41800000000E+01 0.  1.
         -5    1    3    3    0  502  0.86019705114E+01  0.58719726749E+02  0.67392813567E+02  0.89895850441E+02  0.41800000000E+01 0.  1.
        -11    1    4    4    0    0  0.67079298236E+02 -0.27100334190E+02 -0.10181414098E+03  0.12490067922E+03  0.00000000000E+00 0.  1.
         11    1    4    4    0    0 -0.13550903074E+02 -0.25021808718E+02  0.42368716521E+01  0.28769236469E+02  0.00000000000E+00 0. -1.
</event>
<event>
 8    1  0.7102339E-009  0.1059269E+03  0.7561462E-02  0.1268304E+00
          1   -1    0    0  501    0  0.00000000000E+00  0.00000000000E+00  0.28701022097E+03  0.28701022097E+03  0.00000000000E+00 0. -1.
         -1   -1    0    0    0  501 -0.00000000000E+00 -0.00000000000E+00 -0.56353356660E+02  0.56353356660E+02  0.00000000000E+00 0.  1.
         25    2    1    2    0    0 -0.42001842222E+02 -0.47252732445E+02  0.94182105145E+02  0.16886398616E+03  0.12509117243E+03 0.  0.
         23    2    1    2    0    0  0.42001842222E+02  0.47252732445E+02  0.13647475917E+03  0.17449959147E+03  0.88474697284E+02 0.  0.
          5    1    3    3  502    0 -0.79584898777E+02 -0.60301180715E+02  0.71468904850E+02  0.12286279042E+03  0.41800000000E+01 0.  1.
         -5    1    3    3    0  502  0.37583056555E+02  0.13048448270E+02  0.22713200295E+02  0.46001195744E+02  0.41800000000E+01 0.  1.
        -11    1    4    4    0    0 -0.40491602788E+01  0.15391355136E+02 -0.92345119977E+01  0.18400155535E+02  0.00000000000E+00 0.  1.
         11    1    4    4    0    0  0.46051002501E+02  0.31861377309E+02  0.14570927116E+03  0.15609943593E+03  0.00000000000E+00 0. -1.
</event>
<event>
 8    1  0.7102339E-009  0.9954336E+02  0.7561462E-02  0.1281259E+00
          2   -1    0    0  501    0  0.00000000000E+00  0.00000000000E+00  0.13582598286E+03  0.13582598286E+03  0.00000000000E+00 0. -1.
         -2   -1    0    0    0  501 -0.00000000000E+00 -0.00000000000E+00 -0.99040459332E+02  0.99040459332E+02  0.00000000000E+00 0.  1.
         25    2    1    2    0    0  0.20887101777E+02  0.34679345410E+02  0.39384749401E+02  0.13725419685E+03  0.12509447649E+03 0.  0.
         23    2    1    2    0    0 -0.20887101777E+02 -0.34679345410E+02 -0.25992258771E+01  0.97612245337E+02  0.88783255436E+02 0.  0.
          5    1    3    3  502    0 -0.34702977731E+02  0.37877045023E+02  0.58749217830E+02  0.78153120211E+02  0.41800000000E+01 0. -1.
         -5    1    3    3    0  502  0.55590079508E+02 -0.31976996128E+01 -0.19364468429E+02  0.59101076640E+02  0.41800000000E+01 0. -1.
        -11    1    4    4    0    0  0.20095196648E+02 -0.45140209484E+02 -0.18017137778E+02  0.52593466270E+02  0.00000000000E+00 0.  1.
         11    1    4    4    0    0 -0.40982298425E+02  0.10460864074E+02  0.15417911901E+02  0.45018779067E+02  0.00000000000E+00 0. -1.
</event>
<event>
 8    1  0.7102339E-009  0.2570563E+03  0.7561462E-02  0.1108925E+00
         -2   -1    0    0    0  501 -0.00000000000E+00  0.00000000000E+00  0.45166113654E+02  0.45166113654E+02  0.00000000000E+00 0.  1.
          2   -1    0    0  501    0  0.00000000000E+00 -0.00000000000E+00 -0.17151080877E+04  0.17151080877E+04  0.00000000000E+00 0. -1.
         25    2    1    2    0    0 -0.11173679236E+02  0.24021273917E+03 -0.57761958563E+03  0.63805846722E+03  0.12508881134E+03 0.  0.
         23    2    1    2    0    0  0.11173679236E+02 -0.24021273917E+03 -0.10923223885E+04  0.11222157342E+04  0.91503784245E+02 0.  0.
          5    1    3    3  502    0  0.22692206668E+02  0.23534429421E+03 -0.51027857181E+03  0.56240871820E+03  0.41800000000E+01 0.  1.
         -5    1    3    3    0  502 -0.33865885903E+02  0.48684449569E+01 -0.67341013817E+02  0.75649749016E+02  0.41800000000E+01 0.  1.
        -11    1    4    4    0    0  0.86305243698E+01 -0.11175533538E+02 -0.14181408115E+02  0.20012267160E+02  0.00000000000E+00 0. -1.
         11    1    4    4    0    0  0.25431548657E+01 -0.22903720563E+03 -0.10781409804E+04  0.11022034670E+04  0.00000000000E+00 0.  1.
</event>
<event>
 8    1  0.7102339E-009  0.1466993E+03  0.7561462E-02  0.1204589E+00
          1   -1    0    0  501    0  0.00000000000E+00  0.00000000000E+00  0.94800229823E+02  0.94800229823E+02  0.00000000000E+00 0. -1.
         -1   -1    0    0    0  501 -0.00000000000E+00 -0.00000000000E+00 -0.27225147257E+03  0.27225147257E+03  0.00000000000E+00 0.  1.
         25    2    1    2    0    0 -0.89408805780E+02 -0.60660945471E+02 -0.41219973626E+02  0.17035352107E+03  0.12509017171E+03 0.  0.
         23    2    1    2    0    0  0.89408805780E+02  0.60660945471E+02 -0.13623126912E+03  0.19669818132E+03  0.91964835633E+02 0.  0.
          5    1    3    3  502    0 -0.74871782033E+02 -0.90847702824E+02 -0.95143354383E+00  0.11780265905E+03  0.41800000000E+01 0. -1.
         -5    1    3    3    0  502 -0.14537023748E+02  0.30186757353E+02 -0.40268540082E+02  0.52550862022E+02  0.41800000000E+01 0. -1.
        -11    1    4    4    0    0 -0.50758843361E+00  0.51445321967E+02 -0.46935972968E+02  0.69640967517E+02  0.00000000000E+00 0.  1.
         11    1    4    4    0    0  0.89916394214E+02  0.92156235038E+01 -0.89295296154E+02  0.12705721381E+03  0.00000000000E+00 0. -1.
</event>
<event>
 8    1  0.7102339E-009  0.1063483E+03  0.7561462E-02  0.1267486E+00
          1   -1    0    0  501    0  0.00000000000E+00  0.00000000000E+00  0.14059364956E+03  0.14059364956E+03  0.00000000000E+00 0. -1.
         -1   -1    0    0    0  501 -0.00000000000E+00 -0.00000000000E+00 -0.15219795978E+03  0.15219795978E+03  0.00000000000E+00 0.  1.
         25    2    1    2    0    0 -0.58305797022E+02  0.60567375591E+02 -0.54403501892E+02  0.16023523108E+03  0.12509042852E+03 0.  0.
         23    2    1    2    0    0  0.58305797022E+02 -0.60567375591E+02  0.42799191672E+02  0.13255637826E+03  0.93120618869E+02 0.  0.
          5    1    3    3  502    0 -0.50244510955E+02  0.61757588829E+02  0.22460246669E+02  0.82827807767E+02  0.41800000000E+01 0. -1.
         -5    1    3    3    0  502 -0.80612860664E+01 -0.11902132381E+01 -0.76863748560E+02  0.77407423309E+02  0.41800000000E+01 0. -1.
        -11    1    4    4    0    0 -0.20849469731E+02  0.45214272248E+01 -0.41415398961E+00  0.21338116500E+02  0.00000000000E+00 0.  1.
         11    1    4    4    0    0  0.79155266753E+02 -0.65088802815E+02  0.43213345662E+02  0.11121826177E+03  0.00000000000E+00 0. -1.
</event>
<event>
 8    1  0.7102339E-009  0.2042847E+03  0.7561462E-02  0.1146174E+00
         -2   -1    0    0    0  501 -0.00000000000E+00  0.00000000000E+00  0.26528236730E+02  0.26528236730E+02  0.00000000000E+00 0.  1.
          2   -1    0    0  501    0  0.00000000000E+00 -0.00000000000E+00 -0.17049661003E+04  0.17049661003E+04  0.00000000000E+00 0. -1.
         25    2    1    2    0    0 -0.17825922554E+02  0.17569422523E+03 -0.10703392572E+04  0.10919979884E+04  0.12508899590E+03 0.  0.
         23    2    1    2    0    0  0.17825922554E+02 -0.17569422523E+03 -0.60809860637E+03  0.63949634862E+03  0.89361292144E+02 0.  0.
          5    1    3    3  502    0  0.18694168041E+02 -0.11431575454E+02 -0.64724411530E+02  0.68460752873E+02  0.41800000000E+01 0.  1.
         -5    1    3    3    0  502 -0.36520090595E+02  0.18712580069E+03 -0.10056148457E+04  0.10235372356E+04  0.41800000000E+01 0.  1.
        -11    1    4    4    0    0  0.48457083726E+02 -0.67361662554E+02 -0.30778084358E+03  0.31877065458E+03  0.00000000000E+00 0.  1.
         11    1    4    4    0    0 -0.30631161172E+02 -0.10833256268E+03 -0.30031776279E+03  0.32072569405E+03  0.00000000000E+00 0. -1.
</event>
<event>
 8    1  0.7102339E-009  0.9237502E+02  0.7561462E-02  0.1297200E+00
         -2   -1    0    0    0  501 -0.00000000000E+00  0.00000000000E+00  0.14853522340E+02  0.14853522340E+02  0.00000000000E+00 0. -1.
          2   -1    0    0  501    0  0.00000000000E+00 -0.00000000000E+00 -0.84925329814E+03  0.84925329814E+03  0.00000000000E+00 0.  1.
         25    2    1    2    0    0  0.55179394157E+01  0.22594890578E+02 -0.53628531041E+03  0.55117035685E+03  0.12508337767E+03 0.  0.
         23    2    1    2    0    0 -0.55179394157E+01 -0.22594890578E+02 -0.29811446539E+03  0.31293646363E+03  0.92282279232E+02 0.  0.
          5    1    3    3  502    0 -0.39771068311E+02  0.35937750283E+02 -0.11190097581E+03  0.12414733407E+03  0.41800000000E+01 0.  1.
         -5    1    3    3    0  502  0.45289007727E+02 -0.13342859705E+02 -0.42438433460E+03  0.42702302278E+03  0.41800000000E+01 0.  1.
        -11    1    4    4    0    0  0.17278761942E+02 -0.47068643072E+02 -0.24567088671E+03  0.25073531333E+03  0.00000000000E+00 0.  1.
         11    1    4    4    0    0 -0.22796701357E+02  0.24473752494E+02 -0.52443578680E+02  0.62201150300E+02  0.00000000000E+00 0. -1.
</event>
<event>
 8    1  0.7102339E-009  0.1459720E+03  0.7561462E-02  0.1205512E+00
         -2   -1    0    0    0  501 -0.00000000000E+00  0.00000000000E+00  0.53368808437E+02  0.53368808437E+02  0.00000000000E+00 0.  1.
          2   -1    0    0  501    0  0.00000000000E+00 -0.00000000000E+00 -0.80193081673E+03  0.80193081673E+03  0.00000000000E+00 0. -1.
         25    2    1    2    0    0  0.10987492216E+03 -0.54545233550E+02 -0.64974471239E+03  0.67295178866E+03  0.12509291571E+03 0.  0.
         23    2    1    2    0    0 -0.10987492216E+03  0.54545233550E+02 -0.98817295903E+02  0.18234783651E+03  0.91859645577E+02 0.  0.
          5    1    3    3  502    0  0.12483276468E+03 -0.68546921274E+02 -0.44760897345E+03  0.46973733625E+03  0.41800000000E+01 0.  1.
         -5    1    3    3    0  502 -0.14957842519E+02  0.14001687724E+02 -0.20213573894E+03  0.20321445241E+03  0.41800000000E+01 0.  1.
        -11    1    4    4    0    0 -0.35863685662E+02 -0.12272603850E+01  0.12045938140E+02  0.37852539452E+02  0.00000000000E+00 0.  1.
         11    1    4    4    0    0 -0.74011236501E+02  0.55772493935E+02 -0.11086323404E+03  0.14449529705E+03  0.00000000000E+00 0. -1.
</event>
<event>
 8    1  0.7102339E-009  0.7039813E+02  0.7561462E-02  0.1358744E+00
         -2   -1    0    0    0  501 -0.00000000000E+00  0.00000000000E+00  0.11013407211E+04  0.11013407211E+04  0.00000000000E+00 0. -1.
          2   -1    0    0  501    0  0.00000000000E+00 -0.00000000000E+00 -0.20656001315E+02  0.20656001315E+02  0.00000000000E+00 0.  1.
         25    2    1    2    0    0 -0.12069247166E+02  0.56192720423E+02  0.90571065174E+03  0.91611233447E+03  0.12508691432E+03 0.  0.
         23    2    1    2    0    0  0.12069247166E+02 -0.56192720423E+02  0.17497406807E+03  0.20588438797E+03  0.92028083526E+02 0.  0.
          5    1    3    3  502    0  0.17695103198E+01  0.78265730228E-01 -0.30736865874E+01  0.54824484980E+01  0.41800000000E+01 0.  1.
         -5    1    3    3    0  502 -0.13838757486E+02  0.56114454692E+02  0.90878433833E+03  0.91062988597E+03  0.41800000000E+01 0.  1.
        -11    1    4    4    0    0  0.31798839862E+01  0.10528908481E+02 -0.61892421472E+01  0.12620471240E+02  0.00000000000E+00 0.  1.
         11    1    4    4    0    0  0.88893631803E+01 -0.66721628903E+02  0.18116331022E+03  0.19326391673E+03  0.00000000000E+00 0. -1.
</event>
<event>
 8    1  0.7102339E-009  0.1102756E+03  0.7561462E-02  0.1260060E+00
         -3   -1    0    0    0  501 -0.00000000000E+00  0.00000000000E+00  0.14773333075E+04  0.14773333075E+04  0.00000000000E+00 0.  1.
          3   -1    0    0  501    0  0.00000000000E+00 -0.00000000000E+00 -0.20848744631E+02  0.20848744631E+02  0.00000000000E+00 0. -1.
         25    2    1    2    0    0 -0.30694237162E+02  0.99091627593E+02  0.11568875442E+04  0.11682459702E+04  0.12509424553E+03 0.  0.
         23    2    1    2    0    0  0.30694237162E+02 -0.99091627593E+02  0.29959701869E+03  0.32993608189E+03  0.91313513065E+02 0.  0.
          5    1    3    3  502    0 -0.45256252650E+02  0.68597196484E+02  0.10908260610E+04  0.10939253501E+04  0.41800000000E+01 0.  1.
         -5    1    3    3    0  502  0.14562015488E+02  0.30494431108E+02  0.66061483191E+02  0.74320620187E+02  0.41800000000E+01 0.  1.
        -11    1    4    4    0    0  0.23449025230E+02 -0.59301921539E+02  0.27565868602E+03  0.28293866095E+03  0.00000000000E+00 0.  1.
         11    1    4    4    0    0  0.72452119320E+01 -0.39789706054E+02  0.23938332677E+02  0.46997420942E+02  0.00000000000E+00 0. -1.
</event>
<event>
 8    1  0.7102339E-009  0.1224984E+03  0.7561462E-02  0.1239032E+00
         -1   -1    0    0    0  501 -0.00000000000E+00  0.00000000000E+00  0.38796139767E+03  0.38796139767E+03  0.00000000000E+00 0.  1.
          1   -1    0    0  501    0  0.00000000000E+00 -0.00000000000E+00 -0.82514947898E+02  0.82514947898E+02  0.00000000000E+00 0. -1.
         25    2    1    2    0    0  0.48730301934E+02 -0.80522580698E+02  0.30085873255E+03  0.33914905102E+03  0.12509026152E+03 0.  0.
         23    2    1    2    0    0 -0.48730301934E+02  0.80522580698E+02  0.45877172151E+01  0.13132729454E+03  0.91472852877E+02 0.  0.
          5    1    3    3  502    0 -0.22820040547E+02 -0.26819758981E+02  0.13146724304E+02  0.37820133293E+02  0.41800000000E+01 0.  1.
         -5    1    3    3    0  502  0.71550342481E+02 -0.53702821717E+02  0.28771200825E+03  0.30132891773E+03  0.41800000000E+01 0.  1.
        -11    1    4    4    0    0 -0.14022956205E+02  0.83937290860E+02  0.27692804832E+02  0.89493036249E+02  0.00000000000E+00 0.  1.
         11    1    4    4    0    0 -0.34707345729E+02 -0.34147101623E+01 -0.23105087617E+02  0.41834258292E+02  0.00000000000E+00 0. -1.
</event>
<event>
 8    1  0.7102339E-009  0.7339140E+02  0.7561462E-02  0.1348926E+00
          1   -1    0    0  501    0  0.00000000000E+00  0.00000000000E+00  0.26539372475E+02  0.26539372475E+02  0.00000000000E+00 0. -1.
         -1   -1    0    0    0  501 -0.00000000000E+00 -0.00000000000E+00 -0.53519390906E+03  0.53519390906E+03  0.00000000000E+00 0.  1.
         25    2    1    2    0    0  0.15183611253E+02 -0.32061100239E+02 -0.36318775978E+03  0.38576060727E+03  0.12508973207E+03 0.  0.
         23    2    1    2    0    0 -0.15183611253E+02  0.32061100239E+02 -0.14546677680E+03  0.17597267426E+03  0.92451840078E+02 0.  0.
          5    1    3    3  502    0 -0.69830398588E+01  0.27202928845E+02 -0.15523464007E+02  0.32360663129E+02  0.41800000000E+01 0.  1.
         -5    1    3    3    0  502  0.22166651112E+02 -0.59264029084E+02 -0.34766429578E+03  0.35339994415E+03  0.41800000000E+01 0.  1.
        -11    1    4    4    0    0 -0.21321083874E+02 -0.10060512614E+01  0.48921838167E+01  0.21898269776E+02  0.00000000000E+00 0. -1.
         11    1    4    4    0    0  0.61374726208E+01  0.33067151500E+02 -0.15035896062E+03  0.15407440449E+03  0.00000000000E+00 0.  1.
</event>
<event>
 8    1  0.7102339E-009  0.1479157E+03  0.7561462E-02  0.1203058E+00
          2   -1    0    0  501    0  0.00000000000E+00  0.00000000000E+00  0.13676138851E+03  0.13676138851E+03  0.00000000000E+00 0.  1.
         -2   -1    0    0    0  501 -0.00000000000E+00 -0.00000000000E+00 -0.20654827499E+03  0.20654827499E+03  0.00000000000E+00 0. -1.
         25    2    1    2    0    0 -0.44434283315E+02  0.11408003572E+03  0.30095472570E+01  0.17505772139E+03  0.12508992109E+03 0.  0.
         23    2    1    2    0    0  0.44434283315E+02 -0.11408003572E+03 -0.72796433738E+02  0.16825194212E+03  0.89558557260E+02 0.  0.
          5    1    3    3  502    0  0.42539330494E+02  0.46561296576E+02 -0.10414092266E+02  0.64058369441E+02  0.41800000000E+01 0.  1.
         -5    1    3    3    0  502 -0.86973613809E+02  0.67518739144E+02  0.13423639523E+02  0.11099935195E+03  0.41800000000E+01 0.  1.
        -11    1    4    4    0    0  0.36649985529E+02 -0.92218321803E+02 -0.81522014912E+01  0.99568562833E+02  0.00000000000E+00 0.  1.
         11    1    4    4    0    0  0.77842977865E+01 -0.21861713916E+02 -0.64644232247E+02  0.68683379287E+02  0.00000000000E+00 0. -1.
</event>
<event>
 8    1  0.7102339E-009  0.1633182E+03  0.7561462E-02  0.1185001E+00
         -2   -1    0    0    0  501 -0.00000000000E+00  0.00000000000E+00  0.20316126231E+02  0.20316126231E+02  0.00000000000E+00 0. -1.
          2   -1    0    0  501    0  0.00000000000E+00 -0.00000000000E+00 -0.15926256821E+04  0.15926256821E+04  0.00000000000E+00 0.  1.
         25    2    1    2    0    0  0.86376900567E+02 -0.11185762844E+03 -0.83210798213E+03  0.85324331710E+03  0.12508943306E+03 0.  0.
         23    2    1    2    0    0 -0.86376900567E+02  0.11185762844E+03 -0.74020157375E+03  0.75969849124E+03  0.96282551991E+02 0.  0.
          5    1    3    3  502    0  0.10056356494E+03 -0.96390529620E+02 -0.46308652479E+03  0.48360186790E+03  0.41800000000E+01 0. -1.
         -5    1    3    3    0  502 -0.14186664368E+02 -0.15467098817E+02 -0.36902145734E+03  0.36964144920E+03  0.41800000000E+01 0. -1.
        -11    1    4    4    0    0  0.16533473652E+02  0.30485565625E+02 -0.91243699194E+02  0.97612182155E+02  0.00000000000E+00 0.  1.
         11    1    4    4    0    0 -0.10291037422E+03  0.81372062812E+02 -0.64895787455E+03  0.66208630908E+03  0.00000000000E+00 0. -1.
</event>
<event>
 8    1  0.7102339E-009  0.1067817E+03  0.7561462E-02  0.1266648E+00
          2   -1    0    0  501    0  0.00000000000E+00  0.00000000000E+00  0.16992209114E+03  0.16992209114E+03  0.00000000000E+00 0. -1.
         -2   -1    0    0    0  501 -0.00000000000E+00 -0.00000000000E+00 -0.83827834561E+02  0.83827834561E+02  0.00000000000E+00 0.  1.
         25    2    1    2    0    0 -0.43741191928E+02  0.12650682530E+02  0.15215478795E+02  0.13398481154E+03  0.12508831796E+03 0.  0.
         23    2    1    2    0    0  0.43741191928E+02 -0.12650682530E+02  0.70878777781E+02  0.11976511416E+03  0.85126669086E+02 0.  0.
          5    1    3    3  502    0  0.18107754113E+02 -0.44854707369E+02  0.47426569980E+01  0.48783201285E+02  0.41800000000E+01 0. -1.
         -5    1    3    3    0  502 -0.61848946041E+02  0.57505389899E+02  0.10472821797E+02  0.85201610256E+02  0.41800000000E+01 0. -1.
        -11    1    4    4    0    0  0.26470739313E+02 -0.40085894781E+02  0.75581963252E+01  0.48628235953E+02  0.00000000000E+00 0.  1.
         11    1    4    4    0    0  0.17270452615E+02  0.27435212251E+02  0.63320581456E+02  0.71136878205E+02  0.00000000000E+00 0. -1.
</event>
<event>
 8    1  0.7102339E-009  0.8383081E+02  0.7561462E-02  0.1318519E+00
         -2   -1    0    0    0  501 -0.00000000000E+00  0.00000000000E+00  0.36977368232E+02  0.36977368232E+02  0.00000000000E+00 0.  1.
          2   -1    0    0  501    0  0.00000000000E+00 -0.00000000000E+00 -0.33438842523E+03  0.33438842523E+03  0.00000000000E+00 0. -1.
         25    2    1    2    0    0 -0.20733561245E+02  0.96712848744E+01 -0.14884525394E+03  0.19576729215E+03  0.12508600538E+03 0.  0.
         23    2    1    2    0    0  0.20733561245E+02 -0.96712848744E+01 -0.14856580306E+03  0.17559850132E+03  0.90772360946E+02 0.  0.
          5    1    3    3  502    0 -0.30607539112E+02 -0.24672868372E+02  0.30654597695E+01  0.39654020323E+02  0.41800000000E+01 0. -1.
         -5    1    3    3    0  502  0.98739778675E+01  0.34344153247E+02 -0.15191071371E+03  0.15611327182E+03  0.41800000000E+01 0. -1.
        -11    1    4    4    0    0  0.56182446787E+02 -0.64840138154E+01 -0.10573126017E+03  0.11990666845E+03  0.00000000000E+00 0. -1.
         11    1    4    4    0    0 -0.35448885542E+02 -0.31872710591E+01 -0.42834542897E+02  0.55691832868E+02  0.00000000000E+00 0.  1.
</event>
<event>
 8    1  0.7102339E-009  0.7928241E+02  0.7561462E-02  0.1331100E+00
         -2   -1    0    0    0  501 -0.00000000000E+00  0.00000000000E+00  0.57803229042E+03  0.57803229042E+03  0.00000000000E+00 0.  1.
          2   -1    0    0  501    0  0.00000000000E+00 -0.00000000000E+00 -0.24461489614E+02  0.24461489614E+02  0.00000000000E+00 0. -1.
         25    2    1    2    0    0  0.44723113991E+02 -0.12095242895E+02  0.28532058006E+03  0.31496204814E+03  0.12508719573E+03 0.  0.
         23    2    1    2    0    0 -0.44723113991E+02  0.12095242895E+02  0.26825022074E+03  0.28753173189E+03  0.92573560431E+02 0.  0.
          5    1    3    3  502    0  0.46957405456E+02  0.36356301608E+01  0.23816821398E+02  0.52942696525E+02  0.41800000000E+01 0. -1.
         -5    1    3    3    0  502 -0.22342914659E+01 -0.15730873055E+02  0.26150375866E+03  0.26201935161E+03  0.41800000000E+01 0. -1.
        -11    1    4    4    0    0 -0.68579827328E+01  0.44493241721E+02  0.18593215934E+03  0.19130459577E+03  0.00000000000E+00 0.  1.
         11    1    4    4    0    0 -0.37865131258E+02 -0.32397998827E+02  0.82318061404E+02  0.96227136123E+02  0.00000000000E+00 0. -1.
</event>
<event>
 8    1  0.7102339E-009  0.1928425E+03  0.7561462E-02  0.1155922E+00
          1   -1    0    0  501    0  0.00000000000E+00  0.00000000000E+00  0.80791642577E+03  0.80791642577E+03  0.00000000000E+00 0.  1.
         -1   -1    0    0    0  501 -0.00000000000E+00 -0.00000000000E+00 -0.54248221390E+02  0.54248221390E+02  0.00000000000E+00 0. -1.
         25    2    1    2    0    0 -0.60460468810E+02  0.16572037151E+03  0.34110400901E+03  0.40386786357E+03  0.12505437391E+03 0.  0.
         23    2    1    2    0    0  0.60460468810E+02 -0.16572037151E+03  0.41256419537E+03  0.45829678359E+03  0.93316754806E+02 0.  0.
          5    1    3    3  502    0 -0.90790876509E+02  0.11107162070E+03  0.17486939705E+03  0.22622260410E+03  0.41800000000E+01 0. -1.
         -5    1    3    3    0  502  0.30330407698E+02  0.54648750818E+02  0.16623461196E+03  0.17764525947E+03  0.41800000000E+01 0. -1.
        -11    1    4    4    0    0  0.32693284765E+02 -0.44811799762E+02  0.48522311223E+02  0.73697781195E+02  0.00000000000E+00 0. -1.
         11    1    4    4    0    0  0.27767184046E+02 -0.12090857175E+03  0.36404188415E+03  0.38459900240E+03  0.00000000000E+00 0.  1.
</event>
<event>
 8    1  0.7102339E-009  0.3556758E+03  0.7561462E-02  0.1060309E+00
          1   -1    0    0  501    0  0.00000000000E+00  0.00000000000E+00  0.16932871555E+03  0.16932871555E+03  0.00000000000E+00 0. -1.
         -1   -1    0    0    0  501 -0.00000000000E+00 -0.00000000000E+00 -0.91949717474E+03  0.91949717474E+03  0.00000000000E+00 0.  1.
         25    2    1    2    0    0 -0.29150869136E+03 -0.19883011856E+03 -0.19597752419E+03  0.42257004256E+03  0.12509003837E+03 0.  0.
         23    2    1    2    0    0  0.29150869136E+03  0.19883011856E+03 -0.55419093500E+03  0.66625584772E+03  0.11071824148E+03 0.  0.
          5    1    3    3  502    0 -0.23650612290E+02 -0.36413243797E+02  0.13553467607E+02  0.45677616725E+02  0.41800000000E+01 0. -1.
         -5    1    3    3    0  502 -0.26785807907E+03 -0.16241687477E+03 -0.20953099180E+03  0.37689242584E+03  0.41800000000E+01 0. -1.
        -11    1    4    4    0    0  0.39139383918E+02  0.41559159864E+02 -0.17680449536E+03  0.18579258522E+03  0.00000000000E+00 0.  1.
         11    1    4    4    0    0  0.25236930744E+03  0.15727095870E+03 -0.37738643964E+03  0.48046326250E+03  0.00000000000E+00 0. -1.
</event>
<event>
 8    1  0.7102339E-009  0.1587042E+03  0.7561462E-02  0.1190167E+00
         -2   -1    0    0    0  501 -0.00000000000E+00  0.00000000000E+00  0.89797713308E+02  0.89797713308E+02  0.00000000000E+00 0.  1.
          2   -1    0    0  501    0  0.00000000000E+00 -0.00000000000E+00 -0.33829792726E+03  0.33829792726E+03  0.00000000000E+00 0. -1.
         25    2    1    2    0    0 -0.69104571922E+02  0.11078813834E+03 -0.17742795899E+03  0.25333244833E+03  0.12508874964E+03 0.  0.
         23    2    1    2    0    0  0.69104571922E+02 -0.11078813834E+03 -0.71072254958E+02  0.17476319224E+03  0.91877388292E+02 0.  0.
          5    1    3    3  502    0 -0.94147923528E+02  0.10105940689E+03 -0.17895990489E+03  0.22609943649E+03  0.41800000000E+01 0. -1.
         -5    1    3    3    0  502  0.25043351606E+02  0.97287314478E+01  0.15319458947E+01  0.27233011833E+02  0.41800000000E+01 0. -1.
        -11    1    4    4    0    0  0.79615054094E+02 -0.58743695467E+02 -0.70806593977E+02  0.12166738407E+03  0.00000000000E+00 0. -1.
         11    1    4    4    0    0 -0.10510482172E+02 -0.52044442874E+02 -0.26566098155E+00  0.53095808171E+02  0.00000000000E+00 0.  1.
</event>
<event>
 8    1  0.7102339E-009  0.1235380E+03  0.7561462E-02  0.1237372E+00
          2   -1    0    0  501    0  0.00000000000E+00  0.00000000000E+00  0.33778542193E+03  0.33778542193E+03  0.00000000000E+00 0. -1.
         -2   -1    0    0    0  501 -0.00000000000E+00 -0.00000000000E+00 -0.61903582315E+02  0.61903582315E+02  0.00000000000E+00 0.  1.
         25    2    1    2    0    0 -0.90266686052E+02  0.13424665665E+02  0.18905083871E+03  0.24436784549E+03  0.12508848081E+03 0.  0.
         23    2    1    2    0    0  0.90266686052E+02 -0.13424665665E+02  0.86831000906E+02  0.15532115876E+03  0.90866624126E+02 0.  0.
          5    1    3    3  502    0 -0.39810964374E+00 -0.29414470544E+02 -0.10538800229E+01  0.29731340901E+02  0.41800000000E+01 0.  1.
         -5    1    3    3    0  502 -0.89868576408E+02  0.42839136210E+02  0.19010471873E+03  0.21463650458E+03  0.41800000000E+01 0.  1.
        -11    1    4    4    0    0  0.99661642811E+02  0.19732347326E+01  0.44219392580E+02  0.10904903201E+03  0.00000000000E+00 0.  1.
         11    1    4    4    0    0 -0.93949567588E+01 -0.15397900398E+02  0.42611608326E+02  0.46272126742E+02  0.00000000000E+00 0. -1.
</event>
<event>
 8    1  0.7102339E-009  0.1650927E+03  0.7561462E-02  0.1183064E+00
         -2   -1    0    0    0  501 -0.00000000000E+00  0.00000000000E+00  0.41467358482E+02  0.41467358482E+02  0.00000000000E+00 0. -1.
          2   -1    0    0  501    0  0.00000000000E+00 -0.00000000000E+00 -0.77421168455E+03  0.77421168455E+03  0.00000000000E+00 0.  1.
         25    2    1    2    0    0  0.13386607198E+03 -0.50222331850E+02 -0.40327045469E+03  0.44577388440E+03  0.12507952890E+03 0.  0.
         23    2    1    2    0    0 -0.13386607198E+03  0.50222331850E+02 -0.32947387138E+03  0.36990515863E+03  0.88512070453E+02 0.  0.
          5    1    3    3  502    0  0.13638082901E+03 -0.77851799512E+02 -0.29852069357E+03  0.33733175080E+03  0.41800000000E+01 0. -1.
         -5    1    3    3    0  502 -0.25147570314E+01  0.27629467662E+02 -0.10474976112E+03  0.10844213360E+03  0.41800000000E+01 0. -1.
        -11    1    4    4    0    0 -0.12024493397E+03  0.52534347475E+02 -0.33094581934E+03  0.35601100706E+03  0.00000000000E+00 0.  1.
         11    1    4    4    0    0 -0.13621138010E+02 -0.23120156257E+01  0.14719479639E+01  0.13894151566E+02  0.00000000000E+00 0. -1.
</event>
<event>
 8    1  0.7102339E-009  0.1343740E+03  0.7561462E-02  0.1221106E+00
         -1   -1    0    0    0  501 -0.00000000000E+00  0.00000000000E+00  0.45795009384E+02  0.45795009384E+02  0.00000000000E+00 0.  1.
          1   -1    0    0  501    0  0.00000000000E+00 -0.00000000000E+00 -0.48990737630E+03  0.48990737630E+03  0.00000000000E+00 0. -1.
         25    2    1    2    0    0  0.74879198185E+02  0.53598973886E+02 -0.31842624145E+03  0.35429148219E+03  0.12508972295E+03 0.  0.
         23    2    1    2    0    0 -0.74879198185E+02 -0.53598973886E+02 -0.12568612547E+03  0.18141090349E+03  0.92914850526E+02 0.  0.
          5    1    3    3  502    0 -0.13961967595E+02 -0.22588948904E+02 -0.19403165284E+02  0.33153467010E+02  0.41800000000E+01 0. -1.
         -5    1    3    3    0  502  0.88841165780E+02  0.76187922791E+02 -0.29902307616E+03  0.32113801518E+03  0.41800000000E+01 0. -1.
        -11    1    4    4    0    0 -0.92141287164E+02 -0.55213646043E+02 -0.84322613617E+02  0.13656085338E+03  0.00000000000E+00 0.  1.
         11    1    4    4    0    0  0.17262088979E+02  0.16146721567E+01 -0.41363511853E+02  0.44850050110E+02  0.00000000000E+00 0. -1.
</event>
<event>
 8    1  0.7102339E-009  0.1604343E+03  0.7561462E-02  0.1188207E+00
          2   -1    0    0  501    0  0.00000000000E+00  0.00000000000E+00  0.27429970511E+03  0.27429970511E+03  0.00000000000E+00 0. -1.
         -2   -1    0    0    0  501 -0.00000000000E+00 -0.00000000000E+00 -0.11500986736E+03  0.11500986736E+03  0.00000000000E+00 0.  1.
         25    2    1    2    0    0  0.13649312584E+03 -0.10929305402E+02  0.11326748190E+03  0.21731138932E+03  0.12507955211E+03 0.  0.
         23    2    1    2    0    0 -0.13649312584E+03  0.10929305402E+02  0.46022355845E+02  0.17199818315E+03  0.93356813623E+02 0.  0.
          5    1    3    3  502    0  0.40464930352E+01 -0.43599068649E+02  0.50852952614E+02  0.67236508553E+02  0.41800000000E+01 0. -1.
         -5    1    3    3    0  502  0.13244663280E+03  0.32669763247E+02  0.62414529287E+02  0.15007488077E+03  0.41800000000E+01 0. -1.
        -11    1    4    4    0    0 -0.34683186864E+02 -0.10748355764E+02 -0.26655828028E+02  0.45044242368E+02  0.00000000000E+00 0.  1.
         11    1    4    4    0    0 -0.10180993898E+03  0.21677661166E+02  0.72678183873E+02  0.12695394078E+03  0.00000000000E+00 0. -1.
</event>
<event>
 8    1  0.7102339E-009  0.7672005E+02  0.7561462E-02  0.1338626E+00
         -2   -1    0    0    0  501 -0.00000000000E+00  0.00000000000E+00  0.12254315368E+03  0.12254315368E+03  0.00000000000E+00 0.  1.
          2   -1    0    0  501    0  0.00000000000E+00 -0.00000000000E+00 -0.11516873803E+03  0.11516873803E+03  0.00000000000E+00 0. -1.
         25    2    1    2    0    0 -0.14113295729E+02  0.42061078256E+02  0.17119493434E+02  0.13382349548E+03  0.12508929398E+03 0.  0.
         23    2    1    2    0    0  0.14113295729E+02 -0.42061078256E+02 -0.97450777814E+01  0.10388839622E+03  0.93431862383E+02 0.  0.
          5    1    3    3  502    0  0.23675295483E+02  0.15950082700E+02  0.62674844146E+02  0.68996617621E+02  0.41800000000E+01 0.  1.
         -5    1    3    3    0  502 -0.37788591212E+02  0.26110995556E+02 -0.45555350712E+02  0.64826877861E+02  0.41800000000E+01 0.  1.
        -11    1    4    4    0    0 -0.24985865582E+02 -0.26396513936E+02  0.29122931582E+02  0.46574827651E+02  0.00000000000E+00 0.  1.
         11    1    4    4    0    0  0.39099161311E+02 -0.15664564320E+02 -0.38868009363E+02  0.57313568571E+02  0.00000000000E+00 0. -1.
</event>
<event>
 8    1  0.7102339E-009  0.1214881E+03  0.7561462E-02  0.1240662E+00
          2   -1    0    0  501    0  0.00000000000E+00  0.00000000000E+00  0.15487268391E+03  0.15487268391E+03  0.00000000000E+00 0. -1.
         -2   -1    0    0    0  501 -0.00000000000E+00 -0.00000000000E+00 -0.10722237567E+03  0.10722237567E+03  0.00000000000E+00 0.  1.
         25    2    1    2    0    0 -0.30054113641E+02 -0.56981740019E+02  0.16687047734E+00  0.14070552469E+03  0.12509136017E+03 0.  0.
         23    2    1    2    0    0  0.30054113641E+02  0.56981740019E+02  0.47483437766E+02  0.12138953489E+03  0.91271977493E+02 0.  0.
          5    1    3    3  502    0 -0.50028453116E+02  0.18166948116E+02 -0.24886733037E+02  0.58904210429E+02  0.41800000000E+01 0.  1.
         -5    1    3    3    0  502  0.19974339474E+02 -0.75148688135E+02  0.25053603514E+02  0.81801314261E+02  0.41800000000E+01 0.  1.
        -11    1    4    4    0    0  0.87771729189E+01  0.79937235567E+02  0.34154739774E+02  0.87370170216E+02  0.00000000000E+00 0. -1.
         11    1    4    4    0    0  0.21276940722E+02 -0.22955495548E+02  0.13328697992E+02  0.34019364670E+02  0.00000000000E+00 0.  1.
</event>
<event>
 8    1  0.7102339E-009  0.2123510E+03  0.7561462E-02  0.1139718E+00
         -2   -1    0    0    0  501 -0.00000000000E+00  0.00000000000E+00  0.10933755814E+03  0.10933755814E+03  0.00000000000E+00 0. -1.
          2   -1    0    0  501    0  0.00000000000E+00 -0.00000000000E+00 -0.61173508720E+03  0.61173508720E+03  0.00000000000E+00 0.  1.
         25    2    1    2    0    0  0.14922569756E+03 -0.14399413603E+03 -0.41203321488E+03  0.47793457976E+03  0.12508985708E+03 0.  0.
         23    2    1    2    0    0 -0.14922569756E+03  0.14399413603E+03 -0.90364314177E+02  0.24313806558E+03  0.89150376513E+02 0.  0.
          5    1    3    3  502    0  0.95588380126E+02 -0.92889291410E+02 -0.36853927603E+03  0.39192375439E+03  0.41800000000E+01 0.  1.
         -5    1    3    3    0  502  0.53637317436E+02 -0.51104844616E+02 -0.43493938847E+02  0.86010825373E+02  0.41800000000E+01 0.  1.
        -11    1    4    4    0    0 -0.13085273911E+03  0.86679045573E+02 -0.33828876601E+02  0.16056179236E+03  0.00000000000E+00 0. -1.
         11    1    4    4    0    0 -0.18372958450E+02  0.57315090454E+02 -0.56535437576E+02  0.82576273213E+02  0.00000000000E+00 0.  1.
</event>
<event>
 8    1  0.7102339E-009  0.7752150E+02  0.7561462E-02  0.1336236E+00
         -2   -1    0    0    0  501 -0.00000000000E+00  0.00000000000E+00  0.11282602930E+03  0.11282602930E+03  0.00000000000E+00 0.  1.
          2   -1    0    0  501    0  0.00000000000E+00 -0.00000000000E+00 -0.11010300975E+03  0.11010300975E+03  0.00000000000E+00 0. -1.
         25    2    1    2    0    0 -0.74790364853E+01 -0.19572924188E+02  0.32848899538E+02  0.13102111861E+03  0.12509375673E+03 0.  0.
         23    2    1    2    0    0  0.74790364853E+01  0.19572924188E+02 -0.30125879984E+02  0.91907920444E+02  0.84264238248E+02 0.  0.
          5    1    3    3  502    0  0.15782954325E+02 -0.57258153428E+02  0.55241061092E+02  0.81219732897E+02  0.41800000000E+01 0. -1.
         -5    1    3    3    0  502 -0.23261990810E+02  0.37685229240E+02 -0.22392161555E+02  0.49801385708E+02  0.41800000000E+01 0. -1.
        -11    1    4    4    0    0 -0.14544672055E+02  0.24461913133E+02  0.21434413958E+02  0.35628173979E+02  0.00000000000E+00 0.  1.
         11    1    4    4    0    0  0.22023708541E+02 -0.48889889459E+01 -0.51560293942E+02  0.56279746465E+02  0.00000000000E+00 0. -1.
</event>
