<event>
 8    1  0.9424564E-006  0.1609695E+03  0.7546771E-02  0.1195382E+00
          2   -1    0    0  501    0  0.00000000000E+00  0.00000000000E+00  0.15274820080E+03  0.15274820080E+03  0.00000000000E+00 0. -1.
         -2   -1    0    0    0  501 -0.00000000000E+00 -0.00000000000E+00 -0.15799053146E+03  0.15799053146E+03  0.00000000000E+00 0.  1.
         23    2    1    2    0    0 -0.82198526907E+02  0.59413385937E+02 -0.48952330832E+02  0.16824839973E+03  0.12499858025E+03 0.  0.
         23    2    1    2    0    0  0.82198526907E+02 -0.59413385937E+02  0.43710000174E+02  0.14249033254E+03  0.90035451332E+02 0.  0.
          5    1    3    3  502    0 -0.39531006702E+02  0.88790100298E+02 -0.61014007907E+02  0.11485286920E+03  0.47000000000E+01 0.  1.
         -5    1    3    3    0  502 -0.42667520205E+02 -0.29376714360E+02  0.12061677075E+02  0.53395530533E+02  0.47000000000E+01 0.  1.
        -11    1    4    4    0    0  0.57543900774E+02  0.12596732241E+02  0.12452886112E+02  0.60208409312E+02  0.00000000000E+00 0. -1.
         11    1    4    4    0    0  0.24654626133E+02 -0.72010118178E+02  0.31257114062E+02  0.82281923223E+02  0.00000000000E+00 0.  1.
<mgrwt>
<rscale>  0 0.15421945E+03</rscale>
<asrwt>0</asrwt>
<pdfrwt beam="1">  1        2 0.23499723E-01 0.16096954E+03</pdfrwt>
<pdfrwt beam="2">  1       -2 0.24306236E-01 0.16096954E+03</pdfrwt>
<totfact> 0.33490877E+03</totfact>
</mgrwt>
</event>
<event>
 8    1  0.9424564E-006  0.3642963E+03  0.7546771E-02  0.1058092E+00
         -1   -1    0    0    0  501 -0.00000000000E+00  0.00000000000E+00  0.61528708613E+03  0.61528708613E+03  0.00000000000E+00 0.  1.
          1   -1    0    0  501    0  0.00000000000E+00 -0.00000000000E+00 -0.22797682022E+03  0.22797682022E+03  0.00000000000E+00 0. -1.
         23    2    1    2    0    0  0.13307325466E+03 -0.31524620109E+03  0.31948938159E+03  0.48454643957E+03  0.12499251475E+03 0.  0.
         23    2    1    2    0    0 -0.13307325466E+03  0.31524620109E+03  0.67820884326E+02  0.35871746679E+03  0.83605563336E+02 0.  0.
          5    1    3    3  502    0  0.89507262730E+02 -0.19825214848E+03  0.11811159963E+03  0.24756394008E+03  0.47000000000E+01 0. -1.
         -5    1    3    3    0  502  0.43565991926E+02 -0.11699405261E+03  0.20137778196E+03  0.23698249949E+03  0.47000000000E+01 0. -1.
        -11    1    4    4    0    0 -0.66037475788E+02  0.23911569178E+03  0.68228190726E+02  0.25727873654E+03  0.00000000000E+00 0.  1.
         11    1    4    4    0    0 -0.67035778868E+02  0.76130509308E+02 -0.40730640051E+00  0.10143873025E+03  0.00000000000E+00 0. -1.
<mgrwt>
<rscale>  0 0.36124609E+03</rscale>
<asrwt>0</asrwt>
<pdfrwt beam="2">  1        1 0.35073357E-01 0.36429629E+03</pdfrwt>
<pdfrwt beam="1">  1       -1 0.94659551E-01 0.36429629E+03</pdfrwt>
<totfact> 0.14100246E+02</totfact>
</mgrwt>
</event>
<event>
 8    1  0.9424564E-006  0.1362213E+03  0.7546771E-02  0.1230959E+00
         -2   -1    0    0    0  501 -0.00000000000E+00  0.00000000000E+00  0.54178764540E+02  0.54178764540E+02  0.00000000000E+00 0.  1.
          2   -1    0    0  501    0  0.00000000000E+00 -0.00000000000E+00 -0.31339022615E+03  0.31339022615E+03  0.00000000000E+00 0. -1.
         23    2    1    2    0    0 -0.44817840922E+01 -0.53960897701E+02 -0.75040664177E+02  0.15552278908E+03  0.12499748707E+03 0.  0.
         23    2    1    2    0    0  0.44817840922E+01  0.53960897701E+02 -0.18417079744E+03  0.21204620161E+03  0.90071327967E+02 0.  0.
          5    1    3    3  502    0  0.37628962058E+02 -0.22273719901E+02 -0.90313584857E+02  0.10045243150E+03  0.47000000000E+01 0.  1.
         -5    1    3    3    0  502 -0.42110746150E+02 -0.31687177801E+02  0.15272920680E+02  0.55070357583E+02  0.47000000000E+01 0.  1.
        -11    1    4    4    0    0  0.15422665359E+02  0.52509664287E+02 -0.19125525270E+03  0.19893138298E+03  0.00000000000E+00 0. -1.
         11    1    4    4    0    0 -0.10940881267E+02  0.14512334139E+01  0.70844552647E+01  0.13114818631E+02  0.00000000000E+00 0.  1.
<mgrwt>
<rscale>  0 0.12766681E+03</rscale>
<asrwt>0</asrwt>
<pdfrwt beam="2">  1        2 0.48213880E-01 0.13622128E+03</pdfrwt>
<pdfrwt beam="1">  1       -2 0.83351946E-02 0.13622128E+03</pdfrwt>
<totfact> 0.87710573E+03</totfact>
</mgrwt>
</event>
<event>
 8    1  0.9424564E-006  0.1489461E+03  0.7546771E-02  0.1206471E+00
          2   -1    0    0  501    0  0.00000000000E+00  0.00000000000E+00  0.25123997766E+03  0.25123997766E+03  0.00000000000E+00 0. -1.
         -2   -1    0    0    0  501 -0.00000000000E+00 -0.00000000000E+00 -0.82130375218E+02  0.82130375218E+02  0.00000000000E+00 0.  1.
         23    2    1    2    0    0 -0.80463660820E+02 -0.92483897903E+01  0.61911609527E+02  0.16130092753E+03  0.12500003360E+03 0.  0.
         23    2    1    2    0    0  0.80463660820E+02  0.92483897903E+01  0.10719799292E+03  0.17206942535E+03  0.10750136757E+03 0.  0.
          5    1    3    3  502    0 -0.85650100796E+02  0.60796344481E+00  0.93852888180E+02  0.12714859026E+03  0.47000000000E+01 0. -1.
         -5    1    3    3    0  502  0.51864399756E+01 -0.98563532351E+01 -0.31941278653E+02  0.34152337265E+02  0.47000000000E+01 0. -1.
        -11    1    4    4    0    0  0.17061127238E+02  0.54105863701E+02  0.40655424028E+02  0.69795344059E+02  0.00000000000E+00 0. -1.
         11    1    4    4    0    0  0.63402533582E+02 -0.44857473911E+02  0.66542568889E+02  0.10227408129E+03  0.00000000000E+00 0.  1.
<mgrwt>
<rscale>  0 0.14522155E+03</rscale>
<asrwt>0</asrwt>
<pdfrwt beam="1">  1        2 0.38652304E-01 0.14894610E+03</pdfrwt>
<pdfrwt beam="2">  1       -2 0.12635442E-01 0.14894610E+03</pdfrwt>
<totfact> 0.57891674E+03</totfact>
</mgrwt>
</event>
<event>
 8    1  0.9424564E-006  0.1778707E+03  0.7546771E-02  0.1176281E+00
          2   -1    0    0  501    0  0.00000000000E+00  0.00000000000E+00  0.12686423840E+04  0.12686423840E+04  0.00000000000E+00 0. -1.
         -2   -1    0    0    0  501 -0.00000000000E+00 -0.00000000000E+00 -0.23355487166E+02  0.23355487166E+02  0.00000000000E+00 0.  1.
         23    2    1    2    0    0 -0.12853149658E+02  0.12588872051E+03  0.49169852787E+03  0.52288184988E+03  0.12499925285E+03 0.  0.
         23    2    1    2    0    0  0.12853149658E+02 -0.12588872051E+03  0.75358836892E+03  0.76911602125E+03  0.87354742022E+02 0.  0.
          5    1    3    3  502    0 -0.42913559166E+01  0.18330950806E+02  0.31633335194E+03  0.31692793983E+03  0.47000000000E+01 0. -1.
         -5    1    3    3    0  502 -0.85617937414E+01  0.10755776971E+03  0.17536517593E+03  0.20595391005E+03  0.47000000000E+01 0. -1.
        -11    1    4    4    0    0  0.48830016790E+02 -0.92910612008E+02  0.51555554351E+03  0.52613141971E+03  0.00000000000E+00 0.  1.
         11    1    4    4    0    0 -0.35976867132E+02 -0.32978108506E+02  0.23803282542E+03  0.24298460154E+03  0.00000000000E+00 0. -1.
<mgrwt>
<rscale>  0 0.17151160E+03</rscale>
<asrwt>0</asrwt>
<pdfrwt beam="1">  1        2 0.19517570E+00 0.17787070E+03</pdfrwt>
<pdfrwt beam="2">  1       -2 0.35931529E-02 0.17787070E+03</pdfrwt>
<totfact> 0.58317066E+03</totfact>
</mgrwt>
</event>
<event>
 8    1  0.9424564E-006  0.2537546E+03  0.7546771E-02  0.1113346E+00
         -2   -1    0    0    0  501 -0.00000000000E+00  0.00000000000E+00  0.68227577357E+02  0.68227577357E+02  0.00000000000E+00 0.  1.
          2   -1    0    0  501    0  0.00000000000E+00 -0.00000000000E+00 -0.92668086557E+03  0.92668086557E+03  0.00000000000E+00 0. -1.
         23    2    1    2    0    0 -0.11444220676E+03 -0.18886728168E+03 -0.34149467156E+03  0.42545272283E+03  0.12499415940E+03 0.  0.
         23    2    1    2    0    0  0.11444220676E+03  0.18886728168E+03 -0.51695861665E+03  0.56945572009E+03  0.90916098919E+02 0.  0.
          5    1    3    3  502    0  0.36184359564E+01 -0.11332478952E+03 -0.14921226004E+03  0.18746196826E+03  0.47000000000E+01 0. -1.
         -5    1    3    3    0  502 -0.11806064272E+03 -0.75542492160E+02 -0.19228241152E+03  0.23799075457E+03  0.47000000000E+01 0. -1.
        -11    1    4    4    0    0  0.23240437585E+01  0.78846453039E+02 -0.21631306651E+03  0.23024662230E+03  0.00000000000E+00 0. -1.
         11    1    4    4    0    0  0.11211816300E+03  0.11002082864E+03 -0.30064555014E+03  0.33920909780E+03  0.00000000000E+00 0.  1.
<mgrwt>
<rscale>  0 0.24993486E+03</rscale>
<asrwt>0</asrwt>
<pdfrwt beam="2">  1        2 0.14256628E+00 0.25375462E+03</pdfrwt>
<pdfrwt beam="1">  1       -2 0.10496551E-01 0.25375462E+03</pdfrwt>
<totfact> 0.17910229E+03</totfact>
</mgrwt>
</event>
<event>
 8    1  0.9424564E-006  0.2445046E+03  0.7546771E-02  0.1121363E+00
         -1   -1    0    0    0  501 -0.00000000000E+00  0.00000000000E+00  0.25538560561E+03  0.25538560561E+03  0.00000000000E+00 0.  1.
          1   -1    0    0  501    0  0.00000000000E+00 -0.00000000000E+00 -0.20990277859E+03  0.20990277859E+03  0.00000000000E+00 0. -1.
         23    2    1    2    0    0 -0.15344478274E+03 -0.14356958513E+03  0.15543883838E+02  0.24499817382E+03  0.12499986292E+03 0.  0.
         23    2    1    2    0    0  0.15344478274E+03  0.14356958513E+03  0.29938943176E+02  0.22029021038E+03  0.58939879085E+02 0.  0.
          5    1    3    3  502    0 -0.12004559528E+03 -0.13803314935E+03 -0.32682382833E+02  0.18588793241E+03  0.47000000000E+01 0.  1.
         -5    1    3    3    0  502 -0.33399187452E+02 -0.55364357772E+01  0.48226266671E+02  0.59110241418E+02  0.47000000000E+01 0.  1.
        -11    1    4    4    0    0  0.99862634998E+02  0.62077200332E+02 -0.21891396157E+01  0.11760491912E+03  0.00000000000E+00 0. -1.
         11    1    4    4    0    0  0.53582147738E+02  0.81492384794E+02  0.32128082792E+02  0.10268529125E+03  0.00000000000E+00 0.  1.
<mgrwt>
<rscale>  0 0.23765774E+03</rscale>
<asrwt>0</asrwt>
<pdfrwt beam="2">  1        1 0.32292735E-01 0.24450459E+03</pdfrwt>
<pdfrwt beam="1">  1       -1 0.39290093E-01 0.24450459E+03</pdfrwt>
<totfact> 0.87979865E+02</totfact>
</mgrwt>
</event>
<event>
 8    1  0.9424564E-006  0.1253800E+03  0.7546771E-02  0.1235286E+00
         -1   -1    0    0    0  501 -0.00000000000E+00  0.00000000000E+00  0.41162549103E+03  0.41162549103E+03  0.00000000000E+00 0.  1.
          1   -1    0    0  501    0  0.00000000000E+00 -0.00000000000E+00 -0.37654981677E+02  0.37654981677E+02  0.00000000000E+00 0. -1.
         23    2    1    2    0    0  0.48873198411E+02  0.32541590342E+02  0.19951236306E+03  0.23563812106E+03  0.11078175147E+03 0.  0.
         23    2    1    2    0    0 -0.48873198411E+02 -0.32541590342E+02  0.17445814629E+03  0.21364235164E+03  0.10844291117E+03 0.  0.
          5    1    3    3  502    0  0.10088280059E+01 -0.12929296918E+02 -0.92675785835E+01  0.16618136644E+02  0.47000000000E+01 0. -1.
         -5    1    3    3    0  502  0.47864370405E+02  0.45470887259E+02  0.20877994164E+03  0.21901998442E+03  0.47000000000E+01 0.  1.
        -11    1    4    4    0    0 -0.12596329556E+02 -0.67618148397E+02  0.72826971391E+02  0.10017309655E+03  0.00000000000E+00 0.  1.
         11    1    4    4    0    0 -0.36276868855E+02  0.35076558055E+02  0.10163117490E+03  0.11346925509E+03  0.00000000000E+00 0. -1.
<mgrwt>
<rscale>  0 0.12486136E+03</rscale>
<asrwt>0</asrwt>
<pdfrwt beam="2">  1        1 0.57930744E-02 0.12537999E+03</pdfrwt>
<pdfrwt beam="1">  1       -1 0.63326995E-01 0.12537999E+03</pdfrwt>
<totfact> 0.33957660E+03</totfact>
</mgrwt>
</event>
<event>
 8    1  0.1139128E-005  0.1348060E+03  0.7546771E-02  0.1232967E+00
          2   -1    0    0  501    0  0.00000000000E+00  0.00000000000E+00  0.15704145037E+03  0.15704145037E+03  0.00000000000E+00 0.  1.
         -2   -1    0    0    0  501 -0.00000000000E+00 -0.00000000000E+00 -0.93291057031E+02  0.93291057031E+02  0.00000000000E+00 0. -1.
         23    2    1    2    0    0 -0.22235873843E+02  0.45313780943E+02  0.15680790637E+02  0.13571491712E+03  0.12499951482E+03 0.  0.
         23    2    1    2    0    0  0.22235873843E+02 -0.45313780943E+02  0.48069602702E+02  0.11461759028E+03  0.90987540182E+02 0.  0.
          5    1    3    3  502    0  0.19155012329E+02  0.73687417459E+02 -0.13512420039E+02  0.77468867840E+02  0.47000000000E+01 0. -1.
         -5    1    3    3    0  502 -0.41390886173E+02 -0.28373636515E+02  0.29193210675E+02  0.58246049281E+02  0.47000000000E+01 0. -1.
        -11    1    4    4    0    0 -0.30119619056E+02 -0.41588380982E+02  0.20107634624E+02  0.55146186223E+02  0.00000000000E+00 0.  1.
         11    1    4    4    0    0  0.52355492899E+02 -0.37253999611E+01  0.27961968078E+02  0.59471404056E+02  0.00000000000E+00 0. -1.
<mgrwt>
<rscale>  0 0.12635514E+03</rscale>
<asrwt>0</asrwt>
<pdfrwt beam="1">  1        2 0.24160223E-01 0.13480598E+03</pdfrwt>
<pdfrwt beam="2">  1       -2 0.14352470E-01 0.13480598E+03</pdfrwt>
<totfact> 0.77911631E+03</totfact>
</mgrwt>
</event>
<event>
 8    1  0.9424564E-006  0.1785374E+03  0.7546771E-02  0.1174878E+00
         -1   -1    0    0    0  501 -0.00000000000E+00  0.00000000000E+00  0.81307434657E+02  0.81307434657E+02  0.00000000000E+00 0.  1.
          1   -1    0    0  501    0  0.00000000000E+00 -0.00000000000E+00 -0.36946574976E+03  0.36946574976E+03  0.00000000000E+00 0. -1.
         23    2    1    2    0    0  0.11209058223E+03 -0.60710285916E+02 -0.96174167241E+02  0.20279316030E+03  0.12500223190E+03 0.  0.
         23    2    1    2    0    0 -0.11209058223E+03  0.60710285916E+02 -0.19198414787E+03  0.24798002412E+03  0.91575880509E+02 0.  0.
          5    1    3    3  502    0 -0.91420698597E+01 -0.22022170904E+02 -0.68217836155E+02  0.72417654079E+02  0.47000000000E+01 0. -1.
         -5    1    3    3    0  502  0.12123265209E+03 -0.38688115012E+02 -0.27956331086E+02  0.13037550622E+03  0.47000000000E+01 0. -1.
        -11    1    4    4    0    0 -0.79383752257E+02  0.14729903905E+02 -0.16853271967E+03  0.18687436366E+03  0.00000000000E+00 0. -1.
         11    1    4    4    0    0 -0.32706829968E+02  0.45980382011E+02 -0.23451428193E+02  0.61105660464E+02  0.00000000000E+00 0.  1.
<mgrwt>
<rscale>  0 0.17287951E+03</rscale>
<asrwt>0</asrwt>
<pdfrwt beam="2">  1        1 0.56840884E-01 0.17853738E+03</pdfrwt>
<pdfrwt beam="1">  1       -1 0.12508836E-01 0.17853738E+03</pdfrwt>
<totfact> 0.28302797E+03</totfact>
</mgrwt>
</event>
<event>
 8    1  0.9424564E-006  0.1493762E+03  0.7546771E-02  0.1207951E+00
         -2   -1    0    0    0  501 -0.00000000000E+00  0.00000000000E+00  0.38187139590E+02  0.38187139590E+02  0.00000000000E+00 0.  1.
          2   -1    0    0  501    0  0.00000000000E+00 -0.00000000000E+00 -0.50970254944E+03  0.50970254944E+03  0.00000000000E+00 0. -1.
         23    2    1    2    0    0  0.62041235188E+02 -0.53370195210E+02 -0.23837340515E+03  0.28130967208E+03  0.12496302942E+03 0.  0.
         23    2    1    2    0    0 -0.62041235188E+02  0.53370195210E+02 -0.23314200470E+03  0.26658001695E+03  0.10006107375E+03 0.  0.
          5    1    3    3  502    0  0.72056397752E+02 -0.82331058229E+02 -0.21871749718E+03  0.24460163773E+03  0.47000000000E+01 0. -1.
         -5    1    3    3    0  502 -0.10015162565E+02  0.28960863018E+02 -0.19655907970E+02  0.36708034353E+02  0.47000000000E+01 0. -1.
        -11    1    4    4    0    0 -0.14034499291E+02 -0.23724244287E+02 -0.11101188478E+03  0.11438288990E+03  0.00000000000E+00 0. -1.
         11    1    4    4    0    0 -0.48006735896E+02  0.77094439497E+02 -0.12213011991E+03  0.15219712705E+03  0.00000000000E+00 0.  1.
<mgrwt>
<rscale>  0 0.14407286E+03</rscale>
<asrwt>0</asrwt>
<pdfrwt beam="2">  1        2 0.78415771E-01 0.14937621E+03</pdfrwt>
<pdfrwt beam="1">  1       -2 0.58749450E-02 0.14937621E+03</pdfrwt>
<totfact> 0.89432552E+03</totfact>
</mgrwt>
</event>
<event>
 8    1  0.9424564E-006  0.1649961E+03  0.7546771E-02  0.1186691E+00
         -1   -1    0    0    0  501 -0.00000000000E+00  0.00000000000E+00  0.16249988948E+03  0.16249988948E+03  0.00000000000E+00 0.  1.
          1   -1    0    0  501    0  0.00000000000E+00 -0.00000000000E+00 -0.16127887330E+03  0.16127887330E+03  0.00000000000E+00 0. -1.
         23    2    1    2    0    0  0.50130646307E+02 -0.11007777849E+03  0.32245347943E+02  0.16811748957E+03  0.11222089297E+03 0.  0.
         23    2    1    2    0    0 -0.50130646307E+02  0.11007777849E+03 -0.31024331767E+02  0.15566127320E+03  0.92939355486E+02 0.  0.
          5    1    3    3  502    0  0.24261452396E+02  0.19836167784E+02 -0.62930545353E-01  0.31688887405E+02  0.47000000000E+01 0. -1.
         -5    1    3    3    0  502  0.25869193911E+02 -0.12991394627E+03  0.32308278488E+02  0.13642860216E+03  0.47000000000E+01 0.  1.
        -11    1    4    4    0    0 -0.15130467448E+02  0.35644156614E+02  0.33435577469E+02  0.51160285248E+02  0.00000000000E+00 0.  1.
         11    1    4    4    0    0 -0.35000178859E+02  0.74433621873E+02 -0.64459909236E+02  0.10450098796E+03  0.00000000000E+00 0. -1.
<mgrwt>
<rscale>  0 0.16178939E+03</rscale>
<asrwt>0</asrwt>
<pdfrwt beam="2">  1        1 0.24812134E-01 0.16499614E+03</pdfrwt>
<pdfrwt beam="1">  1       -1 0.24999983E-01 0.16499614E+03</pdfrwt>
<totfact> 0.26296694E+03</totfact>
</mgrwt>
</event>
<event>
 8    1  0.9424564E-006  0.1579110E+03  0.7546771E-02  0.1199149E+00
          2   -1    0    0  501    0  0.00000000000E+00  0.00000000000E+00  0.10801644329E+04  0.10801644329E+04  0.00000000000E+00 0. -1.
         -2   -1    0    0    0  501 -0.00000000000E+00 -0.00000000000E+00 -0.19620393775E+02  0.19620393775E+02  0.00000000000E+00 0.  1.
         23    2    1    2    0    0 -0.96407786084E+02  0.40429039561E+01  0.62047788562E+03  0.64025674531E+03  0.12500034831E+03 0.  0.
         23    2    1    2    0    0  0.96407786084E+02 -0.40429039561E+01  0.44006615348E+03  0.45952808135E+03  0.90537460831E+02 0.  0.
          5    1    3    3  502    0 -0.24348695975E+02 -0.47292935688E+02  0.11153418674E+03  0.12365858471E+03  0.47000000000E+01 0. -1.
         -5    1    3    3    0  502 -0.72059090109E+02  0.51335839645E+02  0.50894369888E+03  0.51659816059E+03  0.47000000000E+01 0. -1.
        -11    1    4    4    0    0  0.98407983402E+02  0.21717808387E+02  0.39427259626E+03  0.40694799982E+03  0.00000000000E+00 0. -1.
         11    1    4    4    0    0 -0.20001973180E+01 -0.25760712343E+02  0.45793557222E+02  0.52580081521E+02  0.00000000000E+00 0.  1.
<mgrwt>
<rscale>  0 0.15108224E+03</rscale>
<asrwt>0</asrwt>
<pdfrwt beam="1">  1        2 0.16617910E+00 0.15791103E+03</pdfrwt>
<pdfrwt beam="2">  1       -2 0.30185230E-02 0.15791103E+03</pdfrwt>
<totfact> 0.95994691E+03</totfact>
</mgrwt>
</event>
<event>
 8    1  0.9424564E-006  0.1261226E+03  0.7546771E-02  0.1250258E+00
         -2   -1    0    0    0  501 -0.00000000000E+00  0.00000000000E+00  0.70941665168E+02  0.70941665168E+02  0.00000000000E+00 0.  1.
          2   -1    0    0  501    0  0.00000000000E+00 -0.00000000000E+00 -0.21958457225E+03  0.21958457225E+03  0.00000000000E+00 0. -1.
         23    2    1    2    0    0 -0.74434369736E+01  0.15064648486E+02 -0.11351658105E+02  0.12663243958E+03  0.12499826488E+03 0.  0.
         23    2    1    2    0    0  0.74434369736E+01 -0.15064648486E+02 -0.13729124898E+03  0.16389379784E+03  0.87920086080E+02 0.  0.
          5    1    3    3  502    0 -0.31815403147E+02 -0.34949853084E+02  0.30857012986E+02  0.56638832601E+02  0.47000000000E+01 0. -1.
         -5    1    3    3    0  502  0.24371966173E+02  0.50014501571E+02 -0.42208671091E+02  0.69993606978E+02  0.47000000000E+01 0. -1.
        -11    1    4    4    0    0  0.33348039694E+02  0.13039791629E+01 -0.12893578709E+02  0.35777597530E+02  0.00000000000E+00 0.  1.
         11    1    4    4    0    0 -0.25904602720E+02 -0.16368627649E+02 -0.12439767027E+03  0.12811620031E+03  0.00000000000E+00 0. -1.
<mgrwt>
<rscale>  0 0.11576154E+03</rscale>
<asrwt>0</asrwt>
<pdfrwt beam="2">  1        2 0.33782242E-01 0.12612262E+03</pdfrwt>
<pdfrwt beam="1">  1       -2 0.10914102E-01 0.12612262E+03</pdfrwt>
<totfact> 0.83499265E+03</totfact>
</mgrwt>
</event>
<event>
 8    1  0.9424564E-006  0.1413677E+03  0.7546771E-02  0.1221517E+00
          2   -1    0    0  501    0  0.00000000000E+00  0.00000000000E+00  0.34853111216E+03  0.34853111216E+03  0.00000000000E+00 0. -1.
         -2   -1    0    0    0  501 -0.00000000000E+00 -0.00000000000E+00 -0.61749181301E+02  0.61749181301E+02  0.00000000000E+00 0.  1.
         23    2    1    2    0    0  0.18812579116E+02  0.63276049441E+02  0.54796874294E+02  0.15161633226E+03  0.12500817257E+03 0.  0.
         23    2    1    2    0    0 -0.18812579116E+02 -0.63276049441E+02  0.23198505657E+03  0.25866396120E+03  0.93446277561E+02 0.  0.
          5    1    3    3  502    0  0.21664368409E+02 -0.14605638645E+02  0.67482924909E+02  0.72516926942E+02  0.47000000000E+01 0.  1.
         -5    1    3    3    0  502 -0.28517892938E+01  0.77881688086E+02 -0.12686050616E+02  0.79099405317E+02  0.47000000000E+01 0.  1.
        -11    1    4    4    0    0  0.19904356469E+01 -0.11240469414E+02 -0.68698607633E+01  0.13323099250E+02  0.00000000000E+00 0.  1.
         11    1    4    4    0    0 -0.20803014763E+02 -0.52035580027E+02  0.23885491733E+03  0.24534086196E+03  0.00000000000E+00 0. -1.
<mgrwt>
<rscale>  0 0.13408491E+03</rscale>
<asrwt>0</asrwt>
<pdfrwt beam="1">  1        2 0.53620170E-01 0.14136766E+03</pdfrwt>
<pdfrwt beam="2">  1       -2 0.94998743E-02 0.14136766E+03</pdfrwt>
<totfact> 0.64067918E+03</totfact>
</mgrwt>
</event>
<event>
 8    1  0.9424564E-006  0.1778766E+03  0.7546771E-02  0.1174454E+00
          4   -1    0    0  501    0  0.00000000000E+00  0.00000000000E+00  0.27826981083E+03  0.27826981083E+03  0.00000000000E+00 0. -1.
         -4   -1    0    0    0  501 -0.00000000000E+00 -0.00000000000E+00 -0.10923617707E+03  0.10923617707E+03  0.00000000000E+00 0.  1.
         23    2    1    2    0    0  0.58818093732E+02  0.11205651101E+03  0.41376672377E+02  0.18262562315E+03  0.12499543754E+03 0.  0.
         23    2    1    2    0    0 -0.58818093732E+02 -0.11205651101E+03  0.12765696138E+03  0.20488036475E+03  0.98302768330E+02 0.  0.
          5    1    3    3  502    0  0.72502366141E+02  0.87149503131E+02 -0.19641794978E+02  0.11514998525E+03  0.47000000000E+01 0.  1.
         -5    1    3    3    0  502 -0.13684272409E+02  0.24907007876E+02  0.61018467355E+02  0.67475637908E+02  0.47000000000E+01 0.  1.
        -11    1    4    4    0    0 -0.10269184457E+01 -0.97868938796E+02  0.60106518669E+02  0.11485720408E+03  0.00000000000E+00 0.  1.
         11    1    4    4    0    0 -0.57791175286E+02 -0.14187572211E+02  0.67550442714E+02  0.90023160670E+02  0.00000000000E+00 0. -1.
<mgrwt>
<rscale>  0 0.17329571E+03</rscale>
<asrwt>0</asrwt>
<pdfrwt beam="1">  1        4 0.42810740E-01 0.17787661E+03</pdfrwt>
<pdfrwt beam="2">  1       -4 0.16805566E-01 0.17787661E+03</pdfrwt>
<totfact> 0.28589431E+02</totfact>
</mgrwt>
</event>
<event>
 8    1  0.9424564E-006  0.1434841E+03  0.7546771E-02  0.1209209E+00
         -2   -1    0    0    0  501 -0.00000000000E+00  0.00000000000E+00  0.64181324186E+03  0.64181324186E+03  0.00000000000E+00 0.  1.
          2   -1    0    0  501    0  0.00000000000E+00 -0.00000000000E+00 -0.34367854744E+02  0.34367854744E+02  0.00000000000E+00 0. -1.
         23    2    1    2    0    0 -0.15329324078E+01 -0.70425382339E+02  0.39864908187E+03  0.42368477529E+03  0.12500245589E+03 0.  0.
         23    2    1    2    0    0  0.15329324078E+01  0.70425382339E+02  0.20879630525E+03  0.25249632132E+03  0.12327372321E+03 0.  0.
          5    1    3    3  502    0  0.53763078504E+02 -0.19560872305E+02  0.96353143287E+02  0.11215665186E+03  0.47000000000E+01 0. -1.
         -5    1    3    3    0  502 -0.55296010912E+02 -0.50864510034E+02  0.30229593858E+03  0.31152812343E+03  0.47000000000E+01 0. -1.
        -11    1    4    4    0    0  0.44199842839E+02  0.74782561822E+02  0.85224902810E+02  0.12169363878E+03  0.00000000000E+00 0. -1.
         11    1    4    4    0    0 -0.42666910431E+02 -0.43571794831E+01  0.12357140244E+03  0.13080268254E+03  0.00000000000E+00 0.  1.
<mgrwt>
<rscale>  0 0.14310677E+03</rscale>
<asrwt>0</asrwt>
<pdfrwt beam="2">  1        2 0.52873628E-02 0.14348414E+03</pdfrwt>
<pdfrwt beam="1">  1       -2 0.98740490E-01 0.14348414E+03</pdfrwt>
<totfact> 0.12515666E+03</totfact>
</mgrwt>
</event>
<event>
 8    1  0.9985943E-006  0.1370675E+03  0.7546771E-02  0.1230416E+00
          1   -1    0    0  501    0  0.00000000000E+00  0.00000000000E+00  0.49198579375E+03  0.49198579375E+03  0.00000000000E+00 0. -1.
         -1   -1    0    0    0  501 -0.00000000000E+00 -0.00000000000E+00 -0.31279804301E+02  0.31279804301E+02  0.00000000000E+00 0.  1.
         23    2    1    2    0    0 -0.56163150566E+02 -0.28529645750E+01  0.19999265745E+03  0.24245529408E+03  0.12500027081E+03 0.  0.
         23    2    1    2    0    0  0.56163150566E+02  0.28529645750E+01  0.26071333200E+03  0.28081030397E+03  0.87866640131E+02 0.  0.
          5    1    3    3  502    0 -0.58287992779E+02  0.29374046392E+02  0.34894741657E+02  0.74162373876E+02  0.47000000000E+01 0. -1.
         -5    1    3    3    0  502  0.21248422131E+01 -0.32227010967E+02  0.16509791579E+03  0.16829292020E+03  0.47000000000E+01 0. -1.
        -11    1    4    4    0    0 -0.15796552195E+01 -0.13499697855E+02  0.32514672337E+00  0.13595693185E+02  0.00000000000E+00 0.  1.
         11    1    4    4    0    0  0.57742805786E+02  0.16352662430E+02  0.26038818527E+03  0.26721461079E+03  0.00000000000E+00 0. -1.
<mgrwt>
<rscale>  0 0.12802490E+03</rscale>
<asrwt>0</asrwt>
<pdfrwt beam="1">  1        1 0.75690116E-01 0.13706753E+03</pdfrwt>
<pdfrwt beam="2">  1       -1 0.48122779E-02 0.13706753E+03</pdfrwt>
<totfact> 0.82236309E+03</totfact>
</mgrwt>
</event>
<event>
 8    1  0.9424564E-006  0.1285340E+03  0.7546771E-02  0.1239457E+00
         -2   -1    0    0    0  501 -0.00000000000E+00  0.00000000000E+00  0.51829322218E+02  0.51829322218E+02  0.00000000000E+00 0.  1.
          2   -1    0    0  501    0  0.00000000000E+00 -0.00000000000E+00 -0.35183322880E+03  0.35183322880E+03  0.00000000000E+00 0. -1.
         23    2    1    2    0    0  0.21154636121E+02 -0.46412345590E+02 -0.60413460288E+02  0.14202389961E+03  0.11798041119E+03 0.  0.
         23    2    1    2    0    0 -0.21154636121E+02  0.46412345590E+02 -0.23959044629E+03  0.26163865141E+03  0.91921583441E+02 0.  0.
          5    1    3    3  502    0 -0.59810923445E+01  0.15099108709E+02  0.26871645934E+02  0.31747943313E+02  0.47000000000E+01 0. -1.
         -5    1    3    3    0  502  0.27135728466E+02 -0.61511454299E+02 -0.87285106221E+02  0.11027595630E+03  0.47000000000E+01 0.  1.
        -11    1    4    4    0    0 -0.45366815334E+02  0.32555135321E+01 -0.59617831320E+02  0.74986879607E+02  0.00000000000E+00 0.  1.
         11    1    4    4    0    0  0.24212179213E+02  0.43156832058E+02 -0.17997261497E+03  0.18665177180E+03  0.00000000000E+00 0. -1.
<mgrwt>
<rscale>  0 0.12223338E+03</rscale>
<asrwt>0</asrwt>
<pdfrwt beam="2">  1        2 0.54128191E-01 0.12853405E+03</pdfrwt>
<pdfrwt beam="1">  1       -2 0.79737415E-02 0.12853405E+03</pdfrwt>
<totfact> 0.82750319E+03</totfact>
</mgrwt>
</event>
<event>
 8    1  0.9424564E-006  0.2908378E+03  0.7546771E-02  0.1091576E+00
          2   -1    0    0  501    0  0.00000000000E+00  0.00000000000E+00  0.79124364155E+03  0.79124364155E+03  0.00000000000E+00 0. -1.
         -2   -1    0    0    0  501 -0.00000000000E+00 -0.00000000000E+00 -0.14610589888E+03  0.14610589888E+03  0.00000000000E+00 0.  1.
         23    2    1    2    0    0  0.15906294091E+03 -0.20895266041E+03  0.71121921159E+02  0.29940763877E+03  0.12499749205E+03 0.  0.
         23    2    1    2    0    0 -0.15906294091E+03  0.20895266041E+03  0.57401582150E+03  0.63794190166E+03  0.92268483767E+02 0.  0.
          5    1    3    3  502    0  0.11424744708E+03 -0.14897732559E+03  0.10711792490E+03  0.21620143973E+03  0.47000000000E+01 0. -1.
         -5    1    3    3    0  502  0.44815493825E+02 -0.59975334822E+02 -0.35996003740E+02  0.83206199043E+02  0.47000000000E+01 0. -1.
        -11    1    4    4    0    0 -0.22837903549E+02  0.26834510129E+02  0.23654380360E+02  0.42440434524E+02  0.00000000000E+00 0.  1.
         11    1    4    4    0    0 -0.13622503736E+03  0.18211815028E+03  0.55036144114E+03  0.59550146714E+03  0.00000000000E+00 0. -1.
<mgrwt>
<rscale>  0 0.28766286E+03</rscale>
<asrwt>0</asrwt>
<pdfrwt beam="1">  1        2 0.12172979E+00 0.29083777E+03</pdfrwt>
<pdfrwt beam="2">  1       -2 0.22477831E-01 0.29083777E+03</pdfrwt>
<totfact> 0.61928936E+02</totfact>
</mgrwt>
</event>
<event>
 8    1  0.9424564E-006  0.1468695E+03  0.7546771E-02  0.1214288E+00
         -2   -1    0    0    0  501 -0.00000000000E+00  0.00000000000E+00  0.26075617473E+02  0.26075617473E+02  0.00000000000E+00 0. -1.
          2   -1    0    0  501    0  0.00000000000E+00 -0.00000000000E+00 -0.72418579321E+03  0.72418579321E+03  0.00000000000E+00 0.  1.
         23    2    1    2    0    0  0.66122114784E+02  0.39672410682E+02 -0.28801694834E+03  0.32330236399E+03  0.12499848719E+03 0.  0.
         23    2    1    2    0    0 -0.66122114784E+02 -0.39672410682E+02 -0.41009322740E+03  0.42695904670E+03  0.90396560563E+02 0.  0.
          5    1    3    3  502    0  0.33839446421E+02 -0.12128957377E+02 -0.24692424140E+03  0.24957141409E+03  0.47000000000E+01 0. -1.
         -5    1    3    3    0  502  0.32282668363E+02  0.51801368059E+02 -0.41092706937E+02  0.73730949898E+02  0.47000000000E+01 0. -1.
        -11    1    4    4    0    0 -0.11670779461E+02  0.13806837900E+02 -0.12194874320E+02  0.21807127865E+02  0.00000000000E+00 0.  1.
         11    1    4    4    0    0 -0.54451335323E+02 -0.53479248582E+02 -0.39789835308E+03  0.40515191883E+03  0.00000000000E+00 0. -1.
<mgrwt>
<rscale>  0 0.13928962E+03</rscale>
<asrwt>0</asrwt>
<pdfrwt beam="2">  1        2 0.11141319E+00 0.14686952E+03</pdfrwt>
<pdfrwt beam="1">  1       -2 0.40116338E-02 0.14686952E+03</pdfrwt>
<totfact> 0.10589054E+04</totfact>
</mgrwt>
</event>
<event>
 8    1  0.9424564E-006  0.1417678E+03  0.7546771E-02  0.1223275E+00
          2   -1    0    0  501    0  0.00000000000E+00  0.00000000000E+00  0.22022122517E+03  0.22022122517E+03  0.00000000000E+00 0. -1.
         -2   -1    0    0    0  501 -0.00000000000E+00 -0.00000000000E+00 -0.10568721576E+03  0.10568721576E+03  0.00000000000E+00 0.  1.
         23    2    1    2    0    0 -0.56552088210E+00  0.66876568496E+02 -0.29762807384E+02  0.14485828465E+03  0.12500121080E+03 0.  0.
         23    2    1    2    0    0  0.56552088210E+00 -0.66876568496E+02  0.14429681679E+03  0.18105015627E+03  0.86514695401E+02 0.  0.
          5    1    3    3  502    0  0.16034494327E+02  0.60640508931E+02  0.38785879907E+02  0.73897299084E+02  0.47000000000E+01 0.  1.
         -5    1    3    3    0  502 -0.16600015209E+02  0.62360595649E+01 -0.68548687291E+02  0.70960985571E+02  0.47000000000E+01 0.  1.
        -11    1    4    4    0    0  0.37475425007E+02 -0.80016971161E+01  0.37351346726E+02  0.53512220459E+02  0.00000000000E+00 0.  1.
         11    1    4    4    0    0 -0.36909904125E+02 -0.58874871380E+02  0.10694547007E+03  0.12753793581E+03  0.00000000000E+00 0. -1.
<mgrwt>
<rscale>  0 0.13285826E+03</rscale>
<asrwt>0</asrwt>
<pdfrwt beam="1">  1        2 0.33880189E-01 0.14176776E+03</pdfrwt>
<pdfrwt beam="2">  1       -2 0.16259572E-01 0.14176776E+03</pdfrwt>
<totfact> 0.44085793E+03</totfact>
</mgrwt>
</event>
<event>
 8    1  0.9424564E-006  0.1419006E+03  0.7546771E-02  0.1216550E+00
          3   -1    0    0  501    0  0.00000000000E+00  0.00000000000E+00  0.36289691441E+02  0.36289691441E+02  0.00000000000E+00 0. -1.
         -3   -1    0    0    0  501 -0.00000000000E+00 -0.00000000000E+00 -0.50743955935E+03  0.50743955935E+03  0.00000000000E+00 0.  1.
         23    2    1    2    0    0 -0.61833788330E+02  0.58293319373E+02 -0.29546573212E+03  0.32777399216E+03  0.11364093724E+03 0.  0.
         23    2    1    2    0    0  0.61833788330E+02 -0.58293319373E+02 -0.17568413579E+03  0.21595525863E+03  0.92467452110E+02 0.  0.
          5    1    3    3  502    0  0.26636615250E+02  0.26813932302E+02 -0.38535689590E+02  0.54181044746E+02  0.47000000000E+01 0. -1.
         -5    1    3    3    0  502 -0.88470403580E+02  0.31479387071E+02 -0.25693004253E+03  0.27359294741E+03  0.47000000000E+01 0.  1.
        -11    1    4    4    0    0 -0.52103618569E-01 -0.43922873330E+02 -0.20904415776E+02  0.48643767487E+02  0.00000000000E+00 0.  1.
         11    1    4    4    0    0  0.61885891949E+02 -0.14370446043E+02 -0.15477972001E+03  0.16731149114E+03  0.00000000000E+00 0. -1.
<mgrwt>
<rscale>  0 0.13763322E+03</rscale>
<asrwt>0</asrwt>
<pdfrwt beam="1">  1        3 0.55830294E-02 0.14190064E+03</pdfrwt>
<pdfrwt beam="2">  1       -3 0.78067625E-01 0.14190064E+03</pdfrwt>
<totfact> 0.70000769E+02</totfact>
</mgrwt>
</event>
<event>
 8    1  0.9424564E-006  0.1389549E+03  0.7546771E-02  0.1225968E+00
         -2   -1    0    0    0  501 -0.00000000000E+00  0.00000000000E+00  0.30278568538E+03  0.30278568538E+03  0.00000000000E+00 0.  1.
          2   -1    0    0  501    0  0.00000000000E+00 -0.00000000000E+00 -0.56160515714E+02  0.56160515714E+02  0.00000000000E+00 0. -1.
         23    2    1    2    0    0  0.46794629746E+02 -0.38650409508E+02  0.19006527824E+03  0.23544270984E+03  0.12499947239E+03 0.  0.
         23    2    1    2    0    0 -0.46794629746E+02  0.38650409508E+02  0.56559891429E+02  0.12350349126E+03  0.91490433956E+02 0.  0.
          5    1    3    3  502    0  0.30122679316E+02 -0.78157836147E+02  0.16612609797E+03  0.18610747859E+03  0.47000000000E+01 0.  1.
         -5    1    3    3    0  502  0.16671950430E+02  0.39507426639E+02  0.23939180273E+02  0.49335231255E+02  0.47000000000E+01 0.  1.
        -11    1    4    4    0    0  0.67366891391E+01  0.11476077815E+02  0.61823517543E+02  0.63239470775E+02  0.00000000000E+00 0.  1.
         11    1    4    4    0    0 -0.53531318885E+02  0.27174331692E+02 -0.52636261135E+01  0.60264020480E+02  0.00000000000E+00 0. -1.
<mgrwt>
<rscale>  0 0.13100780E+03</rscale>
<asrwt>0</asrwt>
<pdfrwt beam="2">  1        2 0.86400796E-02 0.13895488E+03</pdfrwt>
<pdfrwt beam="1">  1       -2 0.46582412E-01 0.13895488E+03</pdfrwt>
<totfact> 0.32698121E+03</totfact>
</mgrwt>
</event>
<event>
 8    1  0.9424564E-006  0.1633756E+03  0.7546771E-02  0.1192339E+00
          2   -1    0    0  501    0  0.00000000000E+00  0.00000000000E+00  0.51321614785E+03  0.51321614785E+03  0.00000000000E+00 0. -1.
         -2   -1    0    0    0  501 -0.00000000000E+00 -0.00000000000E+00 -0.45619138696E+02  0.45619138696E+02  0.00000000000E+00 0.  1.
         23    2    1    2    0    0  0.10356235498E+03 -0.18557328113E+02  0.20769609850E+03  0.26425226180E+03  0.12498821040E+03 0.  0.
         23    2    1    2    0    0 -0.10356235498E+03  0.18557328113E+02  0.25990091065E+03  0.29458302475E+03  0.90339024325E+02 0.  0.
          5    1    3    3  502    0  0.37340792820E+02 -0.37484954383E+02  0.18360723812E+03  0.19113650751E+03  0.47000000000E+01 0.  1.
         -5    1    3    3    0  502  0.66221562156E+02  0.18927626270E+02  0.24088860381E+02  0.73115754288E+02  0.47000000000E+01 0.  1.
        -11    1    4    4    0    0 -0.65201709002E+02 -0.31571817892E+02  0.10754681838E+03  0.12967019968E+03  0.00000000000E+00 0. -1.
         11    1    4    4    0    0 -0.38360645974E+02  0.50129146005E+02  0.15235409227E+03  0.16491282507E+03  0.00000000000E+00 0.  1.
<mgrwt>
<rscale>  0 0.15681577E+03</rscale>
<asrwt>0</asrwt>
<pdfrwt beam="1">  1        2 0.78956326E-01 0.16337561E+03</pdfrwt>
<pdfrwt beam="2">  1       -2 0.70183294E-02 0.16337561E+03</pdfrwt>
<totfact> 0.68000487E+03</totfact>
</mgrwt>
</event>
<event>
 8    1  0.9424564E-006  0.1321013E+03  0.7546771E-02  0.1242225E+00
          2   -1    0    0  501    0  0.00000000000E+00  0.00000000000E+00  0.11288943541E+03  0.11288943541E+03  0.00000000000E+00 0. -1.
         -2   -1    0    0    0  501 -0.00000000000E+00 -0.00000000000E+00 -0.12997292759E+03  0.12997292759E+03  0.00000000000E+00 0.  1.
         23    2    1    2    0    0  0.36919988655E+02 -0.21469639867E+02 -0.55874450335E+02  0.14343191679E+03  0.12500691803E+03 0.  0.
         23    2    1    2    0    0 -0.36919988655E+02  0.21469639867E+02  0.38790958148E+02  0.99430446211E+02  0.80979282544E+02 0.  0.
          5    1    3    3  502    0  0.56502254841E+02  0.38637018902E+02 -0.26250480857E+02  0.73460886035E+02  0.47000000000E+01 0.  1.
         -5    1    3    3    0  502 -0.19582266186E+02 -0.60106658770E+02 -0.29623969477E+02  0.69971030756E+02  0.47000000000E+01 0.  1.
        -11    1    4    4    0    0 -0.22669481565E+02  0.45466529982E+02  0.48147096266E+02  0.69994668525E+02  0.00000000000E+00 0.  1.
         11    1    4    4    0    0 -0.14250507090E+02 -0.23996890115E+02 -0.93561381180E+01  0.29435777686E+02  0.00000000000E+00 0. -1.
<mgrwt>
<rscale>  0 0.12053044E+03</rscale>
<asrwt>0</asrwt>
<pdfrwt beam="1">  1        2 0.17367606E-01 0.13210133E+03</pdfrwt>
<pdfrwt beam="2">  1       -2 0.19995835E-01 0.13210133E+03</pdfrwt>
<totfact> 0.65159576E+03</totfact>
</mgrwt>
</event>
<event>
 8    1  0.9424564E-006  0.1932860E+03  0.7546771E-02  0.1159490E+00
          4   -1    0    0  501    0  0.00000000000E+00  0.00000000000E+00  0.17291863985E+03  0.17291863985E+03  0.00000000000E+00 0. -1.
         -4   -1    0    0    0  501 -0.00000000000E+00 -0.00000000000E+00 -0.24806296518E+03  0.24806296518E+03  0.00000000000E+00 0.  1.
         23    2    1    2    0    0  0.27360150619E+02  0.14486809915E+03 -0.13402613360E+03  0.23520728926E+03  0.12499648171E+03 0.  0.
         23    2    1    2    0    0 -0.27360150619E+02 -0.14486809915E+03  0.58881808268E+02  0.18577431577E+03  0.96486709247E+02 0.  0.
          5    1    3    3  502    0 -0.24057122970E+02  0.13916501143E+03 -0.96060862607E+02  0.17086668750E+03  0.47000000000E+01 0. -1.
         -5    1    3    3    0  502  0.51417273589E+02  0.57030877157E+01 -0.37965270993E+02  0.64340601756E+02  0.47000000000E+01 0. -1.
        -11    1    4    4    0    0 -0.42037227450E+02 -0.28719841498E+02  0.44878662138E+02  0.67867901858E+02  0.00000000000E+00 0. -1.
         11    1    4    4    0    0  0.14677076831E+02 -0.11614825765E+03  0.14003146130E+02  0.11790641391E+03  0.00000000000E+00 0.  1.
<mgrwt>
<rscale>  0 0.18886403E+03</rscale>
<asrwt>0</asrwt>
<pdfrwt beam="1">  1        4 0.26602868E-01 0.19328597E+03</pdfrwt>
<pdfrwt beam="2">  1       -4 0.38163533E-01 0.19328597E+03</pdfrwt>
<totfact> 0.15750283E+02</totfact>
</mgrwt>
</event>
<event>
 8    1  0.9424564E-006  0.1413564E+03  0.7546771E-02  0.1222911E+00
         -1   -1    0    0    0  501 -0.00000000000E+00  0.00000000000E+00  0.65719598079E+02  0.65719598079E+02  0.00000000000E+00 0.  1.
          1   -1    0    0  501    0  0.00000000000E+00 -0.00000000000E+00 -0.28190075401E+03  0.28190075401E+03  0.00000000000E+00 0. -1.
         23    2    1    2    0    0  0.76291629394E+01 -0.65547544146E+02 -0.54673935067E+02  0.15156140383E+03  0.12500774090E+03 0.  0.
         23    2    1    2    0    0 -0.76291629394E+01  0.65547544146E+02 -0.16150722087E+03  0.19605894826E+03  0.89441847760E+02 0.  0.
          5    1    3    3  502    0 -0.84557556114E+01 -0.53823586344E+02  0.31421358041E+02  0.63070357467E+02  0.47000000000E+01 0. -1.
         -5    1    3    3    0  502  0.16084918551E+02 -0.11723957802E+02 -0.86095293107E+02  0.88491046364E+02  0.47000000000E+01 0. -1.
        -11    1    4    4    0    0 -0.36908609331E+02  0.10043976699E+02 -0.24663443515E+02  0.45512771359E+02  0.00000000000E+00 0.  1.
         11    1    4    4    0    0  0.29279446392E+02  0.55503567447E+02 -0.13684377735E+03  0.15054617690E+03  0.00000000000E+00 0. -1.
<mgrwt>
<rscale>  0 0.13311126E+03</rscale>
<asrwt>0</asrwt>
<pdfrwt beam="2">  1        1 0.43369346E-01 0.14135636E+03</pdfrwt>
<pdfrwt beam="1">  1       -1 0.10110707E-01 0.14135636E+03</pdfrwt>
<totfact> 0.54493321E+03</totfact>
</mgrwt>
</event>
<event>
 8    1  0.9424564E-006  0.1322038E+03  0.7546771E-02  0.1238212E+00
          1   -1    0    0  501    0  0.00000000000E+00  0.00000000000E+00  0.92911312860E+02  0.92911312860E+02  0.00000000000E+00 0. -1.
         -1   -1    0    0    0  501 -0.00000000000E+00 -0.00000000000E+00 -0.14653893268E+03  0.14653893268E+03  0.00000000000E+00 0.  1.
         23    2    1    2    0    0  0.42561282752E+02  0.63427158683E+01 -0.46344387988E+02  0.14009155585E+03  0.12500459547E+03 0.  0.
         23    2    1    2    0    0 -0.42561282752E+02 -0.63427158683E+01 -0.72832318277E+01  0.99358689689E+02  0.89260354675E+02 0.  0.
          5    1    3    3  502    0 -0.27999908780E+01  0.56696355256E+02  0.15330926718E+01  0.56980321352E+02  0.47000000000E+01 0. -1.
         -5    1    3    3    0  502  0.45361273630E+02 -0.50353639388E+02 -0.47877480660E+02  0.83111234496E+02  0.47000000000E+01 0. -1.
        -11    1    4    4    0    0  0.67856062048E+01 -0.36351663415E+02  0.11333389190E+02  0.38677300773E+02  0.00000000000E+00 0. -1.
         11    1    4    4    0    0 -0.49346888957E+02  0.30008947546E+02 -0.18616621018E+02  0.60681388916E+02  0.00000000000E+00 0.  1.
<mgrwt>
<rscale>  0 0.12301042E+03</rscale>
<asrwt>0</asrwt>
<pdfrwt beam="1">  1        1 0.14294048E-01 0.13220379E+03</pdfrwt>
<pdfrwt beam="2">  1       -1 0.22544451E-01 0.13220379E+03</pdfrwt>
<totfact> 0.62301198E+03</totfact>
</mgrwt>
</event>
<event>
 8    1  0.9424564E-006  0.1478374E+03  0.7546771E-02  0.1213367E+00
         -1   -1    0    0    0  501 -0.00000000000E+00  0.00000000000E+00  0.50646492456E+03  0.50646492456E+03  0.00000000000E+00 0.  1.
          1   -1    0    0  501    0  0.00000000000E+00 -0.00000000000E+00 -0.37795918011E+02  0.37795918011E+02  0.00000000000E+00 0. -1.
         23    2    1    2    0    0  0.60959566295E+02  0.50159601494E+02  0.33039777180E+03  0.36196488382E+03  0.12499534056E+03 0.  0.
         23    2    1    2    0    0 -0.60959566295E+02 -0.50159601494E+02  0.13827123475E+03  0.18229595875E+03  0.88774027021E+02 0.  0.
          5    1    3    3  502    0 -0.33608116650E+02  0.40121460665E+02  0.11206275670E+03  0.12377151752E+03  0.47000000000E+01 0.  1.
         -5    1    3    3    0  502  0.94567682945E+02  0.10038140829E+02  0.21833501510E+03  0.23819336630E+03  0.47000000000E+01 0.  1.
        -11    1    4    4    0    0 -0.73181628711E+02 -0.17873886355E+02  0.12368207659E+03  0.14481810199E+03  0.00000000000E+00 0.  1.
         11    1    4    4    0    0  0.12222062416E+02 -0.32285715139E+02  0.14589158158E+02  0.37477856762E+02  0.00000000000E+00 0. -1.
<mgrwt>
<rscale>  0 0.13997167E+03</rscale>
<asrwt>0</asrwt>
<pdfrwt beam="2">  1        1 0.58147570E-02 0.14783738E+03</pdfrwt>
<pdfrwt beam="1">  1       -1 0.77917676E-01 0.14783738E+03</pdfrwt>
<totfact> 0.22628487E+03</totfact>
</mgrwt>
</event>
<event>
 8    1  0.9424564E-006  0.1582469E+03  0.7546771E-02  0.1198787E+00
          4   -1    0    0  501    0  0.00000000000E+00  0.00000000000E+00  0.15687233867E+03  0.15687233867E+03  0.00000000000E+00 0. -1.
         -4   -1    0    0    0  501 -0.00000000000E+00 -0.00000000000E+00 -0.14978267490E+03  0.14978267490E+03  0.00000000000E+00 0.  1.
         23    2    1    2    0    0  0.36009776501E+02  0.90107702549E+02 -0.44601725526E+02  0.16441226904E+03  0.12500391286E+03 0.  0.
         23    2    1    2    0    0 -0.36009776501E+02 -0.90107702549E+02  0.51691389291E+02  0.14224274452E+03  0.90249080772E+02 0.  0.
          5    1    3    3  502    0 -0.21794782668E+02  0.22205233038E+02 -0.65530597267E+02  0.72694113269E+02  0.47000000000E+01 0. -1.
         -5    1    3    3    0  502  0.57804559169E+02  0.67902469511E+02  0.20928871741E+02  0.91718155775E+02  0.47000000000E+01 0. -1.
        -11    1    4    4    0    0  0.17987535612E+01 -0.37308628026E+02 -0.22531019733E+02  0.43621280240E+02  0.00000000000E+00 0.  1.
         11    1    4    4    0    0 -0.37808530062E+02 -0.52799074523E+02  0.74222409024E+02  0.98621464283E+02  0.00000000000E+00 0. -1.
<mgrwt>
<rscale>  0 0.15138054E+03</rscale>
<asrwt>0</asrwt>
<pdfrwt beam="1">  1        4 0.24134206E-01 0.15824690E+03</pdfrwt>
<pdfrwt beam="2">  1       -4 0.23043488E-01 0.15824690E+03</pdfrwt>
<totfact> 0.47592344E+02</totfact>
</mgrwt>
</event>
<event>
 8    1  0.9424564E-006  0.1693858E+03  0.7546771E-02  0.1185433E+00
         -3   -1    0    0    0  501 -0.00000000000E+00  0.00000000000E+00  0.55155341903E+03  0.55155341903E+03  0.00000000000E+00 0.  1.
          3   -1    0    0  501    0  0.00000000000E+00 -0.00000000000E+00 -0.44880129183E+02  0.44880129183E+02  0.00000000000E+00 0. -1.
         23    2    1    2    0    0  0.61535974274E+02 -0.96328800448E+02  0.26007917582E+03  0.31037515825E+03  0.12500258891E+03 0.  0.
         23    2    1    2    0    0 -0.61535974274E+02  0.96328800448E+02  0.24659411402E+03  0.28605838996E+03  0.89189861941E+02 0.  0.
          5    1    3    3  502    0 -0.17852173214E+02 -0.79349230645E+02  0.17304030710E+03  0.19125908704E+03  0.47000000000E+01 0. -1.
         -5    1    3    3    0  502  0.79388147487E+02 -0.16979569803E+02  0.87038868722E+02  0.11911607121E+03  0.47000000000E+01 0. -1.
        -11    1    4    4    0    0 -0.46838720142E+02  0.55436439546E+02  0.59098282169E+02  0.93593116678E+02  0.00000000000E+00 0. -1.
         11    1    4    4    0    0 -0.14697254131E+02  0.40892360902E+02  0.18749583185E+03  0.19246527328E+03  0.00000000000E+00 0.  1.
<mgrwt>
<rscale>  0 0.16292541E+03</rscale>
<asrwt>0</asrwt>
<pdfrwt beam="2">  1        3 0.69046357E-02 0.16938584E+03</pdfrwt>
<pdfrwt beam="1">  1       -3 0.84854367E-01 0.16938584E+03</pdfrwt>
<totfact> 0.42508055E+02</totfact>
</mgrwt>
</event>
<event>
 8    1  0.9424564E-006  0.1924987E+03  0.7546771E-02  0.1161278E+00
          2   -1    0    0  501    0  0.00000000000E+00  0.00000000000E+00  0.10533556942E+04  0.10533556942E+04  0.00000000000E+00 0.  1.
         -2   -1    0    0    0  501 -0.00000000000E+00 -0.00000000000E+00 -0.31664659611E+02  0.31664659611E+02  0.00000000000E+00 0. -1.
         23    2    1    2    0    0 -0.23634125006E+02  0.14447187816E+03  0.59230110688E+03  0.62279719294E+03  0.12500018753E+03 0.  0.
         23    2    1    2    0    0  0.23634125006E+02 -0.14447187816E+03  0.42938992771E+03  0.46222316087E+03  0.88565484144E+02 0.  0.
          5    1    3    3  502    0  0.19263778294E+02  0.57201422939E+02  0.74859704557E+02  0.96276483664E+02  0.47000000000E+01 0. -1.
         -5    1    3    3    0  502 -0.42897903299E+02  0.87270455219E+02  0.51744140232E+03  0.52652070928E+03  0.47000000000E+01 0. -1.
        -11    1    4    4    0    0 -0.31622198391E+02 -0.69010955967E+02  0.16087311161E+03  0.17788376405E+03  0.00000000000E+00 0.  1.
         11    1    4    4    0    0  0.55256323397E+02 -0.75460922191E+02  0.26851681610E+03  0.28433939681E+03  0.00000000000E+00 0. -1.
<mgrwt>
<rscale>  0 0.18690980E+03</rscale>
<asrwt>0</asrwt>
<pdfrwt beam="1">  1        2 0.16205469E+00 0.19249868E+03</pdfrwt>
<pdfrwt beam="2">  1       -2 0.48714869E-02 0.19249868E+03</pdfrwt>
<totfact> 0.49083126E+03</totfact>
</mgrwt>
</event>
<event>
 8    1  0.9424564E-006  0.1273903E+03  0.7546771E-02  0.1245298E+00
          2   -1    0    0  501    0  0.00000000000E+00  0.00000000000E+00  0.60897852434E+03  0.60897852434E+03  0.00000000000E+00 0. -1.
         -2   -1    0    0    0  501 -0.00000000000E+00 -0.00000000000E+00 -0.20514345123E+02  0.20514345123E+02  0.00000000000E+00 0.  1.
         23    2    1    2    0    0 -0.24152754317E+02 -0.42189392883E+01  0.34885524675E+03  0.37138697308E+03  0.12500858210E+03 0.  0.
         23    2    1    2    0    0  0.24152754317E+02  0.42189392883E+01  0.23960893247E+03  0.25810589639E+03  0.92763453151E+02 0.  0.
          5    1    3    3  502    0  0.32134971220E+02 -0.40419369641E+02  0.22097894105E+03  0.22698053706E+03  0.47000000000E+01 0.  1.
         -5    1    3    3    0  502 -0.56287725536E+02  0.36200430353E+02  0.12787630570E+03  0.14440643602E+03  0.47000000000E+01 0.  1.
        -11    1    4    4    0    0 -0.23218864404E+02  0.32085235894E+02  0.12246552240E+03  0.12871045879E+03  0.00000000000E+00 0. -1.
         11    1    4    4    0    0  0.47371618721E+02 -0.27866296606E+02  0.11714341007E+03  0.12939543759E+03  0.00000000000E+00 0.  1.
<mgrwt>
<rscale>  0 0.11867590E+03</rscale>
<asrwt>0</asrwt>
<pdfrwt beam="1">  1        2 0.93688990E-01 0.12739035E+03</pdfrwt>
<pdfrwt beam="2">  1       -2 0.31560536E-02 0.12739035E+03</pdfrwt>
<totfact> 0.18303292E+04</totfact>
</mgrwt>
</event>
<event>
 8    1  0.9424564E-006  0.1456557E+03  0.7546771E-02  0.1213465E+00
         -2   -1    0    0    0  501 -0.00000000000E+00  0.00000000000E+00  0.20631678828E+02  0.20631678828E+02  0.00000000000E+00 0.  1.
          2   -1    0    0  501    0  0.00000000000E+00 -0.00000000000E+00 -0.88082688558E+03  0.88082688558E+03  0.00000000000E+00 0. -1.
         23    2    1    2    0    0  0.28145569467E+02  0.69263118603E+02 -0.46518679651E+03  0.48745699739E+03  0.12500406385E+03 0.  0.
         23    2    1    2    0    0 -0.28145569467E+02 -0.69263118603E+02 -0.39500841024E+03  0.41400156702E+03  0.98874165743E+02 0.  0.
          5    1    3    3  502    0  0.66573851439E+02  0.75214394253E+02 -0.38905692939E+03  0.40184159454E+03  0.47000000000E+01 0.  1.
         -5    1    3    3    0  502 -0.38428281971E+02 -0.59512756504E+01 -0.76129867118E+02  0.85615402846E+02  0.47000000000E+01 0.  1.
        -11    1    4    4    0    0 -0.31460440063E+02 -0.93850588372E+02 -0.30697202123E+03  0.32253606627E+03  0.00000000000E+00 0.  1.
         11    1    4    4    0    0  0.33148705959E+01  0.24587469769E+02 -0.88036389013E+02  0.91465500748E+02  0.00000000000E+00 0. -1.
<mgrwt>
<rscale>  0 0.13989893E+03</rscale>
<asrwt>0</asrwt>
<pdfrwt beam="2">  1        2 0.13551182E+00 0.14565565E+03</pdfrwt>
<pdfrwt beam="1">  1       -2 0.31741045E-02 0.14565565E+03</pdfrwt>
<totfact> 0.11727523E+04</totfact>
</mgrwt>
</event>
<event>
 8    1  0.9424564E-006  0.1273656E+03  0.7546771E-02  0.1247118E+00
         -4   -1    0    0    0  501 -0.00000000000E+00  0.00000000000E+00  0.90883777991E+02  0.90883777991E+02  0.00000000000E+00 0.  1.
          4   -1    0    0  501    0  0.00000000000E+00 -0.00000000000E+00 -0.13529017234E+03  0.13529017234E+03  0.00000000000E+00 0. -1.
         23    2    1    2    0    0 -0.24426075892E+02  0.13186485041E+00 -0.11256842276E+02  0.12786208629E+03  0.12500138415E+03 0.  0.
         23    2    1    2    0    0  0.24426075892E+02 -0.13186485041E+00 -0.33149552069E+02  0.98311864039E+02  0.89273059971E+02 0.  0.
          5    1    3    3  502    0 -0.16559181090E+02 -0.33422803403E+02 -0.58291215059E+02  0.69363145969E+02  0.47000000000E+01 0.  1.
         -5    1    3    3    0  502 -0.78668948013E+01  0.33554668253E+02  0.47034372783E+02  0.58498940319E+02  0.47000000000E+01 0.  1.
        -11    1    4    4    0    0  0.45400651125E+02  0.84600147502E+01  0.12066738543E+02  0.47732558607E+02  0.00000000000E+00 0.  1.
         11    1    4    4    0    0 -0.20974575233E+02 -0.85918796006E+01 -0.45216290612E+02  0.50579305432E+02  0.00000000000E+00 0. -1.
<mgrwt>
<rscale>  0 0.11759489E+03</rscale>
<asrwt>0</asrwt>
<pdfrwt beam="2">  1        4 0.20813873E-01 0.12736560E+03</pdfrwt>
<pdfrwt beam="1">  1       -4 0.13982120E-01 0.12736560E+03</pdfrwt>
<totfact> 0.14523700E+03</totfact>
</mgrwt>
</event>
<event>
 8    1  0.9424564E-006  0.1306993E+03  0.7546771E-02  0.1240582E+00
          3   -1    0    0  501    0  0.00000000000E+00  0.00000000000E+00  0.12335239065E+03  0.12335239065E+03  0.00000000000E+00 0. -1.
         -3   -1    0    0    0  501 -0.00000000000E+00 -0.00000000000E+00 -0.12726698636E+03  0.12726698636E+03  0.00000000000E+00 0.  1.
         23    2    1    2    0    0 -0.82223385850E+01 -0.37318702747E+02 -0.53265747498E+02  0.14113663035E+03  0.12498806400E+03 0.  0.
         23    2    1    2    0    0  0.82223385850E+01  0.37318702747E+02  0.49351151787E+02  0.10948274666E+03  0.89948002794E+02 0.  0.
          5    1    3    3  502    0 -0.35415644689E+02  0.12334188958E+02 -0.72002888458E+02  0.81319776514E+02  0.47000000000E+01 0.  1.
         -5    1    3    3    0  502  0.27193306103E+02 -0.49652891705E+02  0.18737140960E+02  0.59816853836E+02  0.47000000000E+01 0.  1.
        -11    1    4    4    0    0 -0.38353179216E+02  0.16421245409E+02  0.53018402142E+01  0.42056309472E+02  0.00000000000E+00 0.  1.
         11    1    4    4    0    0  0.46575517801E+02  0.20897457338E+02  0.44049311573E+02  0.67426437187E+02  0.00000000000E+00 0. -1.
<mgrwt>
<rscale>  0 0.12153761E+03</rscale>
<asrwt>0</asrwt>
<pdfrwt beam="1">  1        3 0.18977291E-01 0.13069931E+03</pdfrwt>
<pdfrwt beam="2">  1       -3 0.19579536E-01 0.13069931E+03</pdfrwt>
<totfact> 0.13120887E+03</totfact>
</mgrwt>
</event>
<event>
 8    1  0.9424564E-006  0.1647926E+03  0.7546771E-02  0.1190018E+00
          1   -1    0    0  501    0  0.00000000000E+00  0.00000000000E+00  0.34499177767E+02  0.34499177767E+02  0.00000000000E+00 0. -1.
         -1   -1    0    0    0  501 -0.00000000000E+00 -0.00000000000E+00 -0.11014632777E+04  0.11014632777E+04  0.00000000000E+00 0.  1.
         23    2    1    2    0    0  0.82935847221E+02  0.68217619680E+02 -0.90727789311E+03  0.92212243221E+03  0.12499842507E+03 0.  0.
         23    2    1    2    0    0 -0.82935847221E+02 -0.68217619680E+02 -0.15968620681E+03  0.21384002324E+03  0.93251662218E+02 0.  0.
          5    1    3    3  502    0 -0.11187243862E+02 -0.15870074298E+02 -0.31615796764E+02  0.37398693673E+02  0.47000000000E+01 0.  1.
         -5    1    3    3    0  502  0.94123091082E+02  0.84087693978E+02 -0.87566209635E+03  0.88472373854E+03  0.47000000000E+01 0.  1.
        -11    1    4    4    0    0 -0.33967812844E+02 -0.82427562304E+02 -0.11852303689E+03  0.14830989721E+03  0.00000000000E+00 0.  1.
         11    1    4    4    0    0 -0.48968034377E+02  0.14209942623E+02 -0.41163169916E+02  0.65530126031E+02  0.00000000000E+00 0. -1.
<mgrwt>
<rscale>  0 0.15883532E+03</rscale>
<asrwt>0</asrwt>
<pdfrwt beam="1">  1        1 0.53075661E-02 0.16479261E+03</pdfrwt>
<pdfrwt beam="2">  1       -1 0.16945588E+00 0.16479261E+03</pdfrwt>
<totfact> 0.41563107E+02</totfact>
</mgrwt>
</event>
<event>
 8    1  0.9424564E-006  0.1442026E+03  0.7546771E-02  0.1218150E+00
          1   -1    0    0  501    0  0.00000000000E+00  0.00000000000E+00  0.24908301538E+03  0.24908301538E+03  0.00000000000E+00 0. -1.
         -1   -1    0    0    0  501 -0.00000000000E+00 -0.00000000000E+00 -0.80292107349E+02  0.80292107349E+02  0.00000000000E+00 0.  1.
         23    2    1    2    0    0 -0.63109592626E+02  0.34445163146E+02  0.27572270959E+02  0.14681491681E+03  0.12500039891E+03 0.  0.
         23    2    1    2    0    0  0.63109592626E+02 -0.34445163146E+02  0.14121863707E+03  0.18256020592E+03  0.90643451953E+02 0.  0.
          5    1    3    3  502    0 -0.79946836646E+02  0.20729458157E+02  0.63695548625E+02  0.10440507670E+03  0.47000000000E+01 0. -1.
         -5    1    3    3    0  502  0.16837244020E+02  0.13715704990E+02 -0.36123277666E+02  0.42409840119E+02  0.47000000000E+01 0. -1.
        -11    1    4    4    0    0  0.10826694158E+02 -0.25440574643E+02 -0.40164190561E+01  0.27938714476E+02  0.00000000000E+00 0.  1.
         11    1    4    4    0    0  0.52282898468E+02 -0.90045885034E+01  0.14523505613E+03  0.15462149144E+03  0.00000000000E+00 0. -1.
<mgrwt>
<rscale>  0 0.13647693E+03</rscale>
<asrwt>0</asrwt>
<pdfrwt beam="1">  1        1 0.38320464E-01 0.14420260E+03</pdfrwt>
<pdfrwt beam="2">  1       -1 0.12352632E-01 0.14420260E+03</pdfrwt>
<totfact> 0.46728156E+03</totfact>
</mgrwt>
</event>
<event>
 8    1  0.9424564E-006  0.1366514E+03  0.7546771E-02  0.1230187E+00
          1   -1    0    0  501    0  0.00000000000E+00  0.00000000000E+00  0.36037989710E+03  0.36037989710E+03  0.00000000000E+00 0. -1.
         -1   -1    0    0    0  501 -0.00000000000E+00 -0.00000000000E+00 -0.40975809001E+02  0.40975809001E+02  0.00000000000E+00 0.  1.
         23    2    1    2    0    0 -0.27592409544E+02  0.47798037219E+02  0.16585458783E+03  0.21489848188E+03  0.12501047870E+03 0.  0.
         23    2    1    2    0    0  0.27592409544E+02 -0.47798037219E+02  0.15354950028E+03  0.18645722423E+03  0.90237763742E+02 0.  0.
          5    1    3    3  502    0  0.46253847882E+02 -0.14223851650E+01  0.43582749290E+02  0.63741569318E+02  0.47000000000E+01 0.  1.
         -5    1    3    3    0  502 -0.73846257426E+02  0.49220422384E+02  0.12227183854E+03  0.15115691256E+03  0.47000000000E+01 0.  1.
        -11    1    4    4    0    0  0.46436037607E+02 -0.36610851748E+02  0.41394839297E+02  0.72181665087E+02  0.00000000000E+00 0.  1.
         11    1    4    4    0    0 -0.18843628063E+02 -0.11187185471E+02  0.11215466098E+03  0.11427555914E+03  0.00000000000E+00 0. -1.
<mgrwt>
<rscale>  0 0.12817662E+03</rscale>
<asrwt>0</asrwt>
<pdfrwt beam="1">  1        1 0.55443059E-01 0.13665143E+03</pdfrwt>
<pdfrwt beam="2">  1       -1 0.63039709E-02 0.13665143E+03</pdfrwt>
<totfact> 0.81782102E+03</totfact>
</mgrwt>
</event>
<event>
 8    1  0.9424564E-006  0.1283669E+03  0.7546771E-02  0.1243941E+00
          1   -1    0    0  501    0  0.00000000000E+00  0.00000000000E+00  0.13742210902E+03  0.13742210902E+03  0.00000000000E+00 0. -1.
         -1   -1    0    0    0  501 -0.00000000000E+00 -0.00000000000E+00 -0.95880182698E+02  0.95880182698E+02  0.00000000000E+00 0.  1.
         23    2    1    2    0    0 -0.20425416422E+02 -0.20630011527E+02  0.28064045438E-01  0.12836694403E+03  0.12504109933E+03 0.  0.
         23    2    1    2    0    0  0.20425416422E+02  0.20630011527E+02  0.41513862274E+02  0.10493534768E+03  0.91897940240E+02 0.  0.
          5    1    3    3  502    0  0.26413746100E+02  0.60218795728E+01 -0.48462538504E+02  0.55719445932E+02  0.47000000000E+01 0. -1.
         -5    1    3    3    0  502 -0.46839162522E+02 -0.26651891100E+02  0.48490602550E+02  0.72647498103E+02  0.47000000000E+01 0. -1.
        -11    1    4    4    0    0  0.97663979823E+01 -0.34675733227E+02  0.18977499676E+01  0.36074789803E+02  0.00000000000E+00 0.  1.
         11    1    4    4    0    0  0.10659018440E+02  0.55305744754E+02  0.39616112306E+02  0.68860557877E+02  0.00000000000E+00 0. -1.
<mgrwt>
<rscale>  0 0.11948966E+03</rscale>
<asrwt>0</asrwt>
<pdfrwt beam="1">  1        1 0.21141863E-01 0.12836694E+03</pdfrwt>
<pdfrwt beam="2">  1       -1 0.14750797E-01 0.12836694E+03</pdfrwt>
<totfact> 0.73955916E+03</totfact>
</mgrwt>
</event>
<event>
 8    1  0.9424564E-006  0.1514125E+03  0.7546771E-02  0.1207343E+00
          1   -1    0    0  501    0  0.00000000000E+00  0.00000000000E+00  0.38341988014E+03  0.38341988014E+03  0.00000000000E+00 0. -1.
         -1   -1    0    0    0  501 -0.00000000000E+00 -0.00000000000E+00 -0.54207890646E+02  0.54207890646E+02  0.00000000000E+00 0.  1.
         23    2    1    2    0    0 -0.66688611675E+02 -0.53415944837E+02  0.11860735642E+03  0.19233678286E+03  0.12500039582E+03 0.  0.
         23    2    1    2    0    0  0.66688611675E+02  0.53415944837E+02  0.21060463307E+03  0.24529098792E+03  0.92264419976E+02 0.  0.
          5    1    3    3  502    0  0.12918267746E+02 -0.21487431163E+02 -0.17821738651E+02  0.31117450219E+02  0.47000000000E+01 0.  1.
         -5    1    3    3    0  502 -0.79606879421E+02 -0.31928513674E+02  0.13642909507E+03  0.16121933264E+03  0.47000000000E+01 0.  1.
        -11    1    4    4    0    0  0.64333060959E+02  0.77550332443E+02  0.17954569390E+03  0.20588699083E+03  0.00000000000E+00 0. -1.
         11    1    4    4    0    0  0.23555507162E+01 -0.24134387606E+02  0.31058939170E+02  0.39403997090E+02  0.00000000000E+00 0.  1.
<mgrwt>
<rscale>  0 0.14454372E+03</rscale>
<asrwt>0</asrwt>
<pdfrwt beam="1">  1        1 0.58987672E-01 0.15141246E+03</pdfrwt>
<pdfrwt beam="2">  1       -1 0.83396757E-02 0.15141246E+03</pdfrwt>
<totfact> 0.49977257E+03</totfact>
</mgrwt>
</event>
<event>
 8    1  0.9424564E-006  0.2257602E+03  0.7546771E-02  0.1132932E+00
         -3   -1    0    0    0  501 -0.00000000000E+00  0.00000000000E+00  0.17865774213E+04  0.17865774213E+04  0.00000000000E+00 0.  1.
          3   -1    0    0  501    0  0.00000000000E+00 -0.00000000000E+00 -0.31151732425E+02  0.31151732425E+02  0.00000000000E+00 0. -1.
         23    2    1    2    0    0  0.15193517981E+03  0.11071636177E+03  0.12632383722E+04  0.12832532258E+04  0.12500098020E+03 0.  0.
         23    2    1    2    0    0 -0.15193517981E+03 -0.11071636177E+03  0.49218731669E+03  0.53447592788E+03  0.89854054718E+02 0.  0.
          5    1    3    3  502    0  0.23587099126E+02  0.92793652719E+02  0.56520634897E+03  0.57327769898E+03  0.47000000000E+01 0. -1.
         -5    1    3    3    0  502  0.12834808068E+03  0.17922709048E+02  0.69803202322E+03  0.70997552687E+03  0.47000000000E+01 0. -1.
        -11    1    4    4    0    0 -0.11439007315E+03 -0.12162443529E+03  0.36416826765E+03  0.40061966908E+03  0.00000000000E+00 0.  1.
         11    1    4    4    0    0 -0.37545106659E+02  0.10908073525E+02  0.12801904904E+03  0.13385625879E+03  0.00000000000E+00 0. -1.
<mgrwt>
<rscale>  0 0.22127988E+03</rscale>
<asrwt>0</asrwt>
<pdfrwt beam="2">  1        3 0.47925756E-02 0.22576018E+03</pdfrwt>
<pdfrwt beam="1">  1       -3 0.27485798E+00 0.22576018E+03</pdfrwt>
<totfact> 0.36262210E+01</totfact>
</mgrwt>
</event>
<event>
 8    1  0.9424564E-006  0.1255075E+03  0.7546771E-02  0.1250096E+00
         -1   -1    0    0    0  501 -0.00000000000E+00  0.00000000000E+00  0.72741431645E+02  0.72741431645E+02  0.00000000000E+00 0.  1.
          1   -1    0    0  501    0  0.00000000000E+00 -0.00000000000E+00 -0.16310432903E+03  0.16310432903E+03  0.00000000000E+00 0. -1.
         23    2    1    2    0    0 -0.41740259924E+01  0.10526832638E+02 -0.40001860206E+02  0.13172801399E+03  0.12499553652E+03 0.  0.
         23    2    1    2    0    0  0.41740259924E+01 -0.10526832638E+02 -0.50361037175E+02  0.10411774669E+03  0.90421426727E+02 0.  0.
          5    1    3    3  502    0  0.22377934941E+02 -0.70943132444E+00 -0.79429143052E+02  0.82658054847E+02  0.47000000000E+01 0.  1.
         -5    1    3    3    0  502 -0.26551960933E+02  0.11236263962E+02  0.39427282846E+02  0.49069959138E+02  0.47000000000E+01 0.  1.
        -11    1    4    4    0    0 -0.27892947936E+02  0.25067494311E+02 -0.40515519626E+02  0.55207817800E+02  0.00000000000E+00 0. -1.
         11    1    4    4    0    0  0.32066973928E+02 -0.35594326949E+02 -0.98455175492E+01  0.48909928887E+02  0.00000000000E+00 0.  1.
<mgrwt>
<rscale>  0 0.11585501E+03</rscale>
<asrwt>0</asrwt>
<pdfrwt beam="2">  1        1 0.25092974E-01 0.12550745E+03</pdfrwt>
<pdfrwt beam="1">  1       -1 0.11190990E-01 0.12550745E+03</pdfrwt>
<totfact> 0.91243121E+03</totfact>
</mgrwt>
</event>
<event>
 8    1  0.9424564E-006  0.1265452E+03  0.7546771E-02  0.1247939E+00
         -1   -1    0    0    0  501 -0.00000000000E+00  0.00000000000E+00  0.41224643416E+02  0.41224643416E+02  0.00000000000E+00 0.  1.
          1   -1    0    0  501    0  0.00000000000E+00 -0.00000000000E+00 -0.32523130485E+03  0.32523130485E+03  0.00000000000E+00 0. -1.
         23    2    1    2    0    0 -0.15170991042E+02 -0.12626017078E+02 -0.10350323995E+03  0.16348276675E+03  0.12499647622E+03 0.  0.
         23    2    1    2    0    0  0.15170991042E+02  0.12626017078E+02 -0.18050342149E+03  0.20297318152E+03  0.90703097914E+02 0.  0.
          5    1    3    3  502    0 -0.18285669426E+02 -0.55816379063E+02 -0.92405389284E+01  0.59643201102E+02  0.47000000000E+01 0.  1.
         -5    1    3    3    0  502  0.31146783841E+01  0.43190361985E+02 -0.94262701020E+02  0.10383956565E+03  0.47000000000E+01 0.  1.
        -11    1    4    4    0    0 -0.17274484530E+02 -0.17264886230E+02 -0.92290885496E+01  0.26108622863E+02  0.00000000000E+00 0.  1.
         11    1    4    4    0    0  0.32445475572E+02  0.29890903308E+02 -0.17127433294E+03  0.17686455866E+03  0.00000000000E+00 0. -1.
<mgrwt>
<rscale>  0 0.11711202E+03</rscale>
<asrwt>0</asrwt>
<pdfrwt beam="2">  1        1 0.50035583E-01 0.12654523E+03</pdfrwt>
<pdfrwt beam="1">  1       -1 0.63422531E-02 0.12654523E+03</pdfrwt>
<totfact> 0.91582295E+03</totfact>
</mgrwt>
</event>
<event>
 8    1  0.9424564E-006  0.1483775E+03  0.7546771E-02  0.1211844E+00
          1   -1    0    0  501    0  0.00000000000E+00  0.00000000000E+00  0.86276296488E+02  0.86276296488E+02  0.00000000000E+00 0. -1.
         -1   -1    0    0    0  501 -0.00000000000E+00 -0.00000000000E+00 -0.21837284834E+03  0.21837284834E+03  0.00000000000E+00 0.  1.
         23    2    1    2    0    0  0.63493795155E+02 -0.48563674981E+02 -0.10057295755E+03  0.17925065962E+03  0.12500394646E+03 0.  0.
         23    2    1    2    0    0 -0.63493795155E+02  0.48563674981E+02 -0.31523594303E+02  0.12539848521E+03  0.91329899513E+02 0.  0.
          5    1    3    3  502    0 -0.31684492898E+02 -0.41025485568E+02 -0.27075623161E+02  0.58670068398E+02  0.47000000000E+01 0. -1.
         -5    1    3    3    0  502  0.95178288052E+02 -0.75381894135E+01 -0.73497334388E+02  0.12058059122E+03  0.47000000000E+01 0. -1.
        -11    1    4    4    0    0 -0.28182097571E+02  0.51094464961E+02 -0.57164289917E+02  0.81686173952E+02  0.00000000000E+00 0.  1.
         11    1    4    4    0    0 -0.35311697584E+02 -0.25307899797E+01  0.25640695615E+02  0.43712311261E+02  0.00000000000E+00 0. -1.
<mgrwt>
<rscale>  0 0.14110916E+03</rscale>
<asrwt>0</asrwt>
<pdfrwt beam="1">  1        1 0.13273277E-01 0.14837749E+03</pdfrwt>
<pdfrwt beam="2">  1       -1 0.33595822E-01 0.14837749E+03</pdfrwt>
<totfact> 0.35578593E+03</totfact>
</mgrwt>
</event>
<event>
 7    1  0.9424564E-006  0.1590980E+03  0.7546771E-02  0.1211530E+00
         -2   -1    0    0    0  501 -0.00000000000E+00  0.00000000000E+00  0.43195746883E+03  0.43195746883E+03  0.00000000000E+00 0.  1.
          2   -1    0    0  501    0  0.00000000000E+00 -0.00000000000E+00 -0.79376774709E+02  0.79376774709E+02  0.00000000000E+00 0. -1.
         23    2    1    2    0    0 -0.85235650263E+01 -0.26558486624E+02 -0.24472270725E+02  0.10208968885E+03  0.95107350731E+02 0.  0.
          5    1    1    2  502    0 -0.65666911986E+02 -0.17575628218E+02  0.21546505498E+03  0.22598302139E+03  0.47000000000E+01 0. -1.
         -5    1    1    2    0  502  0.74190477012E+02  0.44134114842E+02  0.16158790986E+03  0.18326153330E+03  0.47000000000E+01 0.  1.
        -11    1    3    3    0    0  0.21761769940E+02 -0.37804995449E+02  0.19288975544E+02  0.47695459841E+02  0.00000000000E+00 0.  1.
         11    1    3    3    0    0 -0.30285334966E+02  0.11246508825E+02 -0.43761246270E+02  0.54394229013E+02  0.00000000000E+00 0. -1.
<mgrwt>
<rscale>  0 0.14134528E+03</rscale>
<asrwt>0</asrwt>
<pdfrwt beam="2">  1        2 0.12211812E-01 0.15909798E+03</pdfrwt>
<pdfrwt beam="1">  1       -2 0.66454994E-01 0.15909798E+03</pdfrwt>
<totfact> 0.10483582E+03</totfact>
</mgrwt>
</event>
<event>
 8    1  0.1514379E-005  0.2403578E+03  0.7546771E-02  0.1122127E+00
          2   -1    0    0  501    0  0.00000000000E+00  0.00000000000E+00  0.51044575086E+03  0.51044575086E+03  0.00000000000E+00 0. -1.
         -2   -1    0    0    0  501 -0.00000000000E+00 -0.00000000000E+00 -0.10756926975E+03  0.10756926975E+03  0.00000000000E+00 0.  1.
         23    2    1    2    0    0 -0.14001816243E+03  0.15013993300E+03  0.17358953768E+03  0.29648810790E+03  0.12499914098E+03 0.  0.
         23    2    1    2    0    0  0.14001816243E+03 -0.15013993300E+03  0.22928694343E+03  0.32152691271E+03  0.93058948404E+02 0.  0.
          5    1    3    3  502    0 -0.15761197808E+03  0.13367649207E+03  0.12374797408E+03  0.24092860198E+03  0.47000000000E+01 0.  1.
         -5    1    3    3    0  502  0.17593815644E+02  0.16463440927E+02  0.49841563599E+02  0.55559505920E+02  0.47000000000E+01 0.  1.
        -11    1    4    4    0    0  0.40432326386E+02 -0.44015356654E+02  0.13536769699E+02  0.61281063733E+02  0.00000000000E+00 0.  1.
         11    1    4    4    0    0  0.99585836046E+02 -0.10612457635E+03  0.21575017373E+03  0.26024584898E+03  0.00000000000E+00 0. -1.
<mgrwt>
<rscale>  0 0.23652887E+03</rscale>
<asrwt>0</asrwt>
<pdfrwt beam="1">  1        2 0.78530114E-01 0.24035780E+03</pdfrwt>
<pdfrwt beam="2">  1       -2 0.16549119E-01 0.24035780E+03</pdfrwt>
<totfact> 0.17599680E+03</totfact>
</mgrwt>
</event>
<event>
 7    1  0.9424564E-006  0.2342374E+03  0.7546771E-02  0.1146323E+00
         -1   -1    0    0    0  501 -0.00000000000E+00  0.00000000000E+00  0.43684862241E+02  0.43684862241E+02  0.00000000000E+00 0.  1.
          1   -1    0    0  501    0  0.00000000000E+00 -0.00000000000E+00 -0.78051286982E+03  0.78051286982E+03  0.00000000000E+00 0. -1.
         23    2    1    2    0    0  0.67132554063E+02 -0.72938791269E+02 -0.26367996755E+03  0.29624298719E+03  0.91683886732E+02 0.  0.
          5    1    1    2  502    0  0.60070176225E+02  0.87174682193E+02 -0.22464049103E+03  0.24838134289E+03  0.47000000000E+01 0. -1.
         -5    1    1    2    0  502 -0.12720273029E+03 -0.14235890924E+02 -0.24850754899E+03  0.27957340197E+03  0.47000000000E+01 0.  1.
        -11    1    3    3    0    0  0.74334154309E+02 -0.89866381578E+02 -0.22880763116E+03  0.25681601413E+03  0.00000000000E+00 0.  1.
         11    1    3    3    0    0 -0.72016002464E+01  0.16927590309E+02 -0.34872336394E+02  0.39426973068E+02  0.00000000000E+00 0. -1.
<mgrwt>
<rscale>  0 0.20410270E+03</rscale>
<asrwt>0</asrwt>
<pdfrwt beam="2">  1        1 0.12007891E+00 0.23423737E+03</pdfrwt>
<pdfrwt beam="1">  1       -1 0.67207479E-02 0.23423737E+03</pdfrwt>
<totfact> 0.26793256E+03</totfact>
</mgrwt>
</event>
<event>
 8    1  0.9424564E-006  0.1377699E+03  0.7546771E-02  0.1224626E+00
          2   -1    0    0  501    0  0.00000000000E+00  0.00000000000E+00  0.65392515870E+03  0.65392515870E+03  0.00000000000E+00 0. -1.
         -2   -1    0    0    0  501 -0.00000000000E+00 -0.00000000000E+00 -0.24622072335E+02  0.24622072335E+02  0.00000000000E+00 0.  1.
         23    2    1    2    0    0 -0.44143054481E+01  0.57748264545E+02  0.32945104564E+03  0.35709738085E+03  0.12500479904E+03 0.  0.
         23    2    1    2    0    0  0.44143054481E+01 -0.57748264545E+02  0.29985204073E+03  0.32144985019E+03  0.10032154160E+03 0.  0.
          5    1    3    3  502    0 -0.67262222110E+01  0.18036160957E+02 -0.48542104912E+01  0.20400944263E+02  0.47000000000E+01 0. -1.
         -5    1    3    3    0  502  0.23119167630E+01  0.39712103588E+02  0.33430525613E+03  0.33669643658E+03  0.47000000000E+01 0. -1.
        -11    1    4    4    0    0 -0.15875160444E+02 -0.72322691861E+01  0.77865823931E+00  0.17462323595E+02  0.00000000000E+00 0.  1.
         11    1    4    4    0    0  0.20289465892E+02 -0.50515995359E+02  0.29907338249E+03  0.30398752660E+03  0.00000000000E+00 0. -1.
<mgrwt>
<rscale>  0 0.13192583E+03</rscale>
<asrwt>0</asrwt>
<pdfrwt beam="1">  1        2 0.10060386E+00 0.13776991E+03</pdfrwt>
<pdfrwt beam="2">  1       -2 0.37880116E-02 0.13776991E+03</pdfrwt>
<totfact> 0.12956828E+04</totfact>
</mgrwt>
</event>
<event>
 8    1  0.9424564E-006  0.2720389E+03  0.7546771E-02  0.1102149E+00
          4   -1    0    0  501    0  0.00000000000E+00  0.00000000000E+00  0.15937479696E+03  0.15937479696E+03  0.00000000000E+00 0. -1.
         -4   -1    0    0    0  501 -0.00000000000E+00 -0.00000000000E+00 -0.46736106386E+03  0.46736106386E+03  0.00000000000E+00 0.  1.
         23    2    1    2    0    0  0.23617709799E+03 -0.50962364911E+02 -0.23239248868E+03  0.35778681650E+03  0.12501341135E+03 0.  0.
         23    2    1    2    0    0 -0.23617709799E+03  0.50962364911E+02 -0.75593778223E+02  0.26894904431E+03  0.90787581094E+02 0.  0.
          5    1    3    3  502    0  0.11911846785E+03  0.37159776521E+02 -0.11851884064E+03  0.17215941438E+03  0.47000000000E+01 0.  1.
         -5    1    3    3    0  502  0.11705863014E+03 -0.88122141432E+02 -0.11387364804E+03  0.18562740212E+03  0.47000000000E+01 0.  1.
        -11    1    4    4    0    0 -0.78417338289E+02  0.36356456062E+02 -0.68618563007E+02  0.11036112554E+03  0.00000000000E+00 0.  1.
         11    1    4    4    0    0 -0.15775975970E+03  0.14605908849E+02 -0.69752152154E+01  0.15858791877E+03  0.00000000000E+00 0. -1.
<mgrwt>
<rscale>  0 0.26848690E+03</rscale>
<asrwt>0</asrwt>
<pdfrwt beam="1">  1        4 0.24519200E-01 0.27203885E+03</pdfrwt>
<pdfrwt beam="2">  1       -4 0.71901701E-01 0.27203885E+03</pdfrwt>
<totfact> 0.51356414E+01</totfact>
</mgrwt>
</event>
<event>
 8    1  0.9424564E-006  0.1386805E+03  0.7546771E-02  0.1224885E+00
         -2   -1    0    0    0  501 -0.00000000000E+00  0.00000000000E+00  0.28958569876E+02  0.28958569876E+02  0.00000000000E+00 0.  1.
          2   -1    0    0  501    0  0.00000000000E+00 -0.00000000000E+00 -0.54831145577E+03  0.54831145577E+03  0.00000000000E+00 0. -1.
         23    2    1    2    0    0  0.13079974507E+02 -0.58617175712E+02 -0.27042597592E+03  0.30391197545E+03  0.12500088540E+03 0.  0.
         23    2    1    2    0    0 -0.13079974507E+02  0.58617175712E+02 -0.24892690997E+03  0.27335805019E+03  0.95671093198E+02 0.  0.
          5    1    3    3  502    0 -0.18844554325E+02 -0.89989621367E+02 -0.20229907791E+03  0.22226168384E+03  0.47000000000E+01 0.  1.
         -5    1    3    3    0  502  0.31924528833E+02  0.31372445656E+02 -0.68126898010E+02  0.81650291611E+02  0.47000000000E+01 0.  1.
        -11    1    4    4    0    0  0.21509834730E+02  0.50043014443E+02 -0.59742307099E+02  0.80846271047E+02  0.00000000000E+00 0.  1.
         11    1    4    4    0    0 -0.34589809238E+02  0.85741612690E+01 -0.18918460287E+03  0.19251177914E+03  0.00000000000E+00 0. -1.
<mgrwt>
<rscale>  0 0.13174767E+03</rscale>
<asrwt>0</asrwt>
<pdfrwt beam="2">  1        2 0.84355606E-01 0.13868050E+03</pdfrwt>
<pdfrwt beam="1">  1       -2 0.44551647E-02 0.13868050E+03</pdfrwt>
<totfact> 0.12444059E+04</totfact>
</mgrwt>
</event>
<event>
 8    1  0.9424564E-006  0.1384268E+03  0.7546771E-02  0.1226342E+00
         -3   -1    0    0    0  501 -0.00000000000E+00  0.00000000000E+00  0.55125730726E+02  0.55125730726E+02  0.00000000000E+00 0.  1.
          3   -1    0    0  501    0  0.00000000000E+00 -0.00000000000E+00 -0.29231618640E+03  0.29231618640E+03  0.00000000000E+00 0. -1.
         23    2    1    2    0    0  0.30153710526E+01  0.59394851986E+02 -0.96539110893E+02  0.16876546271E+03  0.12500056227E+03 0.  0.
         23    2    1    2    0    0 -0.30153710526E+01 -0.59394851986E+02 -0.14065134478E+03  0.17867645442E+03  0.92766554685E+02 0.  0.
          5    1    3    3  502    0 -0.22477205041E+02  0.41978687520E+02  0.17177264596E+02  0.50838797895E+02  0.47000000000E+01 0. -1.
         -5    1    3    3    0  502  0.25492576094E+02  0.17416164466E+02 -0.11371637549E+03  0.11792666482E+03  0.47000000000E+01 0. -1.
        -11    1    4    4    0    0  0.30727821993E+02 -0.68485202414E+02 -0.91080352722E+02  0.11802564402E+03  0.00000000000E+00 0.  1.
         11    1    4    4    0    0 -0.33743193045E+02  0.90903504280E+01 -0.49570992063E+02  0.60650810397E+02  0.00000000000E+00 0. -1.
<mgrwt>
<rscale>  0 0.13075357E+03</rscale>
<asrwt>0</asrwt>
<pdfrwt beam="2">  1        3 0.44971721E-01 0.13842681E+03</pdfrwt>
<pdfrwt beam="1">  1       -3 0.84808816E-02 0.13842681E+03</pdfrwt>
<totfact> 0.11063548E+03</totfact>
</mgrwt>
</event>
<event>
 8    1  0.9424564E-006  0.1574376E+03  0.7546771E-02  0.1200179E+00
          1   -1    0    0  501    0  0.00000000000E+00  0.00000000000E+00  0.25653316488E+03  0.25653316488E+03  0.00000000000E+00 0. -1.
         -1   -1    0    0    0  501 -0.00000000000E+00 -0.00000000000E+00 -0.81984194638E+02  0.81984194638E+02  0.00000000000E+00 0.  1.
         23    2    1    2    0    0  0.13062527765E+02  0.94840081745E+02  0.75307631180E+02  0.17452169492E+03  0.12498524691E+03 0.  0.
         23    2    1    2    0    0 -0.13062527765E+02 -0.94840081745E+02  0.99241339060E+02  0.16399566460E+03  0.88771976955E+02 0.  0.
          5    1    3    3  502    0  0.83789347757E+00  0.12289139864E+03  0.74010840490E+02  0.14353638018E+03  0.47000000000E+01 0. -1.
         -5    1    3    3    0  502  0.12224634287E+02 -0.28051316896E+02  0.12967906901E+01  0.30985314734E+02  0.47000000000E+01 0. -1.
        -11    1    4    4    0    0  0.22302998857E+02 -0.24337915766E+01  0.47064284246E+02  0.52138219676E+02  0.00000000000E+00 0. -1.
         11    1    4    4    0    0 -0.35365526622E+02 -0.92406290169E+02  0.52177054814E+02  0.11185744492E+03  0.00000000000E+00 0.  1.
<mgrwt>
<rscale>  0 0.15023918E+03</rscale>
<asrwt>0</asrwt>
<pdfrwt beam="1">  1        1 0.39466640E-01 0.15743755E+03</pdfrwt>
<pdfrwt beam="2">  1       -1 0.12612953E-01 0.15743755E+03</pdfrwt>
<totfact> 0.43825540E+03</totfact>
</mgrwt>
</event>
<event>
 8    1  0.9424564E-006  0.1756969E+03  0.7546771E-02  0.1177992E+00
          4   -1    0    0  501    0  0.00000000000E+00  0.00000000000E+00  0.12727037711E+03  0.12727037711E+03  0.00000000000E+00 0. -1.
         -4   -1    0    0    0  501 -0.00000000000E+00 -0.00000000000E+00 -0.21814650619E+03  0.21814650619E+03  0.00000000000E+00 0.  1.
         23    2    1    2    0    0 -0.31491425444E+01 -0.12342376371E+03 -0.75240210527E+02  0.19112951002E+03  0.12500423101E+03 0.  0.
         23    2    1    2    0    0  0.31491425444E+01  0.12342376371E+03 -0.15635918553E+02  0.15428737328E+03  0.91196321499E+02 0.  0.
          5    1    3    3  502    0  0.24569516609E+02 -0.49269677043E+02 -0.94545824357E+02  0.10950874452E+03  0.47000000000E+01 0. -1.
         -5    1    3    3    0  502 -0.27718659154E+02 -0.74154086672E+02  0.19305613831E+02  0.81620765500E+02  0.47000000000E+01 0. -1.
        -11    1    4    4    0    0 -0.29931325023E+02  0.74974531070E+02 -0.40799809557E+02  0.90452689218E+02  0.00000000000E+00 0. -1.
         11    1    4    4    0    0  0.33080467567E+02  0.48449232644E+02  0.25163891004E+02  0.63834684057E+02  0.00000000000E+00 0.  1.
<mgrwt>
<rscale>  0 0.16986161E+03</rscale>
<asrwt>0</asrwt>
<pdfrwt beam="1">  1        4 0.19580058E-01 0.17569690E+03</pdfrwt>
<pdfrwt beam="2">  1       -4 0.33561001E-01 0.17569690E+03</pdfrwt>
<totfact> 0.35002495E+02</totfact>
</mgrwt>
</event>
<event>
 8    1  0.9424564E-006  0.1378051E+03  0.7546771E-02  0.1226918E+00
          3   -1    0    0  501    0  0.00000000000E+00  0.00000000000E+00  0.17338197850E+03  0.17338197850E+03  0.00000000000E+00 0. -1.
         -3   -1    0    0    0  501 -0.00000000000E+00 -0.00000000000E+00 -0.94003359740E+02  0.94003359740E+02  0.00000000000E+00 0.  1.
         23    2    1    2    0    0 -0.54451852510E+02 -0.19986914125E+02  0.12570648431E+02  0.13837731092E+03  0.12500311195E+03 0.  0.
         23    2    1    2    0    0  0.54451852510E+02  0.19986914125E+02  0.66807970329E+02  0.12900802732E+03  0.93889750430E+02 0.  0.
          5    1    3    3  502    0 -0.81333447862E+02 -0.47265894307E+02 -0.82225004489E+01  0.94545724490E+02  0.47000000000E+01 0. -1.
         -5    1    3    3    0  502  0.26881595352E+02  0.27278980181E+02  0.20793148880E+02  0.43831586427E+02  0.47000000000E+01 0. -1.
        -11    1    4    4    0    0 -0.24802141639E+02  0.27294604789E+01  0.17208289075E+01  0.25011146246E+02  0.00000000000E+00 0.  1.
         11    1    4    4    0    0  0.79253994150E+02  0.17257453646E+02  0.65087141422E+02  0.10399688108E+03  0.00000000000E+00 0. -1.
<mgrwt>
<rscale>  0 0.13036288E+03</rscale>
<asrwt>0</asrwt>
<pdfrwt beam="1">  1        3 0.26674150E-01 0.13780515E+03</pdfrwt>
<pdfrwt beam="2">  1       -3 0.14462055E-01 0.13780515E+03</pdfrwt>
<totfact> 0.12173418E+03</totfact>
</mgrwt>
</event>
<event>
 8    1  0.9424564E-006  0.1438748E+03  0.7546771E-02  0.1218721E+00
          2   -1    0    0  501    0  0.00000000000E+00  0.00000000000E+00  0.14951925205E+03  0.14951925205E+03  0.00000000000E+00 0. -1.
         -2   -1    0    0    0  501 -0.00000000000E+00 -0.00000000000E+00 -0.11332258012E+03  0.11332258012E+03  0.00000000000E+00 0.  1.
         23    2    1    2    0    0 -0.52320811865E+02 -0.48452290845E+02  0.67170853717E+01  0.14403150717E+03  0.12495944934E+03 0.  0.
         23    2    1    2    0    0  0.52320811865E+02  0.48452290845E+02  0.29479586559E+02  0.11881032500E+03  0.90342434437E+02 0.  0.
          5    1    3    3  502    0  0.36105025968E+02  0.58992995448E+01  0.14963740957E+02  0.39804248249E+02  0.47000000000E+01 0.  1.
         -5    1    3    3    0  502 -0.88425837833E+02 -0.54351590390E+02 -0.82466555849E+01  0.10422725892E+03  0.47000000000E+01 0.  1.
        -11    1    4    4    0    0  0.62430113159E+02  0.56562981473E+02  0.47424331868E+02  0.96674490717E+02  0.00000000000E+00 0.  1.
         11    1    4    4    0    0 -0.10109301294E+02 -0.81106906282E+01 -0.17944745309E+02  0.22135834281E+02  0.00000000000E+00 0. -1.
<mgrwt>
<rscale>  0 0.13606693E+03</rscale>
<asrwt>0</asrwt>
<pdfrwt beam="1">  1        2 0.23002962E-01 0.14387479E+03</pdfrwt>
<pdfrwt beam="2">  1       -2 0.17434243E-01 0.14387479E+03</pdfrwt>
<totfact> 0.60018053E+03</totfact>
</mgrwt>
</event>
<event>
 8    1  0.9424564E-006  0.1576421E+03  0.7546771E-02  0.1197396E+00
          4   -1    0    0  501    0  0.00000000000E+00  0.00000000000E+00  0.40022215738E+03  0.40022215738E+03  0.00000000000E+00 0. -1.
         -4   -1    0    0    0  501 -0.00000000000E+00 -0.00000000000E+00 -0.54678246665E+02  0.54678246665E+02  0.00000000000E+00 0.  1.
         23    2    1    2    0    0 -0.81137841601E+02 -0.65723588094E+02  0.18806331241E+03  0.24539528649E+03  0.11810206512E+03 0.  0.
         23    2    1    2    0    0  0.81137841601E+02  0.65723588094E+02  0.15748059831E+03  0.20950511756E+03  0.90494840005E+02 0.  0.
          5    1    3    3  502    0 -0.98589794911E+02 -0.22235567982E+02  0.16351958066E+03  0.19228913491E+03  0.47000000000E+01 0. -1.
         -5    1    3    3    0  502  0.17451953310E+02 -0.43488020112E+02  0.24543731746E+02  0.53106151580E+02  0.47000000000E+01 0.  1.
        -11    1    4    4    0    0  0.37814132851E+02  0.75464641315E+02  0.63715457370E+02  0.10575670305E+03  0.00000000000E+00 0. -1.
         11    1    4    4    0    0  0.43323708751E+02 -0.97410532209E+01  0.93765140937E+02  0.10374841451E+03  0.00000000000E+00 0.  1.
<mgrwt>
<rscale>  0 0.15253213E+03</rscale>
<asrwt>0</asrwt>
<pdfrwt beam="1">  1        4 0.61572638E-01 0.15764212E+03</pdfrwt>
<pdfrwt beam="2">  1       -4 0.84120382E-02 0.15764212E+03</pdfrwt>
<totfact> 0.43576700E+02</totfact>
</mgrwt>
</event>
<event>
 8    1  0.9424564E-006  0.1370337E+03  0.7546771E-02  0.1230301E+00
          3   -1    0    0  501    0  0.00000000000E+00  0.00000000000E+00  0.32350423219E+02  0.32350423219E+02  0.00000000000E+00 0. -1.
         -3   -1    0    0    0  501 -0.00000000000E+00 -0.00000000000E+00 -0.45229969701E+03  0.45229969701E+03  0.00000000000E+00 0.  1.
         23    2    1    2    0    0 -0.51044948906E+02  0.23410840116E+02 -0.24885221166E+03  0.28408739506E+03  0.12499828214E+03 0.  0.
         23    2    1    2    0    0  0.51044948906E+02 -0.23410840116E+02 -0.17109706213E+03  0.20056272517E+03  0.88303724809E+02 0.  0.
          5    1    3    3  502    0 -0.67214154362E+02 -0.31550227765E+02 -0.10092229608E+03  0.12538165442E+03  0.47000000000E+01 0.  1.
         -5    1    3    3    0  502  0.16169205456E+02  0.54961067881E+02 -0.14792991558E+03  0.15870574064E+03  0.47000000000E+01 0.  1.
        -11    1    4    4    0    0  0.66183840088E+02 -0.26997752855E+01 -0.15890663613E+03  0.17215954368E+03  0.00000000000E+00 0.  1.
         11    1    4    4    0    0 -0.15138891182E+02 -0.20711064830E+02 -0.12190426001E+02  0.28403181489E+02  0.00000000000E+00 0. -1.
<mgrwt>
<rscale>  0 0.12810119E+03</rscale>
<asrwt>0</asrwt>
<pdfrwt beam="1">  1        3 0.49769885E-02 0.13703366E+03</pdfrwt>
<pdfrwt beam="2">  1       -3 0.69584565E-01 0.13703366E+03</pdfrwt>
<totfact> 0.10687314E+03</totfact>
</mgrwt>
</event>
<event>
 8    1  0.9424564E-006  0.1537803E+03  0.7546771E-02  0.1203877E+00
         -4   -1    0    0    0  501 -0.00000000000E+00  0.00000000000E+00  0.66197950175E+02  0.66197950175E+02  0.00000000000E+00 0.  1.
          4   -1    0    0  501    0  0.00000000000E+00 -0.00000000000E+00 -0.30299044013E+03  0.30299044013E+03  0.00000000000E+00 0. -1.
         23    2    1    2    0    0 -0.15647033794E+02 -0.88195219262E+02 -0.12274616773E+03  0.19676126780E+03  0.12500059379E+03 0.  0.
         23    2    1    2    0    0  0.15647033794E+02  0.88195219262E+02 -0.11404632222E+03  0.17242712250E+03  0.93280880110E+02 0.  0.
          5    1    3    3  502    0 -0.19580324616E+02 -0.23766133754E+02 -0.12808801395E+03  0.13182127121E+03  0.47000000000E+01 0. -1.
         -5    1    3    3    0  502  0.39332908223E+01 -0.64429085508E+02  0.53418462213E+01  0.64939996590E+02  0.47000000000E+01 0. -1.
        -11    1    4    4    0    0  0.48906846170E+02  0.79020342540E+02 -0.69305768223E+02  0.11592835566E+03  0.00000000000E+00 0.  1.
         11    1    4    4    0    0 -0.33259812376E+02  0.91748767226E+01 -0.44740554000E+02  0.56498766840E+02  0.00000000000E+00 0. -1.
<mgrwt>
<rscale>  0 0.14726339E+03</rscale>
<asrwt>0</asrwt>
<pdfrwt beam="2">  1        4 0.46613914E-01 0.15378028E+03</pdfrwt>
<pdfrwt beam="1">  1       -4 0.10184300E-01 0.15378028E+03</pdfrwt>
<totfact> 0.55920946E+02</totfact>
</mgrwt>
</event>
<event>
 8    1  0.9424564E-006  0.1981706E+03  0.7546771E-02  0.1155562E+00
          1   -1    0    0  501    0  0.00000000000E+00  0.00000000000E+00  0.17114195509E+03  0.17114195509E+03  0.00000000000E+00 0. -1.
         -1   -1    0    0    0  501 -0.00000000000E+00 -0.00000000000E+00 -0.24145958246E+03  0.24145958246E+03  0.00000000000E+00 0.  1.
         23    2    1    2    0    0 -0.29861260505E+02  0.15085392229E+03 -0.11334670375E+03  0.22829598093E+03  0.12499191537E+03 0.  0.
         23    2    1    2    0    0  0.29861260505E+02 -0.15085392229E+03  0.43029076381E+02  0.18430555662E+03  0.92024105737E+02 0.  0.
          5    1    3    3  502    0 -0.14093012150E+02 -0.17405008913E+02 -0.35349386653E+02  0.42109576861E+02  0.47000000000E+01 0.  1.
         -5    1    3    3    0  502 -0.15768248355E+02  0.16825893120E+03 -0.77997317099E+02  0.18618640407E+03  0.47000000000E+01 0.  1.
        -11    1    4    4    0    0 -0.33023022596E+02 -0.43313131228E+02  0.16789379343E+02  0.56995005193E+02  0.00000000000E+00 0.  1.
         11    1    4    4    0    0  0.62884283102E+02 -0.10754079106E+03  0.26239697037E+02  0.12731055142E+03  0.00000000000E+00 0. -1.
<mgrwt>
<rscale>  0 0.19325081E+03</rscale>
<asrwt>0</asrwt>
<pdfrwt beam="1">  1        1 0.26329532E-01 0.19817058E+03</pdfrwt>
<pdfrwt beam="2">  1       -1 0.37147628E-01 0.19817058E+03</pdfrwt>
<totfact> 0.12530192E+03</totfact>
</mgrwt>
</event>
<event>
 8    1  0.9424564E-006  0.1330529E+03  0.7546771E-02  0.1235903E+00
          1   -1    0    0  501    0  0.00000000000E+00  0.00000000000E+00  0.48457623886E+03  0.48457623886E+03  0.00000000000E+00 0. -1.
         -1   -1    0    0    0  501 -0.00000000000E+00 -0.00000000000E+00 -0.32150223741E+02  0.32150223741E+02  0.00000000000E+00 0.  1.
         23    2    1    2    0    0 -0.42154137485E+02 -0.17421306029E+02  0.16616179685E+03  0.21286805765E+03  0.12499037573E+03 0.  0.
         23    2    1    2    0    0  0.42154137485E+02  0.17421306029E+02  0.28626421826E+03  0.30385840494E+03  0.91116707505E+02 0.  0.
          5    1    3    3  502    0  0.25705109008E+02 -0.48834488016E+02  0.92393541632E+02  0.10772286844E+03  0.47000000000E+01 0.  1.
         -5    1    3    3    0  502 -0.67859246493E+02  0.31413181988E+02  0.73768255220E+02  0.10514518922E+03  0.47000000000E+01 0.  1.
        -11    1    4    4    0    0  0.43656666531E+02 -0.30680488176E+02  0.13683568783E+03  0.14687138030E+03  0.00000000000E+00 0. -1.
         11    1    4    4    0    0 -0.15025290458E+01  0.48101794205E+02  0.14942853043E+03  0.15698702464E+03  0.00000000000E+00 0.  1.
<mgrwt>
<rscale>  0 0.12446783E+03</rscale>
<asrwt>0</asrwt>
<pdfrwt beam="1">  1        1 0.74550186E-01 0.13305287E+03</pdfrwt>
<pdfrwt beam="2">  1       -1 0.49461886E-02 0.13305287E+03</pdfrwt>
<totfact> 0.80385289E+03</totfact>
</mgrwt>
</event>
<event>
 8    1  0.9424564E-006  0.1914152E+03  0.7546771E-02  0.1162129E+00
          2   -1    0    0  501    0  0.00000000000E+00  0.00000000000E+00  0.31175152657E+03  0.31175152657E+03  0.00000000000E+00 0. -1.
         -2   -1    0    0    0  501 -0.00000000000E+00 -0.00000000000E+00 -0.11336905692E+03  0.11336905692E+03  0.00000000000E+00 0.  1.
         23    2    1    2    0    0  0.10690720847E+03  0.97903410014E+02  0.47177318838E+02  0.19714334171E+03  0.12500227539E+03 0.  0.
         23    2    1    2    0    0 -0.10690720847E+03 -0.97903410014E+02  0.15120515082E+03  0.22797724178E+03  0.89979976773E+02 0.  0.
          5    1    3    3  502    0 -0.25589099133E+02  0.21988734411E+02 -0.74957252075E+01  0.34879540304E+02  0.47000000000E+01 0. -1.
         -5    1    3    3    0  502  0.13249630761E+03  0.75914675603E+02  0.54673044046E+02  0.16226380140E+03  0.47000000000E+01 0. -1.
        -11    1    4    4    0    0 -0.10212782143E+03 -0.44553476628E+02  0.12771819063E+03  0.16949053191E+03  0.00000000000E+00 0. -1.
         11    1    4    4    0    0 -0.47793870471E+01 -0.53349933386E+02  0.23486960190E+02  0.58486709874E+02  0.00000000000E+00 0.  1.
<mgrwt>
<rscale>  0 0.18598968E+03</rscale>
<asrwt>0</asrwt>
<pdfrwt beam="1">  1        2 0.47961773E-01 0.19141525E+03</pdfrwt>
<pdfrwt beam="2">  1       -2 0.17441393E-01 0.19141525E+03</pdfrwt>
<totfact> 0.27421596E+03</totfact>
</mgrwt>
</event>
<event>
 8    1  0.9424564E-006  0.1417840E+03  0.7546771E-02  0.1221823E+00
         -2   -1    0    0    0  501 -0.00000000000E+00  0.00000000000E+00  0.30808194574E+02  0.30808194574E+02  0.00000000000E+00 0.  1.
          2   -1    0    0  501    0  0.00000000000E+00 -0.00000000000E+00 -0.52753630966E+03  0.52753630966E+03  0.00000000000E+00 0. -1.
         23    2    1    2    0    0 -0.54830414643E+02  0.38319891103E+02 -0.29407024906E+03  0.32646594409E+03  0.12501165083E+03 0.  0.
         23    2    1    2    0    0  0.54830414643E+02 -0.38319891103E+02 -0.20265786603E+03  0.23187856015E+03  0.90678925715E+02 0.  0.
          5    1    3    3  502    0  0.32090341777E+02 -0.15866564111E+02 -0.10986775405E+03  0.11564839502E+03  0.47000000000E+01 0.  1.
         -5    1    3    3    0  502 -0.86920756420E+02  0.54186455214E+02 -0.18420249501E+03  0.21081754906E+03  0.47000000000E+01 0.  1.
        -11    1    4    4    0    0  0.35298591809E+01 -0.18106980330E+02  0.32358498397E+01  0.18729478548E+02  0.00000000000E+00 0.  1.
         11    1    4    4    0    0  0.51300555462E+02 -0.20212910773E+02 -0.20589371587E+03  0.21314908160E+03  0.00000000000E+00 0. -1.
<mgrwt>
<rscale>  0 0.13387053E+03</rscale>
<asrwt>0</asrwt>
<pdfrwt beam="2">  1        2 0.81159430E-01 0.14178400E+03</pdfrwt>
<pdfrwt beam="1">  1       -2 0.47397224E-02 0.14178400E+03</pdfrwt>
<totfact> 0.11859824E+04</totfact>
</mgrwt>
</event>
<event>
 8    1  0.9612249E-006  0.1291112E+03  0.7546771E-02  0.1238522E+00
          2   -1    0    0  501    0  0.00000000000E+00  0.00000000000E+00  0.10735669466E+03  0.10735669466E+03  0.00000000000E+00 0.  1.
         -2   -1    0    0    0  501 -0.00000000000E+00 -0.00000000000E+00 -0.14036344216E+03  0.14036344216E+03  0.00000000000E+00 0. -1.
         23    2    1    2    0    0 -0.21767640091E+02  0.23904267151E+02 -0.53986441557E+02  0.13994369276E+03  0.12499782850E+03 0.  0.
         23    2    1    2    0    0  0.21767640091E+02 -0.23904267151E+02  0.20979694058E+02  0.10777644405E+03  0.10064974012E+03 0.  0.
          5    1    3    3  502    0 -0.52348597683E+02  0.34436425506E+02  0.14118483557E+02  0.64402365321E+02  0.47000000000E+01 0.  1.
         -5    1    3    3    0  502  0.30580957592E+02 -0.10532158354E+02 -0.68104925114E+02  0.75541327442E+02  0.47000000000E+01 0.  1.
        -11    1    4    4    0    0 -0.14305341244E+01 -0.34649353999E+02  0.55121798872E+02  0.65123243710E+02  0.00000000000E+00 0.  1.
         11    1    4    4    0    0  0.23198174215E+02  0.10745086848E+02 -0.34142104814E+02  0.42653200342E+02  0.00000000000E+00 0. -1.
<mgrwt>
<rscale>  0 0.12281654E+03</rscale>
<asrwt>0</asrwt>
<pdfrwt beam="1">  1        2 0.16516415E-01 0.12911120E+03</pdfrwt>
<pdfrwt beam="2">  1       -2 0.21594376E-01 0.12911120E+03</pdfrwt>
<totfact> 0.60483267E+03</totfact>
</mgrwt>
</event>
<event>
 8    1  0.9424564E-006  0.1660305E+03  0.7546771E-02  0.1188958E+00
         -3   -1    0    0    0  501 -0.00000000000E+00  0.00000000000E+00  0.90509192057E+02  0.90509192057E+02  0.00000000000E+00 0.  1.
          3   -1    0    0  501    0  0.00000000000E+00 -0.00000000000E+00 -0.30150932133E+03  0.30150932133E+03  0.00000000000E+00 0. -1.
         23    2    1    2    0    0 -0.21054977010E+02  0.10722300007E+03 -0.42413644108E+02  0.17136233719E+03  0.12500419832E+03 0.  0.
         23    2    1    2    0    0  0.21054977010E+02 -0.10722300007E+03 -0.16858648517E+03  0.22065617620E+03  0.91256020692E+02 0.  0.
          5    1    3    3  502    0  0.32350092864E+02  0.66176647723E+02  0.23041436247E+02  0.77323185375E+02  0.47000000000E+01 0. -1.
         -5    1    3    3    0  502 -0.53405069874E+02  0.41046352349E+02 -0.65455080355E+02  0.94039151813E+02  0.47000000000E+01 0. -1.
        -11    1    4    4    0    0  0.84383094907E+00 -0.58601595146E+02 -0.18278037665E+02  0.61391739389E+02  0.00000000000E+00 0.  1.
         11    1    4    4    0    0  0.20211146061E+02 -0.48621404927E+02 -0.15030844750E+03  0.15926443681E+03  0.00000000000E+00 0. -1.
<mgrwt>
<rscale>  0 0.15976867E+03</rscale>
<asrwt>0</asrwt>
<pdfrwt beam="2">  1        3 0.46386049E-01 0.16603052E+03</pdfrwt>
<pdfrwt beam="1">  1       -3 0.13924491E-01 0.16603052E+03</pdfrwt>
<totfact> 0.46730424E+02</totfact>
</mgrwt>
</event>
<event>
 8    1  0.9424564E-006  0.1324507E+03  0.7546771E-02  0.1239969E+00
         -1   -1    0    0    0  501 -0.00000000000E+00  0.00000000000E+00  0.81912594715E+03  0.81912594715E+03  0.00000000000E+00 0.  1.
          1   -1    0    0  501    0  0.00000000000E+00 -0.00000000000E+00 -0.36767153270E+02  0.36767153270E+02  0.00000000000E+00 0. -1.
         23    2    1    2    0    0 -0.24509856732E+02  0.36293483102E+02  0.74008004984E+03  0.75183886331E+03  0.12500098490E+03 0.  0.
         23    2    1    2    0    0  0.24509856732E+02 -0.36293483102E+02  0.42278744040E+02  0.10405423711E+03  0.84391007041E+02 0.  0.
          5    1    3    3  502    0  0.48234658120E+02  0.10410850354E+02  0.19057972322E+03  0.19692051430E+03  0.47000000000E+01 0.  1.
         -5    1    3    3    0  502 -0.72744514852E+02  0.25882632748E+02  0.54950032661E+03  0.55491834901E+03  0.47000000000E+01 0.  1.
        -11    1    4    4    0    0 -0.52807441962E+01 -0.46148611453E+02 -0.56242893493E+01  0.46789028939E+02  0.00000000000E+00 0. -1.
         11    1    4    4    0    0  0.29790600928E+02  0.98551283516E+01  0.47903033390E+02  0.57265208167E+02  0.00000000000E+00 0.  1.
<mgrwt>
<rscale>  0 0.12191596E+03</rscale>
<asrwt>0</asrwt>
<pdfrwt beam="2">  1        1 0.56564857E-02 0.13245073E+03</pdfrwt>
<pdfrwt beam="1">  1       -1 0.12601936E+00 0.13245073E+03</pdfrwt>
<totfact> 0.81257968E+02</totfact>
</mgrwt>
</event>
<event>
 8    1  0.9424564E-006  0.1415305E+03  0.7546771E-02  0.1222101E+00
         -1   -1    0    0    0  501 -0.00000000000E+00  0.00000000000E+00  0.26570051181E+02  0.26570051181E+02  0.00000000000E+00 0.  1.
          1   -1    0    0  501    0  0.00000000000E+00 -0.00000000000E+00 -0.69202688947E+03  0.69202688947E+03  0.00000000000E+00 0. -1.
         23    2    1    2    0    0  0.14876445104E+02 -0.64638647011E+02 -0.24133480375E+03  0.27977377122E+03  0.12502564639E+03 0.  0.
         23    2    1    2    0    0 -0.14876445104E+02  0.64638647011E+02 -0.42412203453E+03  0.43882316943E+03  0.91031920465E+02 0.  0.
          5    1    3    3  502    0  0.16862745997E+02 -0.37269206136E+02 -0.46276061252E+01  0.41434896730E+02  0.47000000000E+01 0. -1.
         -5    1    3    3    0  502 -0.19863008929E+01 -0.27369440876E+02 -0.23670719763E+03  0.23833887449E+03  0.47000000000E+01 0. -1.
        -11    1    4    4    0    0 -0.36691780699E+02 -0.38371880683E+01 -0.20271060713E+03  0.20604028982E+03  0.00000000000E+00 0. -1.
         11    1    4    4    0    0  0.21815335595E+02  0.68475835080E+02 -0.22141142740E+03  0.23278287961E+03  0.00000000000E+00 0.  1.
<mgrwt>
<rscale>  0 0.13367624E+03</rscale>
<asrwt>0</asrwt>
<pdfrwt beam="2">  1        1 0.10646568E+00 0.14153048E+03</pdfrwt>
<pdfrwt beam="1">  1       -1 0.40877000E-02 0.14153048E+03</pdfrwt>
<totfact> 0.65986225E+03</totfact>
</mgrwt>
</event>
<event>
 8    1  0.9424564E-006  0.1421686E+03  0.7546771E-02  0.1220040E+00
          1   -1    0    0  501    0  0.00000000000E+00  0.00000000000E+00  0.39486242511E+03  0.39486242511E+03  0.00000000000E+00 0. -1.
         -1   -1    0    0    0  501 -0.00000000000E+00 -0.00000000000E+00 -0.42439680314E+02  0.42439680314E+02  0.00000000000E+00 0.  1.
         23    2    1    2    0    0  0.45557143642E+02 -0.50117943921E+02  0.17787550844E+03  0.22770945987E+03  0.12499855987E+03 0.  0.
         23    2    1    2    0    0 -0.45557143642E+02  0.50117943921E+02  0.17454723635E+03  0.20959264556E+03  0.94207630870E+02 0.  0.
          5    1    3    3  502    0  0.33781880931E+02 -0.90006865019E+02  0.97034140845E+02  0.13667540276E+03  0.47000000000E+01 0.  1.
         -5    1    3    3    0  502  0.11775262711E+02  0.39888921098E+02  0.80841367598E+02  0.91034057107E+02  0.47000000000E+01 0.  1.
        -11    1    4    4    0    0  0.76448730415E+01  0.59533740550E+02  0.72473003698E+02  0.94101257232E+02  0.00000000000E+00 0. -1.
         11    1    4    4    0    0 -0.53202016684E+02 -0.94157966294E+01  0.10207423266E+03  0.11549138833E+03  0.00000000000E+00 0.  1.
<mgrwt>
<rscale>  0 0.13512719E+03</rscale>
<asrwt>0</asrwt>
<pdfrwt beam="1">  1        1 0.60748063E-01 0.14216857E+03</pdfrwt>
<pdfrwt beam="2">  1       -1 0.65291818E-02 0.14216857E+03</pdfrwt>
<totfact> 0.69369712E+03</totfact>
</mgrwt>
</event>
<event>
 8    1  0.9424564E-006  0.1374366E+03  0.7546771E-02  0.1228122E+00
          1   -1    0    0  501    0  0.00000000000E+00  0.00000000000E+00  0.78423350465E+02  0.78423350465E+02  0.00000000000E+00 0. -1.
         -1   -1    0    0    0  501 -0.00000000000E+00 -0.00000000000E+00 -0.20104759917E+03  0.20104759917E+03  0.00000000000E+00 0.  1.
         23    2    1    2    0    0 -0.57755484266E+02  0.16619365391E+02 -0.96288064440E+02  0.16781007500E+03  0.12359988126E+03 0.  0.
         23    2    1    2    0    0  0.57755484266E+02 -0.16619365391E+02 -0.26336184270E+02  0.11166087464E+03  0.90347424175E+02 0.  0.
          5    1    3    3  502    0  0.36303608261E+02  0.20672422903E+02 -0.20057347931E+02  0.46579912489E+02  0.47000000000E+01 0. -1.
         -5    1    3    3    0  502 -0.94059092528E+02 -0.40530575123E+01 -0.76230716509E+02  0.12123016251E+03  0.47000000000E+01 0.  1.
        -11    1    4    4    0    0 -0.18821452552E+02  0.43994980577E+01 -0.25815855146E+02  0.32249977306E+02  0.00000000000E+00 0.  1.
         11    1    4    4    0    0  0.76576936819E+02 -0.21018863448E+02 -0.52032912437E+00  0.79410897336E+02  0.00000000000E+00 0. -1.
<mgrwt>
<rscale>  0 0.12955225E+03</rscale>
<asrwt>0</asrwt>
<pdfrwt beam="1">  1        1 0.12065131E-01 0.13743664E+03</pdfrwt>
<pdfrwt beam="2">  1       -1 0.30930400E-01 0.13743664E+03</pdfrwt>
<totfact> 0.46187406E+03</totfact>
</mgrwt>
</event>
<event>
 8    1  0.9424564E-006  0.1366971E+03  0.7546771E-02  0.1231487E+00
          2   -1    0    0  501    0  0.00000000000E+00  0.00000000000E+00  0.20878309590E+03  0.20878309590E+03  0.00000000000E+00 0. -1.
         -2   -1    0    0    0  501 -0.00000000000E+00 -0.00000000000E+00 -0.14647654768E+03  0.14647654768E+03  0.00000000000E+00 0.  1.
         23    2    1    2    0    0  0.22424490420E+02  0.50585793565E+02 -0.95591344762E+02  0.16680468432E+03  0.12499726892E+03 0.  0.
         23    2    1    2    0    0 -0.22424490420E+02 -0.50585793565E+02  0.15789789298E+03  0.18845495926E+03  0.86728004590E+02 0.  0.
          5    1    3    3  502    0  0.40230555680E+02 -0.23001166608E+02 -0.74856688744E+02  0.88165555209E+02  0.47000000000E+01 0. -1.
         -5    1    3    3    0  502 -0.17806065260E+02  0.73586960172E+02 -0.20734656019E+02  0.78639129113E+02  0.47000000000E+01 0. -1.
        -11    1    4    4    0    0  0.30045279551E+02 -0.13148260659E+02  0.26744789599E+02  0.42318782500E+02  0.00000000000E+00 0.  1.
         11    1    4    4    0    0 -0.52469769970E+02 -0.37437532906E+02  0.13115310338E+03  0.14613617676E+03  0.00000000000E+00 0. -1.
<mgrwt>
<rscale>  0 0.12732048E+03</rscale>
<asrwt>0</asrwt>
<pdfrwt beam="1">  1        2 0.32120476E-01 0.13669710E+03</pdfrwt>
<pdfrwt beam="2">  1       -2 0.22534854E-01 0.13669710E+03</pdfrwt>
<totfact> 0.26898796E+03</totfact>
</mgrwt>
</event>
<event>
 8    1  0.9424564E-006  0.1641949E+03  0.7546771E-02  0.1191334E+00
         -1   -1    0    0    0  501 -0.00000000000E+00  0.00000000000E+00  0.96073364829E+02  0.96073364829E+02  0.00000000000E+00 0.  1.
          1   -1    0    0  501    0  0.00000000000E+00 -0.00000000000E+00 -0.29496312597E+03  0.29496312597E+03  0.00000000000E+00 0. -1.
         23    2    1    2    0    0 -0.68033427303E+02  0.81894470697E+02 -0.22012757513E+02  0.16566386261E+03  0.12499880928E+03 0.  0.
         23    2    1    2    0    0  0.68033427303E+02 -0.81894470697E+02 -0.17687700363E+03  0.22537262819E+03  0.90399643594E+02 0.  0.
          5    1    3    3  502    0  0.86529496953E+01  0.85216655026E+02 -0.22784380808E+02  0.88757928328E+02  0.47000000000E+01 0.  1.
         -5    1    3    3    0  502 -0.76686376999E+02 -0.33221843295E+01  0.77162329453E+00  0.76905934286E+02  0.47000000000E+01 0.  1.
        -11    1    4    4    0    0  0.45994310366E+02 -0.47180572820E+02 -0.29186329604E+02  0.72064726971E+02  0.00000000000E+00 0.  1.
         11    1    4    4    0    0  0.22039116937E+02 -0.34713897876E+02 -0.14769067403E+03  0.15330790122E+03  0.00000000000E+00 0. -1.
<mgrwt>
<rscale>  0 0.15768648E+03</rscale>
<asrwt>0</asrwt>
<pdfrwt beam="2">  1        1 0.45378941E-01 0.16419487E+03</pdfrwt>
<pdfrwt beam="1">  1       -1 0.14780518E-01 0.16419487E+03</pdfrwt>
<totfact> 0.28812692E+03</totfact>
</mgrwt>
</event>
<event>
 8    1  0.9424564E-006  0.3359504E+03  0.7546771E-02  0.1069713E+00
          2   -1    0    0  501    0  0.00000000000E+00  0.00000000000E+00  0.15781165118E+03  0.15781165118E+03  0.00000000000E+00 0. -1.
         -2   -1    0    0    0  501 -0.00000000000E+00 -0.00000000000E+00 -0.72959947794E+03  0.72959947794E+03  0.00000000000E+00 0.  1.
         23    2    1    2    0    0  0.23400558543E+03 -0.20610655684E+03 -0.39028764214E+03  0.51496324238E+03  0.12499668238E+03 0.  0.
         23    2    1    2    0    0 -0.23400558543E+03  0.20610655684E+03 -0.18150018461E+03  0.37244788674E+03  0.92393639058E+02 0.  0.
          5    1    3    3  502    0 -0.27525344170E+01  0.12258837561E+01 -0.54283753058E+02  0.54570093300E+02  0.47000000000E+01 0.  1.
         -5    1    3    3    0  502  0.23675811985E+03 -0.20733244060E+03 -0.33600388908E+03  0.46039314908E+03  0.47000000000E+01 0.  1.
        -11    1    4    4    0    0 -0.77745353015E+02  0.11894666908E+03 -0.11026539094E+03  0.17986413328E+03  0.00000000000E+00 0.  1.
         11    1    4    4    0    0 -0.15626023241E+03  0.87159887762E+02 -0.71234793677E+02  0.19258375346E+03  0.00000000000E+00 0. -1.
<mgrwt>
<rscale>  0 0.33323787E+03</rscale>
<asrwt>0</asrwt>
<pdfrwt beam="1">  1        2 0.24278715E-01 0.33595044E+03</pdfrwt>
<pdfrwt beam="2">  1       -2 0.11224608E+00 0.33595044E+03</pdfrwt>
<totfact> 0.14535354E+02</totfact>
</mgrwt>
</event>
<event>
 8    1  0.9424564E-006  0.1268862E+03  0.7546771E-02  0.1242458E+00
          2   -1    0    0  501    0  0.00000000000E+00  0.00000000000E+00  0.16004080778E+03  0.16004080778E+03  0.00000000000E+00 0. -1.
         -2   -1    0    0    0  501 -0.00000000000E+00 -0.00000000000E+00 -0.82520410879E+02  0.82520410879E+02  0.00000000000E+00 0.  1.
         23    2    1    2    0    0 -0.74630142128E+01  0.20445917300E+02  0.46879326288E+02  0.13526932412E+03  0.12500554667E+03 0.  0.
         23    2    1    2    0    0  0.74630142128E+01 -0.20445917300E+02  0.30641070613E+02  0.10729189454E+03  0.10049349884E+03 0.  0.
          5    1    3    3  502    0 -0.14016321949E+02 -0.24160758501E+02  0.76192694021E+02  0.81287244722E+02  0.47000000000E+01 0. -1.
         -5    1    3    3    0  502  0.65533077362E+01  0.44606675801E+02 -0.29313367733E+02  0.53982079398E+02  0.47000000000E+01 0. -1.
        -11    1    4    4    0    0 -0.45143970101E+02 -0.20216708966E+02  0.83825642767E+01  0.50169320722E+02  0.00000000000E+00 0.  1.
         11    1    4    4    0    0  0.52606984314E+02 -0.22920833338E+00  0.22258506337E+02  0.57122573816E+02  0.00000000000E+00 0. -1.
<mgrwt>
<rscale>  0 0.12038823E+03</rscale>
<asrwt>0</asrwt>
<pdfrwt beam="1">  1        2 0.24621663E-01 0.12688624E+03</pdfrwt>
<pdfrwt beam="2">  1       -2 0.12695448E-01 0.12688624E+03</pdfrwt>
<totfact> 0.92579014E+03</totfact>
</mgrwt>
</event>
<event>
 7    1  0.9424564E-006  0.1383540E+03  0.7546771E-02  0.1231036E+00
         -1   -1    0    0    0  501 -0.00000000000E+00  0.00000000000E+00  0.32724608238E+03  0.32724608238E+03  0.00000000000E+00 0.  1.
          1   -1    0    0  501    0  0.00000000000E+00 -0.00000000000E+00 -0.16272390196E+03  0.16272390196E+03  0.00000000000E+00 0. -1.
         23    2    1    2    0    0 -0.39326083991E+02 -0.18945746551E+02 -0.13027438112E+03  0.16432166175E+03  0.90137184048E+02 0.  0.
          5    1    1    2  502    0  0.11195162508E+02  0.19518495612E+02 -0.57951345437E+01  0.23706052368E+02  0.47000000000E+01 0. -1.
         -5    1    1    2    0  502  0.28130921484E+02 -0.57274906032E+00  0.30059169609E+03  0.30194227022E+03  0.47000000000E+01 0.  1.
        -11    1    3    3    0    0 -0.63210816117E+02 -0.16508044643E+02 -0.12293490811E+03  0.13921607107E+03  0.00000000000E+00 0. -1.
         11    1    3    3    0    0  0.23884732126E+02 -0.24377019085E+01 -0.73394730184E+01  0.25105590682E+02  0.00000000000E+00 0.  1.
<mgrwt>
<rscale>  0 0.12761665E+03</rscale>
<asrwt>0</asrwt>
<pdfrwt beam="2">  1        1 0.25034447E-01 0.13835396E+03</pdfrwt>
<pdfrwt beam="1">  1       -1 0.50345551E-01 0.13835396E+03</pdfrwt>
<totfact> 0.77107657E+02</totfact>
</mgrwt>
</event>
<event>
 8    1  0.9424564E-006  0.2135871E+03  0.7546771E-02  0.1142396E+00
          1   -1    0    0  501    0  0.00000000000E+00  0.00000000000E+00  0.17490054952E+03  0.17490054952E+03  0.00000000000E+00 0. -1.
         -1   -1    0    0    0  501 -0.00000000000E+00 -0.00000000000E+00 -0.27012923253E+03  0.27012923253E+03  0.00000000000E+00 0.  1.
         23    2    1    2    0    0  0.15346183332E+03  0.80228743235E+02 -0.12446224010E+03  0.24720497090E+03  0.12502904823E+03 0.  0.
         23    2    1    2    0    0 -0.15346183332E+03 -0.80228743235E+02  0.29233557088E+02  0.19782481114E+03  0.91065193762E+02 0.  0.
          5    1    3    3  502    0  0.20043766750E+02  0.59987553631E+02  0.21283964401E+00  0.63422349979E+02  0.47000000000E+01 0.  1.
         -5    1    3    3    0  502  0.13341806657E+03  0.20241189604E+02 -0.12467507974E+03  0.18378262092E+03  0.47000000000E+01 0.  1.
        -11    1    4    4    0    0 -0.42880978550E+02 -0.64900600892E+02 -0.12215029247E+02  0.78740543921E+02  0.00000000000E+00 0.  1.
         11    1    4    4    0    0 -0.11058085477E+03 -0.15328142343E+02  0.41448586335E+02  0.11908426722E+03  0.00000000000E+00 0. -1.
<mgrwt>
<rscale>  0 0.20895503E+03</rscale>
<asrwt>0</asrwt>
<pdfrwt beam="1">  1        1 0.26907777E-01 0.21358710E+03</pdfrwt>
<pdfrwt beam="2">  1       -1 0.41558344E-01 0.21358710E+03</pdfrwt>
<totfact> 0.10011991E+03</totfact>
</mgrwt>
</event>
<event>
 8    1  0.9424564E-006  0.1441231E+03  0.7546771E-02  0.1218338E+00
         -2   -1    0    0    0  501 -0.00000000000E+00  0.00000000000E+00  0.29709142664E+02  0.29709142664E+02  0.00000000000E+00 0.  1.
          2   -1    0    0  501    0  0.00000000000E+00 -0.00000000000E+00 -0.64132985450E+03  0.64132985450E+03  0.00000000000E+00 0. -1.
         23    2    1    2    0    0  0.10768614016E+02  0.69503191903E+02 -0.22200473797E+03  0.26468390522E+03  0.12579669817E+03 0.  0.
         23    2    1    2    0    0 -0.10768614016E+02 -0.69503191903E+02 -0.38961597387E+03  0.40635509195E+03  0.91527028375E+02 0.  0.
          5    1    3    3  502    0  0.39039054532E+01  0.50847460849E+02 -0.23497234944E+03  0.24048866866E+03  0.47000000000E+01 0. -1.
         -5    1    3    3    0  502  0.68647085631E+01  0.18655731053E+02  0.12967611473E+02  0.24195236558E+02  0.47000000000E+01 0. -1.
        -11    1    4    4    0    0 -0.40594062532E+02 -0.30132259212E+02 -0.29814129584E+03  0.30239719450E+03  0.00000000000E+00 0. -1.
         11    1    4    4    0    0  0.29825448515E+02 -0.39370932691E+02 -0.91474678030E+02  0.10395789744E+03  0.00000000000E+00 0.  1.
<mgrwt>
<rscale>  0 0.13634177E+03</rscale>
<asrwt>0</asrwt>
<pdfrwt beam="2">  1        2 0.98666136E-01 0.14412309E+03</pdfrwt>
<pdfrwt beam="1">  1       -2 0.45706371E-02 0.14412309E+03</pdfrwt>
<totfact> 0.10048078E+04</totfact>
</mgrwt>
</event>
<event>
 8    1  0.9424564E-006  0.1237967E+03  0.7546771E-02  0.1248115E+00
          3   -1    0    0  501    0  0.00000000000E+00  0.00000000000E+00  0.43457206037E+03  0.43457206037E+03  0.00000000000E+00 0. -1.
         -3   -1    0    0    0  501 -0.00000000000E+00 -0.00000000000E+00 -0.35452294123E+02  0.35452294123E+02  0.00000000000E+00 0.  1.
         23    2    1    2    0    0 -0.30937611707E+02 -0.19004509497E+02  0.11406653235E+03  0.16833539241E+03  0.11835253836E+03 0.  0.
         23    2    1    2    0    0  0.30937611707E+02  0.19004509497E+02  0.28505323390E+03  0.30168896208E+03  0.91883494098E+02 0.  0.
          5    1    3    3  502    0  0.23917131691E+02  0.15803492122E+01  0.10627175291E+03  0.10904266210E+03  0.47000000000E+01 0. -1.
         -5    1    3    3    0  502 -0.54854743398E+02 -0.20584858709E+02  0.77947794441E+01  0.59292730312E+02  0.47000000000E+01 0.  1.
        -11    1    4    4    0    0  0.38223952603E+02 -0.30309745824E+02  0.14969985895E+03  0.15744776598E+03  0.00000000000E+00 0.  1.
         11    1    4    4    0    0 -0.72863408965E+01  0.49314255321E+02  0.13535337495E+03  0.14424119610E+03  0.00000000000E+00 0. -1.
<mgrwt>
<rscale>  0 0.11700866E+03</rscale>
<asrwt>0</asrwt>
<pdfrwt beam="1">  1        3 0.66857236E-01 0.12379673E+03</pdfrwt>
<pdfrwt beam="2">  1       -3 0.54541994E-02 0.12379673E+03</pdfrwt>
<totfact> 0.99013026E+02</totfact>
</mgrwt>
</event>
<event>
 8    1  0.9424564E-006  0.1331012E+03  0.7546771E-02  0.1236380E+00
          2   -1    0    0  501    0  0.00000000000E+00  0.00000000000E+00  0.21191857475E+03  0.21191857475E+03  0.00000000000E+00 0. -1.
         -2   -1    0    0    0  501 -0.00000000000E+00 -0.00000000000E+00 -0.64818627865E+02  0.64818627865E+02  0.00000000000E+00 0.  1.
         23    2    1    2    0    0 -0.38250369907E+02  0.25058383278E+02  0.74682250907E+02  0.15262165781E+03  0.12499967385E+03 0.  0.
         23    2    1    2    0    0  0.38250369907E+02 -0.25058383278E+02  0.72417695982E+02  0.12411554480E+03  0.89829462874E+02 0.  0.
          5    1    3    3  502    0  0.21738228143E+02  0.14161310282E+02 -0.24572374952E+02  0.36041432859E+02  0.47000000000E+01 0. -1.
         -5    1    3    3    0  502 -0.59988598051E+02  0.10897072996E+02  0.99254625859E+02  0.11658022495E+03  0.47000000000E+01 0. -1.
        -11    1    4    4    0    0  0.51405030745E+02 -0.87094218465E+01  0.37038668058E+01  0.52269014188E+02  0.00000000000E+00 0.  1.
         11    1    4    4    0    0 -0.13154660838E+02 -0.16348961432E+02  0.68713829176E+02  0.71846530617E+02  0.00000000000E+00 0. -1.
<mgrwt>
<rscale>  0 0.12416525E+03</rscale>
<asrwt>0</asrwt>
<pdfrwt beam="1">  1        2 0.32602858E-01 0.13310121E+03</pdfrwt>
<pdfrwt beam="2">  1       -2 0.99720966E-02 0.13310121E+03</pdfrwt>
<totfact> 0.10041567E+04</totfact>
</mgrwt>
</event>
<event>
 8    1  0.9424564E-006  0.1976198E+03  0.7546771E-02  0.1156461E+00
          3   -1    0    0  501    0  0.00000000000E+00  0.00000000000E+00  0.71895548646E+03  0.71895548646E+03  0.00000000000E+00 0. -1.
         -3   -1    0    0    0  501 -0.00000000000E+00 -0.00000000000E+00 -0.56231179597E+02  0.56231179597E+02  0.00000000000E+00 0.  1.
         23    2    1    2    0    0  0.78297463532E+02 -0.13151801398E+03  0.20638030096E+03  0.28573839010E+03  0.12500447255E+03 0.  0.
         23    2    1    2    0    0 -0.78297463532E+02  0.13151801398E+03  0.45634400590E+03  0.48944827595E+03  0.88782218476E+02 0.  0.
          5    1    3    3  502    0  0.53760652177E+02  0.89039119286E+01  0.50326296234E+02  0.74325725444E+02  0.47000000000E+01 0.  1.
         -5    1    3    3    0  502  0.24536811355E+02 -0.14042192591E+03  0.15605400473E+03  0.21141266466E+03  0.47000000000E+01 0.  1.
        -11    1    4    4    0    0  0.47193406788E+01  0.53692835177E+02  0.81484374358E+02  0.97697983553E+02  0.00000000000E+00 0.  1.
         11    1    4    4    0    0 -0.83016804211E+02  0.77825178800E+02  0.37485963154E+03  0.39175029240E+03  0.00000000000E+00 0. -1.
<mgrwt>
<rscale>  0 0.19223518E+03</rscale>
<asrwt>0</asrwt>
<pdfrwt beam="1">  1        3 0.11060853E+00 0.19761983E+03</pdfrwt>
<pdfrwt beam="2">  1       -3 0.86509512E-02 0.19761983E+03</pdfrwt>
<totfact> 0.16435548E+02</totfact>
</mgrwt>
</event>
<event>
 8    1  0.9424564E-006  0.1446573E+03  0.7546771E-02  0.1217964E+00
         -1   -1    0    0    0  501 -0.00000000000E+00  0.00000000000E+00  0.97750799882E+02  0.97750799882E+02  0.00000000000E+00 0.  1.
          1   -1    0    0  501    0  0.00000000000E+00 -0.00000000000E+00 -0.22707138684E+03  0.22707138684E+03  0.00000000000E+00 0. -1.
         23    2    1    2    0    0  0.63346985856E+02  0.35883249666E+02  0.89592579905E+01  0.14493446716E+03  0.12500113297E+03 0.  0.
         23    2    1    2    0    0 -0.63346985856E+02 -0.35883249666E+02 -0.13827984495E+03  0.17988771957E+03  0.89094488650E+02 0.  0.
          5    1    3    3  502    0  0.39224091156E+02  0.55573688383E+02 -0.45538154396E+02  0.81992546450E+02  0.47000000000E+01 0.  1.
         -5    1    3    3    0  502  0.24122894700E+02 -0.19690438717E+02  0.54497412387E+02  0.62941920708E+02  0.47000000000E+01 0.  1.
        -11    1    4    4    0    0 -0.44005610069E+01  0.10934571341E+02  0.87690157250E+01  0.14690998073E+02  0.00000000000E+00 0.  1.
         11    1    4    4    0    0 -0.58946424849E+02 -0.46817821007E+02 -0.14704886068E+03  0.16519672150E+03  0.00000000000E+00 0. -1.
<mgrwt>
<rscale>  0 0.13661053E+03</rscale>
<asrwt>0</asrwt>
<pdfrwt beam="2">  1        1 0.34934059E-01 0.14465729E+03</pdfrwt>
<pdfrwt beam="1">  1       -1 0.15038585E-01 0.14465729E+03</pdfrwt>
<totfact> 0.38572657E+03</totfact>
</mgrwt>
</event>
<event>
 8    1  0.9424564E-006  0.1285102E+03  0.7546771E-02  0.1243716E+00
         -2   -1    0    0    0  501 -0.00000000000E+00  0.00000000000E+00  0.25824582724E+03  0.25824582724E+03  0.00000000000E+00 0.  1.
          2   -1    0    0  501    0  0.00000000000E+00 -0.00000000000E+00 -0.52567849955E+02  0.52567849955E+02  0.00000000000E+00 0. -1.
         23    2    1    2    0    0  0.28998297028E+02 -0.69740275504E+01  0.15653556642E+03  0.20252965772E+03  0.12500136163E+03 0.  0.
         23    2    1    2    0    0 -0.28998297028E+02  0.69740275504E+01  0.49142410873E+02  0.10828401948E+03  0.91765538403E+02 0.  0.
          5    1    3    3  502    0 -0.17832373070E+02  0.43941741474E+02  0.10754863859E+03  0.11763362545E+03  0.47000000000E+01 0.  1.
         -5    1    3    3    0  502  0.46830670098E+02 -0.50915769024E+02  0.48986927828E+02  0.84896032270E+02  0.47000000000E+01 0.  1.
        -11    1    4    4    0    0 -0.14812865367E+02  0.49321580393E+02  0.21827262715E+02  0.55932715565E+02  0.00000000000E+00 0.  1.
         11    1    4    4    0    0 -0.14185431661E+02 -0.42347552842E+02  0.27315148157E+02  0.52351303919E+02  0.00000000000E+00 0. -1.
<mgrwt>
<rscale>  0 0.11962573E+03</rscale>
<asrwt>0</asrwt>
<pdfrwt beam="2">  1        2 0.80873617E-02 0.12851023E+03</pdfrwt>
<pdfrwt beam="1">  1       -2 0.39730127E-01 0.12851023E+03</pdfrwt>
<totfact> 0.47937784E+03</totfact>
</mgrwt>
</event>
<event>
 7    1  0.9424564E-006  0.1748236E+03  0.7546771E-02  0.1193348E+00
          1   -1    0    0  501    0  0.00000000000E+00  0.00000000000E+00  0.44811607907E+03  0.44811607907E+03  0.00000000000E+00 0. -1.
         -1   -1    0    0    0  501 -0.00000000000E+00 -0.00000000000E+00 -0.84289885369E+02  0.84289885369E+02  0.00000000000E+00 0.  1.
         23    2    1    2    0    0 -0.59922147661E+02 -0.20781489929E+02  0.33802575160E+03  0.35568879475E+03  0.90722521237E+02 0.  0.
          5    1    1    2  502    0  0.38961367320E+02  0.39899532658E+02  0.90221308458E+02  0.10616937105E+03  0.47000000000E+01 0. -1.
         -5    1    1    2    0  502  0.20960780341E+02 -0.19118042729E+02 -0.64420866359E+02  0.70547798638E+02  0.47000000000E+01 0.  1.
        -11    1    3    3    0    0 -0.68814735721E+02 -0.37996384620E+02  0.31896656808E+03  0.32851006781E+03  0.00000000000E+00 0. -1.
         11    1    3    3    0    0  0.88925880599E+01  0.17214894691E+02  0.19059183514E+02  0.27178726936E+02  0.00000000000E+00 0.  1.
<mgrwt>
<rscale>  0 0.15594838E+03</rscale>
<asrwt>0</asrwt>
<pdfrwt beam="1">  1        1 0.68940934E-01 0.17482361E+03</pdfrwt>
<pdfrwt beam="2">  1       -1 0.12967675E-01 0.17482361E+03</pdfrwt>
<totfact> 0.20906023E+03</totfact>
</mgrwt>
</event>
<event>
 8    1  0.9424564E-006  0.1362855E+03  0.7546771E-02  0.1228365E+00
          2   -1    0    0  501    0  0.00000000000E+00  0.00000000000E+00  0.25527599341E+02  0.25527599341E+02  0.00000000000E+00 0. -1.
         -2   -1    0    0    0  501 -0.00000000000E+00 -0.00000000000E+00 -0.59952986965E+03  0.59952986965E+03  0.00000000000E+00 0.  1.
         23    2    1    2    0    0 -0.51935932523E+02  0.15860412912E+02 -0.33455287741E+03  0.36124695371E+03  0.12499935998E+03 0.  0.
         23    2    1    2    0    0  0.51935932523E+02 -0.15860412912E+02 -0.23944939290E+03  0.26381051528E+03  0.96493950222E+02 0.  0.
          5    1    3    3  502    0  0.40420935848E+02 -0.34499504442E+01 -0.82090887858E+02  0.91688374848E+02  0.47000000000E+01 0. -1.
         -5    1    3    3    0  502 -0.92356868371E+02  0.19310363356E+02 -0.25246198955E+03  0.26955857886E+03  0.47000000000E+01 0. -1.
        -11    1    4    4    0    0  0.49715734051E+02 -0.48564641595E+02 -0.10873236350E+03  0.12904613709E+03  0.00000000000E+00 0. -1.
         11    1    4    4    0    0  0.22201984726E+01  0.32704228682E+02 -0.13071702940E+03  0.13476437819E+03  0.00000000000E+00 0.  1.
<mgrwt>
<rscale>  0 0.12938931E+03</rscale>
<asrwt>0</asrwt>
<pdfrwt beam="1">  1        2 0.39273232E-02 0.13628549E+03</pdfrwt>
<pdfrwt beam="2">  1       -2 0.92235359E-01 0.13628549E+03</pdfrwt>
<totfact> 0.21542697E+03</totfact>
</mgrwt>
</event>
<event>
 7    1  0.9424564E-006  0.1251359E+04  0.7546771E-02  0.9069053E-01
          2   -1    0    0  501    0  0.00000000000E+00  0.00000000000E+00  0.58049556503E+03  0.58049556503E+03  0.00000000000E+00 0. -1.
         -2   -1    0    0    0  501 -0.00000000000E+00 -0.00000000000E+00 -0.67438067941E+03  0.67438067941E+03  0.00000000000E+00 0.  1.
         23    2    1    2    0    0  0.32988862775E+03  0.87136133853E+02  0.16840728222E+03  0.39128224725E+03  0.91222649414E+02 0.  0.
          5    1    1    2  502    0  0.20768434324E+02  0.24366496359E+03  0.96188568650E+02  0.26282745877E+03  0.47000000000E+01 0. -1.
         -5    1    1    2    0  502 -0.35065706207E+03 -0.33080109744E+03 -0.35848096525E+03  0.60076653843E+03  0.47000000000E+01 0.  1.
        -11    1    3    3    0    0  0.12668693130E+03  0.51302135680E+02  0.11376825367E+03  0.17783335804E+03  0.00000000000E+00 0.  1.
         11    1    3    3    0    0  0.20320169644E+03  0.35833998172E+02  0.54639028547E+02  0.21344888921E+03  0.00000000000E+00 0. -1.
<mgrwt>
<rscale>  0 0.12513593E+04</rscale>
<asrwt>0</asrwt>
<pdfrwt beam="1">  1        2 0.89307010E-01 0.12513593E+04</pdfrwt>
<pdfrwt beam="2">  1       -2 0.10375087E+00 0.12513593E+04</pdfrwt>
<totfact> 0.38405244E+01</totfact>
</mgrwt>
</event>
<event>
 8    1  0.9424564E-006  0.1762742E+03  0.7546771E-02  0.1177407E+00
          3   -1    0    0  501    0  0.00000000000E+00  0.00000000000E+00  0.10004296805E+03  0.10004296805E+03  0.00000000000E+00 0. -1.
         -3   -1    0    0    0  501 -0.00000000000E+00 -0.00000000000E+00 -0.33623286549E+03  0.33623286549E+03  0.00000000000E+00 0.  1.
         23    2    1    2    0    0 -0.65000918999E+02 -0.10601376137E+03 -0.21926946384E+03  0.28133913278E+03  0.12493427387E+03 0.  0.
         23    2    1    2    0    0  0.65000918999E+02  0.10601376137E+03 -0.16920433589E+02  0.15493670077E+03  0.90857267741E+02 0.  0.
          5    1    3    3  502    0 -0.55580732749E+01  0.23356930091E+02 -0.65479947637E+01  0.25325966857E+02  0.47000000000E+01 0. -1.
         -5    1    3    3    0  502 -0.59442845724E+02 -0.12937069146E+03 -0.21272146908E+03  0.25601316592E+03  0.47000000000E+01 0. -1.
        -11    1    4    4    0    0  0.46633358899E+02  0.72351646653E+02 -0.53983926392E+02  0.10160558668E+03  0.00000000000E+00 0.  1.
         11    1    4    4    0    0  0.18367560101E+02  0.33662114714E+02  0.37063492803E+02  0.53331114087E+02  0.00000000000E+00 0. -1.
<mgrwt>
<rscale>  0 0.17042326E+03</rscale>
<asrwt>0</asrwt>
<pdfrwt beam="1">  1        3 0.15391226E-01 0.17627425E+03</pdfrwt>
<pdfrwt beam="2">  1       -3 0.51728133E-01 0.17627425E+03</pdfrwt>
<totfact> 0.31870582E+02</totfact>
</mgrwt>
</event>
<event>
 8    1  0.9424564E-006  0.1544782E+03  0.7546771E-02  0.1204159E+00
          2   -1    0    0  501    0  0.00000000000E+00  0.00000000000E+00  0.50682308011E+03  0.50682308011E+03  0.00000000000E+00 0. -1.
         -2   -1    0    0    0  501 -0.00000000000E+00 -0.00000000000E+00 -0.39029653400E+02  0.39029653400E+02  0.00000000000E+00 0.  1.
         23    2    1    2    0    0  0.15987522114E+02 -0.89339094841E+02  0.25475709026E+03  0.29793402243E+03  0.12500572769E+03 0.  0.
         23    2    1    2    0    0 -0.15987522114E+02  0.89339094841E+02  0.21303633645E+03  0.24791871108E+03  0.88555812478E+02 0.  0.
          5    1    3    3  502    0  0.63624614485E+02 -0.22164014782E+02  0.15075665754E+03  0.16519381015E+03  0.47000000000E+01 0. -1.
         -5    1    3    3    0  502 -0.47637092372E+02 -0.67175080060E+02  0.10400043272E+03  0.13274021228E+03  0.47000000000E+01 0. -1.
        -11    1    4    4    0    0  0.51014172816E+01  0.96915509803E+02  0.19919744784E+03  0.22158128017E+03  0.00000000000E+00 0. -1.
         11    1    4    4    0    0 -0.21088939395E+02 -0.75764149618E+01  0.13838888610E+02  0.26337430901E+02  0.00000000000E+00 0.  1.
<mgrwt>
<rscale>  0 0.14703930E+03</rscale>
<asrwt>0</asrwt>
<pdfrwt beam="1">  1        2 0.77972777E-01 0.15447818E+03</pdfrwt>
<pdfrwt beam="2">  1       -2 0.60045625E-02 0.15447818E+03</pdfrwt>
<totfact> 0.87244955E+03</totfact>
</mgrwt>
</event>
<event>
 8    1  0.9424564E-006  0.1469468E+03  0.7546771E-02  0.1213986E+00
          1   -1    0    0  501    0  0.00000000000E+00  0.00000000000E+00  0.49160781909E+03  0.49160781909E+03  0.00000000000E+00 0. -1.
         -1   -1    0    0    0  501 -0.00000000000E+00 -0.00000000000E+00 -0.36812982201E+02  0.36812982201E+02  0.00000000000E+00 0.  1.
         23    2    1    2    0    0  0.76002759038E+02 -0.13844438832E+02  0.21321085691E+03  0.25894443416E+03  0.12500105044E+03 0.  0.
         23    2    1    2    0    0 -0.76002759038E+02  0.13844438832E+02  0.24158397998E+03  0.26947636713E+03  0.91030792534E+02 0.  0.
          5    1    3    3  502    0  0.18058616251E+02 -0.62668525909E+02  0.13470052707E+03  0.14973236041E+03  0.47000000000E+01 0.  1.
         -5    1    3    3    0  502  0.57944142787E+02  0.48824087077E+02  0.78510329837E+02  0.10921207375E+03  0.47000000000E+01 0.  1.
        -11    1    4    4    0    0 -0.34971513485E+02  0.20242246458E+02  0.22015980128E+02  0.46015852466E+02  0.00000000000E+00 0. -1.
         11    1    4    4    0    0 -0.41031245553E+02 -0.63978076260E+01  0.21956799985E+03  0.22346051466E+03  0.00000000000E+00 0.  1.
<mgrwt>
<rscale>  0 0.13951302E+03</rscale>
<asrwt>0</asrwt>
<pdfrwt beam="1">  1        1 0.75631968E-01 0.14694676E+03</pdfrwt>
<pdfrwt beam="2">  1       -1 0.56635361E-02 0.14694676E+03</pdfrwt>
<totfact> 0.64923558E+03</totfact>
</mgrwt>
</event>
<event>
 8    1  0.9424564E-006  0.1619443E+03  0.7546771E-02  0.1195446E+00
         -3   -1    0    0    0  501 -0.00000000000E+00  0.00000000000E+00  0.21709379494E+02  0.21709379494E+02  0.00000000000E+00 0.  1.
          3   -1    0    0  501    0  0.00000000000E+00 -0.00000000000E+00 -0.11497272362E+04  0.11497272362E+04  0.00000000000E+00 0. -1.
         23    2    1    2    0    0 -0.78222659857E+01 -0.10266393740E+03 -0.40301084363E+03  0.43433132165E+03  0.12499954000E+03 0.  0.
         23    2    1    2    0    0  0.78222659857E+01  0.10266393740E+03 -0.72500701308E+03  0.73710529404E+03  0.84190103964E+02 0.  0.
          5    1    3    3  502    0  0.31466444363E+02  0.16675339865E+02 -0.79050375345E+02  0.86828888756E+02  0.47000000000E+01 0.  1.
         -5    1    3    3    0  502 -0.39288710349E+02 -0.11933927726E+03 -0.32396046828E+03  0.34750243290E+03  0.47000000000E+01 0.  1.
        -11    1    4    4    0    0 -0.32466688584E+02  0.79711861547E+02 -0.50255910504E+03  0.50987618183E+03  0.00000000000E+00 0.  1.
         11    1    4    4    0    0  0.40288954570E+02  0.22952075851E+02 -0.22244790804E+03  0.22722911221E+03  0.00000000000E+00 0. -1.
<mgrwt>
<rscale>  0 0.15416554E+03</rscale>
<asrwt>0</asrwt>
<pdfrwt beam="2">  1        3 0.17688112E+00 0.16194430E+03</pdfrwt>
<pdfrwt beam="1">  1       -3 0.33399044E-02 0.16194430E+03</pdfrwt>
<totfact> 0.23171654E+02</totfact>
</mgrwt>
</event>
<event>
 8    1  0.9424564E-006  0.1349340E+03  0.7546771E-02  0.1234664E+00
         -1   -1    0    0    0  501 -0.00000000000E+00  0.00000000000E+00  0.79081689009E+02  0.79081689009E+02  0.00000000000E+00 0.  1.
          1   -1    0    0  501    0  0.00000000000E+00 -0.00000000000E+00 -0.18094661996E+03  0.18094661996E+03  0.00000000000E+00 0. -1.
         23    2    1    2    0    0  0.20355949243E+02 -0.46504731175E+02 -0.34464124039E+02  0.13926575419E+03  0.12502047734E+03 0.  0.
         23    2    1    2    0    0 -0.20355949243E+02  0.46504731175E+02 -0.67400806915E+02  0.12076255478E+03  0.86392541184E+02 0.  0.
          5    1    3    3  502    0 -0.35834258416E+02  0.22175918372E+02  0.36825792429E+01  0.42561917506E+02  0.47000000000E+01 0. -1.
         -5    1    3    3    0  502  0.56190207659E+02 -0.68680649547E+02 -0.38146703282E+02  0.96703836689E+02  0.47000000000E+01 0. -1.
        -11    1    4    4    0    0 -0.30061408506E+02  0.67017862607E+02 -0.35412452907E+02  0.81542160939E+02  0.00000000000E+00 0.  1.
         11    1    4    4    0    0  0.97054592627E+01 -0.20513131432E+02 -0.31988354008E+02  0.39220393838E+02  0.00000000000E+00 0. -1.
<mgrwt>
<rscale>  0 0.12525977E+03</rscale>
<asrwt>0</asrwt>
<pdfrwt beam="2">  1        1 0.27837942E-01 0.13493396E+03</pdfrwt>
<pdfrwt beam="1">  1       -1 0.12166414E-01 0.13493396E+03</pdfrwt>
<totfact> 0.70855500E+03</totfact>
</mgrwt>
</event>
<event>
 8    1  0.9424567E-006  0.2818367E+03  0.7546771E-02  0.1096485E+00
         -1   -1    0    0    0  501 -0.00000000000E+00  0.00000000000E+00  0.11630372500E+03  0.11630372500E+03  0.00000000000E+00 0.  1.
          1   -1    0    0  501    0  0.00000000000E+00 -0.00000000000E+00 -0.79008918255E+03  0.79008918255E+03  0.00000000000E+00 0. -1.
         23    2    1    2    0    0 -0.74503320269E+02  0.24136132713E+03 -0.15400016148E+03  0.32116656642E+03  0.12500351470E+03 0.  0.
         23    2    1    2    0    0  0.74503320269E+02 -0.24136132713E+03 -0.51978529607E+03  0.58522634113E+03  0.92233840701E+02 0.  0.
          5    1    3    3  502    0 -0.10028897575E+03  0.19109732204E+03 -0.15278817701E+03  0.26446622125E+03  0.47000000000E+01 0.  1.
         -5    1    3    3    0  502  0.25785655479E+02  0.50264005097E+02 -0.12119844649E+01  0.56700345177E+02  0.47000000000E+01 0.  1.
        -11    1    4    4    0    0  0.40748902017E+01 -0.81771346556E+02 -0.91515589074E+02  0.12279357024E+03  0.00000000000E+00 0.  1.
         11    1    4    4    0    0  0.70428430068E+02 -0.15958998058E+03 -0.42826970700E+03  0.46243277089E+03  0.00000000000E+00 0. -1.
<mgrwt>
<rscale>  0 0.27854814E+03</rscale>
<asrwt>0</asrwt>
<pdfrwt beam="2">  1        1 0.12155218E+00 0.28183668E+03</pdfrwt>
<pdfrwt beam="1">  1       -1 0.17892882E-01 0.28183668E+03</pdfrwt>
<totfact> 0.57032520E+02</totfact>
</mgrwt>
</event>
<event>
 7    1  0.9424564E-006  0.1681161E+03  0.7546771E-02  0.1206827E+00
          2   -1    0    0  501    0  0.00000000000E+00  0.00000000000E+00  0.10562659645E+03  0.10562659645E+03  0.00000000000E+00 0. -1.
         -2   -1    0    0    0  501 -0.00000000000E+00 -0.00000000000E+00 -0.13538724544E+04  0.13538724544E+04  0.00000000000E+00 0.  1.
         23    2    1    2    0    0  0.20414274847E+01 -0.20688975416E+02  0.78821065960E+02  0.12182583646E+03  0.90534926194E+02 0.  0.
          5    1    1    2  502    0  0.60678008844E+02 -0.43392115325E+02 -0.74218745317E+03  0.74594168811E+03  0.47000000000E+01 0. -1.
         -5    1    1    2    0  502 -0.62719436329E+02  0.64081090741E+02 -0.58487947076E+03  0.59173152629E+03  0.47000000000E+01 0.  1.
        -11    1    3    3    0    0 -0.15124943470E+02 -0.41674485746E+02  0.83283612086E+02  0.94348750491E+02  0.00000000000E+00 0. -1.
         11    1    3    3    0    0  0.17166370955E+02  0.20985510330E+02 -0.44625461260E+01  0.27477085972E+02  0.00000000000E+00 0.  1.
<mgrwt>
<rscale>  0 0.14494410E+03</rscale>
<asrwt>0</asrwt>
<pdfrwt beam="1">  1        2 0.16250248E-01 0.16811605E+03</pdfrwt>
<pdfrwt beam="2">  1       -2 0.20828804E+00 0.16811605E+03</pdfrwt>
<totfact> 0.46209052E+01</totfact>
</mgrwt>
</event>
<event>
 8    1  0.9424564E-006  0.1138643E+03  0.7546771E-02  0.1262373E+00
          2   -1    0    0  501    0  0.00000000000E+00  0.00000000000E+00  0.15913578341E+03  0.15913578341E+03  0.00000000000E+00 0. -1.
         -2   -1    0    0    0  501 -0.00000000000E+00 -0.00000000000E+00 -0.72992460414E+02  0.72992460414E+02  0.00000000000E+00 0.  1.
         23    2    1    2    0    0 -0.21859896629E+02 -0.19617445869E+02  0.19593745977E+02  0.11553780020E+03  0.11001076825E+03 0.  0.
         23    2    1    2    0    0  0.21859896629E+02  0.19617445869E+02  0.66549577024E+02  0.11659044363E+03  0.91114137651E+02 0.  0.
          5    1    3    3  502    0  0.98567882016E+01 -0.58734550171E+02  0.24816327784E+02  0.64690368542E+02  0.47000000000E+01 0. -1.
         -5    1    3    3    0  502 -0.31716684831E+02  0.39117104302E+02 -0.52225818068E+01  0.50847431659E+02  0.47000000000E+01 0.  1.
        -11    1    4    4    0    0 -0.13489728369E+02  0.36214961465E+02 -0.89435779991E+00  0.38656126051E+02  0.00000000000E+00 0.  1.
         11    1    4    4    0    0  0.35349624998E+02 -0.16597515596E+02  0.67443934824E+02  0.77934317576E+02  0.00000000000E+00 0. -1.
<mgrwt>
<rscale>  0 0.10903202E+03</rscale>
<asrwt>0</asrwt>
<pdfrwt beam="1">  1        2 0.24482428E-01 0.11386425E+03</pdfrwt>
<pdfrwt beam="2">  1       -2 0.11229609E-01 0.11386425E+03</pdfrwt>
<totfact> 0.11222978E+04</totfact>
</mgrwt>
</event>
<event>
 7    1  0.9424564E-006  0.2559798E+03  0.7546771E-02  0.1129165E+00
         -2   -1    0    0    0  501 -0.00000000000E+00  0.00000000000E+00  0.25976724876E+03  0.25976724876E+03  0.00000000000E+00 0.  1.
          2   -1    0    0  501    0  0.00000000000E+00 -0.00000000000E+00 -0.38990362843E+03  0.38990362843E+03  0.00000000000E+00 0. -1.
         23    2    1    2    0    0  0.96238932789E+02 -0.82719423884E+02 -0.30274874999E+03  0.34093035183E+03  0.92044901571E+02 0.  0.
          5    1    1    2  502    0 -0.95097029655E+02  0.48885584832E+02 -0.23577591319E+02  0.10959579493E+03  0.47000000000E+01 0. -1.
         -5    1    1    2    0  502 -0.11419031341E+01  0.33833839052E+02  0.19618996165E+03  0.19914473043E+03  0.47000000000E+01 0.  1.
        -11    1    3    3    0    0  0.22320321181E+02 -0.17735864152E+02 -0.71709362176E+01  0.29396937614E+02  0.00000000000E+00 0.  1.
         11    1    3    3    0    0  0.73918611608E+02 -0.64983559732E+02 -0.29557781377E+03  0.31153341421E+03  0.00000000000E+00 0. -1.
<mgrwt>
<rscale>  0 0.22644867E+03</rscale>
<asrwt>0</asrwt>
<pdfrwt beam="2">  1        2 0.59985173E-01 0.25597985E+03</pdfrwt>
<pdfrwt beam="1">  1       -2 0.39964192E-01 0.25597985E+03</pdfrwt>
<totfact> 0.49260104E+02</totfact>
</mgrwt>
</event>
<event>
 8    1  0.9424564E-006  0.1251289E+03  0.7546771E-02  0.1250744E+00
          2   -1    0    0  501    0  0.00000000000E+00  0.00000000000E+00  0.41375634774E+02  0.41375634774E+02  0.00000000000E+00 0. -1.
         -2   -1    0    0    0  501 -0.00000000000E+00 -0.00000000000E+00 -0.32366897802E+03  0.32366897802E+03  0.00000000000E+00 0.  1.
         23    2    1    2    0    0  0.54382137468E+01 -0.11091171621E+01 -0.22572149971E+03  0.25808414438E+03  0.12500570322E+03 0.  0.
         23    2    1    2    0    0 -0.54382137468E+01  0.11091171621E+01 -0.56571843533E+02  0.10696046841E+03  0.90605540741E+02 0.  0.
          5    1    3    3  502    0  0.39203586921E+02 -0.48699724031E+02 -0.14840994316E+03  0.16110923492E+03  0.47000000000E+01 0. -1.
         -5    1    3    3    0  502 -0.33765373175E+02  0.47590606869E+02 -0.77311556552E+02  0.96974909457E+02  0.47000000000E+01 0. -1.
        -11    1    4    4    0    0 -0.38686893938E+02  0.61576023970E+01  0.22125194823E+01  0.39236297893E+02  0.00000000000E+00 0. -1.
         11    1    4    4    0    0  0.33248680192E+02 -0.50484852350E+01 -0.58784363015E+02  0.67724170521E+02  0.00000000000E+00 0.  1.
<mgrwt>
<rscale>  0 0.11548089E+03</rscale>
<asrwt>0</asrwt>
<pdfrwt beam="1">  1        2 0.63654822E-02 0.12512885E+03</pdfrwt>
<pdfrwt beam="2">  1       -2 0.49795228E-01 0.12512885E+03</pdfrwt>
<totfact> 0.41895679E+03</totfact>
</mgrwt>
</event>
<event>
 8    1  0.9424564E-006  0.1270526E+03  0.7546771E-02  0.1248862E+00
          2   -1    0    0  501    0  0.00000000000E+00  0.00000000000E+00  0.18567972281E+03  0.18567972281E+03  0.00000000000E+00 0. -1.
         -2   -1    0    0    0  501 -0.00000000000E+00 -0.00000000000E+00 -0.74443013180E+02  0.74443013180E+02  0.00000000000E+00 0.  1.
         23    2    1    2    0    0  0.10680259833E+02 -0.20161143163E+02  0.14353652466E+02  0.12786082887E+03  0.12498729766E+03 0.  0.
         23    2    1    2    0    0 -0.10680259833E+02  0.20161143163E+02  0.96883057160E+02  0.13226190711E+03  0.87099630681E+02 0.  0.
          5    1    3    3  502    0 -0.19189416884E+02 -0.43688412523E+02  0.54348985127E+02  0.72476294700E+02  0.47000000000E+01 0.  1.
         -5    1    3    3    0  502  0.29869676717E+02  0.23527269360E+02 -0.39995332662E+02  0.55384534172E+02  0.47000000000E+01 0.  1.
        -11    1    4    4    0    0 -0.28785254856E+02  0.25980680416E+02  0.10473861545E+03  0.11168600726E+03  0.00000000000E+00 0. -1.
         11    1    4    4    0    0  0.18104995023E+02 -0.58195372526E+01 -0.78555582897E+01  0.20575899850E+02  0.00000000000E+00 0.  1.
<mgrwt>
<rscale>  0 0.11657205E+03</rscale>
<asrwt>0</asrwt>
<pdfrwt beam="1">  1        2 0.28566111E-01 0.12705260E+03</pdfrwt>
<pdfrwt beam="2">  1       -2 0.11452771E-01 0.12705260E+03</pdfrwt>
<totfact> 0.92747543E+03</totfact>
</mgrwt>
</event>
<event>
 8    1  0.9424564E-006  0.1457787E+03  0.7546771E-02  0.1215634E+00
          1   -1    0    0  501    0  0.00000000000E+00  0.00000000000E+00  0.78882452960E+03  0.78882452960E+03  0.00000000000E+00 0. -1.
         -1   -1    0    0    0  501 -0.00000000000E+00 -0.00000000000E+00 -0.22136008032E+02  0.22136008032E+02  0.00000000000E+00 0.  1.
         23    2    1    2    0    0  0.30191532588E+02  0.68623453752E+02  0.40089241283E+03  0.42657491455E+03  0.12502289396E+03 0.  0.
         23    2    1    2    0    0 -0.30191532588E+02 -0.68623453752E+02  0.36579610873E+03  0.38438562308E+03  0.91240380419E+02 0.  0.
          5    1    3    3  502    0  0.28043918784E+02  0.10064349229E+03  0.23040778343E+03  0.25303242992E+03  0.47000000000E+01 0. -1.
         -5    1    3    3    0  502  0.21476138041E+01 -0.32020038541E+02  0.17048462940E+03  0.17354248464E+03  0.47000000000E+01 0. -1.
        -11    1    4    4    0    0  0.49827725691E+01 -0.71209038906E+02  0.15484759208E+03  0.17050903793E+03  0.00000000000E+00 0.  1.
         11    1    4    4    0    0 -0.35174305157E+02  0.25855851542E+01  0.21094851666E+03  0.21387658514E+03  0.00000000000E+00 0. -1.
<mgrwt>
<rscale>  0 0.13830086E+03</rscale>
<asrwt>0</asrwt>
<pdfrwt beam="1">  1        1 0.12135760E+00 0.14577871E+03</pdfrwt>
<pdfrwt beam="2">  1       -1 0.34055403E-02 0.14577871E+03</pdfrwt>
<totfact> 0.71343152E+03</totfact>
</mgrwt>
</event>
<event>
 8    1  0.9424564E-006  0.1693154E+03  0.7546771E-02  0.1185010E+00
          2   -1    0    0  501    0  0.00000000000E+00  0.00000000000E+00  0.11315189390E+03  0.11315189390E+03  0.00000000000E+00 0. -1.
         -2   -1    0    0    0  501 -0.00000000000E+00 -0.00000000000E+00 -0.22948410467E+03  0.22948410467E+03  0.00000000000E+00 0.  1.
         23    2    1    2    0    0  0.68473935822E+02  0.91407114619E+02 -0.96153975059E+02  0.19471338711E+03  0.12499510275E+03 0.  0.
         23    2    1    2    0    0 -0.68473935822E+02 -0.91407114619E+02 -0.20178235707E+02  0.14792261146E+03  0.91815016712E+02 0.  0.
          5    1    3    3  502    0  0.57294438143E+02  0.97567067920E+02 -0.12141121580E+03  0.16602637955E+03  0.47000000000E+01 0. -1.
         -5    1    3    3    0  502  0.11179497679E+02 -0.61599533003E+01  0.25257240741E+02  0.28687007562E+02  0.47000000000E+01 0. -1.
        -11    1    4    4    0    0 -0.39037783439E+02 -0.58314053922E+02 -0.56935200792E+02  0.90366445707E+02  0.00000000000E+00 0.  1.
         11    1    4    4    0    0 -0.29436152383E+02 -0.33093060698E+02  0.36756965085E+02  0.57556165749E+02  0.00000000000E+00 0. -1.
<mgrwt>
<rscale>  0 0.16330947E+03</rscale>
<asrwt>0</asrwt>
<pdfrwt beam="1">  1        2 0.17407984E-01 0.16931543E+03</pdfrwt>
<pdfrwt beam="2">  1       -2 0.35305247E-01 0.16931543E+03</pdfrwt>
<totfact> 0.24112888E+03</totfact>
</mgrwt>
</event>
<event>
 8    1  0.3352513E-005  0.2204162E+03  0.7546771E-02  0.1136194E+00
         -1   -1    0    0    0  501 -0.00000000000E+00  0.00000000000E+00  0.12068097495E+03  0.12068097495E+03  0.00000000000E+00 0.  1.
          1   -1    0    0  501    0  0.00000000000E+00 -0.00000000000E+00 -0.39483137495E+03  0.39483137495E+03  0.00000000000E+00 0. -1.
         23    2    1    2    0    0 -0.66545272459E+02 -0.16890832873E+03 -0.88186905439E+02  0.23740305397E+03  0.12499993177E+03 0.  0.
         23    2    1    2    0    0  0.66545272459E+02  0.16890832873E+03 -0.18596349456E+03  0.27810929593E+03  0.99015465327E+02 0.  0.
          5    1    3    3  502    0 -0.23103073715E+01 -0.86291404457E+01  0.27641860805E+02  0.29427233199E+02  0.47000000000E+01 0.  1.
         -5    1    3    3    0  502 -0.64234965088E+02 -0.16027918828E+03 -0.11582876624E+03  0.20797582077E+03  0.47000000000E+01 0.  1.
        -11    1    4    4    0    0  0.45443032696E+02  0.13692832841E+03 -0.78988713035E+02  0.16447994750E+03  0.00000000000E+00 0. -1.
         11    1    4    4    0    0  0.21102239763E+02  0.31980000319E+02 -0.10697478152E+03  0.11362934843E+03  0.00000000000E+00 0.  1.
<mgrwt>
<rscale>  0 0.21692783E+03</rscale>
<asrwt>0</asrwt>
<pdfrwt beam="2">  1        1 0.60743288E-01 0.22041615E+03</pdfrwt>
<pdfrwt beam="1">  1       -1 0.18566304E-01 0.22041615E+03</pdfrwt>
<totfact> 0.13989044E+03</totfact>
</mgrwt>
</event>
<event>
 7    1  0.9424564E-006  0.2856575E+03  0.7546771E-02  0.1119127E+00
          1   -1    0    0  501    0  0.00000000000E+00  0.00000000000E+00  0.45373006185E+03  0.45373006185E+03  0.00000000000E+00 0. -1.
         -1   -1    0    0    0  501 -0.00000000000E+00 -0.00000000000E+00 -0.12648128753E+03  0.12648128753E+03  0.00000000000E+00 0.  1.
         23    2    1    2    0    0  0.11240570526E+03  0.11221461387E+02  0.24222643830E+03  0.28216944094E+03  0.90470891558E+02 0.  0.
          5    1    1    2  502    0 -0.14108828908E+03  0.71740511950E+02  0.12473904069E+03  0.20158007005E+03  0.47000000000E+01 0. -1.
         -5    1    1    2    0  502  0.28682583821E+02 -0.82961973337E+02 -0.39716704679E+02  0.96461838388E+02  0.47000000000E+01 0.  1.
        -11    1    3    3    0    0  0.96431465655E+02 -0.26102509566E+02  0.20016626688E+03  0.22371165140E+03  0.00000000000E+00 0.  1.
         11    1    3    3    0    0  0.15974239601E+02  0.37323970953E+02  0.42060171426E+02  0.58457789548E+02  0.00000000000E+00 0. -1.
<mgrwt>
<rscale>  0 0.24100257E+03</rscale>
<asrwt>0</asrwt>
<pdfrwt beam="1">  1        1 0.69804624E-01 0.28565745E+03</pdfrwt>
<pdfrwt beam="2">  1       -1 0.19458660E-01 0.28565745E+03</pdfrwt>
<totfact> 0.10854139E+03</totfact>
</mgrwt>
</event>
<event>
 8    1  0.9424564E-006  0.2452652E+03  0.7546771E-02  0.1118627E+00
         -1   -1    0    0    0  501 -0.00000000000E+00  0.00000000000E+00  0.55162337651E+02  0.55162337651E+02  0.00000000000E+00 0.  1.
          1   -1    0    0  501    0  0.00000000000E+00 -0.00000000000E+00 -0.10319891207E+04  0.10319891207E+04  0.00000000000E+00 0. -1.
         23    2    1    2    0    0  0.20118574656E+03 -0.63677422439E+02 -0.52430674961E+03  0.57883726551E+03  0.12499797401E+03 0.  0.
         23    2    1    2    0    0 -0.20118574656E+03  0.63677422439E+02 -0.45252003346E+03  0.50831419287E+03  0.95280739065E+02 0.  0.
          5    1    3    3  502    0  0.20383506270E+01  0.24697239197E+02 -0.34491060129E+02  0.42729752235E+02  0.47000000000E+01 0.  1.
         -5    1    3    3    0  502  0.19914739593E+03 -0.88374661636E+02 -0.48981568948E+03  0.53610751328E+03  0.47000000000E+01 0.  1.
        -11    1    4    4    0    0 -0.43087678878E+02 -0.25384540183E+02 -0.10294254593E+03  0.11444689036E+03  0.00000000000E+00 0.  1.
         11    1    4    4    0    0 -0.15809806768E+03  0.89061962622E+02 -0.34957748754E+03  0.39386730251E+03  0.00000000000E+00 0. -1.
<mgrwt>
<rscale>  0 0.24175841E+03</rscale>
<asrwt>0</asrwt>
<pdfrwt beam="2">  1        1 0.15876754E+00 0.24526519E+03</pdfrwt>
<pdfrwt beam="1">  1       -1 0.84865142E-02 0.24526519E+03</pdfrwt>
<totfact> 0.11914377E+03</totfact>
</mgrwt>
</event>
<event>
 8    1  0.9424564E-006  0.1630514E+03  0.7546771E-02  0.1192924E+00
          4   -1    0    0  501    0  0.00000000000E+00  0.00000000000E+00  0.64713762688E+03  0.64713762688E+03  0.00000000000E+00 0. -1.
         -4   -1    0    0    0  501 -0.00000000000E+00 -0.00000000000E+00 -0.35526355748E+02  0.35526355748E+02  0.00000000000E+00 0.  1.
         23    2    1    2    0    0  0.10401168586E+03 -0.11840183013E+02  0.28774282588E+03  0.33072904903E+03  0.12500859689E+03 0.  0.
         23    2    1    2    0    0 -0.10401168586E+03  0.11840183013E+02  0.32386844525E+03  0.35193493360E+03  0.89491937786E+02 0.  0.
          5    1    3    3  502    0  0.62459998690E+02  0.55065330647E+02  0.13195617500E+03  0.15610241573E+03  0.47000000000E+01 0.  1.
         -5    1    3    3    0  502  0.41551687172E+02 -0.66905513660E+02  0.15578665088E+03  0.17462663330E+03  0.47000000000E+01 0.  1.
        -11    1    4    4    0    0 -0.14787204594E+02  0.40200381690E+02  0.80643928139E+02  0.91313609355E+02  0.00000000000E+00 0.  1.
         11    1    4    4    0    0 -0.89224481268E+02 -0.28360198677E+02  0.24322451712E+03  0.26062132425E+03  0.00000000000E+00 0. -1.
<mgrwt>
<rscale>  0 0.15631279E+03</rscale>
<asrwt>0</asrwt>
<pdfrwt beam="1">  1        4 0.99559626E-01 0.16305143E+03</pdfrwt>
<pdfrwt beam="2">  1       -4 0.54655937E-02 0.16305143E+03</pdfrwt>
<totfact> 0.30766643E+02</totfact>
</mgrwt>
</event>
<event>
 7    1  0.9424564E-006  0.1843521E+03  0.7546771E-02  0.1193181E+00
         -1   -1    0    0    0  501 -0.00000000000E+00  0.00000000000E+00  0.57194802162E+02  0.57194802162E+02  0.00000000000E+00 0.  1.
          1   -1    0    0  501    0  0.00000000000E+00 -0.00000000000E+00 -0.42115214093E+03  0.42115214093E+03  0.00000000000E+00 0. -1.
         23    2    1    2    0    0  0.12197850504E+02  0.26315463666E+02 -0.23495819884E+03  0.25334368984E+03  0.90201878016E+02 0.  0.
          5    1    1    2  502    0  0.37331698955E+02  0.26243565947E+01 -0.15666586496E+03  0.16114225466E+03  0.47000000000E+01 0. -1.
         -5    1    1    2    0  502 -0.49529549459E+02 -0.28939820261E+02  0.27666725029E+02  0.63860998585E+02  0.47000000000E+01 0.  1.
        -11    1    3    3    0    0  0.33236931607E+02 -0.21123012718E+02 -0.68840754911E+02  0.79309046304E+02  0.00000000000E+00 0.  1.
         11    1    3    3    0    0 -0.21039081103E+02  0.47438476384E+02 -0.16611744393E+03  0.17403464354E+03  0.00000000000E+00 0. -1.
<mgrwt>
<rscale>  0 0.15609230E+03</rscale>
<asrwt>0</asrwt>
<pdfrwt beam="2">  1        1 0.64792637E-01 0.18435207E+03</pdfrwt>
<pdfrwt beam="1">  1       -1 0.87992004E-02 0.18435207E+03</pdfrwt>
<totfact> 0.41269941E+03</totfact>
</mgrwt>
</event>
<event>
 8    1  0.9424564E-006  0.1705363E+03  0.7546771E-02  0.1183666E+00
         -3   -1    0    0    0  501 -0.00000000000E+00  0.00000000000E+00  0.44143751490E+02  0.44143751490E+02  0.00000000000E+00 0.  1.
          3   -1    0    0  501    0  0.00000000000E+00 -0.00000000000E+00 -0.60528884108E+03  0.60528884108E+03  0.00000000000E+00 0. -1.
         23    2    1    2    0    0 -0.11367448967E+03  0.23247097881E+02 -0.22574878272E+03  0.28292250328E+03  0.12498124980E+03 0.  0.
         23    2    1    2    0    0  0.11367448967E+03 -0.23247097881E+02 -0.33539630688E+03  0.36651008929E+03  0.91524017214E+02 0.  0.
          5    1    3    3  502    0 -0.40167585621E+02  0.57130653232E+02 -0.17186752585E+03  0.18557446731E+03  0.47000000000E+01 0.  1.
         -5    1    3    3    0  502 -0.73506904051E+02 -0.33883555352E+02 -0.53881256867E+02  0.97348035974E+02  0.47000000000E+01 0.  1.
        -11    1    4    4    0    0  0.16251073729E+01 -0.34015690555E+02 -0.59890214006E+02  0.68895180612E+02  0.00000000000E+00 0. -1.
         11    1    4    4    0    0  0.11204938230E+03  0.10768592675E+02 -0.27550609287E+03  0.29761490868E+03  0.00000000000E+00 0.  1.
<mgrwt>
<rscale>  0 0.16453816E+03</rscale>
<asrwt>0</asrwt>
<pdfrwt beam="2">  1        3 0.93121347E-01 0.17053630E+03</pdfrwt>
<pdfrwt beam="1">  1       -3 0.67913473E-02 0.17053630E+03</pdfrwt>
<totfact> 0.35596224E+02</totfact>
</mgrwt>
</event>
<event>
 8    1  0.9424564E-006  0.1278922E+03  0.7546771E-02  0.1245772E+00
         -1   -1    0    0    0  501 -0.00000000000E+00  0.00000000000E+00  0.43956558980E+02  0.43956558980E+02  0.00000000000E+00 0.  1.
          1   -1    0    0  501    0  0.00000000000E+00 -0.00000000000E+00 -0.31545189570E+03  0.31545189570E+03  0.00000000000E+00 0. -1.
         23    2    1    2    0    0 -0.21928317519E+00  0.26567401973E+02 -0.94433109790E+02  0.15897811087E+03  0.12510216856E+03 0.  0.
         23    2    1    2    0    0  0.21928317519E+00 -0.26567401973E+02 -0.17706222693E+03  0.20043034380E+03  0.90085601406E+02 0.  0.
          5    1    3    3  502    0 -0.12237652845E+02 -0.19464365101E+02 -0.10700352769E+03  0.10954664118E+03  0.47000000000E+01 0. -1.
         -5    1    3    3    0  502  0.12018369670E+02  0.46031767075E+02  0.12570417902E+02  0.49431469691E+02  0.47000000000E+01 0. -1.
        -11    1    4    4    0    0  0.42711662490E+02  0.11854299467E+01 -0.90667987430E+02  0.10023160830E+03  0.00000000000E+00 0. -1.
         11    1    4    4    0    0 -0.42492379315E+02 -0.27752831920E+02 -0.86394239497E+02  0.10019873551E+03  0.00000000000E+00 0.  1.
<mgrwt>
<rscale>  0 0.11839263E+03</rscale>
<asrwt>0</asrwt>
<pdfrwt beam="2">  1        1 0.48531059E-01 0.12789225E+03</pdfrwt>
<pdfrwt beam="1">  1       -1 0.67625478E-02 0.12789225E+03</pdfrwt>
<totfact> 0.86493178E+03</totfact>
</mgrwt>
</event>
<event>
 8    1  0.9424564E-006  0.1539222E+03  0.7546771E-02  0.1204247E+00
         -1   -1    0    0    0  501 -0.00000000000E+00  0.00000000000E+00  0.78642171899E+02  0.78642171899E+02  0.00000000000E+00 0.  1.
          1   -1    0    0  501    0  0.00000000000E+00 -0.00000000000E+00 -0.25468130013E+03  0.25468130013E+03  0.00000000000E+00 0. -1.
         23    2    1    2    0    0  0.66435449051E+02  0.60441854977E+02 -0.80903775866E+02  0.17388923499E+03  0.12500063348E+03 0.  0.
         23    2    1    2    0    0 -0.66435449051E+02 -0.60441854977E+02 -0.95135352364E+02  0.15943423704E+03  0.91113412559E+02 0.  0.
          5    1    3    3  502    0  0.83429801739E+02  0.59408220081E+02 -0.10318153743E+03  0.14545923174E+03  0.47000000000E+01 0.  1.
         -5    1    3    3    0  502 -0.16994352689E+02  0.10336348951E+01  0.22277761563E+02  0.28430003247E+02  0.47000000000E+01 0.  1.
        -11    1    4    4    0    0  0.85549928312E+00 -0.52282963775E+02 -0.14843258715E+02  0.54355887532E+02  0.00000000000E+00 0.  1.
         11    1    4    4    0    0 -0.67290948334E+02 -0.81588912021E+01 -0.80292093649E+02  0.10507834951E+03  0.00000000000E+00 0. -1.
<mgrwt>
<rscale>  0 0.14696949E+03</rscale>
<asrwt>0</asrwt>
<pdfrwt beam="2">  1        1 0.39181738E-01 0.15392220E+03</pdfrwt>
<pdfrwt beam="1">  1       -1 0.12098796E-01 0.15392220E+03</pdfrwt>
<totfact> 0.47112574E+03</totfact>
</mgrwt>
</event>
<event>
 8    1  0.9424564E-006  0.3183490E+03  0.7546771E-02  0.1077776E+00
          2   -1    0    0  501    0  0.00000000000E+00  0.00000000000E+00  0.14668830144E+03  0.14668830144E+03  0.00000000000E+00 0. -1.
         -2   -1    0    0    0  501 -0.00000000000E+00 -0.00000000000E+00 -0.85764939599E+03  0.85764939599E+03  0.00000000000E+00 0.  1.
         23    2    1    2    0    0 -0.29705162222E+02 -0.29127274416E+03 -0.59789859080E+03  0.67736905418E+03  0.12499560999E+03 0.  0.
         23    2    1    2    0    0  0.29705162222E+02  0.29127274416E+03 -0.11306250375E+03  0.32696864325E+03  0.91668728375E+02 0.  0.
          5    1    3    3  502    0  0.35732196834E+02 -0.21101004551E+03 -0.38261685356E+03  0.43842875798E+03  0.47000000000E+01 0. -1.
         -5    1    3    3    0  502 -0.65437359057E+02 -0.80262698647E+02 -0.21528173725E+03  0.23894029620E+03  0.47000000000E+01 0. -1.
        -11    1    4    4    0    0 -0.74558946998E+01  0.46730286314E+02 -0.55638115993E+02  0.73040468070E+02  0.00000000000E+00 0.  1.
         11    1    4    4    0    0  0.37161056922E+02  0.24454245784E+03 -0.57424387757E+02  0.25392817518E+03  0.00000000000E+00 0. -1.
<mgrwt>
<rscale>  0 0.31542128E+03</rscale>
<asrwt>0</asrwt>
<pdfrwt beam="1">  1        2 0.22567431E-01 0.31834904E+03</pdfrwt>
<pdfrwt beam="2">  1       -2 0.13194606E+00 0.31834904E+03</pdfrwt>
<totfact> 0.10637343E+02</totfact>
</mgrwt>
</event>
<event>
 8    1  0.9424564E-006  0.1598958E+03  0.7546771E-02  0.1196594E+00
          3   -1    0    0  501    0  0.00000000000E+00  0.00000000000E+00  0.11323346786E+03  0.11323346786E+03  0.00000000000E+00 0. -1.
         -3   -1    0    0    0  501 -0.00000000000E+00 -0.00000000000E+00 -0.23602484147E+03  0.23602484147E+03  0.00000000000E+00 0.  1.
         23    2    1    2    0    0 -0.97354658511E+02 -0.21500842355E+02 -0.14112037316E+03  0.21326419111E+03  0.12500575880E+03 0.  0.
         23    2    1    2    0    0  0.97354658511E+02  0.21500842355E+02  0.18328999554E+02  0.13599411822E+03  0.90654466027E+02 0.  0.
          5    1    3    3  502    0  0.19674145760E+02 -0.89787672486E+01 -0.74973137148E+02  0.78171296309E+02  0.47000000000E+01 0. -1.
         -5    1    3    3    0  502 -0.11702880427E+03 -0.12522075106E+02 -0.66147236013E+02  0.13509289480E+03  0.47000000000E+01 0. -1.
        -11    1    4    4    0    0  0.66047134649E+02 -0.17202699217E+01  0.52319394419E+02  0.84276345177E+02  0.00000000000E+00 0. -1.
         11    1    4    4    0    0  0.31307523862E+02  0.23221112277E+02 -0.33990394865E+02  0.51717773046E+02  0.00000000000E+00 0.  1.
<mgrwt>
<rscale>  0 0.15320134E+03</rscale>
<asrwt>0</asrwt>
<pdfrwt beam="1">  1        3 0.17420534E-01 0.15989576E+03</pdfrwt>
<pdfrwt beam="2">  1       -3 0.36311514E-01 0.15989576E+03</pdfrwt>
<totfact> 0.50834902E+02</totfact>
</mgrwt>
</event>
<event>
 8    1  0.9424564E-006  0.1690412E+03  0.7546771E-02  0.1185743E+00
          1   -1    0    0  501    0  0.00000000000E+00  0.00000000000E+00  0.20445118136E+03  0.20445118136E+03  0.00000000000E+00 0. -1.
         -1   -1    0    0    0  501 -0.00000000000E+00 -0.00000000000E+00 -0.12057750096E+03  0.12057750096E+03  0.00000000000E+00 0.  1.
         23    2    1    2    0    0  0.85743238924E+02  0.74829886927E+02  0.40906503471E+02  0.17392025797E+03  0.12499399628E+03 0.  0.
         23    2    1    2    0    0 -0.85743238924E+02 -0.74829886927E+02  0.42967176927E+02  0.15110842436E+03  0.89644646352E+02 0.  0.
          5    1    3    3  502    0 -0.14707481495E+01  0.41426723201E+02 -0.34229521330E+02  0.53963752888E+02  0.47000000000E+01 0.  1.
         -5    1    3    3    0  502  0.87213987074E+02  0.33403163725E+02  0.75136024801E+02  0.11995650508E+03  0.47000000000E+01 0.  1.
        -11    1    4    4    0    0 -0.12628672522E+02 -0.18808831910E+02  0.53789367575E+02  0.58365671346E+02  0.00000000000E+00 0. -1.
         11    1    4    4    0    0 -0.73114566403E+02 -0.56021055017E+02 -0.10822190649E+02  0.92742753010E+02  0.00000000000E+00 0.  1.
<mgrwt>
<rscale>  0 0.16264460E+03</rscale>
<asrwt>0</asrwt>
<pdfrwt beam="1">  1        1 0.31454028E-01 0.16904116E+03</pdfrwt>
<pdfrwt beam="2">  1       -1 0.18550385E-01 0.16904116E+03</pdfrwt>
<totfact> 0.31746578E+03</totfact>
</mgrwt>
</event>
<event>
 8    1  0.9424564E-006  0.1262759E+03  0.7546771E-02  0.1244334E+00
          1   -1    0    0  501    0  0.00000000000E+00  0.00000000000E+00  0.18403509237E+03  0.18403509237E+03  0.00000000000E+00 0. -1.
         -1   -1    0    0    0  501 -0.00000000000E+00 -0.00000000000E+00 -0.27120073747E+03  0.27120073747E+03  0.00000000000E+00 0.  1.
         23    2    1    2    0    0 -0.57230862562E+02 -0.15972561746E+02 -0.24067219976E+03  0.27178798047E+03  0.11142308662E+03 0.  0.
         23    2    1    2    0    0  0.57230862562E+02  0.15972561746E+02  0.15350655467E+03  0.18344784937E+03  0.80983682021E+02 0.  0.
          5    1    3    3  502    0 -0.44099454958E+02  0.35026315562E+02 -0.55472095298E+02  0.79188686479E+02  0.47000000000E+01 0. -1.
         -5    1    3    3    0  502 -0.13131407604E+02 -0.50998877308E+02 -0.18520010446E+03  0.19259929399E+03  0.47000000000E+01 0.  1.
        -11    1    4    4    0    0  0.29398702748E+02 -0.47679410506E+01  0.14456972691E+03  0.14760563311E+03  0.00000000000E+00 0. -1.
         11    1    4    4    0    0  0.27832159814E+02  0.20740502797E+02  0.89368277533E+01  0.35842216261E+02  0.00000000000E+00 0.  1.
<mgrwt>
<rscale>  0 0.11925333E+03</rscale>
<asrwt>0</asrwt>
<pdfrwt beam="1">  1        1 0.28313091E-01 0.12627588E+03</pdfrwt>
<pdfrwt beam="2">  1       -1 0.41723190E-01 0.12627588E+03</pdfrwt>
<totfact> 0.92481187E+02</totfact>
</mgrwt>
</event>
<event>
 8    1  0.9424564E-006  0.1299393E+03  0.7546771E-02  0.1240943E+00
         -1   -1    0    0    0  501 -0.00000000000E+00  0.00000000000E+00  0.59130009720E+03  0.59130009720E+03  0.00000000000E+00 0.  1.
          1   -1    0    0  501    0  0.00000000000E+00 -0.00000000000E+00 -0.22849006722E+02  0.22849006722E+02  0.00000000000E+00 0. -1.
         23    2    1    2    0    0 -0.11479984946E+02 -0.33585240966E+02  0.37658380825E+03  0.39837117158E+03  0.12499786895E+03 0.  0.
         23    2    1    2    0    0  0.11479984946E+02  0.33585240966E+02  0.19186728222E+03  0.21577793234E+03  0.92126563119E+02 0.  0.
          5    1    3    3  502    0  0.22353289635E+02 -0.13203733292E+01  0.44827647933E+01  0.23315190829E+02  0.47000000000E+01 0.  1.
         -5    1    3    3    0  502 -0.33833274580E+02 -0.32264867637E+02  0.37210104346E+03  0.37505598075E+03  0.47000000000E+01 0.  1.
        -11    1    4    4    0    0  0.49531767180E+02  0.11377390016E+02  0.13200453610E+03  0.14144977382E+03  0.00000000000E+00 0.  1.
         11    1    4    4    0    0 -0.38051782235E+02  0.22207850950E+02  0.59862746118E+02  0.74328158513E+02  0.00000000000E+00 0. -1.
<mgrwt>
<rscale>  0 0.12131504E+03</rscale>
<asrwt>0</asrwt>
<pdfrwt beam="2">  1        1 0.35152322E-02 0.12993932E+03</pdfrwt>
<pdfrwt beam="1">  1       -1 0.90969234E-01 0.12993932E+03</pdfrwt>
<totfact> 0.32476537E+03</totfact>
</mgrwt>
</event>
<event>
 8    1  0.9424564E-006  0.1559953E+03  0.7546771E-02  0.1201672E+00
         -2   -1    0    0    0  501 -0.00000000000E+00  0.00000000000E+00  0.93248472514E+02  0.93248472514E+02  0.00000000000E+00 0.  1.
          2   -1    0    0  501    0  0.00000000000E+00 -0.00000000000E+00 -0.28840783597E+03  0.28840783597E+03  0.00000000000E+00 0. -1.
         23    2    1    2    0    0 -0.83137451389E+02 -0.42402735918E+02 -0.11151403859E+02  0.15639333641E+03  0.12499877611E+03 0.  0.
         23    2    1    2    0    0  0.83137451389E+02  0.42402735918E+02 -0.18400795960E+03  0.22526297207E+03  0.90413768622E+02 0.  0.
          5    1    3    3  502    0  0.18509521741E+02 -0.48076424664E+02  0.89974322817E+01  0.52507035636E+02  0.47000000000E+01 0.  1.
         -5    1    3    3    0  502 -0.10164697313E+03  0.56736887462E+01 -0.20148836141E+02  0.10388630077E+03  0.47000000000E+01 0.  1.
        -11    1    4    4    0    0  0.91825627711E+01 -0.23146224448E+02 -0.70474648121E+02  0.74744519485E+02  0.00000000000E+00 0.  1.
         11    1    4    4    0    0  0.73954888618E+02  0.65548960366E+02 -0.11353331147E+03  0.15051845259E+03  0.00000000000E+00 0. -1.
<mgrwt>
<rscale>  0 0.14902856E+03</rscale>
<asrwt>0</asrwt>
<pdfrwt beam="2">  1        2 0.44370437E-01 0.15599526E+03</pdfrwt>
<pdfrwt beam="1">  1       -2 0.14345919E-01 0.15599526E+03</pdfrwt>
<totfact> 0.40793338E+03</totfact>
</mgrwt>
</event>
<event>
 8    1  0.9424564E-006  0.2149472E+03  0.7546771E-02  0.1141194E+00
         -1   -1    0    0    0  501 -0.00000000000E+00  0.00000000000E+00  0.28235246731E+03  0.28235246731E+03  0.00000000000E+00 0.  1.
          1   -1    0    0  501    0  0.00000000000E+00 -0.00000000000E+00 -0.23804908038E+03  0.23804908038E+03  0.00000000000E+00 0. -1.
         23    2    1    2    0    0 -0.17055971619E+03 -0.38561621845E+02  0.18028014437E+03  0.28054093546E+03  0.12499868219E+03 0.  0.
         23    2    1    2    0    0  0.17055971619E+03  0.38561621845E+02 -0.13597675744E+03  0.23986061223E+03  0.92009886806E+02 0.  0.
          5    1    3    3  502    0 -0.94879472963E+02 -0.14765163811E+02  0.17649392405E+03  0.20097840600E+03  0.47000000000E+01 0.  1.
         -5    1    3    3    0  502 -0.75680243225E+02 -0.23796458034E+02  0.37862203220E+01  0.79562529458E+02  0.47000000000E+01 0.  1.
        -11    1    4    4    0    0 -0.98356191867E+01  0.10239373446E+02 -0.15882097134E+02  0.21303173067E+02  0.00000000000E+00 0. -1.
         11    1    4    4    0    0  0.18039533537E+03  0.28322248399E+02 -0.12009466030E+03  0.21855743916E+03  0.00000000000E+00 0.  1.
<mgrwt>
<rscale>  0 0.21047102E+03</rscale>
<asrwt>0</asrwt>
<pdfrwt beam="2">  1        1 0.36622936E-01 0.21494717E+03</pdfrwt>
<pdfrwt beam="1">  1       -1 0.43438841E-01 0.21494717E+03</pdfrwt>
<totfact> 0.62743285E+02</totfact>
</mgrwt>
</event>
<event>
 8    1  0.9424564E-006  0.1469372E+03  0.7546771E-02  0.1213721E+00
         -2   -1    0    0    0  501 -0.00000000000E+00  0.00000000000E+00  0.54765516758E+03  0.54765516758E+03  0.00000000000E+00 0.  1.
          2   -1    0    0  501    0  0.00000000000E+00 -0.00000000000E+00 -0.33387814476E+02  0.33387814476E+02  0.00000000000E+00 0. -1.
         23    2    1    2    0    0 -0.38040111622E+02  0.67246876795E+02  0.32816255813E+03  0.35955695906E+03  0.12498539802E+03 0.  0.
         23    2    1    2    0    0  0.38040111622E+02 -0.67246876795E+02  0.18610479497E+03  0.22148602300E+03  0.91934058647E+02 0.  0.
          5    1    3    3  502    0  0.44298558892E+02  0.33840597163E+02  0.98800534507E+02  0.11353934981E+03  0.47000000000E+01 0.  1.
         -5    1    3    3    0  502 -0.82338670513E+02  0.33406279632E+02  0.22936202362E+03  0.24601760925E+03  0.47000000000E+01 0.  1.
        -11    1    4    4    0    0 -0.43129475896E+01 -0.64267483726E+02  0.58533516977E+02  0.87034956145E+02  0.00000000000E+00 0. -1.
         11    1    4    4    0    0  0.42353059211E+02 -0.29793930689E+01  0.12757127800E+03  0.13445106685E+03  0.00000000000E+00 0.  1.
<mgrwt>
<rscale>  0 0.13970871E+03</rscale>
<asrwt>0</asrwt>
<pdfrwt beam="2">  1        2 0.51365872E-02 0.14693721E+03</pdfrwt>
<pdfrwt beam="1">  1       -2 0.84254635E-01 0.14693721E+03</pdfrwt>
<totfact> 0.18609374E+03</totfact>
</mgrwt>
</event>
<event>
 8    1  0.9424564E-006  0.1274832E+03  0.7546771E-02  0.1246485E+00
          1   -1    0    0  501    0  0.00000000000E+00  0.00000000000E+00  0.38834417885E+03  0.38834417885E+03  0.00000000000E+00 0. -1.
         -1   -1    0    0    0  501 -0.00000000000E+00 -0.00000000000E+00 -0.61840397777E+02  0.61840397777E+02  0.00000000000E+00 0.  1.
         23    2    1    2    0    0 -0.24916110404E+02 -0.23702432815E+01  0.19130078347E+02  0.12891049753E+03  0.12500210345E+03 0.  0.
         23    2    1    2    0    0  0.24916110404E+02  0.23702432815E+01  0.30737370273E+03  0.32127407910E+03  0.90066698387E+02 0.  0.
          5    1    3    3  502    0 -0.12402336614E+02 -0.43844807622E+02 -0.36269202441E+02  0.58427135430E+02  0.47000000000E+01 0.  1.
         -5    1    3    3    0  502 -0.12513773790E+02  0.41474564340E+02  0.55399280788E+02  0.70483362104E+02  0.47000000000E+01 0.  1.
        -11    1    4    4    0    0 -0.52003127308E+01  0.39290014159E+02  0.19871098705E+03  0.20262478831E+03  0.00000000000E+00 0. -1.
         11    1    4    4    0    0  0.30116423135E+02 -0.36919770878E+02  0.10866271568E+03  0.11864929078E+03  0.00000000000E+00 0.  1.
<mgrwt>
<rscale>  0 0.11796926E+03</rscale>
<asrwt>0</asrwt>
<pdfrwt beam="1">  1        1 0.59745257E-01 0.12748316E+03</pdfrwt>
<pdfrwt beam="2">  1       -1 0.95139076E-02 0.12748316E+03</pdfrwt>
<totfact> 0.39914449E+03</totfact>
</mgrwt>
</event>
<event>
 8    1  0.1131068E-005  0.2236033E+03  0.7546771E-02  0.1134509E+00
         -1   -1    0    0    0  501 -0.00000000000E+00  0.00000000000E+00  0.66421735798E+02  0.66421735798E+02  0.00000000000E+00 0.  1.
          1   -1    0    0  501    0  0.00000000000E+00 -0.00000000000E+00 -0.69608175765E+03  0.69608175765E+03  0.00000000000E+00 0. -1.
         23    2    1    2    0    0 -0.80635771508E+02  0.16694609933E+03 -0.32007952050E+03  0.39044760884E+03  0.12500123233E+03 0.  0.
         23    2    1    2    0    0  0.80635771508E+02 -0.16694609933E+03 -0.30958050136E+03  0.37205588460E+03  0.90622109450E+02 0.  0.
          5    1    3    3  502    0 -0.28339011928E+02  0.15567461785E+03 -0.28586798909E+03  0.32677252550E+03  0.47000000000E+01 0. -1.
         -5    1    3    3    0  502 -0.52296759580E+02  0.11271481479E+02 -0.34211531410E+02  0.63675083343E+02  0.47000000000E+01 0. -1.
        -11    1    4    4    0    0  0.27501645388E+02 -0.57551232718E+02 -0.37400436078E+02  0.73941040736E+02  0.00000000000E+00 0.  1.
         11    1    4    4    0    0  0.53134126120E+02 -0.10939486661E+03 -0.27218006528E+03  0.29811484387E+03  0.00000000000E+00 0. -1.
<mgrwt>
<rscale>  0 0.21916256E+03</rscale>
<asrwt>0</asrwt>
<pdfrwt beam="2">  1        1 0.10708950E+00 0.22360330E+03</pdfrwt>
<pdfrwt beam="1">  1       -1 0.10218729E-01 0.22360330E+03</pdfrwt>
<totfact> 0.16708705E+03</totfact>
</mgrwt>
</event>
<event>
 8    1  0.9424564E-006  0.1272321E+03  0.7546771E-02  0.1246420E+00
         -2   -1    0    0    0  501 -0.00000000000E+00  0.00000000000E+00  0.20069301103E+03  0.20069301103E+03  0.00000000000E+00 0.  1.
          2   -1    0    0  501    0  0.00000000000E+00 -0.00000000000E+00 -0.63821143825E+02  0.63821143825E+02  0.00000000000E+00 0. -1.
         23    2    1    2    0    0  0.13399949747E+02 -0.19537122339E+02  0.10545391754E+03  0.16525298012E+03  0.12500704345E+03 0.  0.
         23    2    1    2    0    0 -0.13399949747E+02  0.19537122339E+02  0.31417949670E+02  0.99261174736E+02  0.91128675212E+02 0.  0.
          5    1    3    3  502    0  0.68962015428E+01  0.29777211549E+02 -0.15350038786E+02  0.34524681231E+02  0.47000000000E+01 0.  1.
         -5    1    3    3    0  502  0.65037482045E+01 -0.49314333889E+02  0.12080395632E+03  0.13072829889E+03  0.47000000000E+01 0.  1.
        -11    1    4    4    0    0 -0.25089130697E+02  0.52900393419E+02  0.16012319831E+02  0.60698521311E+02  0.00000000000E+00 0. -1.
         11    1    4    4    0    0  0.11689180950E+02 -0.33363271079E+02  0.15405629839E+02  0.38562653425E+02  0.00000000000E+00 0.  1.
<mgrwt>
<rscale>  0 0.11800807E+03</rscale>
<asrwt>0</asrwt>
<pdfrwt beam="2">  1        2 0.98186376E-02 0.12723214E+03</pdfrwt>
<pdfrwt beam="1">  1       -2 0.30875848E-01 0.12723214E+03</pdfrwt>
<totfact> 0.59970776E+03</totfact>
</mgrwt>
</event>
<event>
 8    1  0.9424564E-006  0.1381550E+03  0.7546771E-02  0.1219285E+00
         -2   -1    0    0    0  501 -0.00000000000E+00  0.00000000000E+00  0.22408003026E+03  0.22408003026E+03  0.00000000000E+00 0.  1.
          2   -1    0    0  501    0  0.00000000000E+00 -0.00000000000E+00 -0.80624325800E+02  0.80624325800E+02  0.00000000000E+00 0. -1.
         23    2    1    2    0    0  0.22649479588E+02 -0.54275881231E+02  0.93770838091E+02  0.16697237527E+03  0.12501173473E+03 0.  0.
         23    2    1    2    0    0 -0.22649479588E+02  0.54275881231E+02  0.49684866370E+02  0.13773198079E+03  0.11420438860E+03 0.  0.
          5    1    3    3  502    0 -0.31120006639E+02 -0.66207601146E+02  0.22310152612E+02  0.76627241711E+02  0.47000000000E+01 0.  1.
         -5    1    3    3    0  502  0.53769486227E+02  0.11931719915E+02  0.71460685479E+02  0.90345133562E+02  0.47000000000E+01 0.  1.
        -11    1    4    4    0    0  0.44143631558E+01  0.83768749260E+02  0.50088741152E+02  0.97701442901E+02  0.00000000000E+00 0.  1.
         11    1    4    4    0    0 -0.27063842744E+02 -0.29492868029E+02 -0.40387478271E+00  0.40030537887E+02  0.00000000000E+00 0. -1.
<mgrwt>
<rscale>  0 0.13566425E+03</rscale>
<asrwt>0</asrwt>
<pdfrwt beam="2">  1        2 0.12403743E-01 0.13815500E+03</pdfrwt>
<pdfrwt beam="1">  1       -2 0.34473851E-01 0.13815500E+03</pdfrwt>
<totfact> 0.37156993E+03</totfact>
</mgrwt>
</event>
<event>
 8    1  0.9424564E-006  0.1353465E+03  0.7546771E-02  0.1231544E+00
         -1   -1    0    0    0  501 -0.00000000000E+00  0.00000000000E+00  0.41721351157E+03  0.41721351157E+03  0.00000000000E+00 0.  1.
          1   -1    0    0  501    0  0.00000000000E+00 -0.00000000000E+00 -0.43544546709E+02  0.43544546709E+02  0.00000000000E+00 0. -1.
         23    2    1    2    0    0 -0.16552844178E+02 -0.49207577645E+02  0.30737048956E+03  0.33585009900E+03  0.12499315500E+03 0.  0.
         23    2    1    2    0    0  0.16552844178E+02  0.49207577645E+02  0.66298475299E+02  0.12490795928E+03  0.92255775518E+02 0.  0.
          5    1    3    3  502    0 -0.90679146738E+01  0.35332213447E+02  0.17288961909E+03  0.17675831740E+03  0.47000000000E+01 0. -1.
         -5    1    3    3    0  502 -0.74849295041E+01 -0.84539791092E+02  0.13448087048E+03  0.15909178160E+03  0.47000000000E+01 0. -1.
        -11    1    4    4    0    0  0.19970609583E+02 -0.21917643939E+02  0.38199526674E+02  0.48357131854E+02  0.00000000000E+00 0.  1.
         11    1    4    4    0    0 -0.34177654051E+01  0.71125221584E+02  0.28098948625E+02  0.76550827426E+02  0.00000000000E+00 0. -1.
<mgrwt>
<rscale>  0 0.12728260E+03</rscale>
<asrwt>0</asrwt>
<pdfrwt beam="2">  1        1 0.66991613E-02 0.13534649E+03</pdfrwt>
<pdfrwt beam="1">  1       -1 0.64186691E-01 0.13534649E+03</pdfrwt>
<totfact> 0.27295727E+03</totfact>
</mgrwt>
</event>
<event>
 8    1  0.9424564E-006  0.1336221E+03  0.7546771E-02  0.1234809E+00
          1   -1    0    0  501    0  0.00000000000E+00  0.00000000000E+00  0.41597301915E+02  0.41597301915E+02  0.00000000000E+00 0. -1.
         -1   -1    0    0    0  501 -0.00000000000E+00 -0.00000000000E+00 -0.47365088690E+03  0.47365088690E+03  0.00000000000E+00 0.  1.
         23    2    1    2    0    0  0.38621526972E+02  0.27131324184E+02 -0.37392930583E+03  0.39708687032E+03  0.12500850261E+03 0.  0.
         23    2    1    2    0    0 -0.38621526972E+02 -0.27131324184E+02 -0.58124279149E+02  0.11816131849E+03  0.91410799486E+02 0.  0.
          5    1    3    3  502    0  0.59205245239E+02  0.50436408976E+02 -0.13322889245E+03  0.15434092198E+03  0.47000000000E+01 0. -1.
         -5    1    3    3    0  502 -0.20583718267E+02 -0.23305084792E+02 -0.24070041338E+03  0.24274594834E+03  0.47000000000E+01 0. -1.
        -11    1    4    4    0    0 -0.12000224400E+02 -0.32704749832E+02  0.16637456320E+02  0.38605841527E+02  0.00000000000E+00 0. -1.
         11    1    4    4    0    0 -0.26621302572E+02  0.55734256484E+01 -0.74761735469E+02  0.79555476960E+02  0.00000000000E+00 0.  1.
<mgrwt>
<rscale>  0 0.12516651E+03</rscale>
<asrwt>0</asrwt>
<pdfrwt beam="1">  1        1 0.63995844E-02 0.13362207E+03</pdfrwt>
<pdfrwt beam="2">  1       -1 0.72869373E-01 0.13362207E+03</pdfrwt>
<totfact> 0.22627931E+03</totfact>
</mgrwt>
</event>
<event>
 7    1  0.9424564E-006  0.1827166E+03  0.7546771E-02  0.1200360E+00
         -3   -1    0    0    0  501 -0.00000000000E+00  0.00000000000E+00  0.58762525264E+03  0.58762525264E+03  0.00000000000E+00 0.  1.
          3   -1    0    0  501    0  0.00000000000E+00 -0.00000000000E+00 -0.52605921207E+02  0.52605921207E+02  0.00000000000E+00 0. -1.
         23    2    1    2    0    0  0.14310766018E+02 -0.45725454919E+00  0.93569447597E+01  0.83718557468E+02  0.81952653059E+02 0.  0.
          5    1    1    2  502    0  0.40041658114E+02 -0.23911157414E+02  0.26618776212E+02  0.53904796451E+02  0.47000000000E+01 0. -1.
         -5    1    1    2    0  502 -0.54352424132E+02  0.24368411964E+02  0.49904361047E+03  0.50260781993E+03  0.47000000000E+01 0.  1.
        -11    1    3    3    0    0  0.47289123282E+02  0.10255875165E+02  0.77620506149E+01  0.49007076896E+02  0.00000000000E+00 0. -1.
         11    1    3    3    0    0 -0.32978357264E+02 -0.10713129714E+02  0.15948941448E+01  0.34711480571E+02  0.00000000000E+00 0.  1.
<mgrwt>
<rscale>  0 0.15009163E+03</rscale>
<asrwt>0</asrwt>
<pdfrwt beam="2">  1        3 0.80932190E-02 0.18271658E+03</pdfrwt>
<pdfrwt beam="1">  1       -3 0.90403881E-01 0.18271658E+03</pdfrwt>
<totfact> 0.28776803E+02</totfact>
</mgrwt>
</event>
<event>
 8    1  0.9424564E-006  0.1585794E+03  0.7546771E-02  0.1197652E+00
         -2   -1    0    0    0  501 -0.00000000000E+00  0.00000000000E+00  0.39833793724E+02  0.39833793724E+02  0.00000000000E+00 0.  1.
          2   -1    0    0  501    0  0.00000000000E+00 -0.00000000000E+00 -0.54131135891E+03  0.54131135891E+03  0.00000000000E+00 0. -1.
         23    2    1    2    0    0 -0.86346631040E+02  0.45436376565E+02 -0.26254279359E+03  0.30671834783E+03  0.12500888538E+03 0.  0.
         23    2    1    2    0    0  0.86346631040E+02 -0.45436376565E+02 -0.23893477160E+03  0.27442680480E+03  0.93274010893E+02 0.  0.
          5    1    3    3  502    0 -0.10777003388E+03  0.49954202979E+02 -0.25771366889E+03  0.28381019667E+03  0.47000000000E+01 0.  1.
         -5    1    3    3    0  502  0.21423402836E+02 -0.45178264141E+01 -0.48291246965E+01  0.22908151167E+02  0.47000000000E+01 0.  1.
        -11    1    4    4    0    0  0.54266379200E+02 -0.73808594845E+02 -0.15098638846E+03  0.17660531726E+03  0.00000000000E+00 0. -1.
         11    1    4    4    0    0  0.32080251840E+02  0.28372218281E+02 -0.87948383135E+02  0.97821487539E+02  0.00000000000E+00 0.  1.
<mgrwt>
<rscale>  0 0.15231910E+03</rscale>
<asrwt>0</asrwt>
<pdfrwt beam="2">  1        2 0.83278662E-01 0.15857940E+03</pdfrwt>
<pdfrwt beam="1">  1       -2 0.61282766E-02 0.15857940E+03</pdfrwt>
<totfact> 0.78729081E+03</totfact>
</mgrwt>
</event>
<event>
 8    1  0.9424564E-006  0.2098355E+03  0.7546771E-02  0.1145174E+00
          2   -1    0    0  501    0  0.00000000000E+00  0.00000000000E+00  0.53911865266E+03  0.53911865266E+03  0.00000000000E+00 0. -1.
         -2   -1    0    0    0  501 -0.00000000000E+00 -0.00000000000E+00 -0.75803127286E+02  0.75803127286E+02  0.00000000000E+00 0.  1.
         23    2    1    2    0    0 -0.15031827329E+03 -0.76234425571E+02  0.21546191881E+03  0.30075703511E+03  0.12499473903E+03 0.  0.
         23    2    1    2    0    0  0.15031827329E+03  0.76234425571E+02  0.24785360657E+03  0.31416474484E+03  0.94131852654E+02 0.  0.
          5    1    3    3  502    0 -0.63403200321E+02 -0.71030882763E+02  0.37233631674E+02  0.10234151379E+03  0.47000000000E+01 0. -1.
         -5    1    3    3    0  502 -0.86915072966E+02 -0.52035428079E+01  0.17822828714E+03  0.19841552132E+03  0.47000000000E+01 0. -1.
        -11    1    4    4    0    0  0.10440759538E+03  0.36745201034E+02  0.22250750673E+03  0.24851709463E+03  0.00000000000E+00 0. -1.
         11    1    4    4    0    0  0.45910677910E+02  0.39489224537E+02  0.25346099833E+02  0.65647650205E+02  0.00000000000E+00 0.  1.
<mgrwt>
<rscale>  0 0.20550690E+03</rscale>
<asrwt>0</asrwt>
<pdfrwt beam="1">  1        2 0.82941329E-01 0.20983554E+03</pdfrwt>
<pdfrwt beam="2">  1       -2 0.11662020E-01 0.20983554E+03</pdfrwt>
<totfact> 0.29280845E+03</totfact>
</mgrwt>
</event>
<event>
 8    1  0.9424564E-006  0.1340194E+03  0.7546771E-02  0.1236174E+00
          1   -1    0    0  501    0  0.00000000000E+00  0.00000000000E+00  0.17261957013E+03  0.17261957013E+03  0.00000000000E+00 0. -1.
         -1   -1    0    0    0  501 -0.00000000000E+00 -0.00000000000E+00 -0.14505894386E+03  0.14505894386E+03  0.00000000000E+00 0.  1.
         23    2    1    2    0    0  0.38779537976E+02 -0.28840931989E+02 -0.91844761078E+02  0.16247051408E+03  0.12500222352E+03 0.  0.
         23    2    1    2    0    0 -0.38779537976E+02  0.28840931989E+02  0.11940538735E+03  0.15520799991E+03  0.86580741410E+02 0.  0.
          5    1    3    3  502    0  0.83589770707E+01 -0.68834675053E+02 -0.87605019685E+02  0.11182492773E+03  0.47000000000E+01 0. -1.
         -5    1    3    3    0  502  0.30420560905E+02  0.39993743063E+02 -0.42397413927E+01  0.50645586353E+02  0.47000000000E+01 0. -1.
        -11    1    4    4    0    0  0.97993961511E+01 -0.12113852926E+02 -0.42785210621E+01  0.16157949750E+02  0.00000000000E+00 0.  1.
         11    1    4    4    0    0 -0.48578934127E+02  0.40954784916E+02  0.12368390841E+03  0.13905005016E+03  0.00000000000E+00 0. -1.
<mgrwt>
<rscale>  0 0.12429549E+03</rscale>
<asrwt>0</asrwt>
<pdfrwt beam="1">  1        1 0.26556857E-01 0.13401943E+03</pdfrwt>
<pdfrwt beam="2">  1       -1 0.22316761E-01 0.13401943E+03</pdfrwt>
<totfact> 0.28808535E+03</totfact>
</mgrwt>
</event>
<event>
 8    1  0.9424564E-006  0.2350991E+03  0.7546771E-02  0.1126104E+00
          1   -1    0    0  501    0  0.00000000000E+00  0.00000000000E+00  0.91232672687E+03  0.91232672687E+03  0.00000000000E+00 0. -1.
         -1   -1    0    0    0  501 -0.00000000000E+00 -0.00000000000E+00 -0.63294143006E+02  0.63294143006E+02  0.00000000000E+00 0.  1.
         23    2    1    2    0    0 -0.19663491115E+03  0.31315474205E+02  0.27666748454E+03  0.36306538637E+03  0.12500252226E+03 0.  0.
         23    2    1    2    0    0  0.19663491115E+03 -0.31315474205E+02  0.57236509932E+03  0.61255548350E+03  0.89311064495E+02 0.  0.
          5    1    3    3  502    0 -0.15218733360E+03 -0.24925036041E+02  0.13847153866E+03  0.20731304577E+03  0.47000000000E+01 0.  1.
         -5    1    3    3    0  502 -0.44447577548E+02  0.56240510246E+02  0.13819594589E+03  0.15575234060E+03  0.47000000000E+01 0.  1.
        -11    1    4    4    0    0 -0.30360958940E+01 -0.17816062111E+02  0.50064552218E+02  0.53226772740E+02  0.00000000000E+00 0. -1.
         11    1    4    4    0    0  0.19967100704E+03 -0.13499412094E+02  0.52230054710E+03  0.55932871076E+03  0.00000000000E+00 0.  1.
<mgrwt>
<rscale>  0 0.23076217E+03</rscale>
<asrwt>0</asrwt>
<pdfrwt beam="1">  1        1 0.14035795E+00 0.23509908E+03</pdfrwt>
<pdfrwt beam="2">  1       -1 0.97375611E-02 0.23509908E+03</pdfrwt>
<totfact> 0.11880542E+03</totfact>
</mgrwt>
</event>
<event>
 8    1  0.9424564E-006  0.1836391E+03  0.7546771E-02  0.1169948E+00
          1   -1    0    0  501    0  0.00000000000E+00  0.00000000000E+00  0.45723542987E+03  0.45723542987E+03  0.00000000000E+00 0. -1.
         -1   -1    0    0    0  501 -0.00000000000E+00 -0.00000000000E+00 -0.69350816560E+02  0.69350816560E+02  0.00000000000E+00 0.  1.
         23    2    1    2    0    0 -0.75715543012E+02 -0.11120250514E+03  0.14051568085E+03  0.23123146390E+03  0.12499797091E+03 0.  0.
         23    2    1    2    0    0  0.75715543012E+02  0.11120250514E+03  0.24736893246E+03  0.29535478252E+03  0.89130343953E+02 0.  0.
          5    1    3    3  502    0 -0.81166796374E+02 -0.97540828346E+01  0.59997945498E+02  0.10151371547E+03  0.47000000000E+01 0. -1.
         -5    1    3    3    0  502  0.54512533621E+01 -0.10144842230E+03  0.80517735354E+02  0.12971774843E+03  0.47000000000E+01 0. -1.
        -11    1    4    4    0    0  0.45241125327E+02  0.53831895011E+02  0.46649906592E+02  0.84385106070E+02  0.00000000000E+00 0.  1.
         11    1    4    4    0    0  0.30474417684E+02  0.57370610125E+02  0.20071902586E+03  0.21096967645E+03  0.00000000000E+00 0. -1.
<mgrwt>
<rscale>  0 0.17780151E+03</rscale>
<asrwt>0</asrwt>
<pdfrwt beam="1">  1        1 0.70343910E-01 0.18363914E+03</pdfrwt>
<pdfrwt beam="2">  1       -1 0.10669357E-01 0.18363914E+03</pdfrwt>
<totfact> 0.27609392E+03</totfact>
</mgrwt>
</event>
<event>
 8    1  0.9424564E-006  0.1658199E+03  0.7546771E-02  0.1191422E+00
         -2   -1    0    0    0  501 -0.00000000000E+00  0.00000000000E+00  0.10575674485E+03  0.10575674485E+03  0.00000000000E+00 0.  1.
          2   -1    0    0  501    0  0.00000000000E+00 -0.00000000000E+00 -0.23341714242E+03  0.23341714242E+03  0.00000000000E+00 0. -1.
         23    2    1    2    0    0  0.87488004268E+02 -0.64939568530E+02 -0.21583774931E+02  0.16721872448E+03  0.12499977610E+03 0.  0.
         23    2    1    2    0    0 -0.87488004268E+02  0.64939568530E+02 -0.10607662263E+03  0.17195516279E+03  0.80280942249E+02 0.  0.
          5    1    3    3  502    0  0.35570146188E+02 -0.97164167052E+02 -0.22200786015E+02  0.10592957830E+03  0.47000000000E+01 0. -1.
         -5    1    3    3    0  502  0.51917858080E+02  0.32224598522E+02  0.61701108334E+00  0.61289146186E+02  0.47000000000E+01 0. -1.
        -11    1    4    4    0    0 -0.26127184953E+01  0.48610693872E+02 -0.43029904790E+02  0.64972290731E+02  0.00000000000E+00 0.  1.
         11    1    4    4    0    0 -0.84875285773E+02  0.16328874658E+02 -0.63046717843E+02  0.10698287206E+03  0.00000000000E+00 0. -1.
<mgrwt>
<rscale>  0 0.15760947E+03</rscale>
<asrwt>0</asrwt>
<pdfrwt beam="2">  1        2 0.35910329E-01 0.16581991E+03</pdfrwt>
<pdfrwt beam="1">  1       -2 0.16270269E-01 0.16581991E+03</pdfrwt>
<totfact> 0.41717155E+03</totfact>
</mgrwt>
</event>
<event>
 8    1  0.9424564E-006  0.1747827E+03  0.7546771E-02  0.1179090E+00
         -4   -1    0    0    0  501 -0.00000000000E+00  0.00000000000E+00  0.10314616465E+04  0.10314616465E+04  0.00000000000E+00 0. -1.
          4   -1    0    0  501    0  0.00000000000E+00 -0.00000000000E+00 -0.27235371012E+02  0.27235371012E+02  0.00000000000E+00 0.  1.
         23    2    1    2    0    0  0.63190808403E+02  0.10454573255E+03  0.65221986661E+03  0.67523309658E+03  0.12500436735E+03 0.  0.
         23    2    1    2    0    0 -0.63190808403E+02 -0.10454573255E+03  0.35200640890E+03  0.38346392096E+03  0.90626587201E+02 0.  0.
          5    1    3    3  502    0  0.65604604643E+02 -0.40148552416E+01  0.23076274549E+03  0.23998670363E+03  0.47000000000E+01 0.  1.
         -5    1    3    3    0  502 -0.24137962400E+01  0.10856058779E+03  0.42145712113E+03  0.43524639296E+03  0.47000000000E+01 0.  1.
        -11    1    4    4    0    0  0.13908281581E+02 -0.88516517935E+01  0.83169674394E+01  0.18465210082E+02  0.00000000000E+00 0.  1.
         11    1    4    4    0    0 -0.77099089983E+02 -0.95694080752E+02  0.34368944146E+03  0.36499871088E+03  0.00000000000E+00 0. -1.
<mgrwt>
<rscale>  0 0.16881458E+03</rscale>
<asrwt>0</asrwt>
<pdfrwt beam="2">  1        4 0.41900579E-02 0.17478267E+03</pdfrwt>
<pdfrwt beam="1">  1       -4 0.15868638E+00 0.17478267E+03</pdfrwt>
<totfact> 0.15216846E+02</totfact>
</mgrwt>
</event>
<event>
 8    1  0.9424564E-006  0.1455017E+03  0.7546771E-02  0.1215560E+00
         -2   -1    0    0    0  501 -0.00000000000E+00  0.00000000000E+00  0.11133013718E+03  0.11133013718E+03  0.00000000000E+00 0.  1.
          2   -1    0    0  501    0  0.00000000000E+00 -0.00000000000E+00 -0.15738436214E+03  0.15738436214E+03  0.00000000000E+00 0. -1.
         23    2    1    2    0    0  0.72376421208E+02  0.17522986573E+02 -0.31543701980E+02  0.14888169549E+03  0.12500141084E+03 0.  0.
         23    2    1    2    0    0 -0.72376421208E+02 -0.17522986573E+02 -0.14510522978E+02  0.11983280383E+03  0.92757448176E+02 0.  0.
          5    1    3    3  502    0  0.74552128924E+02 -0.34346297494E+02 -0.46752578746E+02  0.94581085308E+02  0.47000000000E+01 0.  1.
         -5    1    3    3    0  502 -0.21757077159E+01  0.51869284066E+02  0.15208876766E+02  0.54300610182E+02  0.47000000000E+01 0.  1.
        -11    1    4    4    0    0  0.21423581426E+02 -0.84569268283E+01 -0.11015308717E+02  0.25530892633E+02  0.00000000000E+00 0. -1.
         11    1    4    4    0    0 -0.93800002634E+02 -0.90660597442E+01 -0.34952142605E+01  0.94301911201E+02  0.00000000000E+00 0.  1.
<mgrwt>
<rscale>  0 0.13835446E+03</rscale>
<asrwt>0</asrwt>
<pdfrwt beam="2">  1        2 0.24212979E-01 0.14550173E+03</pdfrwt>
<pdfrwt beam="1">  1       -2 0.17127713E-01 0.14550173E+03</pdfrwt>
<totfact> 0.58432636E+03</totfact>
</mgrwt>
</event>
<event>
 8    1  0.9424564E-006  0.1626756E+03  0.7546771E-02  0.1192024E+00
         -2   -1    0    0    0  501 -0.00000000000E+00  0.00000000000E+00  0.29850787820E+03  0.29850787820E+03  0.00000000000E+00 0.  1.
          2   -1    0    0  501    0  0.00000000000E+00 -0.00000000000E+00 -0.83763948780E+02  0.83763948780E+02  0.00000000000E+00 0. -1.
         23    2    1    2    0    0 -0.99428442547E+02  0.30874469111E+02  0.16660950057E+03  0.23285637616E+03  0.12499647278E+03 0.  0.
         23    2    1    2    0    0  0.99428442547E+02 -0.30874469111E+02  0.48134428855E+02  0.14941545083E+03  0.95753880726E+02 0.  0.
          5    1    3    3  502    0 -0.10797766028E+03  0.43178806906E+02  0.71791309813E+02  0.13674672445E+03  0.47000000000E+01 0.  1.
         -5    1    3    3    0  502  0.85492177281E+01 -0.12304337795E+02  0.94818190756E+02  0.96109651704E+02  0.47000000000E+01 0.  1.
        -11    1    4    4    0    0  0.10157108754E+03 -0.19251472651E+02  0.37102556321E+01  0.10344598117E+03  0.00000000000E+00 0. -1.
         11    1    4    4    0    0 -0.21426449892E+01 -0.11622996460E+02  0.44424173223E+02  0.45969469660E+02  0.00000000000E+00 0.  1.
<mgrwt>
<rscale>  0 0.15708782E+03</rscale>
<asrwt>0</asrwt>
<pdfrwt beam="2">  1        2 0.12886761E-01 0.16267565E+03</pdfrwt>
<pdfrwt beam="1">  1       -2 0.45924289E-01 0.16267565E+03</pdfrwt>
<totfact> 0.20795048E+03</totfact>
</mgrwt>
</event>
<event>
 8    1  0.9424564E-006  0.1439454E+03  0.7546771E-02  0.1216178E+00
         -2   -1    0    0    0  501 -0.00000000000E+00  0.00000000000E+00  0.76804996927E+02  0.76804996927E+02  0.00000000000E+00 0.  1.
          2   -1    0    0  501    0  0.00000000000E+00 -0.00000000000E+00 -0.29396892751E+03  0.29396892751E+03  0.00000000000E+00 0. -1.
         23    2    1    2    0    0  0.64614243981E+01  0.71087291208E+02 -0.28865617666E+02  0.14681115703E+03  0.12500055588E+03 0.  0.
         23    2    1    2    0    0 -0.64614243981E+01 -0.71087291208E+02 -0.18829831292E+03  0.22396276740E+03  0.98019965102E+02 0.  0.
          5    1    3    3  502    0 -0.64099585524E+01  0.10564567964E+03 -0.14392736391E+02  0.10691743569E+03  0.47000000000E+01 0. -1.
         -5    1    3    3    0  502  0.12871382951E+02 -0.34558388430E+02 -0.14472881275E+02  0.39893721340E+02  0.47000000000E+01 0. -1.
        -11    1    4    4    0    0 -0.17261015042E+02  0.21764401235E+02 -0.43349035236E+02  0.51485635446E+02  0.00000000000E+00 0.  1.
         11    1    4    4    0    0  0.10799590644E+02 -0.92851692443E+02 -0.14494927768E+03  0.17247713196E+03  0.00000000000E+00 0. -1.
<mgrwt>
<rscale>  0 0.13790323E+03</rscale>
<asrwt>0</asrwt>
<pdfrwt beam="2">  1        2 0.45225989E-01 0.14394545E+03</pdfrwt>
<pdfrwt beam="1">  1       -2 0.11816153E-01 0.14394545E+03</pdfrwt>
<totfact> 0.54426757E+03</totfact>
</mgrwt>
</event>
<event>
 7    1  0.9424564E-006  0.1567475E+03  0.7546771E-02  0.1202916E+00
          1   -1    0    0  501    0  0.00000000000E+00  0.00000000000E+00  0.67576392866E+03  0.67576392866E+03  0.00000000000E+00 0. -1.
         -1   -1    0    0    0  501 -0.00000000000E+00 -0.00000000000E+00 -0.34261880264E+02  0.34261880264E+02  0.00000000000E+00 0.  1.
         23    2    1    2    0    0  0.33088623329E+02  0.77121128099E+02  0.42384154110E+03  0.44179855503E+03  0.92205129302E+02 0.  0.
          5    1    1    2  502    0 -0.20564917074E+02  0.16107798114E+02  0.14982387022E+03  0.15215669247E+03  0.47000000000E+01 0. -1.
         -5    1    1    2    0  502 -0.12523706255E+02 -0.93228926213E+02  0.67836637079E+02  0.11607056143E+03  0.47000000000E+01 0.  1.
        -11    1    3    3    0    0  0.61204291097E+02  0.70569996423E+02  0.35638635866E+03  0.36842546910E+03  0.00000000000E+00 0. -1.
         11    1    3    3    0    0 -0.28115667769E+02  0.65511316757E+01  0.67455182442E+02  0.73373085928E+02  0.00000000000E+00 0.  1.
<mgrwt>
<rscale>  0 0.14802900E+03</rscale>
<asrwt>0</asrwt>
<pdfrwt beam="1">  1        1 0.10396367E+00 0.15674745E+03</pdfrwt>
<pdfrwt beam="2">  1       -1 0.52710590E-02 0.15674745E+03</pdfrwt>
<totfact> 0.47094379E+03</totfact>
</mgrwt>
</event>
<event>
 8    1  0.9424564E-006  0.2454668E+03  0.7546771E-02  0.1119074E+00
         -2   -1    0    0    0  501 -0.00000000000E+00  0.00000000000E+00  0.48808754125E+02  0.48808754125E+02  0.00000000000E+00 0.  1.
          2   -1    0    0  501    0  0.00000000000E+00 -0.00000000000E+00 -0.15773377982E+04  0.15773377982E+04  0.00000000000E+00 0. -1.
         23    2    1    2    0    0 -0.20467009864E+03  0.52350263219E+02 -0.36139690218E+03  0.43687717050E+03  0.12499416732E+03 0.  0.
         23    2    1    2    0    0  0.20467009864E+03 -0.52350263219E+02 -0.11671321419E+04  0.11892693819E+04  0.86797618367E+02 0.  0.
          5    1    3    3  502    0 -0.98543447070E+02  0.50958882550E+02 -0.28544019815E+03  0.30627735043E+03  0.47000000000E+01 0. -1.
         -5    1    3    3    0  502 -0.10612665157E+03  0.13913806689E+01 -0.75956704031E+02  0.13059982007E+03  0.47000000000E+01 0. -1.
        -11    1    4    4    0    0  0.12763480761E+02 -0.58993079700E+01 -0.15890192801E+02  0.21218070197E+02  0.00000000000E+00 0.  1.
         11    1    4    4    0    0  0.19190661788E+03 -0.46450955249E+02 -0.11512419491E+04  0.11680513117E+04  0.00000000000E+00 0. -1.
<mgrwt>
<rscale>  0 0.24108275E+03</rscale>
<asrwt>0</asrwt>
<pdfrwt beam="2">  1        2 0.24266735E+00 0.24546678E+03</pdfrwt>
<pdfrwt beam="1">  1       -2 0.75090392E-02 0.24546678E+03</pdfrwt>
<totfact> 0.12989079E+03</totfact>
</mgrwt>
</event>
<event>
 7    1  0.9424564E-006  0.1289858E+03  0.7546771E-02  0.1243983E+00
          1   -1    0    0  501    0  0.00000000000E+00  0.00000000000E+00  0.21383066358E+03  0.21383066358E+03  0.00000000000E+00 0. -1.
         -1   -1    0    0    0  501 -0.00000000000E+00 -0.00000000000E+00 -0.11754667880E+03  0.11754667880E+03  0.00000000000E+00 0.  1.
         23    2    1    2    0    0  0.14301579509E+02  0.74421699384E+01  0.16113102868E+03  0.18700814427E+03  0.93535643205E+02 0.  0.
          5    1    1    2  502    0 -0.62159235385E+02 -0.14369028598E+02 -0.79552384138E+00  0.63976264229E+02  0.47000000000E+01 0. -1.
         -5    1    1    2    0  502  0.47857655876E+02  0.69268586593E+01 -0.64051520052E+02  0.80392933880E+02  0.47000000000E+01 0.  1.
        -11    1    3    3    0    0  0.45585533885E+01  0.40913168838E+02  0.14070729393E+03  0.14660562868E+03  0.00000000000E+00 0.  1.
         11    1    3    3    0    0  0.97430261208E+01 -0.33470998900E+02  0.20423734748E+02  0.40402515595E+02  0.00000000000E+00 0. -1.
<mgrwt>
<rscale>  0 0.11946479E+03</rscale>
<asrwt>0</asrwt>
<pdfrwt beam="1">  1        1 0.32897025E-01 0.12898576E+03</pdfrwt>
<pdfrwt beam="2">  1       -1 0.18084104E-01 0.12898576E+03</pdfrwt>
<totfact> 0.30880704E+03</totfact>
</mgrwt>
</event>
<event>
 8    1  0.9424564E-006  0.1370419E+03  0.7546771E-02  0.1228321E+00
         -2   -1    0    0    0  501 -0.00000000000E+00  0.00000000000E+00  0.67107119191E+03  0.67107119191E+03  0.00000000000E+00 0.  1.
          2   -1    0    0  501    0  0.00000000000E+00 -0.00000000000E+00 -0.24238694664E+02  0.24238694664E+02  0.00000000000E+00 0. -1.
         23    2    1    2    0    0 -0.25671153234E+02  0.50000334734E+02  0.44886109460E+03  0.46931522171E+03  0.12498581322E+03 0.  0.
         23    2    1    2    0    0  0.25671153234E+02 -0.50000334734E+02  0.19797140265E+03  0.22599466487E+03  0.93390956185E+02 0.  0.
          5    1    3    3  502    0 -0.73903366189E+02  0.35454092025E+02  0.21735491542E+03  0.23234446289E+03  0.47000000000E+01 0. -1.
         -5    1    3    3    0  502  0.48232212955E+02  0.14546242709E+02  0.23150617917E+03  0.23697075883E+03  0.47000000000E+01 0. -1.
        -11    1    4    4    0    0  0.24020777394E+02 -0.77559579445E+02  0.15347154216E+03  0.17362603596E+03  0.00000000000E+00 0.  1.
         11    1    4    4    0    0  0.16503758400E+01  0.27559244711E+02  0.44499860493E+02  0.52368628905E+02  0.00000000000E+00 0. -1.
<mgrwt>
<rscale>  0 0.12941850E+03</rscale>
<asrwt>0</asrwt>
<pdfrwt beam="2">  1        2 0.37290304E-02 0.13704195E+03</pdfrwt>
<pdfrwt beam="1">  1       -2 0.10324171E+00 0.13704195E+03</pdfrwt>
<totfact> 0.17833550E+03</totfact>
</mgrwt>
</event>
<event>
 8    1  0.9424564E-006  0.1435643E+03  0.7546771E-02  0.1219426E+00
          2   -1    0    0  501    0  0.00000000000E+00  0.00000000000E+00  0.25244656201E+03  0.25244656201E+03  0.00000000000E+00 0. -1.
         -2   -1    0    0    0  501 -0.00000000000E+00 -0.00000000000E+00 -0.69878632104E+02  0.69878632104E+02  0.00000000000E+00 0.  1.
         23    2    1    2    0    0  0.68651032707E+02 -0.16492720873E+02  0.62245794603E+02  0.15647762486E+03  0.12500293598E+03 0.  0.
         23    2    1    2    0    0 -0.68651032707E+02  0.16492720873E+02  0.12032213530E+03  0.16584756925E+03  0.89682918379E+02 0.  0.
          5    1    3    3  502    0  0.17380525203E+00 -0.48988909455E+02 -0.11587427792E+02  0.50559884699E+02  0.47000000000E+01 0.  1.
         -5    1    3    3    0  502  0.68477227455E+02  0.32496188582E+02  0.73833222396E+02  0.10591774016E+03  0.47000000000E+01 0.  1.
        -11    1    4    4    0    0 -0.35659980468E+02  0.86058521479E+01 -0.40742911704E+01  0.36909277245E+02  0.00000000000E+00 0.  1.
         11    1    4    4    0    0 -0.32991052239E+02  0.78868687255E+01  0.12439642647E+03  0.12893829201E+03  0.00000000000E+00 0. -1.
<mgrwt>
<rscale>  0 0.13556406E+03</rscale>
<asrwt>0</asrwt>
<pdfrwt beam="1">  1        2 0.38837932E-01 0.14356430E+03</pdfrwt>
<pdfrwt beam="2">  1       -2 0.10750559E-01 0.14356430E+03</pdfrwt>
<totfact> 0.74352618E+03</totfact>
</mgrwt>
</event>
<event>
 8    1  0.9424564E-006  0.1168007E+03  0.7546771E-02  0.1257700E+00
          1   -1    0    0  501    0  0.00000000000E+00  0.00000000000E+00  0.21912358282E+03  0.21912358282E+03  0.00000000000E+00 0. -1.
         -1   -1    0    0    0  501 -0.00000000000E+00 -0.00000000000E+00 -0.60880281531E+02  0.60880281531E+02  0.00000000000E+00 0.  1.
         23    2    1    2    0    0  0.29008022516E+02 -0.85671669171E+01  0.32844787187E+02  0.12133093095E+03  0.11281645732E+03 0.  0.
         23    2    1    2    0    0 -0.29008022516E+02  0.85671669171E+01  0.12539851411E+03  0.15867293340E+03  0.92398326470E+02 0.  0.
          5    1    3    3  502    0  0.24066062750E+02  0.39392081869E+02  0.51591795865E+02  0.69388146616E+02  0.47000000000E+01 0. -1.
         -5    1    3    3    0  502  0.49419597661E+01 -0.47959248786E+02 -0.18747008678E+02  0.51942784338E+02  0.47000000000E+01 0.  1.
        -11    1    4    4    0    0  0.14312479602E+02  0.37953924127E+02  0.32241462640E+02  0.51815628358E+02  0.00000000000E+00 0.  1.
         11    1    4    4    0    0 -0.43320502117E+02 -0.29386757210E+02  0.93157051465E+02  0.10685730504E+03  0.00000000000E+00 0. -1.
<mgrwt>
<rscale>  0 0.11156462E+03</rscale>
<asrwt>0</asrwt>
<pdfrwt beam="1">  1        1 0.33711320E-01 0.11680075E+03</pdfrwt>
<pdfrwt beam="2">  1       -1 0.93661972E-02 0.11680075E+03</pdfrwt>
<totfact> 0.82481276E+03</totfact>
</mgrwt>
</event>
<event>
 8    1  0.9424564E-006  0.1558923E+03  0.7546771E-02  0.1201887E+00
          1   -1    0    0  501    0  0.00000000000E+00  0.00000000000E+00  0.11769129119E+03  0.11769129119E+03  0.00000000000E+00 0. -1.
         -1   -1    0    0    0  501 -0.00000000000E+00 -0.00000000000E+00 -0.33679300804E+03  0.33679300804E+03  0.00000000000E+00 0.  1.
         23    2    1    2    0    0  0.59045962825E+02  0.72059371896E+02 -0.27280530520E+03  0.31420557569E+03  0.12499372161E+03 0.  0.
         23    2    1    2    0    0 -0.59045962825E+02 -0.72059371896E+02  0.53703588360E+02  0.14027872354E+03  0.90083661519E+02 0.  0.
          5    1    3    3  502    0 -0.17234717894E+01  0.90497478470E+02 -0.18170990975E+03  0.20305995486E+03  0.47000000000E+01 0.  1.
         -5    1    3    3    0  502  0.60769434614E+02 -0.18438106574E+02 -0.91095395451E+02  0.11114562083E+03  0.47000000000E+01 0.  1.
        -11    1    4    4    0    0 -0.34928100621E+02 -0.49319907569E+02 -0.16496416685E+02  0.62646286874E+02  0.00000000000E+00 0.  1.
         11    1    4    4    0    0 -0.24117862204E+02 -0.22739464327E+02  0.70200005045E+02  0.77632436671E+02  0.00000000000E+00 0. -1.
<mgrwt>
<rscale>  0 0.14885482E+03</rscale>
<asrwt>0</asrwt>
<pdfrwt beam="1">  1        1 0.18106352E-01 0.15589230E+03</pdfrwt>
<pdfrwt beam="2">  1       -1 0.51814309E-01 0.15589230E+03</pdfrwt>
<totfact> 0.11059219E+03</totfact>
</mgrwt>
</event>
<event>
 8    1  0.9424564E-006  0.1311607E+03  0.7546771E-02  0.1239169E+00
          1   -1    0    0  501    0  0.00000000000E+00  0.00000000000E+00  0.30729283964E+02  0.30729283964E+02  0.00000000000E+00 0. -1.
         -1   -1    0    0    0  501 -0.00000000000E+00 -0.00000000000E+00 -0.44158804877E+03  0.44158804877E+03  0.00000000000E+00 0.  1.
         23    2    1    2    0    0  0.38866628478E+02 -0.81107966461E+01 -0.26585420769E+03  0.29644830523E+03  0.12500695219E+03 0.  0.
         23    2    1    2    0    0 -0.38866628478E+02  0.81107966461E+01 -0.14500455712E+03  0.17586902751E+03  0.91253457027E+02 0.  0.
          5    1    3    3  502    0 -0.43202782858E+02  0.81732827972E+01 -0.12450811804E+03  0.13212737966E+03  0.47000000000E+01 0. -1.
         -5    1    3    3    0  502  0.82069411336E+02 -0.16284079443E+02 -0.14134608965E+03  0.16432092557E+03  0.47000000000E+01 0. -1.
        -11    1    4    4    0    0 -0.55196061969E+02  0.27574815403E+02 -0.13524094941E+03  0.14865090010E+03  0.00000000000E+00 0. -1.
         11    1    4    4    0    0  0.16329433491E+02 -0.19464018757E+02 -0.97636077072E+01  0.27218127411E+02  0.00000000000E+00 0.  1.
<mgrwt>
<rscale>  0 0.12241284E+03</rscale>
<asrwt>0</asrwt>
<pdfrwt beam="1">  1        1 0.47275826E-02 0.13116073E+03</pdfrwt>
<pdfrwt beam="2">  1       -1 0.67936617E-01 0.13116073E+03</pdfrwt>
<totfact> 0.39201205E+03</totfact>
</mgrwt>
</event>
<event>
 8    1  0.9424564E-006  0.1628619E+03  0.7546771E-02  0.1191603E+00
         -1   -1    0    0    0  501 -0.00000000000E+00  0.00000000000E+00  0.28514559645E+03  0.28514559645E+03  0.00000000000E+00 0.  1.
          1   -1    0    0  501    0  0.00000000000E+00 -0.00000000000E+00 -0.83805749721E+02  0.83805749721E+02  0.00000000000E+00 0. -1.
         23    2    1    2    0    0 -0.81821107610E+02 -0.64866657455E+02  0.13691027854E+03  0.21276373468E+03  0.12498642136E+03 0.  0.
         23    2    1    2    0    0  0.81821107610E+02  0.64866657455E+02  0.64429568186E+02  0.15618761149E+03  0.96648972198E+02 0.  0.
          5    1    3    3  502    0 -0.57159268021E+02 -0.27563163136E+01 -0.31516565957E+01  0.57504801014E+02  0.47000000000E+01 0. -1.
         -5    1    3    3    0  502 -0.24661839589E+02 -0.62110341141E+02  0.14006193514E+03  0.15525893367E+03  0.47000000000E+01 0. -1.
        -11    1    4    4    0    0 -0.96953121167E+01 -0.13933854865E+02  0.22844666388E+02  0.28461028984E+02  0.00000000000E+00 0.  1.
         11    1    4    4    0    0  0.91516419726E+02  0.78800512320E+02  0.41584901799E+02  0.12772658251E+03  0.00000000000E+00 0. -1.
<mgrwt>
<rscale>  0 0.15745264E+03</rscale>
<asrwt>0</asrwt>
<pdfrwt beam="2">  1        1 0.12893192E-01 0.16286185E+03</pdfrwt>
<pdfrwt beam="1">  1       -1 0.43868553E-01 0.16286185E+03</pdfrwt>
<totfact> 0.23290414E+03</totfact>
</mgrwt>
</event>
<event>
 8    1  0.9424564E-006  0.1288250E+03  0.7546771E-02  0.1242856E+00
         -2   -1    0    0    0  501 -0.00000000000E+00  0.00000000000E+00  0.72336221290E+02  0.72336221290E+02  0.00000000000E+00 0.  1.
          2   -1    0    0  501    0  0.00000000000E+00 -0.00000000000E+00 -0.18816681005E+03  0.18816681005E+03  0.00000000000E+00 0. -1.
         23    2    1    2    0    0 -0.31134738664E+02  0.15971610608E+01 -0.33985417743E+02  0.13323248266E+03  0.12499585170E+03 0.  0.
         23    2    1    2    0    0  0.31134738664E+02 -0.15971610608E+01 -0.81845171017E+02  0.12727054868E+03  0.92343043416E+02 0.  0.
          5    1    3    3  502    0  0.31498702284E+02 -0.38013619902E+02 -0.31863448256E+02  0.58945507704E+02  0.47000000000E+01 0. -1.
         -5    1    3    3    0  502 -0.62633440949E+02  0.39610780963E+02 -0.21219694865E+01  0.74286974956E+02  0.47000000000E+01 0. -1.
        -11    1    4    4    0    0  0.20034008596E+02 -0.40959649912E+02 -0.71968651404E+02  0.85197072757E+02  0.00000000000E+00 0. -1.
         11    1    4    4    0    0  0.11100730068E+02  0.39362488851E+02 -0.98765196127E+01  0.42073475923E+02  0.00000000000E+00 0.  1.
<mgrwt>
<rscale>  0 0.12014642E+03</rscale>
<asrwt>0</asrwt>
<pdfrwt beam="2">  1        2 0.28948740E-01 0.12882502E+03</pdfrwt>
<pdfrwt beam="1">  1       -2 0.11128649E-01 0.12882502E+03</pdfrwt>
<totfact> 0.95780844E+03</totfact>
</mgrwt>
</event>
<event>
 8    1  0.9424564E-006  0.1304574E+03  0.7546771E-02  0.1241311E+00
          1   -1    0    0  501    0  0.00000000000E+00  0.00000000000E+00  0.41635085687E+02  0.41635085687E+02  0.00000000000E+00 0. -1.
         -1   -1    0    0    0  501 -0.00000000000E+00 -0.00000000000E+00 -0.31308757895E+03  0.31308757895E+03  0.00000000000E+00 0.  1.
         23    2    1    2    0    0  0.15528628767E+02  0.34001897087E+02 -0.17247721819E+03  0.21625800285E+03  0.12498746212E+03 0.  0.
         23    2    1    2    0    0 -0.15528628767E+02 -0.34001897087E+02 -0.98975275078E+02  0.13846466179E+03  0.89325753119E+02 0.  0.
          5    1    3    3  502    0 -0.52656575058E+02  0.25225719081E+02 -0.56682561522E+02  0.81511070295E+02  0.47000000000E+01 0.  1.
         -5    1    3    3    0  502  0.68185203825E+02  0.87761780068E+01 -0.11579465667E+03  0.13474693256E+03  0.47000000000E+01 0.  1.
        -11    1    4    4    0    0  0.32096108993E+02 -0.16967758180E+02 -0.73172102656E+02  0.81683668118E+02  0.00000000000E+00 0.  1.
         11    1    4    4    0    0 -0.47624737760E+02 -0.17034138908E+02 -0.25803172422E+02  0.56780993669E+02  0.00000000000E+00 0. -1.
<mgrwt>
<rscale>  0 0.12108931E+03</rscale>
<asrwt>0</asrwt>
<pdfrwt beam="1">  1        1 0.64053979E-02 0.13045740E+03</pdfrwt>
<pdfrwt beam="2">  1       -1 0.48167319E-01 0.13045740E+03</pdfrwt>
<totfact> 0.49462597E+03</totfact>
</mgrwt>
</event>
<event>
 7    1  0.9424564E-006  0.1419757E+03  0.7546771E-02  0.1223680E+00
          2   -1    0    0  501    0  0.00000000000E+00  0.00000000000E+00  0.35629575463E+03  0.35629575463E+03  0.00000000000E+00 0. -1.
         -2   -1    0    0    0  501 -0.00000000000E+00 -0.00000000000E+00 -0.45121724101E+02  0.45121724101E+02  0.00000000000E+00 0.  1.
         23    2    1    2    0    0  0.70435777077E+01  0.61013425323E+02  0.16867426074E+03  0.20026261932E+03  0.88779842326E+02 0.  0.
          5    1    1    2  502    0  0.55093752826E+02 -0.51277597946E+02  0.99382273873E+02  0.12475431861E+03  0.47000000000E+01 0. -1.
         -5    1    1    2    0  502 -0.62137330534E+02 -0.97358273771E+01  0.43117495911E+02  0.76400540798E+02  0.47000000000E+01 0.  1.
        -11    1    3    3    0    0 -0.37730000332E+02  0.89993830123E+01  0.51567546880E+02  0.64527154833E+02  0.00000000000E+00 0. -1.
         11    1    3    3    0    0  0.44773578039E+02  0.52014042310E+02  0.11710671386E+03  0.13573546449E+03  0.00000000000E+00 0.  1.
<mgrwt>
<rscale>  0 0.13257766E+03</rscale>
<asrwt>0</asrwt>
<pdfrwt beam="1">  1        2 0.54814730E-01 0.14197568E+03</pdfrwt>
<pdfrwt beam="2">  1       -2 0.69418039E-02 0.14197568E+03</pdfrwt>
<totfact> 0.10173863E+04</totfact>
</mgrwt>
</event>
<event>
 8    1  0.9424564E-006  0.1449643E+03  0.7546771E-02  0.1216778E+00
          2   -1    0    0  501    0  0.00000000000E+00  0.00000000000E+00  0.16646039235E+03  0.16646039235E+03  0.00000000000E+00 0. -1.
         -2   -1    0    0    0  501 -0.00000000000E+00 -0.00000000000E+00 -0.10668879044E+03  0.10668879044E+03  0.00000000000E+00 0.  1.
         23    2    1    2    0    0  0.24812592675E+01  0.73399503274E+02  0.85289363211E+01  0.14521499308E+03  0.12498402990E+03 0.  0.
         23    2    1    2    0    0 -0.24812592675E+01 -0.73399503274E+02  0.51242665584E+02  0.12793418971E+03  0.91365761596E+02 0.  0.
          5    1    3    3  502    0  0.59585427903E+01  0.88998431797E+02  0.48694174971E+02  0.10173218650E+03  0.47000000000E+01 0.  1.
         -5    1    3    3    0  502 -0.34772835228E+01 -0.15598928523E+02 -0.40165238650E+02  0.43482806574E+02  0.47000000000E+01 0.  1.
        -11    1    4    4    0    0 -0.20443933144E+02  0.15701450450E+02  0.16613040774E+02  0.30667296463E+02  0.00000000000E+00 0.  1.
         11    1    4    4    0    0  0.17962673876E+02 -0.89100953724E+02  0.34629624811E+02  0.97266893246E+02  0.00000000000E+00 0. -1.
<mgrwt>
<rscale>  0 0.13746732E+03</rscale>
<asrwt>0</asrwt>
<pdfrwt beam="1">  1        2 0.25609291E-01 0.14496431E+03</pdfrwt>
<pdfrwt beam="2">  1       -2 0.16413660E-01 0.14496431E+03</pdfrwt>
<totfact> 0.58921550E+03</totfact>
</mgrwt>
</event>
<event>
 8    1  0.9424564E-006  0.1782589E+03  0.7546771E-02  0.1175503E+00
         -3   -1    0    0    0  501 -0.00000000000E+00  0.00000000000E+00  0.72004781149E+02  0.72004781149E+02  0.00000000000E+00 0.  1.
          3   -1    0    0  501    0  0.00000000000E+00 -0.00000000000E+00 -0.40369986738E+03  0.40369986738E+03  0.00000000000E+00 0. -1.
         23    2    1    2    0    0  0.12453073261E+03  0.25354645824E+02 -0.12800135071E+03  0.21945520640E+03  0.12500192161E+03 0.  0.
         23    2    1    2    0    0 -0.12453073261E+03 -0.25354645824E+02 -0.20369373552E+03  0.25624944212E+03  0.89564933262E+02 0.  0.
          5    1    3    3  502    0  0.11731724803E+03 -0.24071982040E+02 -0.57521695075E+02  0.13294221455E+03  0.47000000000E+01 0. -1.
         -5    1    3    3    0  502  0.72134845797E+01  0.49426627863E+02 -0.70479655633E+02  0.86512991856E+02  0.47000000000E+01 0. -1.
        -11    1    4    4    0    0 -0.82091754487E+01  0.25910779681E+02 -0.24818257198E+02  0.36806316788E+02  0.00000000000E+00 0.  1.
         11    1    4    4    0    0 -0.11632155716E+03 -0.51265425504E+02 -0.17887547832E+03  0.21944312534E+03  0.00000000000E+00 0. -1.
<mgrwt>
<rscale>  0 0.17226774E+03</rscale>
<asrwt>0</asrwt>
<pdfrwt beam="2">  1        3 0.62107672E-01 0.17825892E+03</pdfrwt>
<pdfrwt beam="1">  1       -3 0.11077659E-01 0.17825892E+03</pdfrwt>
<totfact> 0.38386706E+02</totfact>
</mgrwt>
</event>
<event>
 8    1  0.9424564E-006  0.1389768E+03  0.7546771E-02  0.1225766E+00
         -1   -1    0    0    0  501 -0.00000000000E+00  0.00000000000E+00  0.17648766086E+03  0.17648766086E+03  0.00000000000E+00 0.  1.
          1   -1    0    0  501    0  0.00000000000E+00 -0.00000000000E+00 -0.92418384046E+02  0.92418384046E+02  0.00000000000E+00 0. -1.
         23    2    1    2    0    0 -0.60468892586E+02 -0.57212731634E+01  0.76022631036E+02  0.15841082412E+03  0.12500131532E+03 0.  0.
         23    2    1    2    0    0  0.60468892586E+02  0.57212731634E+01  0.80466457745E+01  0.11049522078E+03  0.91952299432E+02 0.  0.
          5    1    3    3  502    0 -0.93580732402E+02 -0.23437063202E+02  0.35343517970E+02  0.10284893617E+03  0.47000000000E+01 0. -1.
         -5    1    3    3    0  502  0.33111839816E+02  0.17715790039E+02  0.40679113066E+02  0.55561887950E+02  0.47000000000E+01 0. -1.
        -11    1    4    4    0    0  0.14279267338E+02  0.21933510895E+02  0.43004411892E+02  0.50342385899E+02  0.00000000000E+00 0.  1.
         11    1    4    4    0    0  0.46189625248E+02 -0.16212237731E+02 -0.34957766118E+02  0.60152834886E+02  0.00000000000E+00 0. -1.
<mgrwt>
<rscale>  0 0.13114566E+03</rscale>
<asrwt>0</asrwt>
<pdfrwt beam="2">  1        1 0.14218213E-01 0.13897679E+03</pdfrwt>
<pdfrwt beam="1">  1       -1 0.27151948E-01 0.13897679E+03</pdfrwt>
<totfact> 0.46384796E+03</totfact>
</mgrwt>
</event>
<event>
 8    1  0.9424564E-006  0.1346819E+03  0.7546771E-02  0.1232908E+00
         -1   -1    0    0    0  501 -0.00000000000E+00  0.00000000000E+00  0.31572286705E+03  0.31572286705E+03  0.00000000000E+00 0.  1.
          1   -1    0    0  501    0  0.00000000000E+00 -0.00000000000E+00 -0.62561493526E+02  0.62561493526E+02  0.00000000000E+00 0. -1.
         23    2    1    2    0    0 -0.12682372199E+02 -0.48602141649E+02  0.23697677294E+03  0.27257514640E+03  0.12496483019E+03 0.  0.
         23    2    1    2    0    0  0.12682372199E+02  0.48602141649E+02  0.16184600585E+02  0.10570921417E+03  0.91594136974E+02 0.  0.
          5    1    3    3  502    0 -0.28266464857E+02  0.36009061704E+02  0.10877804903E+03  0.11811180936E+03  0.47000000000E+01 0. -1.
         -5    1    3    3    0  502  0.15584092659E+02 -0.84611203353E+02  0.12819872391E+03  0.15446333704E+03  0.47000000000E+01 0. -1.
        -11    1    4    4    0    0 -0.29866571976E+02  0.47148301975E+02  0.26679601306E+02  0.61860937809E+02  0.00000000000E+00 0.  1.
         11    1    4    4    0    0  0.42548944175E+02  0.14538396739E+01 -0.10495000721E+02  0.43848276366E+02  0.00000000000E+00 0. -1.
<mgrwt>
<rscale>  0 0.12639284E+03</rscale>
<asrwt>0</asrwt>
<pdfrwt beam="2">  1        1 0.96248453E-02 0.13468192E+03</pdfrwt>
<pdfrwt beam="1">  1       -1 0.48572748E-01 0.13468192E+03</pdfrwt>
<totfact> 0.28272005E+03</totfact>
</mgrwt>
</event>
<event>
 8    1  0.9424564E-006  0.1794486E+03  0.7546771E-02  0.1173891E+00
         -2   -1    0    0    0  501 -0.00000000000E+00  0.00000000000E+00  0.12384985557E+03  0.12384985557E+03  0.00000000000E+00 0. -1.
          2   -1    0    0  501    0  0.00000000000E+00 -0.00000000000E+00 -0.25216702615E+03  0.25216702615E+03  0.00000000000E+00 0.  1.
         23    2    1    2    0    0  0.14576765002E+02 -0.12793068788E+03 -0.12182386281E+02  0.17986168800E+03  0.12499229294E+03 0.  0.
         23    2    1    2    0    0 -0.14576765002E+02  0.12793068788E+03 -0.11613478430E+03  0.19615519373E+03  0.91710571489E+02 0.  0.
          5    1    3    3  502    0  0.35089855361E+02 -0.80469800107E+02  0.48174774570E+02  0.10024762134E+03  0.47000000000E+01 0.  1.
         -5    1    3    3    0  502 -0.20513090359E+02 -0.47460887777E+02 -0.60357160850E+02  0.79614066663E+02  0.47000000000E+01 0.  1.
        -11    1    4    4    0    0 -0.36104736404E+02  0.11144849307E+03 -0.55289620868E+02  0.12954250566E+03  0.00000000000E+00 0. -1.
         11    1    4    4    0    0  0.21527971402E+02  0.16482194817E+02 -0.60845163432E+02  0.66612688068E+02  0.00000000000E+00 0.  1.
<mgrwt>
<rscale>  0 0.17385012E+03</rscale>
<asrwt>0</asrwt>
<pdfrwt beam="2">  1        2 0.38794927E-01 0.17944865E+03</pdfrwt>
<pdfrwt beam="1">  1       -2 0.19053824E-01 0.17944865E+03</pdfrwt>
<totfact> 0.29581252E+03</totfact>
</mgrwt>
</event>
<event>
 8    1  0.9424564E-006  0.1397741E+03  0.7546771E-02  0.1224199E+00
          1   -1    0    0  501    0  0.00000000000E+00  0.00000000000E+00  0.88417816677E+02  0.88417816677E+02  0.00000000000E+00 0. -1.
         -1   -1    0    0    0  501 -0.00000000000E+00 -0.00000000000E+00 -0.18676099092E+03  0.18676099092E+03  0.00000000000E+00 0.  1.
         23    2    1    2    0    0  0.51826489877E+02 -0.35159659673E+02 -0.82055986510E+02  0.16208019545E+03  0.12495846555E+03 0.  0.
         23    2    1    2    0    0 -0.51826489877E+02  0.35159659673E+02 -0.16287187734E+02  0.11309861215E+03  0.92756869634E+02 0.  0.
          5    1    3    3  502    0  0.64075829789E+02 -0.31358156957E+02  0.71367495002E+01  0.71847541115E+02  0.47000000000E+01 0.  1.
         -5    1    3    3    0  502 -0.12249339912E+02 -0.38015027158E+01 -0.89192736010E+02  0.90232654334E+02  0.47000000000E+01 0.  1.
        -11    1    4    4    0    0 -0.19700838847E+02  0.35327836527E+02 -0.51465060099E+02  0.65458624305E+02  0.00000000000E+00 0.  1.
         11    1    4    4    0    0 -0.32125651029E+02 -0.16817685446E+00  0.35177872365E+02  0.47639987843E+02  0.00000000000E+00 0. -1.
<mgrwt>
<rscale>  0 0.13221987E+03</rscale>
<asrwt>0</asrwt>
<pdfrwt beam="1">  1        1 0.13602741E-01 0.13977412E+03</pdfrwt>
<pdfrwt beam="2">  1       -1 0.28732460E-01 0.13977412E+03</pdfrwt>
<totfact> 0.44730372E+03</totfact>
</mgrwt>
</event>
<event>
 8    1  0.9424564E-006  0.1658843E+03  0.7546771E-02  0.1189127E+00
         -2   -1    0    0    0  501 -0.00000000000E+00  0.00000000000E+00  0.12654397881E+03  0.12654397881E+03  0.00000000000E+00 0. -1.
          2   -1    0    0  501    0  0.00000000000E+00 -0.00000000000E+00 -0.20523313556E+03  0.20523313556E+03  0.00000000000E+00 0.  1.
         23    2    1    2    0    0  0.10604415248E+03 -0.25595583303E+02  0.64882083931E+01  0.16601112116E+03  0.12496839336E+03 0.  0.
         23    2    1    2    0    0 -0.10604415248E+03  0.25595583303E+02 -0.85177365143E+02  0.16576599322E+03  0.91228749930E+02 0.  0.
          5    1    3    3  502    0 -0.10160857734E+02 -0.43894830152E+02 -0.11939008562E+02  0.46846868299E+02  0.47000000000E+01 0. -1.
         -5    1    3    3    0  502  0.11620501022E+03  0.18299246849E+02  0.18427216955E+02  0.11916425286E+03  0.47000000000E+01 0. -1.
        -11    1    4    4    0    0 -0.11465702303E+02  0.31897881456E+02 -0.57966360513E+02  0.67149356823E+02  0.00000000000E+00 0.  1.
         11    1    4    4    0    0 -0.94578450181E+02 -0.63022981524E+01 -0.27211004631E+02  0.98616636394E+02  0.00000000000E+00 0. -1.
<mgrwt>
<rscale>  0 0.15961919E+03</rscale>
<asrwt>0</asrwt>
<pdfrwt beam="2">  1        2 0.31574328E-01 0.16588428E+03</pdfrwt>
<pdfrwt beam="1">  1       -2 0.19468305E-01 0.16588428E+03</pdfrwt>
<totfact> 0.35497929E+03</totfact>
</mgrwt>
</event>
<event>
 8    1  0.9424564E-006  0.1486014E+03  0.7546771E-02  0.1212114E+00
         -1   -1    0    0    0  501 -0.00000000000E+00  0.00000000000E+00  0.68515027797E+03  0.68515027797E+03  0.00000000000E+00 0.  1.
          1   -1    0    0  501    0  0.00000000000E+00 -0.00000000000E+00 -0.36113060381E+02  0.36113060381E+02  0.00000000000E+00 0. -1.
         23    2    1    2    0    0  0.21766325940E+01 -0.80465574222E+02  0.53633250773E+03  0.55653835507E+03  0.12491171065E+03 0.  0.
         23    2    1    2    0    0 -0.21766325940E+01  0.80465574222E+02  0.11270470986E+03  0.16472498327E+03  0.89176914762E+02 0.  0.
          5    1    3    3  502    0  0.27203159191E+02 -0.20904130037E+02  0.43431462256E+03  0.43569286877E+03  0.47000000000E+01 0.  1.
         -5    1    3    3    0  502 -0.25026526597E+02 -0.59561444185E+02  0.10201788516E+03  0.12084548631E+03  0.47000000000E+01 0.  1.
        -11    1    4    4    0    0 -0.30611134656E+02 -0.29383577415E+01  0.19257996728E+02  0.36284238302E+02  0.00000000000E+00 0.  1.
         11    1    4    4    0    0  0.28434502062E+02  0.83403931963E+02  0.93446713128E+02  0.12844074497E+03  0.00000000000E+00 0. -1.
<mgrwt>
<rscale>  0 0.14090711E+03</rscale>
<asrwt>0</asrwt>
<pdfrwt beam="2">  1        1 0.55558560E-02 0.14860142E+03</pdfrwt>
<pdfrwt beam="1">  1       -1 0.10540773E+00 0.14860142E+03</pdfrwt>
<totfact> 0.12636577E+03</totfact>
</mgrwt>
</event>
<event>
 8    1  0.9424564E-006  0.3299010E+03  0.7546771E-02  0.1072464E+00
          2   -1    0    0  501    0  0.00000000000E+00  0.00000000000E+00  0.33758450394E+03  0.33758450394E+03  0.00000000000E+00 0. -1.
         -2   -1    0    0    0  501 -0.00000000000E+00 -0.00000000000E+00 -0.32081585033E+03  0.32081585033E+03  0.00000000000E+00 0.  1.
         23    2    1    2    0    0  0.14325127159E+03 -0.26961003080E+03 -0.47976549794E+02  0.33337132317E+03  0.12499677700E+03 0.  0.
         23    2    1    2    0    0 -0.14325127159E+03  0.26961003080E+03  0.64745203409E+02  0.32502903110E+03  0.90782345041E+02 0.  0.
          5    1    3    3  502    0  0.19011134066E+02 -0.32326404032E+02 -0.53413552682E+02  0.65433303647E+02  0.47000000000E+01 0. -1.
         -5    1    3    3    0  502  0.12424013753E+03 -0.23728362677E+03  0.54370028882E+01  0.26793801953E+03  0.47000000000E+01 0. -1.
        -11    1    4    4    0    0 -0.12920616855E+03  0.24894067335E+03  0.84771534680E+02  0.29300495889E+03  0.00000000000E+00 0. -1.
         11    1    4    4    0    0 -0.14045103047E+02  0.20669357449E+02 -0.20026331271E+02  0.32024072213E+02  0.00000000000E+00 0.  1.
<mgrwt>
<rscale>  0 0.32701697E+03</rscale>
<asrwt>0</asrwt>
<pdfrwt beam="1">  1        2 0.51936078E-01 0.32990103E+03</pdfrwt>
<pdfrwt beam="2">  1       -2 0.49356284E-01 0.32990103E+03</pdfrwt>
<totfact> 0.38052933E+02</totfact>
</mgrwt>
</event>
<event>
 8    1  0.9424564E-006  0.1658747E+03  0.7546771E-02  0.1188804E+00
         -1   -1    0    0    0  501 -0.00000000000E+00  0.00000000000E+00  0.15974041750E+03  0.15974041750E+03  0.00000000000E+00 0.  1.
          1   -1    0    0  501    0  0.00000000000E+00 -0.00000000000E+00 -0.16454071922E+03  0.16454071922E+03  0.00000000000E+00 0. -1.
         23    2    1    2    0    0  0.54207834138E+02  0.94605119569E+02  0.46250355623E+02  0.17220192606E+03  0.12500316001E+03 0.  0.
         23    2    1    2    0    0 -0.54207834138E+02 -0.94605119569E+02 -0.51050657342E+02  0.15207921065E+03  0.92915546424E+02 0.  0.
          5    1    3    3  502    0 -0.27741310433E+02  0.50561890553E+02 -0.16155941889E+02  0.60076530685E+02  0.47000000000E+01 0. -1.
         -5    1    3    3    0  502  0.81949144571E+02  0.44043229016E+02  0.62406297512E+02  0.11212539537E+03  0.47000000000E+01 0. -1.
        -11    1    4    4    0    0 -0.19911181021E+02 -0.39530502470E+02 -0.71466076914E+02  0.84062571366E+02  0.00000000000E+00 0. -1.
         11    1    4    4    0    0 -0.34296653117E+02 -0.55074617099E+02  0.20415419572E+02  0.68016639287E+02  0.00000000000E+00 0.  1.
<mgrwt>
<rscale>  0 0.15990510E+03</rscale>
<asrwt>0</asrwt>
<pdfrwt beam="2">  1        1 0.25313957E-01 0.16587468E+03</pdfrwt>
<pdfrwt beam="1">  1       -1 0.24575449E-01 0.16587468E+03</pdfrwt>
<totfact> 0.26380580E+03</totfact>
</mgrwt>
</event>
<event>
 8    1  0.9424564E-006  0.1424030E+03  0.7546771E-02  0.1222281E+00
         -2   -1    0    0    0  501 -0.00000000000E+00  0.00000000000E+00  0.28840284334E+03  0.28840284334E+03  0.00000000000E+00 0. -1.
          2   -1    0    0  501    0  0.00000000000E+00 -0.00000000000E+00 -0.64495730796E+02  0.64495730796E+02  0.00000000000E+00 0.  1.
         23    2    1    2    0    0  0.38629942436E+02 -0.56230704443E+02  0.19038649375E+03  0.23775117694E+03  0.12499776221E+03 0.  0.
         23    2    1    2    0    0 -0.38629942436E+02  0.56230704443E+02  0.33520618788E+02  0.11514739719E+03  0.86493506238E+02 0.  0.
          5    1    3    3  502    0  0.70575652582E+02 -0.71646630613E+02  0.10651572850E+03  0.14656688860E+03  0.47000000000E+01 0. -1.
         -5    1    3    3    0  502 -0.31945710146E+02  0.15415926170E+02  0.83870765249E+02  0.91184288339E+02  0.47000000000E+01 0. -1.
        -11    1    4    4    0    0  0.19509103377E+02  0.42493519128E+02  0.29470411946E+02  0.55270330764E+02  0.00000000000E+00 0.  1.
         11    1    4    4    0    0 -0.58139045814E+02  0.13737185314E+02  0.40502068418E+01  0.59877066427E+02  0.00000000000E+00 0. -1.
<mgrwt>
<rscale>  0 0.13355051E+03</rscale>
<asrwt>0</asrwt>
<pdfrwt beam="2">  1        2 0.99224203E-02 0.14240297E+03</pdfrwt>
<pdfrwt beam="1">  1       -2 0.44369667E-01 0.14240297E+03</pdfrwt>
<totfact> 0.30324006E+03</totfact>
</mgrwt>
</event>
<event>
 8    1  0.9424564E-006  0.1337970E+03  0.7546771E-02  0.1234295E+00
          2   -1    0    0  501    0  0.00000000000E+00  0.00000000000E+00  0.13310288594E+03  0.13310288594E+03  0.00000000000E+00 0. -1.
         -2   -1    0    0    0  501 -0.00000000000E+00 -0.00000000000E+00 -0.17371053314E+03  0.17371053314E+03  0.00000000000E+00 0.  1.
         23    2    1    2    0    0 -0.40732852020E+02 -0.24837903087E+02 -0.11731057691E+03  0.17794214571E+03  0.12500219638E+03 0.  0.
         23    2    1    2    0    0  0.40732852020E+02  0.24837903087E+02  0.76702929718E+02  0.12887127337E+03  0.91915064104E+02 0.  0.
          5    1    3    3  502    0  0.29125146206E+02 -0.45391454945E+02 -0.78316819104E+02  0.95206472879E+02  0.47000000000E+01 0.  1.
         -5    1    3    3    0  502 -0.69857998226E+02  0.20553551858E+02 -0.38993757811E+02  0.82735672828E+02  0.47000000000E+01 0.  1.
        -11    1    4    4    0    0  0.65255700858E+02  0.22151405354E+02  0.78106897789E+02  0.10416179115E+03  0.00000000000E+00 0. -1.
         11    1    4    4    0    0 -0.24522848837E+02  0.26864977330E+01 -0.14039680713E+01  0.24709482219E+02  0.00000000000E+00 0.  1.
<mgrwt>
<rscale>  0 0.12549653E+03</rscale>
<asrwt>0</asrwt>
<pdfrwt beam="1">  1        2 0.20477367E-01 0.13379699E+03</pdfrwt>
<pdfrwt beam="2">  1       -2 0.26724697E-01 0.13379699E+03</pdfrwt>
<totfact> 0.32769652E+03</totfact>
</mgrwt>
</event>
<event>
 7    1  0.9424564E-006  0.1585320E+03  0.7546771E-02  0.1205047E+00
         -1   -1    0    0    0  501 -0.00000000000E+00  0.00000000000E+00  0.12348838759E+03  0.12348838759E+03  0.00000000000E+00 0.  1.
          1   -1    0    0  501    0  0.00000000000E+00 -0.00000000000E+00 -0.15436136134E+03  0.15436136134E+03  0.00000000000E+00 0. -1.
         23    2    1    2    0    0  0.34847322904E+02 -0.57566414727E+02  0.53832890700E+01  0.11522465153E+03  0.93378329934E+02 0.  0.
          5    1    1    2  502    0 -0.43877966141E+02  0.91034583727E+02  0.13224490374E+02  0.10202719487E+03  0.47000000000E+01 0. -1.
         -5    1    1    2    0  502  0.90306432375E+01 -0.33468169000E+02 -0.49480753196E+02  0.60597902524E+02  0.47000000000E+01 0.  1.
        -11    1    3    3    0    0  0.18853098419E+02 -0.56387864404E+02  0.43633086081E+02  0.73748740823E+02  0.00000000000E+00 0.  1.
         11    1    3    3    0    0  0.15994224485E+02 -0.11785503235E+01 -0.38249797011E+02  0.41475910709E+02  0.00000000000E+00 0. -1.
<mgrwt>
<rscale>  0 0.14633746E+03</rscale>
<asrwt>0</asrwt>
<pdfrwt beam="2">  1        1 0.23747902E-01 0.15853203E+03</pdfrwt>
<pdfrwt beam="1">  1       -1 0.18998213E-01 0.15853203E+03</pdfrwt>
<totfact> 0.43358692E+03</totfact>
</mgrwt>
</event>
<event>
 7    1  0.9424564E-006  0.3701978E+03  0.7546771E-02  0.1054617E+00
         -1   -1    0    0    0  501 -0.00000000000E+00  0.00000000000E+00  0.31320109445E+02  0.31320109445E+02  0.00000000000E+00 0.  1.
          1   -1    0    0  501    0  0.00000000000E+00 -0.00000000000E+00 -0.10939172378E+04  0.10939172378E+04  0.00000000000E+00 0. -1.
         23    2    1    2    0    0 -0.61773463887E+02 -0.55361639431E+02 -0.32177118860E+03  0.34177295916E+03  0.79944892534E+02 0.  0.
          5    1    1    2  502    0 -0.80922971245E+02 -0.23830873515E+00 -0.42223067753E+03  0.42994118099E+03  0.47000000000E+01 0. -1.
         -5    1    1    2    0  502  0.14269643513E+03  0.55599948166E+02 -0.31859526220E+03  0.35352320706E+03  0.47000000000E+01 0.  1.
        -11    1    3    3    0    0 -0.23779312237E+02 -0.72363753230E+01 -0.15210918674E+02  0.29140913939E+02  0.00000000000E+00 0.  1.
         11    1    3    3    0    0 -0.37994151650E+02 -0.48125264108E+02 -0.30656026993E+03  0.31263204523E+03  0.00000000000E+00 0. -1.
<mgrwt>
<rscale>  0 0.37019783E+03</rscale>
<asrwt>0</asrwt>
<pdfrwt beam="2">  1        1 0.16829496E+00 0.37019783E+03</pdfrwt>
<pdfrwt beam="1">  1       -1 0.48184785E-02 0.37019783E+03</pdfrwt>
<totfact> 0.25407338E+03</totfact>
</mgrwt>
</event>
<event>
 8    1  0.9424564E-006  0.1726525E+03  0.7546771E-02  0.1181829E+00
         -3   -1    0    0    0  501 -0.00000000000E+00  0.00000000000E+00  0.12803137650E+03  0.12803137650E+03  0.00000000000E+00 0.  1.
          3   -1    0    0  501    0  0.00000000000E+00 -0.00000000000E+00 -0.21691338314E+03  0.21691338314E+03  0.00000000000E+00 0. -1.
         23    2    1    2    0    0 -0.11360334270E+02 -0.11853117094E+03 -0.13379819136E+01  0.17265765936E+03  0.12502072412E+03 0.  0.
         23    2    1    2    0    0  0.11360334270E+02  0.11853117094E+03 -0.87544024726E+02  0.17228710027E+03  0.88544864193E+02 0.  0.
          5    1    3    3  502    0 -0.16756789073E+01 -0.94440526219E+02 -0.57447702612E+02  0.11065328476E+03  0.47000000000E+01 0. -1.
         -5    1    3    3    0  502 -0.96846553628E+01 -0.24090644726E+02  0.56109720699E+02  0.62004374601E+02  0.47000000000E+01 0. -1.
        -11    1    4    4    0    0  0.40647678260E+02  0.77471065122E+02 -0.23159723055E+02  0.90500676523E+02  0.00000000000E+00 0.  1.
         11    1    4    4    0    0 -0.29287343990E+02  0.41060105823E+02 -0.64384301671E+02  0.81786423750E+02  0.00000000000E+00 0. -1.
<mgrwt>
<rscale>  0 0.16623751E+03</rscale>
<asrwt>0</asrwt>
<pdfrwt beam="2">  1        3 0.33371290E-01 0.17265248E+03</pdfrwt>
<pdfrwt beam="1">  1       -3 0.19697135E-01 0.17265248E+03</pdfrwt>
<totfact> 0.48583514E+02</totfact>
</mgrwt>
</event>
<event>
 8    1  0.9424564E-006  0.1320079E+03  0.7546771E-02  0.1237255E+00
          1   -1    0    0  501    0  0.00000000000E+00  0.00000000000E+00  0.55141251712E+02  0.55141251712E+02  0.00000000000E+00 0. -1.
         -1   -1    0    0    0  501 -0.00000000000E+00 -0.00000000000E+00 -0.25587267145E+03  0.25587267145E+03  0.00000000000E+00 0.  1.
         23    2    1    2    0    0 -0.30931059220E+02  0.30353168212E+02 -0.14143459646E+03  0.19346790779E+03  0.12469178411E+03 0.  0.
         23    2    1    2    0    0  0.30931059220E+02 -0.30353168212E+02 -0.59296823278E+02  0.11754601537E+03  0.91776398019E+02 0.  0.
          5    1    3    3  502    0 -0.50994203801E+02  0.35287141089E+02 -0.15587697573E+03  0.16782524456E+03  0.47000000000E+01 0. -1.
         -5    1    3    3    0  502  0.20063144581E+02 -0.49339728777E+01  0.14442379271E+02  0.25642663236E+02  0.47000000000E+01 0. -1.
        -11    1    4    4    0    0  0.40798180744E+02 -0.51564055550E+02 -0.14984902903E+02  0.67438050771E+02  0.00000000000E+00 0. -1.
         11    1    4    4    0    0 -0.98671215233E+01  0.21210887339E+02 -0.44311920375E+02  0.50107964598E+02  0.00000000000E+00 0.  1.
<mgrwt>
<rscale>  0 0.12361171E+03</rscale>
<asrwt>0</asrwt>
<pdfrwt beam="1">  1        1 0.84832696E-02 0.13200790E+03</pdfrwt>
<pdfrwt beam="2">  1       -1 0.39365026E-01 0.13200790E+03</pdfrwt>
<totfact> 0.48569787E+03</totfact>
</mgrwt>
</event>
<event>
 8    1  0.9424564E-006  0.1586536E+03  0.7546771E-02  0.1197728E+00
          2   -1    0    0  501    0  0.00000000000E+00  0.00000000000E+00  0.31875086281E+03  0.31875086281E+03  0.00000000000E+00 0. -1.
         -2   -1    0    0    0  501 -0.00000000000E+00 -0.00000000000E+00 -0.76140406429E+02  0.76140406429E+02  0.00000000000E+00 0.  1.
         23    2    1    2    0    0 -0.56772025820E+01  0.97508516693E+02  0.63567611841E+02  0.17091459468E+03  0.12502326160E+03 0.  0.
         23    2    1    2    0    0  0.56772025820E+01 -0.97508516693E+02  0.17904284454E+03  0.22397667457E+03  0.92569266559E+02 0.  0.
          5    1    3    3  502    0 -0.60700163768E+01 -0.24070506847E+02  0.39496302162E+02  0.46885843100E+02  0.47000000000E+01 0. -1.
         -5    1    3    3    0  502  0.39281379481E+00  0.12157902354E+03  0.24071309679E+02  0.12402875158E+03  0.47000000000E+01 0. -1.
        -11    1    4    4    0    0  0.28756347521E+02 -0.33294620311E+02  0.13685572863E+03  0.14375308596E+03  0.00000000000E+00 0. -1.
         11    1    4    4    0    0 -0.23079144939E+02 -0.64213896383E+02  0.42187115912E+02  0.80223588605E+02  0.00000000000E+00 0.  1.
<mgrwt>
<rscale>  0 0.15225615E+03</rscale>
<asrwt>0</asrwt>
<pdfrwt beam="1">  1        2 0.49038593E-01 0.15865358E+03</pdfrwt>
<pdfrwt beam="2">  1       -2 0.11713909E-01 0.15865358E+03</pdfrwt>
<totfact> 0.50918072E+03</totfact>
</mgrwt>
</event>
<event>
 8    1  0.9424564E-006  0.1289009E+03  0.7546771E-02  0.1236005E+00
         -2   -1    0    0    0  501 -0.00000000000E+00  0.00000000000E+00  0.62844822478E+03  0.62844822478E+03  0.00000000000E+00 0.  1.
          2   -1    0    0  501    0  0.00000000000E+00 -0.00000000000E+00 -0.23077073464E+02  0.23077073464E+02  0.00000000000E+00 0. -1.
         23    2    1    2    0    0  0.12990969637E+02  0.63904228019E+02  0.31373834664E+03  0.33918608049E+03  0.11118871974E+03 0.  0.
         23    2    1    2    0    0 -0.12990969637E+02 -0.63904228019E+02  0.29163280468E+03  0.31233921776E+03  0.90849207650E+02 0.  0.
          5    1    3    3  502    0  0.20574324963E+02 -0.16100767046E+02  0.16535327138E+02  0.31273704461E+02  0.47000000000E+01 0. -1.
         -5    1    3    3    0  502 -0.75833553255E+01  0.80004995065E+02  0.29720301950E+03  0.30791237603E+03  0.47000000000E+01 0.  1.
        -11    1    4    4    0    0 -0.45369177090E+02 -0.65137548779E+02  0.20287357118E+03  0.21785074793E+03  0.00000000000E+00 0. -1.
         11    1    4    4    0    0  0.32378207453E+02  0.12333207601E+01  0.88759233506E+02  0.94488469829E+02  0.00000000000E+00 0.  1.
<mgrwt>
<rscale>  0 0.12440339E+03</rscale>
<asrwt>0</asrwt>
<pdfrwt beam="2">  1        2 0.35503195E-02 0.12890092E+03</pdfrwt>
<pdfrwt beam="1">  1       -2 0.96684329E-01 0.12890092E+03</pdfrwt>
<totfact> 0.22052682E+03</totfact>
</mgrwt>
</event>
<event>
 8    1  0.9424564E-006  0.2769574E+03  0.7546771E-02  0.1099037E+00
         -2   -1    0    0    0  501 -0.00000000000E+00  0.00000000000E+00  0.51649837460E+02  0.51649837460E+02  0.00000000000E+00 0.  1.
          2   -1    0    0  501    0  0.00000000000E+00 -0.00000000000E+00 -0.14600898240E+04  0.14600898240E+04  0.00000000000E+00 0. -1.
         23    2    1    2    0    0  0.23556867738E+03 -0.74755445438E+02 -0.84054380275E+03  0.88499676347E+03  0.12499763444E+03 0.  0.
         23    2    1    2    0    0 -0.23556867738E+03  0.74755445438E+02 -0.56789618376E+03  0.62674289797E+03  0.96018780642E+02 0.  0.
          5    1    3    3  502    0 -0.91073245646E+01 -0.39858773904E+01 -0.12453497846E+03  0.12501952423E+03  0.47000000000E+01 0. -1.
         -5    1    3    3    0  502  0.24467600195E+03 -0.70769568047E+02 -0.71600882429E+03  0.75997723923E+03  0.47000000000E+01 0. -1.
        -11    1    4    4    0    0 -0.33654431113E+02  0.47572233417E+02 -0.89846425130E+02  0.10708930028E+03  0.00000000000E+00 0.  1.
         11    1    4    4    0    0 -0.20191424627E+03  0.27183212021E+02 -0.47804975863E+03  0.51965359769E+03  0.00000000000E+00 0. -1.
<mgrwt>
<rscale>  0 0.27395521E+03</rscale>
<asrwt>0</asrwt>
<pdfrwt beam="2">  1        2 0.22462922E+00 0.27695737E+03</pdfrwt>
<pdfrwt beam="1">  1       -2 0.79461282E-02 0.27695737E+03</pdfrwt>
<totfact> 0.13708444E+03</totfact>
</mgrwt>
</event>
<event>
 8    1  0.9424564E-006  0.1540208E+03  0.7546771E-02  0.1204230E+00
          1   -1    0    0  501    0  0.00000000000E+00  0.00000000000E+00  0.58798854039E+03  0.58798854039E+03  0.00000000000E+00 0. -1.
         -1   -1    0    0    0  501 -0.00000000000E+00 -0.00000000000E+00 -0.33917638092E+02  0.33917638092E+02  0.00000000000E+00 0.  1.
         23    2    1    2    0    0 -0.88474414446E+02  0.16433386110E+02  0.28129460304E+03  0.32070090858E+03  0.12499856348E+03 0.  0.
         23    2    1    2    0    0  0.88474414446E+02 -0.16433386110E+02  0.27277629926E+03  0.30120526990E+03  0.90663813014E+02 0.  0.
          5    1    3    3  502    0 -0.38415723353E+02 -0.37185074762E+02  0.21539412618E+03  0.22198021799E+03  0.47000000000E+01 0. -1.
         -5    1    3    3    0  502 -0.50058691093E+02  0.53618460872E+02  0.65900476864E+02  0.98720690593E+02  0.47000000000E+01 0. -1.
        -11    1    4    4    0    0  0.35918137653E+02  0.11359259394E+02  0.22315559143E+02  0.43785038156E+02  0.00000000000E+00 0.  1.
         11    1    4    4    0    0  0.52556276794E+02 -0.27792645504E+02  0.25046074011E+03  0.25742023175E+03  0.00000000000E+00 0. -1.
<mgrwt>
<rscale>  0 0.14698296E+03</rscale>
<asrwt>0</asrwt>
<pdfrwt beam="1">  1        1 0.90459768E-01 0.15402084E+03</pdfrwt>
<pdfrwt beam="2">  1       -1 0.52180986E-02 0.15402084E+03</pdfrwt>
<totfact> 0.57947088E+03</totfact>
</mgrwt>
</event>
<event>
 8    1  0.9424564E-006  0.1333863E+03  0.7546771E-02  0.1237712E+00
         -2   -1    0    0    0  501 -0.00000000000E+00  0.00000000000E+00  0.18507367366E+02  0.18507367366E+02  0.00000000000E+00 0.  1.
          2   -1    0    0  501    0  0.00000000000E+00 -0.00000000000E+00 -0.75300214417E+03  0.75300214417E+03  0.00000000000E+00 0. -1.
         23    2    1    2    0    0 -0.11579893269E+02 -0.45077130060E+02 -0.50182786699E+03  0.51925245995E+03  0.12500346992E+03 0.  0.
         23    2    1    2    0    0  0.11579893269E+02  0.45077130060E+02 -0.23266690981E+03  0.25225705159E+03  0.85636952136E+02 0.  0.
          5    1    3    3  502    0 -0.13365680887E+02 -0.77992772107E+02 -0.45464376142E+03  0.46150249590E+03  0.47000000000E+01 0. -1.
         -5    1    3    3    0  502  0.17857876173E+01  0.32915642047E+02 -0.47184105575E+02  0.57749964049E+02  0.47000000000E+01 0. -1.
        -11    1    4    4    0    0  0.36606176746E+02  0.29119776161E+02 -0.55326236435E+02  0.72449747948E+02  0.00000000000E+00 0.  1.
         11    1    4    4    0    0 -0.25026283476E+02  0.15957353899E+02 -0.17734067338E+03  0.17980730364E+03  0.00000000000E+00 0. -1.
<mgrwt>
<rscale>  0 0.12332393E+03</rscale>
<asrwt>0</asrwt>
<pdfrwt beam="2">  1        2 0.11584648E+00 0.13338632E+03</pdfrwt>
<pdfrwt beam="1">  1       -2 0.28472875E-02 0.13338632E+03</pdfrwt>
<totfact> 0.16652565E+04</totfact>
</mgrwt>
</event>
<event>
 8    1  0.9424564E-006  0.1596244E+03  0.7546771E-02  0.1196610E+00
         -2   -1    0    0    0  501 -0.00000000000E+00  0.00000000000E+00  0.12004447371E+03  0.12004447371E+03  0.00000000000E+00 0. -1.
          2   -1    0    0  501    0  0.00000000000E+00 -0.00000000000E+00 -0.22128545410E+03  0.22128545410E+03  0.00000000000E+00 0.  1.
         23    2    1    2    0    0 -0.82697963957E+02  0.54934198850E+02  0.18361052692E+02  0.16067696483E+03  0.12499295710E+03 0.  0.
         23    2    1    2    0    0  0.82697963957E+02 -0.54934198850E+02 -0.11960203308E+03  0.18065296298E+03  0.92055023063E+02 0.  0.
          5    1    3    3  502    0  0.11714415987E+02  0.21407609906E+02  0.49724537734E+02  0.55588964342E+02  0.47000000000E+01 0. -1.
         -5    1    3    3    0  502 -0.94412379944E+02  0.33526588944E+02 -0.31363485042E+02  0.10508800049E+03  0.47000000000E+01 0. -1.
        -11    1    4    4    0    0 -0.15951430046E+02  0.64759910103E+01 -0.62333775889E+01  0.18309603389E+02  0.00000000000E+00 0. -1.
         11    1    4    4    0    0  0.98649394004E+02 -0.61410189860E+02 -0.11336865549E+03  0.16234335959E+03  0.00000000000E+00 0.  1.
<mgrwt>
<rscale>  0 0.15318715E+03</rscale>
<asrwt>0</asrwt>
<pdfrwt beam="2">  1        2 0.34043916E-01 0.15962443E+03</pdfrwt>
<pdfrwt beam="1">  1       -2 0.18468381E-01 0.15962443E+03</pdfrwt>
<totfact> 0.35700013E+03</totfact>
</mgrwt>
</event>
<event>
 8    1  0.9424564E-006  0.2074936E+03  0.7546771E-02  0.1147687E+00
          1   -1    0    0  501    0  0.00000000000E+00  0.00000000000E+00  0.17342242120E+04  0.17342242120E+04  0.00000000000E+00 0. -1.
         -1   -1    0    0    0  501 -0.00000000000E+00 -0.00000000000E+00 -0.22760956231E+02  0.22760956231E+02  0.00000000000E+00 0.  1.
         23    2    1    2    0    0 -0.81402921134E+02 -0.14429575126E+03  0.81375008703E+03  0.83978734158E+03  0.12492347873E+03 0.  0.
         23    2    1    2    0    0  0.81402921134E+02  0.14429575126E+03  0.89771316873E+03  0.91719782664E+03  0.88967524890E+02 0.  0.
          5    1    3    3  502    0 -0.43227295539E+02 -0.27375923971E+02  0.75366523517E+02  0.91215366906E+02  0.47000000000E+01 0.  1.
         -5    1    3    3    0  502 -0.38175625595E+02 -0.11691982728E+03  0.73838356351E+03  0.74857197467E+03  0.47000000000E+01 0.  1.
        -11    1    4    4    0    0  0.40395330580E+02  0.81550828973E+01  0.12824500274E+03  0.13470363335E+03  0.00000000000E+00 0.  1.
         11    1    4    4    0    0  0.41007590554E+02  0.13614066836E+03  0.76946816599E+03  0.78249419329E+03  0.00000000000E+00 0. -1.
<mgrwt>
<rscale>  0 0.20245195E+03</rscale>
<asrwt>0</asrwt>
<pdfrwt beam="1">  1        1 0.26680362E+00 0.20749355E+03</pdfrwt>
<pdfrwt beam="2">  1       -1 0.35016869E-02 0.20749355E+03</pdfrwt>
<totfact> 0.15098456E+03</totfact>
</mgrwt>
</event>
<event>
 8    1  0.9424564E-006  0.1702741E+03  0.7546771E-02  0.1184243E+00
          2   -1    0    0  501    0  0.00000000000E+00  0.00000000000E+00  0.99051506698E+02  0.99051506698E+02  0.00000000000E+00 0. -1.
         -2   -1    0    0    0  501 -0.00000000000E+00 -0.00000000000E+00 -0.25546121231E+03  0.25546121231E+03  0.00000000000E+00 0.  1.
         23    2    1    2    0    0  0.11527788628E+03  0.90052032892E+01 -0.10000770149E+03  0.19747102390E+03  0.12499272047E+03 0.  0.
         23    2    1    2    0    0 -0.11527788628E+03 -0.90052032892E+01 -0.56402004118E+02  0.15704169511E+03  0.90060108714E+02 0.  0.
          5    1    3    3  502    0  0.11982837174E+03 -0.33250380450E+02 -0.89936965381E+02  0.15354209265E+03  0.47000000000E+01 0. -1.
         -5    1    3    3    0  502 -0.45504854552E+01  0.42255583739E+02 -0.10070736114E+02  0.43928931251E+02  0.47000000000E+01 0. -1.
        -11    1    4    4    0    0 -0.90784845533E+02  0.20932774228E+02 -0.57975573381E+01  0.93347098972E+02  0.00000000000E+00 0. -1.
         11    1    4    4    0    0 -0.24493040749E+02 -0.29937977517E+02 -0.50604446780E+02  0.63694596135E+02  0.00000000000E+00 0.  1.
<mgrwt>
<rscale>  0 0.16400912E+03</rscale>
<asrwt>0</asrwt>
<pdfrwt beam="1">  1        2 0.15238693E-01 0.17027409E+03</pdfrwt>
<pdfrwt beam="2">  1       -2 0.39301725E-01 0.17027409E+03</pdfrwt>
<totfact> 0.23037207E+03</totfact>
</mgrwt>
</event>
<event>
 8    1  0.9424564E-006  0.2531385E+03  0.7546771E-02  0.1113798E+00
          3   -1    0    0  501    0  0.00000000000E+00  0.00000000000E+00  0.18775039642E+03  0.18775039642E+03  0.00000000000E+00 0. -1.
         -3   -1    0    0    0  501 -0.00000000000E+00 -0.00000000000E+00 -0.36702633723E+03  0.36702633723E+03  0.00000000000E+00 0.  1.
         23    2    1    2    0    0 -0.21086921460E+03 -0.63157188087E+02 -0.19030066824E+03  0.31669141577E+03  0.12499780966E+03 0.  0.
         23    2    1    2    0    0  0.21086921460E+03  0.63157188087E+02  0.11024727424E+02  0.23808531788E+03  0.90046753971E+02 0.  0.
          5    1    3    3  502    0 -0.93624790096E+01 -0.27010360158E+02 -0.77859977024E+02  0.83075156282E+02  0.47000000000E+01 0. -1.
         -5    1    3    3    0  502 -0.20150673559E+03 -0.36146827929E+02 -0.11244069122E+03  0.23361625949E+03  0.47000000000E+01 0. -1.
        -11    1    4    4    0    0  0.17135886450E+03  0.66495560491E+02  0.41064913819E+02  0.18833971210E+03  0.00000000000E+00 0. -1.
         11    1    4    4    0    0  0.39510350105E+02 -0.33383724039E+01 -0.30040186395E+02  0.49745605779E+02  0.00000000000E+00 0.  1.
<mgrwt>
<rscale>  0 0.24922138E+03</rscale>
<asrwt>0</asrwt>
<pdfrwt beam="1">  1        3 0.28884677E-01 0.25313852E+03</pdfrwt>
<pdfrwt beam="2">  1       -3 0.56465590E-01 0.25313852E+03</pdfrwt>
<totfact> 0.89499614E+01</totfact>
</mgrwt>
</event>
<event>
 8    1  0.9424564E-006  0.1314944E+03  0.7546771E-02  0.1225789E+00
         -1   -1    0    0    0  501 -0.00000000000E+00  0.00000000000E+00  0.45868449208E+03  0.45868449208E+03  0.00000000000E+00 0.  1.
          1   -1    0    0  501    0  0.00000000000E+00 -0.00000000000E+00 -0.63324742779E+02  0.63324742779E+02  0.00000000000E+00 0. -1.
         23    2    1    2    0    0  0.36813857285E+02 -0.17633275898E+02  0.36570746294E+03  0.38862929235E+03  0.12499834365E+03 0.  0.
         23    2    1    2    0    0 -0.36813857285E+02  0.17633275898E+02  0.29652286362E+02  0.13337994251E+03  0.12346966620E+03 0.  0.
          5    1    3    3  502    0  0.27132225998E+02  0.53168633861E+02  0.16520350021E+03  0.17571951456E+03  0.47000000000E+01 0.  1.
         -5    1    3    3    0  502  0.96816312872E+01 -0.70801909759E+02  0.20050396273E+03  0.21290977779E+03  0.47000000000E+01 0.  1.
        -11    1    4    4    0    0  0.38668679704E+01 -0.47432277942E+02  0.30706945329E+02  0.56636473673E+02  0.00000000000E+00 0.  1.
         11    1    4    4    0    0 -0.40680725256E+02  0.65065553840E+02 -0.10546589663E+01  0.76743468838E+02  0.00000000000E+00 0. -1.
<mgrwt>
<rscale>  0 0.13112982E+03</rscale>
<asrwt>0</asrwt>
<pdfrwt beam="2">  1        1 0.97422684E-02 0.13149440E+03</pdfrwt>
<pdfrwt beam="1">  1       -1 0.70566843E-01 0.13149440E+03</pdfrwt>
<totfact> 0.13719799E+03</totfact>
</mgrwt>
</event>
<event>
 8    1  0.9424564E-006  0.1259827E+03  0.7546771E-02  0.1243338E+00
          2   -1    0    0  501    0  0.00000000000E+00  0.00000000000E+00  0.33118729922E+03  0.33118729922E+03  0.00000000000E+00 0. -1.
         -2   -1    0    0    0  501 -0.00000000000E+00 -0.00000000000E+00 -0.39674785111E+02  0.39674785111E+02  0.00000000000E+00 0.  1.
         23    2    1    2    0    0 -0.14677120927E+02 -0.52746921447E+01  0.15552586528E+03  0.20014975317E+03  0.12501355392E+03 0.  0.
         23    2    1    2    0    0  0.14677120927E+02  0.52746921447E+01  0.13598664883E+03  0.17071233117E+03  0.10201515131E+03 0.  0.
          5    1    3    3  502    0  0.46931922214E+02 -0.57436516640E+01  0.20678516965E+02  0.51819744509E+02  0.47000000000E+01 0. -1.
         -5    1    3    3    0  502 -0.61609043141E+02  0.46895951927E+00  0.13484734832E+03  0.14833000866E+03  0.47000000000E+01 0. -1.
        -11    1    4    4    0    0  0.44238103919E+02 -0.82250027548E+01  0.18221739317E+02  0.48545775228E+02  0.00000000000E+00 0. -1.
         11    1    4    4    0    0 -0.29560982992E+02  0.13499694900E+02  0.11776490951E+03  0.12216655594E+03  0.00000000000E+00 0.  1.
<mgrwt>
<rscale>  0 0.11985425E+03</rscale>
<asrwt>0</asrwt>
<pdfrwt beam="1">  1        2 0.50951890E-01 0.12598265E+03</pdfrwt>
<pdfrwt beam="2">  1       -2 0.61038133E-02 0.12598265E+03</pdfrwt>
<totfact> 0.13251060E+04</totfact>
</mgrwt>
</event>
<event>
 8    1  0.9424564E-006  0.1868746E+03  0.7546771E-02  0.1166456E+00
         -2   -1    0    0    0  501 -0.00000000000E+00  0.00000000000E+00  0.91113554894E+02  0.91113554894E+02  0.00000000000E+00 0. -1.
          2   -1    0    0  501    0  0.00000000000E+00 -0.00000000000E+00 -0.34196279234E+03  0.34196279234E+03  0.00000000000E+00 0.  1.
         23    2    1    2    0    0  0.34990882686E+02  0.13443573780E+03 -0.12494044537E+03  0.22479371555E+03  0.12499908078E+03 0.  0.
         23    2    1    2    0    0 -0.34990882686E+02 -0.13443573780E+03 -0.12590879208E+03  0.20828263168E+03  0.90726519111E+02 0.  0.
          5    1    3    3  502    0  0.50844214388E+02  0.12292901107E+03 -0.42207169966E+02  0.13964315628E+03  0.47000000000E+01 0.  1.
         -5    1    3    3    0  502 -0.15853331702E+02  0.11506726728E+02 -0.82733275401E+02  0.85150559273E+02  0.47000000000E+01 0.  1.
        -11    1    4    4    0    0  0.19288387687E+01 -0.25001368564E+02 -0.80274009561E+02  0.84099378476E+02  0.00000000000E+00 0.  1.
         11    1    4    4    0    0 -0.36919721455E+02 -0.10943436923E+03 -0.45634782517E+02  0.12418325321E+03  0.00000000000E+00 0. -1.
<mgrwt>
<rscale>  0 0.18139934E+03</rscale>
<asrwt>0</asrwt>
<pdfrwt beam="2">  1        2 0.52609660E-01 0.18687456E+03</pdfrwt>
<pdfrwt beam="1">  1       -2 0.14017470E-01 0.18687456E+03</pdfrwt>
<totfact> 0.35613420E+03</totfact>
</mgrwt>
</event>
<event>
 8    1  0.9424564E-006  0.1312378E+03  0.7546771E-02  0.1239157E+00
          1   -1    0    0  501    0  0.00000000000E+00  0.00000000000E+00  0.16126614261E+03  0.16126614261E+03  0.00000000000E+00 0. -1.
         -1   -1    0    0    0  501 -0.00000000000E+00 -0.00000000000E+00 -0.84772863083E+02  0.84772863083E+02  0.00000000000E+00 0.  1.
         23    2    1    2    0    0 -0.38694763603E+02 -0.98708485245E+01  0.23160993660E+02  0.13326589325E+03  0.12501459234E+03 0.  0.
         23    2    1    2    0    0  0.38694763603E+02  0.98708485245E+01  0.53332285871E+02  0.11277311244E+03  0.90987492508E+02 0.  0.
          5    1    3    3  502    0  0.17197421073E+01  0.37184831824E+02  0.52466600547E+02  0.64501964339E+02  0.47000000000E+01 0.  1.
         -5    1    3    3    0  502 -0.40414505710E+02 -0.47055680349E+02 -0.29305606887E+02  0.68763928915E+02  0.47000000000E+01 0.  1.
        -11    1    4    4    0    0  0.15469705833E+02  0.13233111794E+02  0.76879339240E+02  0.79528987472E+02  0.00000000000E+00 0. -1.
         11    1    4    4    0    0  0.23225057770E+02 -0.33622632693E+01 -0.23547053369E+02  0.33244124971E+02  0.00000000000E+00 0.  1.
<mgrwt>
<rscale>  0 0.12242013E+03</rscale>
<asrwt>0</asrwt>
<pdfrwt beam="1">  1        1 0.24810176E-01 0.13123782E+03</pdfrwt>
<pdfrwt beam="2">  1       -1 0.13041979E-01 0.13123782E+03</pdfrwt>
<totfact> 0.73349870E+03</totfact>
</mgrwt>
</event>
<event>
 8    1  0.9424564E-006  0.1703946E+03  0.7546771E-02  0.1186539E+00
          2   -1    0    0  501    0  0.00000000000E+00  0.00000000000E+00  0.90636209365E+03  0.90636209365E+03  0.00000000000E+00 0. -1.
         -2   -1    0    0    0  501 -0.00000000000E+00 -0.00000000000E+00 -0.35422882048E+02  0.35422882048E+02  0.00000000000E+00 0.  1.
         23    2    1    2    0    0 -0.49193734514E+02 -0.10483239915E+03  0.23166657795E+03  0.28758253389E+03  0.12499782010E+03 0.  0.
         23    2    1    2    0    0  0.49193734514E+02  0.10483239915E+03  0.63927263364E+03  0.65420244180E+03  0.76821086332E+02 0.  0.
          5    1    3    3  502    0 -0.16007093386E+02 -0.67982016822E+02  0.22700372977E+03  0.23755118391E+03  0.47000000000E+01 0. -1.
         -5    1    3    3    0  502 -0.33186641128E+02 -0.36850382331E+02  0.46628481843E+01  0.50031349977E+02  0.47000000000E+01 0. -1.
        -11    1    4    4    0    0  0.27134362758E+02 -0.41703302379E+01  0.11025970308E+03  0.11362599799E+03  0.00000000000E+00 0.  1.
         11    1    4    4    0    0  0.22059371757E+02  0.10900272939E+03  0.52901293056E+03  0.54057644381E+03  0.00000000000E+00 0. -1.
<mgrwt>
<rscale>  0 0.16192666E+03</rscale>
<asrwt>0</asrwt>
<pdfrwt beam="1">  1        2 0.13944030E+00 0.17039457E+03</pdfrwt>
<pdfrwt beam="2">  1       -2 0.54496748E-02 0.17039457E+03</pdfrwt>
<totfact> 0.50738229E+03</totfact>
</mgrwt>
</event>
<event>
 8    1  0.9424564E-006  0.1417232E+03  0.7546771E-02  0.1222096E+00
         -2   -1    0    0    0  501 -0.00000000000E+00  0.00000000000E+00  0.74869454243E+02  0.74869454243E+02  0.00000000000E+00 0.  1.
          2   -1    0    0  501    0  0.00000000000E+00 -0.00000000000E+00 -0.21615840252E+03  0.21615840252E+03  0.00000000000E+00 0. -1.
         23    2    1    2    0    0  0.61096210213E+02 -0.26983496540E+02 -0.88075922345E+02  0.16686173219E+03  0.12499845433E+03 0.  0.
         23    2    1    2    0    0 -0.61096210213E+02  0.26983496540E+02 -0.53213025928E+02  0.12416612457E+03  0.90137363914E+02 0.  0.
          5    1    3    3  502    0 -0.23254946871E+02 -0.44241854343E+02 -0.11412696553E+02  0.51482753154E+02  0.47000000000E+01 0. -1.
         -5    1    3    3    0  502  0.84351157084E+02  0.17258357803E+02 -0.76663225792E+02  0.11537897904E+03  0.47000000000E+01 0. -1.
        -11    1    4    4    0    0 -0.36347780956E+02  0.55342529025E+02 -0.55587630467E+02  0.86451959840E+02  0.00000000000E+00 0. -1.
         11    1    4    4    0    0 -0.24748429256E+02 -0.28359032485E+02  0.23746045391E+01  0.37714164725E+02  0.00000000000E+00 0.  1.
<mgrwt>
<rscale>  0 0.13367955E+03</rscale>
<asrwt>0</asrwt>
<pdfrwt beam="2">  1        2 0.33255138E-01 0.14172321E+03</pdfrwt>
<pdfrwt beam="1">  1       -2 0.11518378E-01 0.14172321E+03</pdfrwt>
<totfact> 0.78623499E+03</totfact>
</mgrwt>
</event>
<event>
 8    1  0.9424564E-006  0.2014375E+03  0.7546771E-02  0.1153005E+00
         -3   -1    0    0    0  501 -0.00000000000E+00  0.00000000000E+00  0.11490875107E+04  0.11490875107E+04  0.00000000000E+00 0.  1.
          3   -1    0    0  501    0  0.00000000000E+00 -0.00000000000E+00 -0.32246566928E+02  0.32246566928E+02  0.00000000000E+00 0. -1.
         23    2    1    2    0    0  0.14132545815E+03  0.70564980290E+02  0.65256668021E+03  0.68294973452E+03  0.12499906478E+03 0.  0.
         23    2    1    2    0    0 -0.14132545815E+03 -0.70564980290E+02  0.46427426356E+03  0.49838434310E+03  0.88792229849E+02 0.  0.
          5    1    3    3  502    0 -0.67158625994E+01 -0.22989359869E+02  0.11484487459E+03  0.11740974702E+03  0.47000000000E+01 0. -1.
         -5    1    3    3    0  502  0.14804132075E+03  0.93554340159E+02  0.53772180562E+03  0.56553998749E+03  0.47000000000E+01 0. -1.
        -11    1    4    4    0    0 -0.83905031963E+02  0.70573231217E+01  0.23395293586E+03  0.24864399529E+03  0.00000000000E+00 0.  1.
         11    1    4    4    0    0 -0.57420426192E+02 -0.77622303411E+02  0.23032132770E+03  0.24974034781E+03  0.00000000000E+00 0. -1.
<mgrwt>
<rscale>  0 0.19617769E+03</rscale>
<asrwt>0</asrwt>
<pdfrwt beam="2">  1        3 0.49610112E-02 0.20143750E+03</pdfrwt>
<pdfrwt beam="1">  1       -3 0.17678266E+00 0.20143750E+03</pdfrwt>
<totfact> 0.12643404E+02</totfact>
</mgrwt>
</event>
<event>
 8    1  0.9424564E-006  0.1465480E+03  0.7546771E-02  0.1214365E+00
          1   -1    0    0  501    0  0.00000000000E+00  0.00000000000E+00  0.48611491206E+03  0.48611491206E+03  0.00000000000E+00 0. -1.
         -1   -1    0    0    0  501 -0.00000000000E+00 -0.00000000000E+00 -0.56807990152E+02  0.56807990152E+02  0.00000000000E+00 0.  1.
         23    2    1    2    0    0  0.75640954979E+02  0.11256566016E+02  0.66423260307E+02  0.16089857559E+03  0.12501215049E+03 0.  0.
         23    2    1    2    0    0 -0.75640954979E+02 -0.11256566016E+02  0.36288366160E+03  0.38202432662E+03  0.91704797711E+02 0.  0.
          5    1    3    3  502    0 -0.33602456800E+02  0.96521040841E+01  0.27830198077E+02  0.44932150419E+02  0.47000000000E+01 0. -1.
         -5    1    3    3    0  502  0.10924341178E+03  0.16044619314E+01  0.38593062230E+02  0.11596642517E+03  0.47000000000E+01 0. -1.
        -11    1    4    4    0    0 -0.48137406498E+02  0.20101458476E+02  0.31152166738E+03  0.31585918981E+03  0.00000000000E+00 0. -1.
         11    1    4    4    0    0 -0.27503548481E+02 -0.31358024492E+02  0.51361994214E+02  0.66165136807E+02  0.00000000000E+00 0.  1.
<mgrwt>
<rscale>  0 0.13923303E+03</rscale>
<asrwt>0</asrwt>
<pdfrwt beam="1">  1        1 0.74786907E-01 0.14654795E+03</pdfrwt>
<pdfrwt beam="2">  1       -1 0.87396911E-02 0.14654795E+03</pdfrwt>
<totfact> 0.34318560E+03</totfact>
</mgrwt>
</event>
<event>
 8    1  0.9424564E-006  0.1508400E+03  0.7546771E-02  0.1208663E+00
          3   -1    0    0  501    0  0.00000000000E+00  0.00000000000E+00  0.18448542214E+03  0.18448542214E+03  0.00000000000E+00 0. -1.
         -3   -1    0    0    0  501 -0.00000000000E+00 -0.00000000000E+00 -0.15668781496E+03  0.15668781496E+03  0.00000000000E+00 0.  1.
         23    2    1    2    0    0  0.18994060993E+02 -0.82265927564E+02 -0.85574722410E+02  0.17342357253E+03  0.12499698078E+03 0.  0.
         23    2    1    2    0    0 -0.18994060993E+02  0.82265927564E+02  0.11337232959E+03  0.16774966456E+03  0.90322796973E+02 0.  0.
          5    1    3    3  502    0  0.54025581964E+02 -0.75593002061E+01 -0.41768895266E+00  0.54755556706E+02  0.47000000000E+01 0. -1.
         -5    1    3    3    0  502 -0.35031520971E+02 -0.74706627358E+02 -0.85157033457E+02  0.11866801583E+03  0.47000000000E+01 0. -1.
        -11    1    4    4    0    0  0.29506597689E+02  0.45383905888E+02  0.23139083031E+02  0.58870666586E+02  0.00000000000E+00 0.  1.
         11    1    4    4    0    0 -0.48500658682E+02  0.36882021676E+02  0.90233246558E+02  0.10887899797E+03  0.00000000000E+00 0. -1.
<mgrwt>
<rscale>  0 0.14352464E+03</rscale>
<asrwt>0</asrwt>
<pdfrwt beam="1">  1        3 0.28382373E-01 0.15083999E+03</pdfrwt>
<pdfrwt beam="2">  1       -3 0.24105818E-01 0.15083999E+03</pdfrwt>
<totfact> 0.44999852E+02</totfact>
</mgrwt>
</event>
<event>
 7    1  0.1129359E-005  0.3936338E+03  0.7546771E-02  0.1046007E+00
         -3   -1    0    0    0  501 -0.00000000000E+00  0.00000000000E+00  0.47023090986E+02  0.47023090986E+02  0.00000000000E+00 0.  1.
          3   -1    0    0  501    0  0.00000000000E+00 -0.00000000000E+00 -0.82378464179E+03  0.82378464179E+03  0.00000000000E+00 0. -1.
         23    2    1    2    0    0 -0.11396700149E+03 -0.33135720971E+02 -0.26298473123E+03  0.31443937277E+03  0.12499878743E+03 0.  0.
          5    1    3    3  502    0 -0.11418672379E+03  0.21557184999E+01 -0.25274834892E+03  0.27739335409E+03  0.47000000000E+01 0.  1.
         -5    1    3    3    0  502  0.21972229828E+00 -0.35291439471E+02 -0.10236382310E+02  0.37046018688E+02  0.47000000000E+01 0.  1.
        -11    1    1    2    0    0  0.11501557635E+03 -0.27474326050E+02 -0.16875841879E+03  0.20606509968E+03  0.00000000000E+00 0.  1.
         11    1    1    2    0    0 -0.10485748569E+01  0.60610047021E+02 -0.34501840079E+03  0.35030326032E+03  0.00000000000E+00 0. -1.
<mgrwt>
<rscale>  0 0.39363384E+03</rscale>
<asrwt>0</asrwt>
<pdfrwt beam="2">  1        3 0.12673610E+00 0.39363384E+03</pdfrwt>
<pdfrwt beam="1">  1       -3 0.72343219E-02 0.39363384E+03</pdfrwt>
<totfact> 0.16914548E+02</totfact>
</mgrwt>
</event>
<event>
 8    1  0.9424564E-006  0.2221798E+03  0.7546771E-02  0.1135494E+00
         -1   -1    0    0    0  501 -0.00000000000E+00  0.00000000000E+00  0.47487888258E+03  0.47487888258E+03  0.00000000000E+00 0.  1.
          1   -1    0    0  501    0  0.00000000000E+00 -0.00000000000E+00 -0.10889533452E+03  0.10889533452E+03  0.00000000000E+00 0. -1.
         23    2    1    2    0    0  0.16616127484E+03 -0.78297567737E+02  0.28881090256E+03  0.36438383817E+03  0.12499506274E+03 0.  0.
         23    2    1    2    0    0 -0.16616127484E+03  0.78297567737E+02  0.77172645510E+02  0.21939037894E+03  0.91850110421E+02 0.  0.
          5    1    3    3  502    0  0.73690670327E+02 -0.51950604327E+02  0.42219621095E+02  0.99668282762E+02  0.47000000000E+01 0. -1.
         -5    1    3    3    0  502  0.92470604515E+02 -0.26346963410E+02  0.24659128146E+03  0.26471555540E+03  0.47000000000E+01 0. -1.
        -11    1    4    4    0    0 -0.69605362280E+02  0.47057349979E+02 -0.11274592153E+02  0.84772737796E+02  0.00000000000E+00 0. -1.
         11    1    4    4    0    0 -0.96555912563E+02  0.31240217758E+02  0.88447237662E+02  0.13461764114E+03  0.00000000000E+00 0.  1.
<mgrwt>
<rscale>  0 0.21785233E+03</rscale>
<asrwt>0</asrwt>
<pdfrwt beam="2">  1        1 0.16753129E-01 0.22217976E+03</pdfrwt>
<pdfrwt beam="1">  1       -1 0.73058289E-01 0.22217976E+03</pdfrwt>
<totfact> 0.63367032E+02</totfact>
</mgrwt>
</event>
<event>
 8    1  0.9424564E-006  0.1357155E+03  0.7546771E-02  0.1231874E+00
         -2   -1    0    0    0  501 -0.00000000000E+00  0.00000000000E+00  0.14192661266E+03  0.14192661266E+03  0.00000000000E+00 0.  1.
          2   -1    0    0  501    0  0.00000000000E+00 -0.00000000000E+00 -0.15127135955E+03  0.15127135955E+03  0.00000000000E+00 0. -1.
         23    2    1    2    0    0  0.99247003699E+01 -0.51919416010E+02  0.78551205845E+02  0.15680877538E+03  0.12499829863E+03 0.  0.
         23    2    1    2    0    0 -0.99247003699E+01  0.51919416010E+02 -0.87895952733E+02  0.13638919682E+03  0.89900995919E+02 0.  0.
          5    1    3    3  502    0  0.55374440180E+02 -0.31889499261E+02  0.85064704003E+02  0.10649583398E+03  0.47000000000E+01 0. -1.
         -5    1    3    3    0  502 -0.45449739810E+02 -0.20029916749E+02 -0.65134981579E+01  0.50312941397E+02  0.47000000000E+01 0. -1.
        -11    1    4    4    0    0 -0.34737929452E+02  0.64226260140E+02 -0.78331632264E+02  0.10708679119E+03  0.00000000000E+00 0. -1.
         11    1    4    4    0    0  0.24813229082E+02 -0.12306844130E+02 -0.95643204689E+01  0.29302405634E+02  0.00000000000E+00 0.  1.
<mgrwt>
<rscale>  0 0.12706687E+03</rscale>
<asrwt>0</asrwt>
<pdfrwt beam="2">  1        2 0.23272517E-01 0.13571551E+03</pdfrwt>
<pdfrwt beam="1">  1       -2 0.21834864E-01 0.13571551E+03</pdfrwt>
<totfact> 0.40373810E+03</totfact>
</mgrwt>
</event>
<event>
 8    1  0.9424564E-006  0.1805831E+03  0.7546771E-02  0.1172811E+00
          1   -1    0    0  501    0  0.00000000000E+00  0.00000000000E+00  0.13727676814E+04  0.13727676814E+04  0.00000000000E+00 0. -1.
         -1   -1    0    0    0  501 -0.00000000000E+00 -0.00000000000E+00 -0.21788364342E+02  0.21788364342E+02  0.00000000000E+00 0.  1.
         23    2    1    2    0    0 -0.10701863254E+03  0.74379267789E+02  0.58437063608E+03  0.61163657895E+03  0.12500000485E+03 0.  0.
         23    2    1    2    0    0  0.10701863254E+03 -0.74379267789E+02  0.76660868099E+03  0.78291946680E+03  0.91042619350E+02 0.  0.
          5    1    3    3  502    0 -0.35939089300E+02  0.86155291093E+01  0.41352342789E+03  0.41519821880E+03  0.47000000000E+01 0.  1.
         -5    1    3    3    0  502 -0.71079543244E+02  0.65763738680E+02  0.17084720819E+03  0.19643836015E+03  0.47000000000E+01 0.  1.
        -11    1    4    4    0    0 -0.10355562121E+02 -0.24180881936E+02  0.71492167546E+02  0.76177967540E+02  0.00000000000E+00 0.  1.
         11    1    4    4    0    0  0.11737419467E+03 -0.50198385854E+02  0.69511651344E+03  0.70674149926E+03  0.00000000000E+00 0. -1.
<mgrwt>
<rscale>  0 0.17492109E+03</rscale>
<asrwt>0</asrwt>
<pdfrwt beam="1">  1        1 0.21119496E+00 0.18058312E+03</pdfrwt>
<pdfrwt beam="2">  1       -1 0.33520571E-02 0.18058312E+03</pdfrwt>
<totfact> 0.27750193E+03</totfact>
</mgrwt>
</event>
<event>
 8    1  0.9424564E-006  0.1472120E+03  0.7546771E-02  0.1209682E+00
         -2   -1    0    0    0  501 -0.00000000000E+00  0.00000000000E+00  0.31758887781E+03  0.31758887781E+03  0.00000000000E+00 0.  1.
          2   -1    0    0  501    0  0.00000000000E+00 -0.00000000000E+00 -0.92347496363E+02  0.92347496363E+02  0.00000000000E+00 0. -1.
         23    2    1    2    0    0  0.90906069139E+02  0.24293067039E+02  0.23728088357E+03  0.27923751992E+03  0.11321355181E+03 0.  0.
         23    2    1    2    0    0 -0.90906069139E+02 -0.24293067039E+02 -0.12039502119E+02  0.13069885425E+03  0.89906475738E+02 0.  0.
          5    1    3    3  502    0  0.50842131607E+02 -0.41165223938E+02  0.74798438812E+02  0.99480623525E+02  0.47000000000E+01 0. -1.
         -5    1    3    3    0  502  0.40063937533E+02  0.65458290977E+02  0.16248244475E+03  0.17975689640E+03  0.47000000000E+01 0.  1.
        -11    1    4    4    0    0  0.92977339791E+01 -0.23637529901E+02  0.11316077828E+02  0.27807090721E+02  0.00000000000E+00 0.  1.
         11    1    4    4    0    0 -0.10020380312E+03 -0.65553713821E+00 -0.23355579947E+02  0.10289176353E+03  0.00000000000E+00 0. -1.
<mgrwt>
<rscale>  0 0.14274561E+03</rscale>
<asrwt>0</asrwt>
<pdfrwt beam="2">  1        2 0.14207307E-01 0.14721201E+03</pdfrwt>
<pdfrwt beam="1">  1       -2 0.48859827E-01 0.14721201E+03</pdfrwt>
<totfact> 0.16325200E+03</totfact>
</mgrwt>
</event>
<event>
 8    1  0.9424564E-006  0.1510803E+03  0.7546771E-02  0.1208359E+00
          1   -1    0    0  501    0  0.00000000000E+00  0.00000000000E+00  0.27084725020E+03  0.27084725020E+03  0.00000000000E+00 0. -1.
         -1   -1    0    0    0  501 -0.00000000000E+00 -0.00000000000E+00 -0.70248912649E+02  0.70248912649E+02  0.00000000000E+00 0.  1.
         23    2    1    2    0    0  0.47175143509E+02  0.70532320000E+02  0.96174485943E+02  0.17909437433E+03  0.12499984336E+03 0.  0.
         23    2    1    2    0    0 -0.47175143509E+02 -0.70532320000E+02  0.10442385161E+03  0.16200178853E+03  0.90221595923E+02 0.  0.
          5    1    3    3  502    0 -0.22704938725E+02 -0.10333397533E+02 -0.10999206769E+02  0.27665247092E+02  0.47000000000E+01 0.  1.
         -5    1    3    3    0  502  0.69880082235E+02  0.80865717533E+02  0.10717369271E+03  0.15142912723E+03  0.47000000000E+01 0.  1.
        -11    1    4    4    0    0 -0.52285244573E+02 -0.46987384991E+02  0.18395415947E+02  0.72663281486E+02  0.00000000000E+00 0.  1.
         11    1    4    4    0    0  0.51101010640E+01 -0.23544935009E+02  0.86028435665E+02  0.89338507042E+02  0.00000000000E+00 0. -1.
<mgrwt>
<rscale>  0 0.14375896E+03</rscale>
<asrwt>0</asrwt>
<pdfrwt beam="1">  1        1 0.41668807E-01 0.15108032E+03</pdfrwt>
<pdfrwt beam="2">  1       -1 0.10807525E-01 0.15108032E+03</pdfrwt>
<totfact> 0.51899539E+03</totfact>
</mgrwt>
</event>
<event>
 8    1  0.9424564E-006  0.1491093E+03  0.7546771E-02  0.1210429E+00
         -2   -1    0    0    0  501 -0.00000000000E+00  0.00000000000E+00  0.28015047048E+02  0.28015047048E+02  0.00000000000E+00 0.  1.
          2   -1    0    0  501    0  0.00000000000E+00 -0.00000000000E+00 -0.66198247997E+03  0.66198247997E+03  0.00000000000E+00 0. -1.
         23    2    1    2    0    0 -0.46040540149E+02 -0.66995656538E+02 -0.34731077827E+03  0.37796608889E+03  0.12500175323E+03 0.  0.
         23    2    1    2    0    0  0.46040540149E+02  0.66995656538E+02 -0.28665665465E+03  0.31203143813E+03  0.92646809960E+02 0.  0.
          5    1    3    3  502    0 -0.55882965917E+02 -0.97548414571E+02 -0.30166328292E+03  0.32196494425E+03  0.47000000000E+01 0.  1.
         -5    1    3    3    0  502  0.98424257681E+01  0.30552758033E+02 -0.45647495358E+02  0.56001144639E+02  0.47000000000E+01 0.  1.
        -11    1    4    4    0    0 -0.96902891103E+01  0.62820099955E+02 -0.19036590717E+03  0.20069739728E+03  0.00000000000E+00 0.  1.
         11    1    4    4    0    0  0.55730829259E+02  0.41755565829E+01 -0.96290747476E+02  0.11133404085E+03  0.00000000000E+00 0. -1.
<mgrwt>
<rscale>  0 0.14217687E+03</rscale>
<asrwt>0</asrwt>
<pdfrwt beam="2">  1        2 0.10184346E+00 0.14910931E+03</pdfrwt>
<pdfrwt beam="1">  1       -2 0.43100070E-02 0.14910931E+03</pdfrwt>
<totfact> 0.10595327E+04</totfact>
</mgrwt>
</event>
<event>
 8    1  0.9424564E-006  0.1504164E+03  0.7546771E-02  0.1208822E+00
          2   -1    0    0  501    0  0.00000000000E+00  0.00000000000E+00  0.19723359680E+03  0.19723359680E+03  0.00000000000E+00 0. -1.
         -2   -1    0    0    0  501 -0.00000000000E+00 -0.00000000000E+00 -0.96244019927E+02  0.96244019927E+02  0.00000000000E+00 0.  1.
         23    2    1    2    0    0  0.11708350320E+01 -0.83657708782E+02  0.43646985076E+02  0.15662106805E+03  0.12500046623E+03 0.  0.
         23    2    1    2    0    0 -0.11708350320E+01  0.83657708782E+02  0.57342591799E+02  0.13685654868E+03  0.91877957030E+02 0.  0.
          5    1    3    3  502    0  0.30679555436E+02 -0.59954426195E+02  0.79483802792E+02  0.10428582477E+03  0.47000000000E+01 0.  1.
         -5    1    3    3    0  502 -0.29508720404E+02 -0.23703282587E+02 -0.35836817716E+02  0.52335243281E+02  0.47000000000E+01 0.  1.
        -11    1    4    4    0    0  0.43210990630E+02  0.57742348956E+02  0.26025999465E+02  0.76672819319E+02  0.00000000000E+00 0.  1.
         11    1    4    4    0    0 -0.44381825662E+02  0.25915359826E+02  0.31316592335E+02  0.60183729358E+02  0.00000000000E+00 0. -1.
<mgrwt>
<rscale>  0 0.14340285E+03</rscale>
<asrwt>0</asrwt>
<pdfrwt beam="1">  1        2 0.30343630E-01 0.15041642E+03</pdfrwt>
<pdfrwt beam="2">  1       -2 0.14806772E-01 0.15041642E+03</pdfrwt>
<totfact> 0.58117655E+03</totfact>
</mgrwt>
</event>
<event>
 8    1  0.9760216E-006  0.1264974E+03  0.7546771E-02  0.1255737E+00
          2   -1    0    0  501    0  0.00000000000E+00  0.00000000000E+00  0.15160800216E+03  0.15160800216E+03  0.00000000000E+00 0. -1.
         -2   -1    0    0    0  501 -0.00000000000E+00 -0.00000000000E+00 -0.70601623276E+02  0.70601623276E+02  0.00000000000E+00 0.  1.
         23    2    1    2    0    0  0.63010580054E+01 -0.18335977289E+02  0.39799399566E+02  0.13261065505E+03  0.12500272890E+03 0.  0.
         23    2    1    2    0    0 -0.63010580054E+01  0.18335977289E+02  0.41206979315E+02  0.89598970383E+02  0.77162484112E+02 0.  0.
          5    1    3    3  502    0  0.47184405356E+02 -0.22833906445E+02 -0.22966396594E+02  0.57422127833E+02  0.47000000000E+01 0.  1.
         -5    1    3    3    0  502 -0.40883347350E+02  0.44979291559E+01  0.62765796161E+02  0.75188527216E+02  0.47000000000E+01 0.  1.
        -11    1    4    4    0    0 -0.18276159181E+02  0.43365454528E+01 -0.18951444749E+02  0.26682969830E+02  0.00000000000E+00 0.  1.
         11    1    4    4    0    0  0.11975101175E+02  0.13999431836E+02  0.60158424063E+02  0.62916000554E+02  0.00000000000E+00 0. -1.
<mgrwt>
<rscale>  0 0.11265133E+03</rscale>
<asrwt>0</asrwt>
<pdfrwt beam="1">  1        2 0.23324308E-01 0.12649741E+03</pdfrwt>
<pdfrwt beam="2">  1       -2 0.10861788E-01 0.12649741E+03</pdfrwt>
<totfact> 0.12594172E+04</totfact>
</mgrwt>
</event>
<event>
 8    1  0.9424564E-006  0.1631603E+03  0.7546771E-02  0.1192194E+00
         -1   -1    0    0    0  501 -0.00000000000E+00  0.00000000000E+00  0.12259765650E+03  0.12259765650E+03  0.00000000000E+00 0.  1.
          1   -1    0    0  501    0  0.00000000000E+00 -0.00000000000E+00 -0.21225067323E+03  0.21225067323E+03  0.00000000000E+00 0. -1.
         23    2    1    2    0    0  0.35417627667E+00  0.10486517600E+03  0.96949309174E+01  0.16344807601E+03  0.12499780513E+03 0.  0.
         23    2    1    2    0    0 -0.35417627667E+00 -0.10486517600E+03 -0.99347947643E+02  0.17140025372E+03  0.92256174304E+02 0.  0.
          5    1    3    3  502    0  0.39022001308E+01 -0.20268681445E+02  0.29819404223E+02  0.36569570433E+02  0.47000000000E+01 0.  1.
         -5    1    3    3    0  502 -0.35480238541E+01  0.12513385744E+03 -0.20124473306E+02  0.12687850558E+03  0.47000000000E+01 0.  1.
        -11    1    4    4    0    0 -0.39306684656E+02 -0.18602790172E+02 -0.43469034795E+02  0.61486878656E+02  0.00000000000E+00 0.  1.
         11    1    4    4    0    0  0.38952508379E+02 -0.86262385823E+02 -0.55878912849E+02  0.10991337506E+03  0.00000000000E+00 0. -1.
<mgrwt>
<rscale>  0 0.15694141E+03</rscale>
<asrwt>0</asrwt>
<pdfrwt beam="2">  1        1 0.32653950E-01 0.16316030E+03</pdfrwt>
<pdfrwt beam="1">  1       -1 0.18861178E-01 0.16316030E+03</pdfrwt>
<totfact> 0.29455937E+03</totfact>
</mgrwt>
</event>
<event>
 8    1  0.1151767E-005  0.1362632E+03  0.7546771E-02  0.1229813E+00
         -1   -1    0    0    0  501 -0.00000000000E+00  0.00000000000E+00  0.29331160156E+02  0.29331160156E+02  0.00000000000E+00 0.  1.
          1   -1    0    0  501    0  0.00000000000E+00 -0.00000000000E+00 -0.50811189745E+03  0.50811189745E+03  0.00000000000E+00 0. -1.
         23    2    1    2    0    0 -0.31857275218E+02  0.43910055679E+02 -0.25253906898E+03  0.28695579431E+03  0.12499867022E+03 0.  0.
         23    2    1    2    0    0  0.31857275218E+02 -0.43910055679E+02 -0.22624166832E+03  0.25048726329E+03  0.92820243566E+02 0.  0.
          5    1    3    3  502    0 -0.23889294833E+02  0.71339569830E+02 -0.72439694944E+02  0.10454488048E+03  0.47000000000E+01 0. -1.
         -5    1    3    3    0  502 -0.79679803851E+01 -0.27429514151E+02 -0.18009937403E+03  0.18241091383E+03  0.47000000000E+01 0. -1.
        -11    1    4    4    0    0  0.33604981548E+02 -0.64377473232E+02 -0.10591760702E+03  0.12842232407E+03  0.00000000000E+00 0.  1.
         11    1    4    4    0    0 -0.17477063304E+01  0.20467417554E+02 -0.12032406130E+03  0.12206493922E+03  0.00000000000E+00 0. -1.
<mgrwt>
<rscale>  0 0.12842420E+03</rscale>
<asrwt>0</asrwt>
<pdfrwt beam="2">  1        1 0.78171058E-01 0.13626315E+03</pdfrwt>
<pdfrwt beam="1">  1       -1 0.45124864E-02 0.13626315E+03</pdfrwt>
<totfact> 0.86668186E+03</totfact>
</mgrwt>
</event>
<event>
 8    1  0.9424564E-006  0.1399398E+03  0.7546771E-02  0.1224152E+00
         -2   -1    0    0    0  501 -0.00000000000E+00  0.00000000000E+00  0.21953842595E+03  0.21953842595E+03  0.00000000000E+00 0.  1.
          2   -1    0    0  501    0  0.00000000000E+00 -0.00000000000E+00 -0.83182707398E+02  0.83182707398E+02  0.00000000000E+00 0. -1.
         23    2    1    2    0    0  0.12444451744E+02  0.61677455491E+02  0.12984678603E+03  0.19090139887E+03  0.12499673337E+03 0.  0.
         23    2    1    2    0    0 -0.12444451744E+02 -0.61677455491E+02  0.65089325225E+01  0.11181973448E+03  0.92207992718E+02 0.  0.
          5    1    3    3  502    0  0.36658046468E+02 -0.10732998103E+02 -0.19271931544E+01  0.38533280324E+02  0.47000000000E+01 0.  1.
         -5    1    3    3    0  502 -0.24213594723E+02  0.72410453594E+02  0.13177397918E+03  0.15236811854E+03  0.47000000000E+01 0.  1.
        -11    1    4    4    0    0  0.47601901145E+01 -0.16275769457E+02 -0.40705164766E+02  0.44096150852E+02  0.00000000000E+00 0. -1.
         11    1    4    4    0    0 -0.17204641859E+02 -0.45401686034E+02  0.47214097289E+02  0.67723583625E+02  0.00000000000E+00 0.  1.
<mgrwt>
<rscale>  0 0.13225173E+03</rscale>
<asrwt>0</asrwt>
<pdfrwt beam="2">  1        2 0.12797340E-01 0.13993983E+03</pdfrwt>
<pdfrwt beam="1">  1       -2 0.33775142E-01 0.13993983E+03</pdfrwt>
<totfact> 0.37196427E+03</totfact>
</mgrwt>
</event>
<event>
 8    1  0.9424564E-006  0.1351503E+03  0.7546771E-02  0.1232246E+00
         -2   -1    0    0    0  501 -0.00000000000E+00  0.00000000000E+00  0.57452881314E+02  0.57452881314E+02  0.00000000000E+00 0.  1.
          2   -1    0    0  501    0  0.00000000000E+00 -0.00000000000E+00 -0.25054596643E+03  0.25054596643E+03  0.00000000000E+00 0. -1.
         23    2    1    2    0    0  0.74389597298E+01  0.50843860195E+02 -0.10773008541E+03  0.17283339723E+03  0.12500070262E+03 0.  0.
         23    2    1    2    0    0 -0.74389597298E+01 -0.50843860195E+02 -0.85362999713E+02  0.13516545051E+03  0.91336854836E+02 0.  0.
          5    1    3    3  502    0 -0.28869765388E+02  0.66713573698E+02 -0.11103139282E+03  0.13279391725E+03  0.47000000000E+01 0.  1.
         -5    1    3    3    0  502  0.36308725118E+02 -0.15869713504E+02  0.33013074082E+01  0.40039479979E+02  0.47000000000E+01 0.  1.
        -11    1    4    4    0    0  0.33479870303E+02 -0.45446808598E+02 -0.24285010253E+02  0.61449783159E+02  0.00000000000E+00 0.  1.
         11    1    4    4    0    0 -0.40918830033E+02 -0.53970515973E+01 -0.61077989459E+02  0.73715667355E+02  0.00000000000E+00 0. -1.
<mgrwt>
<rscale>  0 0.12682424E+03</rscale>
<asrwt>0</asrwt>
<pdfrwt beam="2">  1        2 0.38545533E-01 0.13515033E+03</pdfrwt>
<pdfrwt beam="1">  1       -2 0.88389050E-02 0.13515033E+03</pdfrwt>
<totfact> 0.10147486E+04</totfact>
</mgrwt>
</event>
<event>
 8    1  0.9424564E-006  0.1326454E+03  0.7546771E-02  0.1234354E+00
          2   -1    0    0  501    0  0.00000000000E+00  0.00000000000E+00  0.23680428645E+03  0.23680428645E+03  0.00000000000E+00 0. -1.
         -2   -1    0    0    0  501 -0.00000000000E+00 -0.00000000000E+00 -0.66939611468E+02  0.66939611468E+02  0.00000000000E+00 0.  1.
         23    2    1    2    0    0  0.34899736873E+02 -0.27416924924E+02  0.45489464689E+02  0.14022867371E+03  0.12500044051E+03 0.  0.
         23    2    1    2    0    0 -0.34899736873E+02  0.27416924924E+02  0.12437521029E+03  0.16351522420E+03  0.96427984554E+02 0.  0.
          5    1    3    3  502    0  0.10477757848E+02 -0.62895744751E+02  0.66349432387E+02  0.92141170469E+02  0.47000000000E+01 0. -1.
         -5    1    3    3    0  502  0.24421979025E+02  0.35478819827E+02 -0.20859967698E+02  0.48087503244E+02  0.47000000000E+01 0. -1.
        -11    1    4    4    0    0 -0.36474700203E+00  0.59164593060E+02  0.66311061254E+02  0.88869223902E+02  0.00000000000E+00 0.  1.
         11    1    4    4    0    0 -0.34534989871E+02 -0.31747668136E+02  0.58064149039E+02  0.74646000302E+02  0.00000000000E+00 0. -1.
<mgrwt>
<rscale>  0 0.12545849E+03</rscale>
<asrwt>0</asrwt>
<pdfrwt beam="1">  1        2 0.36431428E-01 0.13264535E+03</pdfrwt>
<pdfrwt beam="2">  1       -2 0.10298402E-01 0.13264535E+03</pdfrwt>
<totfact> 0.84730290E+03</totfact>
</mgrwt>
</event>
<event>
 8    1  0.9424564E-006  0.1313394E+03  0.7546771E-02  0.1241469E+00
          1   -1    0    0  501    0  0.00000000000E+00  0.00000000000E+00  0.31807401983E+03  0.31807401983E+03  0.00000000000E+00 0. -1.
         -1   -1    0    0    0  501 -0.00000000000E+00 -0.00000000000E+00 -0.44771481498E+02  0.44771481498E+02  0.00000000000E+00 0.  1.
         23    2    1    2    0    0  0.16606053512E+02 -0.36735235358E+02  0.98787228864E+02  0.16434399734E+03  0.12499917738E+03 0.  0.
         23    2    1    2    0    0 -0.16606053512E+02  0.36735235358E+02  0.17451530947E+03  0.19850150399E+03  0.85568775357E+02 0.  0.
          5    1    3    3  502    0  0.46921902634E+02  0.28410409341E+02  0.22597540556E+02  0.59510966594E+02  0.47000000000E+01 0.  1.
         -5    1    3    3    0  502 -0.30315849123E+02 -0.65145644699E+02  0.76189688309E+02  0.10483303075E+03  0.47000000000E+01 0.  1.
        -11    1    4    4    0    0  0.11198330563E+02  0.24222969756E+02  0.61342477494E+01  0.27382181554E+02  0.00000000000E+00 0.  1.
         11    1    4    4    0    0 -0.27804384075E+02  0.12512265602E+02  0.16838106172E+03  0.17111932243E+03  0.00000000000E+00 0. -1.
<mgrwt>
<rscale>  0 0.12099222E+03</rscale>
<asrwt>0</asrwt>
<pdfrwt beam="1">  1        1 0.48934463E-01 0.13133938E+03</pdfrwt>
<pdfrwt beam="2">  1       -1 0.68879204E-02 0.13133938E+03</pdfrwt>
<totfact> 0.83452858E+03</totfact>
</mgrwt>
</event>
<event>
 8    1  0.9424564E-006  0.1444827E+03  0.7546771E-02  0.1218489E+00
          1   -1    0    0  501    0  0.00000000000E+00  0.00000000000E+00  0.84957011730E+03  0.84957011730E+03  0.00000000000E+00 0. -1.
         -1   -1    0    0    0  501 -0.00000000000E+00 -0.00000000000E+00 -0.21889902554E+02  0.21889902554E+02  0.00000000000E+00 0.  1.
         23    2    1    2    0    0  0.49714350848E+02 -0.52719830595E+02  0.32020557751E+03  0.35129311511E+03  0.12499737452E+03 0.  0.
         23    2    1    2    0    0 -0.49714350848E+02  0.52719830595E+02  0.50747463724E+03  0.52016690474E+03  0.88273462229E+02 0.  0.
          5    1    3    3  502    0  0.68286261340E+02 -0.79303362994E+02  0.18934377491E+03  0.21639129365E+03  0.47000000000E+01 0.  1.
         -5    1    3    3    0  502 -0.18571910493E+02  0.26583532399E+02  0.13086180259E+03  0.13490182145E+03  0.47000000000E+01 0.  1.
        -11    1    4    4    0    0  0.16697906305E+02  0.43982962166E+02  0.22371790059E+03  0.22861106727E+03  0.00000000000E+00 0.  1.
         11    1    4    4    0    0 -0.66412257153E+02  0.87368684288E+01  0.28375673665E+03  0.29155583747E+03  0.00000000000E+00 0. -1.
<mgrwt>
<rscale>  0 0.13623366E+03</rscale>
<asrwt>0</asrwt>
<pdfrwt beam="1">  1        1 0.13070307E+00 0.14448267E+03</pdfrwt>
<pdfrwt beam="2">  1       -1 0.33676780E-02 0.14448267E+03</pdfrwt>
<totfact> 0.64727073E+03</totfact>
</mgrwt>
</event>
<event>
 8    1  0.9424564E-006  0.1448578E+03  0.7546771E-02  0.1214183E+00
         -2   -1    0    0    0  501 -0.00000000000E+00  0.00000000000E+00  0.76864761516E+03  0.76864761516E+03  0.00000000000E+00 0.  1.
          2   -1    0    0  501    0  0.00000000000E+00 -0.00000000000E+00 -0.31716703512E+02  0.31716703512E+02  0.00000000000E+00 0. -1.
         23    2    1    2    0    0 -0.69557887252E+02 -0.22799252922E+02  0.59241689408E+03  0.60987012605E+03  0.12500275454E+03 0.  0.
         23    2    1    2    0    0  0.69557887252E+02  0.22799252922E+02  0.14451401757E+03  0.19049419263E+03  0.10022789301E+03 0.  0.
          5    1    3    3  502    0 -0.71272019564E+02 -0.28885085236E+01  0.14193190699E+03  0.15891759021E+03  0.47000000000E+01 0. -1.
         -5    1    3    3    0  502  0.17141323118E+01 -0.19910744398E+02  0.45048498709E+03  0.45095253584E+03  0.47000000000E+01 0. -1.
        -11    1    4    4    0    0 -0.14294185824E+02  0.24354581416E+02  0.79537989789E+02  0.84402376768E+02  0.00000000000E+00 0.  1.
         11    1    4    4    0    0  0.83852073076E+02 -0.15553284941E+01  0.64976027780E+02  0.10609181586E+03  0.00000000000E+00 0. -1.
<mgrwt>
<rscale>  0 0.13936694E+03</rscale>
<asrwt>0</asrwt>
<pdfrwt beam="2">  1        2 0.48794934E-02 0.14485784E+03</pdfrwt>
<pdfrwt beam="1">  1       -2 0.11825347E+00 0.14485784E+03</pdfrwt>
<totfact> 0.91088563E+02</totfact>
</mgrwt>
</event>
<event>
 8    1  0.9424564E-006  0.1276286E+03  0.7546771E-02  0.1246898E+00
          1   -1    0    0  501    0  0.00000000000E+00  0.00000000000E+00  0.96778100954E+02  0.96778100954E+02  0.00000000000E+00 0. -1.
         -1   -1    0    0    0  501 -0.00000000000E+00 -0.00000000000E+00 -0.15854140535E+03  0.15854140535E+03  0.00000000000E+00 0.  1.
         23    2    1    2    0    0 -0.89406497960E+01  0.24125918698E+02 -0.92860418238E+02  0.15783574996E+03  0.12500828580E+03 0.  0.
         23    2    1    2    0    0  0.89406497960E+01 -0.24125918698E+02  0.31097113838E+02  0.97483756348E+02  0.88735883896E+02 0.  0.
          5    1    3    3  502    0 -0.51635231984E+02  0.52644314579E+02 -0.68718216909E+02  0.10090542292E+03  0.47000000000E+01 0.  1.
         -5    1    3    3    0  502  0.42694582188E+02 -0.28518395881E+02 -0.24142201329E+02  0.56930327040E+02  0.47000000000E+01 0.  1.
        -11    1    4    4    0    0  0.89339274840E+01  0.20918289373E+02 -0.19342805839E+02  0.29858567084E+02  0.00000000000E+00 0.  1.
         11    1    4    4    0    0  0.67223120177E-02 -0.45044208070E+02  0.50439919678E+02  0.67625189264E+02  0.00000000000E+00 0. -1.
<mgrwt>
<rscale>  0 0.11772487E+03</rscale>
<asrwt>0</asrwt>
<pdfrwt beam="1">  1        1 0.14888939E-01 0.12762863E+03</pdfrwt>
<pdfrwt beam="2">  1       -1 0.24390985E-01 0.12762863E+03</pdfrwt>
<totfact> 0.51854206E+03</totfact>
</mgrwt>
</event>
<event>
 7    1  0.9424564E-006  0.2103662E+03  0.7546771E-02  0.1167759E+00
          3   -1    0    0  501    0  0.00000000000E+00  0.00000000000E+00  0.33970571127E+02  0.33970571127E+02  0.00000000000E+00 0. -1.
         -3   -1    0    0    0  501 -0.00000000000E+00 -0.00000000000E+00 -0.84894800890E+03  0.84894800890E+03  0.00000000000E+00 0.  1.
         23    2    1    2    0    0 -0.42072015326E+02  0.42701066003E+02 -0.16634803467E+03  0.20102852765E+03  0.95641856839E+02 0.  0.
          5    1    1    2  502    0  0.62168239946E+02  0.57301174452E+02 -0.45674905903E+03  0.46453213837E+03  0.47000000000E+01 0. -1.
         -5    1    1    2    0  502 -0.20096224620E+02 -0.10000224046E+03 -0.19188034407E+03  0.21735791400E+03  0.47000000000E+01 0.  1.
        -11    1    3    3    0    0 -0.62058877652E+02  0.16825506878E+02 -0.15253712449E+03  0.16553542317E+03  0.00000000000E+00 0. -1.
         11    1    3    3    0    0  0.19986862326E+02  0.25875559126E+02 -0.13810910184E+02  0.35493104482E+02  0.00000000000E+00 0.  1.
<mgrwt>
<rscale>  0 0.18004521E+03</rscale>
<asrwt>0</asrwt>
<pdfrwt beam="1">  1        3 0.52262425E-02 0.21036621E+03</pdfrwt>
<pdfrwt beam="2">  1       -3 0.13060737E+00 0.21036621E+03</pdfrwt>
<totfact> 0.25163397E+02</totfact>
</mgrwt>
</event>
<event>
 8    1  0.9424564E-006  0.1756880E+03  0.7546771E-02  0.1177833E+00
         -2   -1    0    0    0  501 -0.00000000000E+00  0.00000000000E+00  0.46210974629E+02  0.46210974629E+02  0.00000000000E+00 0. -1.
          2   -1    0    0  501    0  0.00000000000E+00 -0.00000000000E+00 -0.74108547260E+03  0.74108547260E+03  0.00000000000E+00 0.  1.
         23    2    1    2    0    0  0.12199736971E+03 -0.18884112668E+02 -0.18707546723E+03  0.25663883878E+03  0.12500518071E+03 0.  0.
         23    2    1    2    0    0 -0.12199736971E+03  0.18884112668E+02 -0.50779903073E+03  0.53065760844E+03  0.92182828431E+02 0.  0.
          5    1    3    3  502    0  0.13586596472E+03 -0.44787829537E+02 -0.13551959409E+03  0.19711205043E+03  0.47000000000E+01 0.  1.
         -5    1    3    3    0  502 -0.13868595015E+02  0.25903716869E+02 -0.51555873145E+02  0.59526788348E+02  0.47000000000E+01 0.  1.
        -11    1    4    4    0    0 -0.86929226667E+02 -0.25778832793E+01 -0.45750257129E+03  0.46569511343E+03  0.00000000000E+00 0.  1.
         11    1    4    4    0    0 -0.35068143039E+02  0.21461995947E+02 -0.50296459442E+02  0.64962495016E+02  0.00000000000E+00 0. -1.
<mgrwt>
<rscale>  0 0.17001460E+03</rscale>
<asrwt>0</asrwt>
<pdfrwt beam="2">  1        2 0.11401315E+00 0.17568797E+03</pdfrwt>
<pdfrwt beam="1">  1       -2 0.71093807E-02 0.17568797E+03</pdfrwt>
<totfact> 0.43685715E+03</totfact>
</mgrwt>
</event>
<event>
 8    1  0.9424564E-006  0.1445949E+03  0.7546771E-02  0.1211066E+00
          1   -1    0    0  501    0  0.00000000000E+00  0.00000000000E+00  0.14794250759E+03  0.14794250759E+03  0.00000000000E+00 0. -1.
         -1   -1    0    0    0  501 -0.00000000000E+00 -0.00000000000E+00 -0.13172799927E+03  0.13172799927E+03  0.00000000000E+00 0.  1.
         23    2    1    2    0    0  0.10341320791E+02 -0.71828503976E+02  0.21720152256E+02  0.14621717576E+03  0.12506566505E+03 0.  0.
         23    2    1    2    0    0 -0.10341320791E+02  0.71828503976E+02 -0.55056439381E+01  0.13345333110E+03  0.11186242697E+03 0.  0.
          5    1    3    3  502    0  0.62862079052E+02 -0.31685853661E+02  0.34797227387E+02  0.78667473194E+02  0.47000000000E+01 0.  1.
         -5    1    3    3    0  502 -0.52520758260E+02 -0.40142650315E+02 -0.13077075131E+02  0.67549702564E+02  0.47000000000E+01 0.  1.
        -11    1    4    4    0    0 -0.12101028582E+02  0.34334931248E+02 -0.58265754586E+02  0.68703861274E+02  0.00000000000E+00 0.  1.
         11    1    4    4    0    0  0.17597077905E+01  0.37493572728E+02  0.52760110647E+02  0.64749469828E+02  0.00000000000E+00 0. -1.
<mgrwt>
<rscale>  0 0.14169506E+03</rscale>
<asrwt>0</asrwt>
<pdfrwt beam="1">  1        1 0.22760386E-01 0.14459494E+03</pdfrwt>
<pdfrwt beam="2">  1       -1 0.20265846E-01 0.14459494E+03</pdfrwt>
<totfact> 0.41028081E+03</totfact>
</mgrwt>
</event>
<event>
 8    1  0.9424564E-006  0.1291049E+03  0.7546771E-02  0.1243860E+00
         -1   -1    0    0    0  501 -0.00000000000E+00  0.00000000000E+00  0.57318803466E+02  0.57318803466E+02  0.00000000000E+00 0.  1.
          1   -1    0    0  501    0  0.00000000000E+00 -0.00000000000E+00 -0.22101411613E+03  0.22101411613E+03  0.00000000000E+00 0. -1.
         23    2    1    2    0    0  0.12015426499E+02 -0.29950707313E+02 -0.80551333577E+02  0.15217291284E+03  0.12500665070E+03 0.  0.
         23    2    1    2    0    0 -0.12015426499E+02  0.29950707313E+02 -0.83143979090E+02  0.12616000676E+03  0.89230099768E+02 0.  0.
          5    1    3    3  502    0 -0.30234160587E+02  0.17008813409E+02 -0.81631208245E+02  0.88820877948E+02  0.47000000000E+01 0. -1.
         -5    1    3    3    0  502  0.42249587087E+02 -0.46959520722E+02  0.10798746673E+01  0.63352034890E+02  0.47000000000E+01 0. -1.
        -11    1    4    4    0    0  0.16020312570E+02  0.18179413033E+02 -0.91477267205E+02  0.94632086991E+02  0.00000000000E+00 0. -1.
         11    1    4    4    0    0 -0.28035739069E+02  0.11771294280E+02  0.83332881152E+01  0.31527919770E+02  0.00000000000E+00 0.  1.
<mgrwt>
<rscale>  0 0.11953857E+03</rscale>
<asrwt>0</asrwt>
<pdfrwt beam="2">  1        1 0.34002171E-01 0.12910491E+03</pdfrwt>
<pdfrwt beam="1">  1       -1 0.88182776E-02 0.12910491E+03</pdfrwt>
<totfact> 0.90101074E+03</totfact>
</mgrwt>
</event>
<event>
 8    1  0.9424564E-006  0.1746190E+03  0.7546771E-02  0.1179371E+00
          2   -1    0    0  501    0  0.00000000000E+00  0.00000000000E+00  0.95403364630E+02  0.95403364630E+02  0.00000000000E+00 0. -1.
         -2   -1    0    0    0  501 -0.00000000000E+00 -0.00000000000E+00 -0.30900602675E+03  0.30900602675E+03  0.00000000000E+00 0.  1.
         23    2    1    2    0    0 -0.43037715456E+02  0.11406922722E+03 -0.17667023930E+03  0.24840326106E+03  0.12501109190E+03 0.  0.
         23    2    1    2    0    0  0.43037715456E+02 -0.11406922722E+03 -0.36932422815E+02  0.15600613032E+03  0.90054846030E+02 0.  0.
          5    1    3    3  502    0 -0.22416220322E+02  0.93528129935E+01 -0.12911848646E+03  0.13146724151E+03  0.47000000000E+01 0.  1.
         -5    1    3    3    0  502 -0.20621495134E+02  0.10471641422E+03 -0.47551752842E+02  0.11693601955E+03  0.47000000000E+01 0.  1.
        -11    1    4    4    0    0  0.62337122636E+02 -0.11206782466E+03 -0.19099476272E+02  0.12965301452E+03  0.00000000000E+00 0. -1.
         11    1    4    4    0    0 -0.19299407180E+02 -0.20014025600E+01 -0.17832946544E+02  0.26353115796E+02  0.00000000000E+00 0.  1.
<mgrwt>
<rscale>  0 0.16854778E+03</rscale>
<asrwt>0</asrwt>
<pdfrwt beam="1">  1        2 0.14677441E-01 0.17461903E+03</pdfrwt>
<pdfrwt beam="2">  1       -2 0.47539389E-01 0.17461903E+03</pdfrwt>
<totfact> 0.16695422E+03</totfact>
</mgrwt>
</event>
<event>
 8    1  0.9424564E-006  0.1155483E+03  0.7546771E-02  0.1257977E+00
          2   -1    0    0  501    0  0.00000000000E+00  0.00000000000E+00  0.26880668899E+03  0.26880668899E+03  0.00000000000E+00 0. -1.
         -2   -1    0    0    0  501 -0.00000000000E+00 -0.00000000000E+00 -0.51637403106E+02  0.51637403106E+02  0.00000000000E+00 0.  1.
         23    2    1    2    0    0  0.30235839807E+02  0.81336633995E+00  0.50408900707E+02  0.12606532598E+03  0.11151924305E+03 0.  0.
         23    2    1    2    0    0 -0.30235839807E+02 -0.81336633995E+00  0.16676038518E+03  0.19437876612E+03  0.95179888003E+02 0.  0.
          5    1    3    3  502    0  0.65137238550E+02 -0.26457470204E+02  0.24873219559E+02  0.74723655068E+02  0.47000000000E+01 0. -1.
         -5    1    3    3    0  502 -0.34901398743E+02  0.27270836544E+02  0.25535681148E+02  0.51341670909E+02  0.47000000000E+01 0.  1.
        -11    1    4    4    0    0 -0.13704656115E+02  0.31596183401E+02  0.13718820916E+02  0.37072125000E+02  0.00000000000E+00 0.  1.
         11    1    4    4    0    0 -0.16531183692E+02 -0.32409549741E+02  0.15304156426E+03  0.15730664112E+03  0.00000000000E+00 0. -1.
<mgrwt>
<rscale>  0 0.11141195E+03</rscale>
<asrwt>0</asrwt>
<pdfrwt beam="1">  1        2 0.41354874E-01 0.11554830E+03</pdfrwt>
<pdfrwt beam="2">  1       -2 0.79442160E-02 0.11554830E+03</pdfrwt>
<totfact> 0.10970147E+04</totfact>
</mgrwt>
</event>
<event>
 8    1  0.9424564E-006  0.2325970E+03  0.7546771E-02  0.1127798E+00
         -2   -1    0    0    0  501 -0.00000000000E+00  0.00000000000E+00  0.27350056416E+02  0.27350056416E+02  0.00000000000E+00 0.  1.
          2   -1    0    0  501    0  0.00000000000E+00 -0.00000000000E+00 -0.19073596165E+04  0.19073596165E+04  0.00000000000E+00 0. -1.
         23    2    1    2    0    0 -0.30145472702E+02 -0.19385629222E+03 -0.79223120707E+03  0.82567042597E+03  0.12494941100E+03 0.  0.
         23    2    1    2    0    0  0.30145472702E+02  0.19385629222E+03 -0.10877783530E+04  0.11090392469E+04  0.90649293553E+02 0.  0.
          5    1    3    3  502    0  0.86449822164E+01 -0.18165481935E+03 -0.72018997425E+03  0.74281148222E+03  0.47000000000E+01 0.  1.
         -5    1    3    3    0  502 -0.38790454918E+02 -0.12201472865E+02 -0.72041232823E+02  0.82858943751E+02  0.47000000000E+01 0.  1.
        -11    1    4    4    0    0  0.28892375702E+02  0.20643995660E+02 -0.98376471780E+02  0.10458907271E+03  0.00000000000E+00 0.  1.
         11    1    4    4    0    0  0.12530969999E+01  0.17321229656E+03 -0.98940188122E+03  0.10044501742E+04  0.00000000000E+00 0. -1.
<mgrwt>
<rscale>  0 0.22836263E+03</rscale>
<asrwt>0</asrwt>
<pdfrwt beam="2">  1        2 0.29343995E+00 0.23259701E+03</pdfrwt>
<pdfrwt beam="1">  1       -2 0.42077008E-02 0.23259701E+03</pdfrwt>
<totfact> 0.21193101E+03</totfact>
</mgrwt>
</event>
<event>
 8    1  0.9424564E-006  0.1560985E+03  0.7546771E-02  0.1202638E+00
          1   -1    0    0  501    0  0.00000000000E+00  0.00000000000E+00  0.23282484949E+03  0.23282484949E+03  0.00000000000E+00 0. -1.
         -1   -1    0    0    0  501 -0.00000000000E+00 -0.00000000000E+00 -0.89403384809E+02  0.89403384809E+02  0.00000000000E+00 0.  1.
         23    2    1    2    0    0  0.63228914637E+02 -0.68879985128E+02  0.47795126258E+02  0.16325174187E+03  0.12499763651E+03 0.  0.
         23    2    1    2    0    0 -0.63228914637E+02  0.68879985128E+02  0.95626338418E+02  0.15897649242E+03  0.85946381811E+02 0.  0.
          5    1    3    3  502    0  0.37601532848E+02 -0.10407197554E+03  0.23666485626E+02  0.11325654024E+03  0.47000000000E+01 0. -1.
         -5    1    3    3    0  502  0.25627381789E+02  0.35191990417E+02  0.24128640632E+02  0.49995201626E+02  0.47000000000E+01 0. -1.
        -11    1    4    4    0    0 -0.42423870791E+01  0.66835675827E+02  0.40804498789E+02  0.78422015613E+02  0.00000000000E+00 0. -1.
         11    1    4    4    0    0 -0.58986527558E+02  0.20443093013E+01  0.54821839629E+02  0.80554476810E+02  0.00000000000E+00 0.  1.
<mgrwt>
<rscale>  0 0.14825198E+03</rscale>
<asrwt>0</asrwt>
<pdfrwt beam="1">  1        1 0.35819207E-01 0.15609855E+03</pdfrwt>
<pdfrwt beam="2">  1       -1 0.13754367E-01 0.15609855E+03</pdfrwt>
<totfact> 0.43175373E+03</totfact>
</mgrwt>
</event>
<event>
 8    1  0.9424564E-006  0.1613319E+03  0.7546771E-02  0.1194846E+00
         -3   -1    0    0    0  501 -0.00000000000E+00  0.00000000000E+00  0.95318160656E+02  0.95318160656E+02  0.00000000000E+00 0.  1.
          3   -1    0    0  501    0  0.00000000000E+00 -0.00000000000E+00 -0.25347371784E+03  0.25347371784E+03  0.00000000000E+00 0. -1.
         23    2    1    2    0    0 -0.10194072534E+03  0.32652015289E+01 -0.34977526971E+02  0.16507999844E+03  0.12500162186E+03 0.  0.
         23    2    1    2    0    0  0.10194072534E+03 -0.32652015289E+01 -0.12317803021E+03  0.18371188005E+03  0.90413797175E+02 0.  0.
          5    1    3    3  502    0 -0.81140014384E+02 -0.43045587895E+02 -0.58427483543E+02  0.10896093522E+03  0.47000000000E+01 0.  1.
         -5    1    3    3    0  502 -0.20800710960E+02  0.46310789424E+02  0.23449956572E+02  0.56119063221E+02  0.47000000000E+01 0.  1.
        -11    1    4    4    0    0  0.40171601773E+02  0.43027055326E+02 -0.47893780590E+02  0.75887411988E+02  0.00000000000E+00 0. -1.
         11    1    4    4    0    0  0.61769123572E+02 -0.46292256855E+02 -0.75284249619E+02  0.10782446806E+03  0.00000000000E+00 0.  1.
<mgrwt>
<rscale>  0 0.15467238E+03</rscale>
<asrwt>0</asrwt>
<pdfrwt beam="2">  1        3 0.38995956E-01 0.16133189E+03</pdfrwt>
<pdfrwt beam="1">  1       -3 0.14664333E-01 0.16133189E+03</pdfrwt>
<totfact> 0.59791511E+02</totfact>
</mgrwt>
</event>
<event>
 8    1  0.9424564E-006  0.1427391E+03  0.7546771E-02  0.1219891E+00
          2   -1    0    0  501    0  0.00000000000E+00  0.00000000000E+00  0.65407265323E+02  0.65407265323E+02  0.00000000000E+00 0. -1.
         -2   -1    0    0    0  501 -0.00000000000E+00 -0.00000000000E+00 -0.37750878671E+03  0.37750878671E+03  0.00000000000E+00 0.  1.
         23    2    1    2    0    0  0.80165608902E+01 -0.68437646427E+02 -0.29356905690E+03  0.32643106304E+03  0.12500588406E+03 0.  0.
         23    2    1    2    0    0 -0.80165608902E+01  0.68437646427E+02 -0.18532464485E+02  0.11648498899E+03  0.92072383067E+02 0.  0.
          5    1    3    3  502    0  0.89074625227E+01  0.29778485347E+02 -0.24189186910E+02  0.39664944744E+02  0.47000000000E+01 0. -1.
         -5    1    3    3    0  502 -0.89090163252E+00 -0.98216131774E+02 -0.26937986999E+03  0.28676611830E+03  0.47000000000E+01 0. -1.
        -11    1    4    4    0    0 -0.11269810457E+02 -0.97245331384E+01 -0.33661301227E+02  0.36805683974E+02  0.00000000000E+00 0.  1.
         11    1    4    4    0    0  0.32532495667E+01  0.78162179565E+02  0.15128836741E+02  0.79679305019E+02  0.00000000000E+00 0. -1.
<mgrwt>
<rscale>  0 0.13523306E+03</rscale>
<asrwt>0</asrwt>
<pdfrwt beam="1">  1        2 0.10062656E-01 0.14273909E+03</pdfrwt>
<pdfrwt beam="2">  1       -2 0.58078275E-01 0.14273909E+03</pdfrwt>
<totfact> 0.17463012E+03</totfact>
</mgrwt>
</event>
<event>
 8    1  0.9424564E-006  0.1856005E+03  0.7546771E-02  0.1167734E+00
         -3   -1    0    0    0  501 -0.00000000000E+00  0.00000000000E+00  0.13208131556E+03  0.13208131556E+03  0.00000000000E+00 0.  1.
          3   -1    0    0  501    0  0.00000000000E+00 -0.00000000000E+00 -0.34729244842E+03  0.34729244842E+03  0.00000000000E+00 0. -1.
         23    2    1    2    0    0 -0.52398319329E+02 -0.12679547103E+03  0.26024399263E+02  0.18741611650E+03  0.12499942410E+03 0.  0.
         23    2    1    2    0    0  0.52398319329E+02  0.12679547103E+03 -0.24123553212E+03  0.29195764748E+03  0.90675303254E+02 0.  0.
          5    1    3    3  502    0 -0.70749202199E+02 -0.20827780762E+02 -0.84515315294E+01  0.74382554732E+02  0.47000000000E+01 0. -1.
         -5    1    3    3    0  502  0.18350882870E+02 -0.10596769027E+03  0.34475930792E+02  0.11303356177E+03  0.47000000000E+01 0. -1.
        -11    1    4    4    0    0  0.48576284441E+02  0.27206458809E+02 -0.43967718335E+02  0.70943689407E+02  0.00000000000E+00 0.  1.
         11    1    4    4    0    0  0.38220348873E+01  0.99589012218E+02 -0.19726781379E+03  0.22101395807E+03  0.00000000000E+00 0. -1.
<mgrwt>
<rscale>  0 0.18007131E+03</rscale>
<asrwt>0</asrwt>
<pdfrwt beam="2">  1        3 0.53429607E-01 0.18560046E+03</pdfrwt>
<pdfrwt beam="1">  1       -3 0.20320203E-01 0.18560046E+03</pdfrwt>
<totfact> 0.18479347E+02</totfact>
</mgrwt>
</event>
<event>
 8    1  0.9424564E-006  0.1279971E+03  0.7546771E-02  0.1248309E+00
          4   -1    0    0  501    0  0.00000000000E+00  0.00000000000E+00  0.27970627688E+03  0.27970627688E+03  0.00000000000E+00 0. -1.
         -4   -1    0    0    0  501 -0.00000000000E+00 -0.00000000000E+00 -0.42135796178E+02  0.42135796178E+02  0.00000000000E+00 0.  1.
         23    2    1    2    0    0  0.13107043770E+02 -0.24203723219E+02  0.14456657583E+03  0.19308741684E+03  0.12500256350E+03 0.  0.
         23    2    1    2    0    0 -0.13107043770E+02  0.24203723219E+02  0.93003904874E+02  0.12875465622E+03  0.84678334663E+02 0.  0.
          5    1    3    3  502    0 -0.22614905041E+01 -0.42711413176E+02 -0.33450697686E+01  0.43158529244E+02  0.47000000000E+01 0. -1.
         -5    1    3    3    0  502  0.15368534274E+02  0.18507689957E+02  0.14791164560E+03  0.14992888760E+03  0.47000000000E+01 0. -1.
        -11    1    4    4    0    0  0.34452110880E+02 -0.23910322013E+01  0.34946332265E+02  0.49131569463E+02  0.00000000000E+00 0.  1.
         11    1    4    4    0    0 -0.47559154649E+02  0.26594755420E+02  0.58057572609E+02  0.79623086753E+02  0.00000000000E+00 0. -1.
<mgrwt>
<rscale>  0 0.11689496E+03</rscale>
<asrwt>0</asrwt>
<pdfrwt beam="1">  1        4 0.43031734E-01 0.12799709E+03</pdfrwt>
<pdfrwt beam="2">  1       -4 0.64824304E-02 0.12799709E+03</pdfrwt>
<totfact> 0.13385747E+03</totfact>
</mgrwt>
</event>
<event>
 8    1  0.9424564E-006  0.1843108E+03  0.7546771E-02  0.1169095E+00
          2   -1    0    0  501    0  0.00000000000E+00  0.00000000000E+00  0.70044437893E+03  0.70044437893E+03  0.00000000000E+00 0. -1.
         -2   -1    0    0    0  501 -0.00000000000E+00 -0.00000000000E+00 -0.43474443761E+02  0.43474443761E+02  0.00000000000E+00 0.  1.
         23    2    1    2    0    0  0.83238240183E+01  0.13519098881E+03  0.30966327488E+03  0.36036344886E+03  0.12499832783E+03 0.  0.
         23    2    1    2    0    0 -0.83238240183E+01 -0.13519098881E+03  0.34730666029E+03  0.38355537383E+03  0.90260284803E+02 0.  0.
          5    1    3    3  502    0  0.60699041317E+01 -0.16613434201E+02  0.98844169499E+02  0.10052417508E+03  0.47000000000E+01 0. -1.
         -5    1    3    3    0  502  0.22539198865E+01  0.15180442301E+03  0.21081910538E+03  0.25983927377E+03  0.47000000000E+01 0. -1.
        -11    1    4    4    0    0  0.31911710806E+01 -0.13381132471E+03  0.34703715393E+03  0.37195489027E+03  0.00000000000E+00 0. -1.
         11    1    4    4    0    0 -0.11514995099E+02 -0.13796641076E+01  0.26950636317E+00  0.11600483561E+02  0.00000000000E+00 0.  1.
<mgrwt>
<rscale>  0 0.17867101E+03</rscale>
<asrwt>0</asrwt>
<pdfrwt beam="1">  1        2 0.10776067E+00 0.18431080E+03</pdfrwt>
<pdfrwt beam="2">  1       -2 0.66883765E-02 0.18431080E+03</pdfrwt>
<totfact> 0.51481326E+03</totfact>
</mgrwt>
</event>
<event>
 8    1  0.9424564E-006  0.1733331E+03  0.7546771E-02  0.1180625E+00
         -1   -1    0    0    0  501 -0.00000000000E+00  0.00000000000E+00  0.24659380655E+02  0.24659380655E+02  0.00000000000E+00 0.  1.
          1   -1    0    0  501    0  0.00000000000E+00 -0.00000000000E+00 -0.11212474401E+04  0.11212474401E+04  0.00000000000E+00 0. -1.
         23    2    1    2    0    0 -0.16071639400E+00  0.12009059491E+03 -0.45580804066E+03  0.48765286830E+03  0.12499029247E+03 0.  0.
         23    2    1    2    0    0  0.16071639400E+00 -0.12009059491E+03 -0.64078001882E+03  0.65825395249E+03  0.90980528881E+02 0.  0.
          5    1    3    3  502    0  0.27925642195E+02  0.13697639397E+03 -0.38025328462E+03  0.40516296037E+03  0.47000000000E+01 0. -1.
         -5    1    3    3    0  502 -0.28086358589E+02 -0.16885799057E+02 -0.75554756044E+02  0.82489907925E+02  0.47000000000E+01 0. -1.
        -11    1    4    4    0    0 -0.21128230742E+02 -0.12094897341E+03 -0.59785006929E+03  0.61032758553E+03  0.00000000000E+00 0.  1.
         11    1    4    4    0    0  0.21288947136E+02  0.85837849918E+00 -0.42929949524E+02  0.47926366959E+02  0.00000000000E+00 0. -1.
<mgrwt>
<rscale>  0 0.16736416E+03</rscale>
<asrwt>0</asrwt>
<pdfrwt beam="2">  1        1 0.17249963E+00 0.17333306E+03</pdfrwt>
<pdfrwt beam="1">  1       -1 0.37937502E-02 0.17333306E+03</pdfrwt>
<totfact> 0.34340103E+03</totfact>
</mgrwt>
</event>
<event>
 7    1  0.9424564E-006  0.3082101E+03  0.7546771E-02  0.1081207E+00
          2   -1    0    0  501    0  0.00000000000E+00  0.00000000000E+00  0.12884944880E+03  0.12884944880E+03  0.00000000000E+00 0. -1.
         -2   -1    0    0    0  501 -0.00000000000E+00 -0.00000000000E+00 -0.18431102211E+03  0.18431102211E+03  0.00000000000E+00 0.  1.
         23    2    1    2    0    0 -0.20039492177E+02 -0.43032401606E+02 -0.50739241884E+02  0.14300753276E+03  0.12499325951E+03 0.  0.
          5    1    3    3  502    0 -0.36180766406E+02 -0.78774037587E+02 -0.11921235617E+02  0.87627636703E+02  0.47000000000E+01 0. -1.
         -5    1    3    3    0  502  0.16141274229E+02  0.35741635981E+02 -0.38818006267E+02  0.55379896053E+02  0.47000000000E+01 0. -1.
        -11    1    1    2    0    0 -0.52673025104E+02  0.15845976797E+02  0.50671135037E+02  0.74787074285E+02  0.00000000000E+00 0. -1.
         11    1    1    2    0    0  0.72712517281E+02  0.27186424809E+02 -0.55393466470E+02  0.95365863866E+02  0.00000000000E+00 0.  1.
<mgrwt>
<rscale>  0 0.30821015E+03</rscale>
<asrwt>0</asrwt>
<pdfrwt beam="1">  1        2 0.19822992E-01 0.30821015E+03</pdfrwt>
<pdfrwt beam="2">  1       -2 0.28355542E-01 0.30821015E+03</pdfrwt>
<totfact> 0.31794589E+03</totfact>
</mgrwt>
</event>
<event>
 8    1  0.9424564E-006  0.1262445E+03  0.7546771E-02  0.1240437E+00
          1   -1    0    0  501    0  0.00000000000E+00  0.00000000000E+00  0.50101743305E+03  0.50101743305E+03  0.00000000000E+00 0. -1.
         -1   -1    0    0    0  501 -0.00000000000E+00 -0.00000000000E+00 -0.27731510908E+02  0.27731510908E+02  0.00000000000E+00 0.  1.
         23    2    1    2    0    0 -0.99898773422E+01  0.42631914638E+02  0.23328267197E+03  0.26525171085E+03  0.11840771627E+03 0.  0.
         23    2    1    2    0    0  0.99898773422E+01 -0.42631914638E+02  0.24000325017E+03  0.26349723310E+03  0.99558796526E+02 0.  0.
          5    1    3    3  502    0 -0.13344491478E+02  0.54014063310E+02  0.24292268730E+03  0.24925712927E+03  0.47000000000E+01 0. -1.
         -5    1    3    3    0  502  0.33546141359E+01 -0.11382148672E+02 -0.96400153294E+01  0.15994581581E+02  0.47000000000E+01 0.  1.
        -11    1    4    4    0    0  0.45206345959E+02 -0.50133206267E+02  0.11436997254E+03  0.13280603414E+03  0.00000000000E+00 0.  1.
         11    1    4    4    0    0 -0.35216468617E+02  0.75012916292E+01  0.12563327763E+03  0.13069119896E+03  0.00000000000E+00 0. -1.
<mgrwt>
<rscale>  0 0.12162667E+03</rscale>
<asrwt>0</asrwt>
<pdfrwt beam="1">  1        1 0.77079598E-01 0.12624447E+03</pdfrwt>
<pdfrwt beam="2">  1       -1 0.42663867E-02 0.12624447E+03</pdfrwt>
<totfact> 0.95365581E+03</totfact>
</mgrwt>
</event>
<event>
 8    1  0.9424564E-006  0.1474096E+03  0.7546771E-02  0.1213277E+00
          3   -1    0    0  501    0  0.00000000000E+00  0.00000000000E+00  0.79320452745E+02  0.79320452745E+02  0.00000000000E+00 0. -1.
         -3   -1    0    0    0  501 -0.00000000000E+00 -0.00000000000E+00 -0.23751826344E+03  0.23751826344E+03  0.00000000000E+00 0.  1.
         23    2    1    2    0    0 -0.75688427679E+02 -0.19383638249E+02 -0.12225383159E+03  0.19150873470E+03  0.12500053044E+03 0.  0.
         23    2    1    2    0    0  0.75688427679E+02  0.19383638249E+02 -0.35943979097E+02  0.12532998149E+03  0.91165624604E+02 0.  0.
          5    1    3    3  502    0  0.10959709140E+01  0.43900337217E+02 -0.19128168262E+02  0.48129175986E+02  0.47000000000E+01 0.  1.
         -5    1    3    3    0  502 -0.76784398593E+02 -0.63283975466E+02 -0.10312566333E+03  0.14337955871E+03  0.47000000000E+01 0.  1.
        -11    1    4    4    0    0  0.23503716484E+02  0.37337529037E+02  0.18469195963E+02  0.47829143445E+02  0.00000000000E+00 0. -1.
         11    1    4    4    0    0  0.52184711195E+02 -0.17953890788E+02 -0.54413175059E+02  0.77500838040E+02  0.00000000000E+00 0.  1.
<mgrwt>
<rscale>  0 0.14003887E+03</rscale>
<asrwt>0</asrwt>
<pdfrwt beam="1">  1        3 0.12203147E-01 0.14740962E+03</pdfrwt>
<pdfrwt beam="2">  1       -3 0.36541271E-01 0.14740962E+03</pdfrwt>
<totfact> 0.91266077E+02</totfact>
</mgrwt>
</event>
<event>
 8    1  0.9424564E-006  0.1529471E+03  0.7546771E-02  0.1205645E+00
         -1   -1    0    0    0  501 -0.00000000000E+00  0.00000000000E+00  0.82532267774E+02  0.82532267774E+02  0.00000000000E+00 0.  1.
          1   -1    0    0  501    0  0.00000000000E+00 -0.00000000000E+00 -0.41823698095E+03  0.41823698095E+03  0.00000000000E+00 0. -1.
         23    2    1    2    0    0  0.14662055295E+02 -0.86914586658E+02 -0.12239662787E+02  0.15343605148E+03  0.12499476512E+03 0.  0.
         23    2    1    2    0    0 -0.14662055295E+02  0.86914586658E+02 -0.32346505039E+03  0.34733319724E+03  0.90783202451E+02 0.  0.
          5    1    3    3  502    0  0.16054585952E+02  0.30842887926E+02 -0.29275662926E+01  0.35209290111E+02  0.47000000000E+01 0. -1.
         -5    1    3    3    0  502 -0.13925306569E+01 -0.11775747458E+03 -0.93120964948E+01  0.11822676137E+03  0.47000000000E+01 0. -1.
        -11    1    4    4    0    0 -0.51321612368E+02  0.32250232075E+02 -0.14814502044E+03  0.16006540053E+03  0.00000000000E+00 0. -1.
         11    1    4    4    0    0  0.36659557073E+02  0.54664354583E+02 -0.17532002995E+03  0.18726779672E+03  0.00000000000E+00 0.  1.
<mgrwt>
<rscale>  0 0.14586706E+03</rscale>
<asrwt>0</asrwt>
<pdfrwt beam="2">  1        1 0.64344150E-01 0.15294709E+03</pdfrwt>
<pdfrwt beam="1">  1       -1 0.12697272E-01 0.15294709E+03</pdfrwt>
<totfact> 0.23507538E+03</totfact>
</mgrwt>
</event>
<event>
 8    1  0.9424564E-006  0.2908647E+03  0.7546771E-02  0.1091397E+00
         -2   -1    0    0    0  501 -0.00000000000E+00  0.00000000000E+00  0.11474790151E+03  0.11474790151E+03  0.00000000000E+00 0.  1.
          2   -1    0    0  501    0  0.00000000000E+00 -0.00000000000E+00 -0.87118957734E+03  0.87118957734E+03  0.00000000000E+00 0. -1.
         23    2    1    2    0    0  0.24232707419E+03  0.10126519885E+03 -0.17161337352E+03  0.33771796613E+03  0.12500089316E+03 0.  0.
         23    2    1    2    0    0 -0.24232707419E+03 -0.10126519885E+03 -0.58482830232E+03  0.64821951272E+03  0.95850623884E+02 0.  0.
          5    1    3    3  502    0  0.23199577140E+03  0.49305980190E+02 -0.13269284101E+03  0.27181353477E+03  0.47000000000E+01 0. -1.
         -5    1    3    3    0  502  0.10331302786E+02  0.51959218661E+02 -0.38920532509E+02  0.65904431352E+02  0.47000000000E+01 0. -1.
        -11    1    4    4    0    0 -0.14496281862E+03 -0.74583638287E+02 -0.24962239432E+03  0.29814137189E+03  0.00000000000E+00 0. -1.
         11    1    4    4    0    0 -0.97364255565E+02 -0.26681560565E+02 -0.33520590800E+03  0.35007814084E+03  0.00000000000E+00 0.  1.
<mgrwt>
<rscale>  0 0.28800126E+03</rscale>
<asrwt>0</asrwt>
<pdfrwt beam="2">  1        2 0.13402917E+00 0.29086470E+03</pdfrwt>
<pdfrwt beam="1">  1       -2 0.17653523E-01 0.29086470E+03</pdfrwt>
<totfact> 0.82768075E+02</totfact>
</mgrwt>
</event>
<event>
 8    1  0.9424564E-006  0.1421056E+03  0.7546771E-02  0.1222419E+00
          2   -1    0    0  501    0  0.00000000000E+00  0.00000000000E+00  0.70792528583E+02  0.70792528583E+02  0.00000000000E+00 0. -1.
         -2   -1    0    0    0  501 -0.00000000000E+00 -0.00000000000E+00 -0.23496140885E+03  0.23496140885E+03  0.00000000000E+00 0.  1.
         23    2    1    2    0    0 -0.39835294951E+02  0.54627371190E+02 -0.12253211052E+03  0.18763829445E+03  0.12499204386E+03 0.  0.
         23    2    1    2    0    0  0.39835294951E+02 -0.54627371190E+02 -0.41636769746E+02  0.11811564299E+03  0.87445320722E+02 0.  0.
          5    1    3    3  502    0 -0.80567151289E+01 -0.89971437653E+01  0.22541698148E+02  0.26001488612E+02  0.47000000000E+01 0.  1.
         -5    1    3    3    0  502 -0.31778579822E+02  0.63624514956E+02 -0.14507380867E+03  0.16163680584E+03  0.47000000000E+01 0.  1.
        -11    1    4    4    0    0  0.91084953800E+01 -0.35011800476E+02 -0.65302078375E+02  0.74653548480E+02  0.00000000000E+00 0.  1.
         11    1    4    4    0    0  0.30726799571E+02 -0.19615570715E+02  0.23665308629E+02  0.43462094506E+02  0.00000000000E+00 0. -1.
<mgrwt>
<rscale>  0 0.13345415E+03</rscale>
<asrwt>0</asrwt>
<pdfrwt beam="1">  1        2 0.10891158E-01 0.14210563E+03</pdfrwt>
<pdfrwt beam="2">  1       -2 0.36147909E-01 0.14210563E+03</pdfrwt>
<totfact> 0.39892822E+03</totfact>
</mgrwt>
</event>
<event>
 8    1  0.9424564E-006  0.1449263E+03  0.7546771E-02  0.1218573E+00
         -2   -1    0    0    0  501 -0.00000000000E+00  0.00000000000E+00  0.57254264590E+02  0.57254264590E+02  0.00000000000E+00 0.  1.
          2   -1    0    0  501    0  0.00000000000E+00 -0.00000000000E+00 -0.38125260958E+03  0.38125260958E+03  0.00000000000E+00 0. -1.
         23    2    1    2    0    0  0.51661447240E+02 -0.52077688959E+02 -0.70888298572E+02  0.16133434167E+03  0.12499051208E+03 0.  0.
         23    2    1    2    0    0 -0.51661447240E+02  0.52077688959E+02 -0.25311004642E+03  0.27717253250E+03  0.85900677271E+02 0.  0.
          5    1    3    3  502    0  0.62212156582E+02  0.24832179552E+02 -0.32230680198E+02  0.74484201774E+02  0.47000000000E+01 0.  1.
         -5    1    3    3    0  502 -0.10550709342E+02 -0.76909868510E+02 -0.38657618374E+02  0.86850139898E+02  0.47000000000E+01 0.  1.
        -11    1    4    4    0    0  0.21790422206E+02  0.51912571440E+01 -0.83946486453E+02  0.86883739782E+02  0.00000000000E+00 0. -1.
         11    1    4    4    0    0 -0.73451869446E+02  0.46886431815E+02 -0.16916355997E+03  0.19028879272E+03  0.00000000000E+00 0.  1.
<mgrwt>
<rscale>  0 0.13617309E+03</rscale>
<asrwt>0</asrwt>
<pdfrwt beam="2">  1        2 0.58654247E-01 0.14492625E+03</pdfrwt>
<pdfrwt beam="1">  1       -2 0.88083485E-02 0.14492625E+03</pdfrwt>
<totfact> 0.65618384E+03</totfact>
</mgrwt>
</event>
<event>
 8    1  0.9424564E-006  0.1743572E+03  0.7546771E-02  0.1179104E+00
          1   -1    0    0  501    0  0.00000000000E+00  0.00000000000E+00  0.45176716543E+03  0.45176716543E+03  0.00000000000E+00 0. -1.
         -1   -1    0    0    0  501 -0.00000000000E+00 -0.00000000000E+00 -0.64672360788E+02  0.64672360788E+02  0.00000000000E+00 0.  1.
         23    2    1    2    0    0 -0.48820665832E+02  0.11132294383E+03  0.13120358440E+03  0.21820819137E+03  0.12499671589E+03 0.  0.
         23    2    1    2    0    0  0.48820665832E+02 -0.11132294383E+03  0.25589122024E+03  0.29823133485E+03  0.93195264115E+02 0.  0.
          5    1    3    3  502    0 -0.50749261173E+02  0.31998803068E+01  0.40577535231E+01  0.51227747434E+02  0.47000000000E+01 0.  1.
         -5    1    3    3    0  502  0.19285953407E+01  0.10812306353E+03  0.12714583087E+03  0.16698044393E+03  0.47000000000E+01 0.  1.
        -11    1    4    4    0    0 -0.25809239990E+02 -0.15744227427E+02  0.35048089463E+02  0.46285701260E+02  0.00000000000E+00 0.  1.
         11    1    4    4    0    0  0.74629905822E+02 -0.95578716408E+02  0.22084313078E+03  0.25194563359E+03  0.00000000000E+00 0. -1.
<mgrwt>
<rscale>  0 0.16880086E+03</rscale>
<asrwt>0</asrwt>
<pdfrwt beam="1">  1        1 0.69502639E-01 0.17435720E+03</pdfrwt>
<pdfrwt beam="2">  1       -1 0.99495942E-02 0.17435720E+03</pdfrwt>
<totfact> 0.31169920E+03</totfact>
</mgrwt>
</event>
<event>
 8    1  0.9424564E-006  0.1327125E+03  0.7546771E-02  0.1236425E+00
         -1   -1    0    0    0  501 -0.00000000000E+00  0.00000000000E+00  0.20188565871E+02  0.20188565871E+02  0.00000000000E+00 0.  1.
          1   -1    0    0  501    0  0.00000000000E+00 -0.00000000000E+00 -0.74903264351E+03  0.74903264351E+03  0.00000000000E+00 0. -1.
         23    2    1    2    0    0 -0.44291955520E+02 -0.51220296508E+01 -0.29238501716E+03  0.32109437401E+03  0.12499834500E+03 0.  0.
         23    2    1    2    0    0  0.44291955520E+02  0.51220296508E+01 -0.43645906048E+03  0.44812683537E+03  0.91286015295E+02 0.  0.
          5    1    3    3  502    0 -0.27170779782E+02  0.58320622312E+02 -0.17460698225E+03  0.18614304852E+03  0.47000000000E+01 0.  1.
         -5    1    3    3    0  502 -0.17121175738E+02 -0.63442651962E+02 -0.11777803490E+03  0.13495132549E+03  0.47000000000E+01 0.  1.
        -11    1    4    4    0    0  0.98987930988E+01 -0.40220365809E+02 -0.24168647192E+03  0.24521014384E+03  0.00000000000E+00 0.  1.
         11    1    4    4    0    0  0.34393162422E+02  0.45342395460E+02 -0.19477258856E+03  0.20291669153E+03  0.00000000000E+00 0. -1.
<mgrwt>
<rscale>  0 0.12413659E+03</rscale>
<asrwt>0</asrwt>
<pdfrwt beam="2">  1        1 0.11523580E+00 0.13271247E+03</pdfrwt>
<pdfrwt beam="1">  1       -1 0.31059330E-02 0.13271247E+03</pdfrwt>
<totfact> 0.87660635E+03</totfact>
</mgrwt>
</event>
<event>
 8    1  0.9424564E-006  0.1805544E+03  0.7546771E-02  0.1172647E+00
          2   -1    0    0  501    0  0.00000000000E+00  0.00000000000E+00  0.36498880864E+03  0.36498880864E+03  0.00000000000E+00 0. -1.
         -2   -1    0    0    0  501 -0.00000000000E+00 -0.00000000000E+00 -0.11255243419E+03  0.11255243419E+03  0.00000000000E+00 0.  1.
         23    2    1    2    0    0  0.29645854764E+02  0.12686971413E+03  0.20242049266E+01  0.18056578545E+03  0.12500041761E+03 0.  0.
         23    2    1    2    0    0 -0.29645854764E+02 -0.12686971413E+03  0.25041216952E+03  0.29697545737E+03  0.92267906492E+02 0.  0.
          5    1    3    3  502    0 -0.32544733499E+02  0.25943061333E+01  0.22628322466E+02  0.40000263505E+02  0.47000000000E+01 0.  1.
         -5    1    3    3    0  502  0.62190588263E+02  0.12427540799E+03 -0.20604117540E+02  0.14056552195E+03  0.47000000000E+01 0.  1.
        -11    1    4    4    0    0 -0.26833362407E+02 -0.25477893075E+02  0.14906852508E+03  0.15359224442E+03  0.00000000000E+00 0. -1.
         11    1    4    4    0    0 -0.28124923562E+01 -0.10139182105E+03  0.10134364444E+03  0.14338321296E+03  0.00000000000E+00 0.  1.
<mgrwt>
<rscale>  0 0.17508480E+03</rscale>
<asrwt>0</asrwt>
<pdfrwt beam="1">  1        2 0.56152124E-01 0.18055444E+03</pdfrwt>
<pdfrwt beam="2">  1       -2 0.17315759E-01 0.18055444E+03</pdfrwt>
<totfact> 0.23389255E+03</totfact>
</mgrwt>
</event>
<event>
 8    1  0.9424564E-006  0.1452579E+03  0.7546771E-02  0.1216060E+00
         -3   -1    0    0    0  501 -0.00000000000E+00  0.00000000000E+00  0.49687625589E+02  0.49687625589E+02  0.00000000000E+00 0.  1.
          3   -1    0    0  501    0  0.00000000000E+00 -0.00000000000E+00 -0.38418334008E+03  0.38418334008E+03  0.00000000000E+00 0. -1.
         23    2    1    2    0    0  0.14585846423E+02  0.72513455151E+02 -0.11792729193E+03  0.18710080761E+03  0.12501567075E+03 0.  0.
         23    2    1    2    0    0 -0.14585846423E+02 -0.72513455151E+02 -0.21656842256E+03  0.24677015806E+03  0.92318368500E+02 0.  0.
          5    1    3    3  502    0 -0.45878015707E+02  0.12484795639E+02 -0.81173923942E+02  0.94191073757E+02  0.47000000000E+01 0.  1.
         -5    1    3    3    0  502  0.60463862129E+02  0.60028659511E+02 -0.36753367983E+02  0.92909733852E+02  0.47000000000E+01 0.  1.
        -11    1    4    4    0    0 -0.29916950813E+02  0.11652797019E+02 -0.71035666889E+02  0.77954330185E+02  0.00000000000E+00 0. -1.
         11    1    4    4    0    0  0.15331104390E+02 -0.84166252170E+02 -0.14553275567E+03  0.16881582787E+03  0.00000000000E+00 0.  1.
<mgrwt>
<rscale>  0 0.13798954E+03</rscale>
<asrwt>0</asrwt>
<pdfrwt beam="2">  1        3 0.59105129E-01 0.14525793E+03</pdfrwt>
<pdfrwt beam="1">  1       -3 0.76442501E-02 0.14525793E+03</pdfrwt>
<totfact> 0.76266360E+02</totfact>
</mgrwt>
</event>
<event>
 8    1  0.9424564E-006  0.1351465E+03  0.7546771E-02  0.1231199E+00
          1   -1    0    0  501    0  0.00000000000E+00  0.00000000000E+00  0.13609072461E+03  0.13609072461E+03  0.00000000000E+00 0. -1.
         -1   -1    0    0    0  501 -0.00000000000E+00 -0.00000000000E+00 -0.10907880859E+03  0.10907880859E+03  0.00000000000E+00 0.  1.
         23    2    1    2    0    0 -0.51118686199E+02 -0.51764054982E+01  0.18335172155E+01  0.13515896380E+03  0.12499867382E+03 0.  0.
         23    2    1    2    0    0  0.51118686199E+02  0.51764054982E+01  0.25178398802E+02  0.11001056939E+03  0.93959876327E+02 0.  0.
          5    1    3    3  502    0 -0.50983341163E+02 -0.56514342155E+02  0.22667477431E+02  0.79555493076E+02  0.47000000000E+01 0.  1.
         -5    1    3    3    0  502 -0.13534503605E+00  0.51337936657E+02 -0.20833960216E+02  0.55603470726E+02  0.47000000000E+01 0.  1.
        -11    1    4    4    0    0 -0.11544925730E+02  0.35001430846E+02  0.22623605051E+01  0.36925651605E+02  0.00000000000E+00 0.  1.
         11    1    4    4    0    0  0.62663611929E+02 -0.29825025348E+02  0.22916038297E+02  0.73084917789E+02  0.00000000000E+00 0. -1.
<mgrwt>
<rscale>  0 0.12750916E+03</rscale>
<asrwt>0</asrwt>
<pdfrwt beam="1">  1        1 0.20937035E-01 0.13514653E+03</pdfrwt>
<pdfrwt beam="2">  1       -1 0.16781355E-01 0.13514653E+03</pdfrwt>
<totfact> 0.61360349E+03</totfact>
</mgrwt>
</event>
<event>
 8    1  0.9424564E-006  0.1297277E+03  0.7546771E-02  0.1242704E+00
          2   -1    0    0  501    0  0.00000000000E+00  0.00000000000E+00  0.33810417152E+03  0.33810417152E+03  0.00000000000E+00 0.  1.
         -2   -1    0    0    0  501 -0.00000000000E+00 -0.00000000000E+00 -0.37973478379E+02  0.37973478379E+02  0.00000000000E+00 0. -1.
         23    2    1    2    0    0  0.25374875207E+02 -0.23612551936E+02  0.19120231077E+03  0.23105755165E+03  0.12501132600E+03 0.  0.
         23    2    1    2    0    0 -0.25374875207E+02  0.23612551936E+02  0.10892838237E+03  0.14502009825E+03  0.89241243326E+02 0.  0.
          5    1    3    3  502    0 -0.15597710613E+02  0.36692993083E+02  0.12901009642E+03  0.13511239505E+03  0.47000000000E+01 0. -1.
         -5    1    3    3    0  502  0.40972585820E+02 -0.60305545019E+02  0.62192214351E+02  0.95945156598E+02  0.47000000000E+01 0. -1.
        -11    1    4    4    0    0 -0.25868066189E+01  0.55643727862E+02  0.72478781584E+02  0.91411650235E+02  0.00000000000E+00 0.  1.
         11    1    4    4    0    0 -0.22788068588E+02 -0.32031175926E+02  0.36449600786E+02  0.53608448016E+02  0.00000000000E+00 0. -1.
<mgrwt>
<rscale>  0 0.12023852E+03</rscale>
<asrwt>0</asrwt>
<pdfrwt beam="1">  1        2 0.52016024E-01 0.12972767E+03</pdfrwt>
<pdfrwt beam="2">  1       -2 0.58420738E-02 0.12972767E+03</pdfrwt>
<totfact> 0.13887412E+04</totfact>
</mgrwt>
</event>
<event>
 8    1  0.9424564E-006  0.1284985E+03  0.7546771E-02  0.1238582E+00
         -2   -1    0    0    0  501 -0.00000000000E+00  0.00000000000E+00  0.14919253006E+02  0.14919253006E+02  0.00000000000E+00 0.  1.
          2   -1    0    0  501    0  0.00000000000E+00 -0.00000000000E+00 -0.93245796723E+03  0.93245796723E+03  0.00000000000E+00 0. -1.
         23    2    1    2    0    0 -0.26527921895E+02 -0.12409597415E+02 -0.52384275577E+03  0.53937287212E+03  0.12511648035E+03 0.  0.
         23    2    1    2    0    0  0.26527921895E+02  0.12409597415E+02 -0.39369595845E+03  0.40800434811E+03  0.10302092813E+03 0.  0.
          5    1    3    3  502    0 -0.70900987163E+01  0.50015727736E+02 -0.12059838564E+03  0.13083540476E+03  0.47000000000E+01 0. -1.
         -5    1    3    3    0  502 -0.19437823179E+02 -0.62425325151E+02 -0.40324437014E+03  0.40853746736E+03  0.47000000000E+01 0. -1.
        -11    1    4    4    0    0  0.58675896607E+02  0.68955269462E+01 -0.34063045538E+03  0.34571594737E+03  0.00000000000E+00 0. -1.
         11    1    4    4    0    0 -0.32147974711E+02  0.55140704690E+01 -0.53065503074E+02  0.62288400748E+02  0.00000000000E+00 0.  1.
<mgrwt>
<rscale>  0 0.12277894E+03</rscale>
<asrwt>0</asrwt>
<pdfrwt beam="2">  1        2 0.14345510E+00 0.12849849E+03</pdfrwt>
<pdfrwt beam="1">  1       -2 0.22952693E-02 0.12849849E+03</pdfrwt>
<totfact> 0.17354048E+04</totfact>
</mgrwt>
</event>
<event>
 8    1  0.9424564E-006  0.1777379E+03  0.7546771E-02  0.1175586E+00
         -1   -1    0    0    0  501 -0.00000000000E+00  0.00000000000E+00  0.51842862701E+03  0.51842862701E+03  0.00000000000E+00 0.  1.
          1   -1    0    0  501    0  0.00000000000E+00 -0.00000000000E+00 -0.82698906086E+02  0.82698906086E+02  0.00000000000E+00 0. -1.
         23    2    1    2    0    0  0.91324308004E+02  0.87328901904E+02  0.40402930237E+03  0.44139602170E+03  0.12499721781E+03 0.  0.
         23    2    1    2    0    0 -0.91324308004E+02 -0.87328901904E+02  0.31700418557E+02  0.15973151140E+03  0.92427121867E+02 0.  0.
          5    1    3    3  502    0  0.92829074786E+02  0.10702387146E+03  0.26168799416E+03  0.29761391512E+03  0.47000000000E+01 0.  1.
         -5    1    3    3    0  502 -0.15047667828E+01 -0.19694969555E+02  0.14234130821E+03  0.14378210658E+03  0.47000000000E+01 0.  1.
        -11    1    4    4    0    0 -0.10598599111E+03 -0.51584751606E+02  0.22181051840E+02  0.11994171906E+03  0.00000000000E+00 0.  1.
         11    1    4    4    0    0  0.14661683104E+02 -0.35744150298E+02  0.95193667172E+01  0.39789792342E+02  0.00000000000E+00 0. -1.
<mgrwt>
<rscale>  0 0.17218738E+03</rscale>
<asrwt>0</asrwt>
<pdfrwt beam="2">  1        1 0.12722909E-01 0.17773793E+03</pdfrwt>
<pdfrwt beam="1">  1       -1 0.79758249E-01 0.17773793E+03</pdfrwt>
<totfact> 0.75844808E+02</totfact>
</mgrwt>
</event>
<event>
 7    1  0.9424564E-006  0.1757776E+03  0.7546771E-02  0.1195894E+00
          1   -1    0    0  501    0  0.00000000000E+00  0.00000000000E+00  0.14538751661E+03  0.14538751661E+03  0.00000000000E+00 0. -1.
         -1   -1    0    0    0  501 -0.00000000000E+00 -0.00000000000E+00 -0.14776730876E+03  0.14776730876E+03  0.00000000000E+00 0.  1.
         23    2    1    2    0    0 -0.37162142060E+02 -0.24642900949E+02  0.43008967250E+02  0.11161168646E+03  0.92839107707E+02 0.  0.
          5    1    1    2  502    0 -0.88367715063E+01 -0.66895070538E+02  0.39164873693E+01  0.67752991567E+02  0.47000000000E+01 0. -1.
         -5    1    1    2    0  502  0.45998913566E+02  0.91537971488E+02 -0.49305246773E+02  0.11379014734E+03  0.47000000000E+01 0.  1.
        -11    1    3    3    0    0 -0.40576931567E+02 -0.46785244757E+02  0.57843035862E+02  0.84741744731E+02  0.00000000000E+00 0.  1.
         11    1    3    3    0    0  0.34147895065E+01  0.22142343808E+02 -0.14834068612E+02  0.26869941724E+02  0.00000000000E+00 0. -1.
<mgrwt>
<rscale>  0 0.15378847E+03</rscale>
<asrwt>0</asrwt>
<pdfrwt beam="1">  1        1 0.22367310E-01 0.17577762E+03</pdfrwt>
<pdfrwt beam="2">  1       -1 0.22733432E-01 0.17577762E+03</pdfrwt>
<totfact> 0.35158966E+03</totfact>
</mgrwt>
</event>
<event>
 8    1  0.9424564E-006  0.2286949E+03  0.7546771E-02  0.1130609E+00
         -3   -1    0    0    0  501 -0.00000000000E+00  0.00000000000E+00  0.13367142116E+04  0.13367142116E+04  0.00000000000E+00 0.  1.
          3   -1    0    0  501    0  0.00000000000E+00 -0.00000000000E+00 -0.48554101959E+02  0.48554101959E+02  0.00000000000E+00 0. -1.
         23    2    1    2    0    0  0.10820681659E+03 -0.15801769703E+03  0.10091792177E+04  0.10347676375E+04  0.12499224975E+03 0.  0.
         23    2    1    2    0    0 -0.10820681659E+03  0.15801769703E+03  0.27898089187E+03  0.35050067596E+03  0.91334977380E+02 0.  0.
          5    1    3    3  502    0  0.81569035653E+02 -0.16181631844E+02  0.32353679592E+03  0.33408606840E+03  0.47000000000E+01 0.  1.
         -5    1    3    3    0  502  0.26637780934E+02 -0.14183606518E+03  0.68564242181E+03  0.70068156915E+03  0.47000000000E+01 0.  1.
        -11    1    4    4    0    0 -0.25861335738E+02  0.36943090688E+02  0.13087158690E+02  0.46956089682E+02  0.00000000000E+00 0. -1.
         11    1    4    4    0    0 -0.82345480850E+02  0.12107460634E+03  0.26589373318E+03  0.30354458628E+03  0.00000000000E+00 0.  1.
<mgrwt>
<rscale>  0 0.22444945E+03</rscale>
<asrwt>0</asrwt>
<pdfrwt beam="2">  1        3 0.74698628E-02 0.22869493E+03</pdfrwt>
<pdfrwt beam="1">  1       -3 0.20564831E+00 0.22869493E+03</pdfrwt>
<totfact> 0.43493847E+01</totfact>
</mgrwt>
</event>
<event>
 8    1  0.9424564E-006  0.1372176E+03  0.7546771E-02  0.1228854E+00
         -3   -1    0    0    0  501 -0.00000000000E+00  0.00000000000E+00  0.17264551315E+03  0.17264551315E+03  0.00000000000E+00 0.  1.
          3   -1    0    0  501    0  0.00000000000E+00 -0.00000000000E+00 -0.89820455996E+02  0.89820455996E+02  0.00000000000E+00 0. -1.
         23    2    1    2    0    0 -0.67113565020E+01 -0.56174179828E+02  0.70796604077E+02  0.15440475600E+03  0.12501235436E+03 0.  0.
         23    2    1    2    0    0  0.67113565020E+01  0.56174179828E+02  0.12028453082E+02  0.10806121315E+03  0.91279577773E+02 0.  0.
          5    1    3    3  502    0 -0.45454668373E+02 -0.40517455983E+02  0.89524516964E+02  0.10837213781E+03  0.47000000000E+01 0. -1.
         -5    1    3    3    0  502  0.38743311871E+02 -0.15656723845E+02 -0.18727912887E+02  0.46032618190E+02  0.47000000000E+01 0. -1.
        -11    1    4    4    0    0  0.47487564386E+02  0.16011231768E+02  0.71097967744E+01  0.50615980917E+02  0.00000000000E+00 0. -1.
         11    1    4    4    0    0 -0.40776207884E+02  0.40162948061E+02  0.49186563075E+01  0.57445232232E+02  0.00000000000E+00 0.  1.
<mgrwt>
<rscale>  0 0.12906188E+03</rscale>
<asrwt>0</asrwt>
<pdfrwt beam="2">  1        3 0.13818532E-01 0.13721760E+03</pdfrwt>
<pdfrwt beam="1">  1       -3 0.26560848E-01 0.13721760E+03</pdfrwt>
<totfact> 0.13245671E+03</totfact>
</mgrwt>
</event>
<event>
 8    1  0.9424564E-006  0.1324357E+03  0.7546771E-02  0.1236417E+00
          1   -1    0    0  501    0  0.00000000000E+00  0.00000000000E+00  0.66920621589E+03  0.66920621589E+03  0.00000000000E+00 0. -1.
         -1   -1    0    0    0  501 -0.00000000000E+00 -0.00000000000E+00 -0.20752045749E+02  0.20752045749E+02  0.00000000000E+00 0.  1.
         23    2    1    2    0    0  0.37368599247E+02 -0.22904698626E+02  0.33398677002E+03  0.35928592237E+03  0.12497269317E+03 0.  0.
         23    2    1    2    0    0 -0.37368599247E+02  0.22904698626E+02  0.31446740012E+03  0.33067233927E+03  0.92376473139E+02 0.  0.
          5    1    3    3  502    0  0.14220365045E+02  0.46688260002E+02  0.20547466819E+03  0.21124379676E+03  0.47000000000E+01 0.  1.
         -5    1    3    3    0  502  0.23148234202E+02 -0.69592958628E+02  0.12851210183E+03  0.14804212561E+03  0.47000000000E+01 0.  1.
        -11    1    4    4    0    0 -0.56571480328E+02  0.24589083489E+02  0.30075646381E+03  0.30701694731E+03  0.00000000000E+00 0. -1.
         11    1    4    4    0    0  0.19202881081E+02 -0.16843848635E+01  0.13710936316E+02  0.23655391962E+02  0.00000000000E+00 0.  1.
<mgrwt>
<rscale>  0 0.12414134E+03</rscale>
<asrwt>0</asrwt>
<pdfrwt beam="1">  1        1 0.10295479E+00 0.13243569E+03</pdfrwt>
<pdfrwt beam="2">  1       -1 0.31926229E-02 0.13243569E+03</pdfrwt>
<totfact> 0.98973138E+03</totfact>
</mgrwt>
</event>
<event>
 8    1  0.9424564E-006  0.1565702E+03  0.7546771E-02  0.1200984E+00
          1   -1    0    0  501    0  0.00000000000E+00  0.00000000000E+00  0.17357814167E+03  0.17357814167E+03  0.00000000000E+00 0. -1.
         -1   -1    0    0    0  501 -0.00000000000E+00 -0.00000000000E+00 -0.14128379290E+03  0.14128379290E+03  0.00000000000E+00 0.  1.
         23    2    1    2    0    0  0.78323573809E+02  0.52452856687E+02 -0.45417120866E+02  0.16302431638E+03  0.12501331319E+03 0.  0.
         23    2    1    2    0    0 -0.78323573809E+02 -0.52452856687E+02  0.77711469635E+02  0.15183761819E+03  0.90164878950E+02 0.  0.
          5    1    3    3  502    0  0.18554086819E+01  0.55070180806E+02  0.23362859176E+02  0.60033994905E+02  0.47000000000E+01 0. -1.
         -5    1    3    3    0  502  0.76468165128E+02 -0.26173241190E+01 -0.68779980042E+02  0.10299032148E+03  0.47000000000E+01 0. -1.
        -11    1    4    4    0    0  0.17442756652E+02  0.44439899559E+01  0.45469536021E+01  0.18565386971E+02  0.00000000000E+00 0.  1.
         11    1    4    4    0    0 -0.95766330461E+02 -0.56896846643E+02  0.73164516033E+02  0.13327223122E+03  0.00000000000E+00 0. -1.
<mgrwt>
<rscale>  0 0.14958485E+03</rscale>
<asrwt>0</asrwt>
<pdfrwt beam="1">  1        1 0.26704329E-01 0.15657015E+03</pdfrwt>
<pdfrwt beam="2">  1       -1 0.21735968E-01 0.15657015E+03</pdfrwt>
<totfact> 0.30075019E+03</totfact>
</mgrwt>
</event>
<event>
 8    1  0.9424564E-006  0.1312392E+03  0.7546771E-02  0.1238665E+00
         -2   -1    0    0    0  501 -0.00000000000E+00  0.00000000000E+00  0.59896161474E+03  0.59896161474E+03  0.00000000000E+00 0.  1.
          2   -1    0    0  501    0  0.00000000000E+00 -0.00000000000E+00 -0.39174602908E+02  0.39174602908E+02  0.00000000000E+00 0. -1.
         23    2    1    2    0    0  0.19578792526E+02 -0.34879606491E+02  0.50901570705E+03  0.52566218265E+03  0.12499529661E+03 0.  0.
         23    2    1    2    0    0 -0.19578792526E+02  0.34879606491E+02  0.50771304782E+02  0.11247403500E+03  0.92047634921E+02 0.  0.
          5    1    3    3  502    0 -0.34067723722E+02 -0.55527153496E+02  0.35995550410E+03  0.36583319902E+03  0.47000000000E+01 0. -1.
         -5    1    3    3    0  502  0.53646516248E+02  0.20647547005E+02  0.14906020295E+03  0.15982898362E+03  0.47000000000E+01 0. -1.
        -11    1    4    4    0    0  0.16140470981E+02  0.13021425488E+02 -0.20914366855E+02  0.29453065480E+02  0.00000000000E+00 0. -1.
         11    1    4    4    0    0 -0.35719263507E+02  0.21858181004E+02  0.71685671637E+02  0.83020969522E+02  0.00000000000E+00 0.  1.
<mgrwt>
<rscale>  0 0.12272723E+03</rscale>
<asrwt>0</asrwt>
<pdfrwt beam="2">  1        2 0.60268624E-02 0.13123925E+03</pdfrwt>
<pdfrwt beam="1">  1       -2 0.92147934E-01 0.13123925E+03</pdfrwt>
<totfact> 0.12308646E+03</totfact>
</mgrwt>
</event>
<event>
 8    1  0.9424564E-006  0.1904614E+03  0.7546771E-02  0.1162395E+00
         -1   -1    0    0    0  501 -0.00000000000E+00  0.00000000000E+00  0.11468337085E+04  0.11468337085E+04  0.00000000000E+00 0.  1.
          1   -1    0    0  501    0  0.00000000000E+00 -0.00000000000E+00 -0.33170460204E+02  0.33170460204E+02  0.00000000000E+00 0. -1.
         23    2    1    2    0    0 -0.42729711599E+02  0.13717283014E+03  0.79849362150E+03  0.82089440319E+03  0.12503337166E+03 0.  0.
         23    2    1    2    0    0  0.42729711599E+02 -0.13717283014E+03  0.31516962675E+03  0.35910976547E+03  0.94793018977E+02 0.  0.
          5    1    3    3  502    0  0.36839474106E+02  0.21577231302E+02  0.29793107268E+03  0.30101119220E+03  0.47000000000E+01 0. -1.
         -5    1    3    3    0  502 -0.79569185706E+02  0.11559559884E+03  0.50056254882E+03  0.51988321099E+03  0.47000000000E+01 0. -1.
        -11    1    4    4    0    0  0.10725848129E+01 -0.87623627888E+02  0.93344396383E+02  0.12803213245E+03  0.00000000000E+00 0. -1.
         11    1    4    4    0    0  0.41657126787E+02 -0.49549202254E+02  0.22182523037E+03  0.23107763303E+03  0.00000000000E+00 0.  1.
<mgrwt>
<rscale>  0 0.18570259E+03</rscale>
<asrwt>0</asrwt>
<pdfrwt beam="2">  1        1 0.51031486E-02 0.19046143E+03</pdfrwt>
<pdfrwt beam="1">  1       -1 0.17643592E+00 0.19046143E+03</pdfrwt>
<totfact> 0.39201281E+02</totfact>
</mgrwt>
</event>
<event>
 8    1  0.9424564E-006  0.1286247E+03  0.7546771E-02  0.1239694E+00
          3   -1    0    0  501    0  0.00000000000E+00  0.00000000000E+00  0.25639985265E+03  0.25639985265E+03  0.00000000000E+00 0. -1.
         -3   -1    0    0    0  501 -0.00000000000E+00 -0.00000000000E+00 -0.15707491173E+03  0.15707491173E+03  0.00000000000E+00 0.  1.
         23    2    1    2    0    0 -0.13982501067E+02 -0.45544630730E+02 -0.11661720157E+03  0.17361995413E+03  0.11947590989E+03 0.  0.
         23    2    1    2    0    0  0.13982501067E+02  0.45544630730E+02  0.21594214249E+03  0.23985481025E+03  0.92895087999E+02 0.  0.
          5    1    3    3  502    0 -0.45283601155E+02 -0.42230131168E+02 -0.12597426720E+03  0.14044783554E+03  0.47000000000E+01 0. -1.
         -5    1    3    3    0  502  0.31301100089E+02 -0.33144995619E+01  0.93570656286E+01  0.33172118583E+02  0.47000000000E+01 0.  1.
        -11    1    4    4    0    0 -0.28346527286E+02 -0.13712174923E+02  0.60727628791E+02  0.68406098039E+02  0.00000000000E+00 0. -1.
         11    1    4    4    0    0  0.42329028353E+02  0.59256805653E+02  0.15521451370E+03  0.17144871221E+03  0.00000000000E+00 0.  1.
<mgrwt>
<rscale>  0 0.12208667E+03</rscale>
<asrwt>0</asrwt>
<pdfrwt beam="1">  1        3 0.39446131E-01 0.12862471E+03</pdfrwt>
<pdfrwt beam="2">  1       -3 0.24165371E-01 0.12862471E+03</pdfrwt>
<totfact> 0.23644264E+02</totfact>
</mgrwt>
</event>
<event>
 8    1  0.9424564E-006  0.2589361E+03  0.7546771E-02  0.1109452E+00
         -2   -1    0    0    0  501 -0.00000000000E+00  0.00000000000E+00  0.43935417766E+02  0.43935417766E+02  0.00000000000E+00 0.  1.
          2   -1    0    0  501    0  0.00000000000E+00 -0.00000000000E+00 -0.16417772405E+04  0.16417772405E+04  0.00000000000E+00 0. -1.
         23    2    1    2    0    0 -0.14469707022E+03  0.17679899687E+03 -0.53607529812E+03  0.59533573571E+03  0.12187200475E+03 0.  0.
         23    2    1    2    0    0  0.14469707022E+03 -0.17679899687E+03 -0.10617665246E+04  0.10903769225E+04  0.96842929599E+02 0.  0.
          5    1    3    3  502    0 -0.15266152216E+03  0.18837323853E+03 -0.51805002054E+03  0.57200343628E+03  0.47000000000E+01 0. -1.
         -5    1    3    3    0  502  0.79644519429E+01 -0.11574241661E+02 -0.18025277581E+02  0.23332299429E+02  0.47000000000E+01 0.  1.
        -11    1    4    4    0    0  0.71845047314E+02 -0.49905248757E+02 -0.23480710285E+03  0.25057258475E+03  0.00000000000E+00 0.  1.
         11    1    4    4    0    0  0.72852022907E+02 -0.12689374811E+03 -0.82695942173E+03  0.83980433777E+03  0.00000000000E+00 0. -1.
<mgrwt>
<rscale>  0 0.25619395E+03</rscale>
<asrwt>0</asrwt>
<pdfrwt beam="2">  1        2 0.25258118E+00 0.25893612E+03</pdfrwt>
<pdfrwt beam="1">  1       -2 0.67592933E-02 0.25893612E+03</pdfrwt>
<totfact> 0.14129385E+03</totfact>
</mgrwt>
</event>
<event>
 8    1  0.9424564E-006  0.1273695E+03  0.7546771E-02  0.1246990E+00
         -2   -1    0    0    0  501 -0.00000000000E+00  0.00000000000E+00  0.13998824534E+03  0.13998824534E+03  0.00000000000E+00 0.  1.
          2   -1    0    0  501    0  0.00000000000E+00 -0.00000000000E+00 -0.28561775861E+03  0.28561775861E+03  0.00000000000E+00 0. -1.
         23    2    1    2    0    0  0.24461004927E+02  0.62247563398E+00  0.10070822672E+03  0.16237347008E+03  0.12499707445E+03 0.  0.
         23    2    1    2    0    0 -0.24461004927E+02 -0.62247563398E+00 -0.24633773998E+03  0.26323253387E+03  0.89500595018E+02 0.  0.
          5    1    3    3  502    0 -0.46934200926E+02  0.18069658734E+01  0.70171519092E+02  0.84570777659E+02  0.47000000000E+01 0. -1.
         -5    1    3    3    0  502  0.71395205853E+02 -0.11844902394E+01  0.30536707627E+02  0.77802692425E+02  0.47000000000E+01 0. -1.
        -11    1    4    4    0    0  0.32832912782E+02 -0.41353741864E+01 -0.63642561562E+02  0.71731981177E+02  0.00000000000E+00 0. -1.
         11    1    4    4    0    0 -0.57293917708E+02  0.35128985524E+01 -0.18269517842E+03  0.19150055269E+03  0.00000000000E+00 0.  1.
<mgrwt>
<rscale>  0 0.11767082E+03</rscale>
<asrwt>0</asrwt>
<pdfrwt beam="2">  1        2 0.43941193E-01 0.12736953E+03</pdfrwt>
<pdfrwt beam="1">  1       -2 0.21536653E-01 0.12736953E+03</pdfrwt>
<totfact> 0.20751302E+03</totfact>
</mgrwt>
</event>
<event>
 8    1  0.9424564E-006  0.1853080E+03  0.7546771E-02  0.1167932E+00
          1   -1    0    0  501    0  0.00000000000E+00  0.00000000000E+00  0.87485724968E+03  0.87485724968E+03  0.00000000000E+00 0. -1.
         -1   -1    0    0    0  501 -0.00000000000E+00 -0.00000000000E+00 -0.39832265619E+02  0.39832265619E+02  0.00000000000E+00 0.  1.
         23    2    1    2    0    0 -0.31144498922E+02  0.13321408571E+03  0.27969411066E+03  0.33551130908E+03  0.12499228192E+03 0.  0.
         23    2    1    2    0    0  0.31144498922E+02 -0.13321408571E+03  0.55533087340E+03  0.57917820622E+03  0.91318361586E+02 0.  0.
          5    1    3    3  502    0 -0.13501809026E+02  0.91399440848E+02  0.27440404848E+03  0.28957870857E+03  0.47000000000E+01 0.  1.
         -5    1    3    3    0  502 -0.17642689896E+02  0.41814644860E+02  0.52900621762E+01  0.45932600507E+02  0.47000000000E+01 0.  1.
        -11    1    4    4    0    0 -0.29352610658E+02 -0.60826961152E+02  0.18247791820E+03  0.19457565517E+03  0.00000000000E+00 0. -1.
         11    1    4    4    0    0  0.60497109580E+02 -0.72387124556E+02  0.37285295520E+03  0.38460255105E+03  0.00000000000E+00 0.  1.
<mgrwt>
<rscale>  0 0.17986702E+03</rscale>
<asrwt>0</asrwt>
<pdfrwt beam="1">  1        1 0.13459341E+00 0.18530797E+03</pdfrwt>
<pdfrwt beam="2">  1       -1 0.61280415E-02 0.18530797E+03</pdfrwt>
<totfact> 0.25675275E+03</totfact>
</mgrwt>
</event>
<event>
 8    1  0.9424564E-006  0.3351320E+03  0.7546771E-02  0.1070253E+00
         -1   -1    0    0    0  501 -0.00000000000E+00  0.00000000000E+00  0.53833898353E+02  0.53833898353E+02  0.00000000000E+00 0.  1.
          1   -1    0    0  501    0  0.00000000000E+00 -0.00000000000E+00 -0.21341885571E+04  0.21341885571E+04  0.00000000000E+00 0. -1.
         23    2    1    2    0    0  0.24113393268E+03 -0.19632495318E+03 -0.79494164746E+03  0.86269676207E+03  0.12499767874E+03 0.  0.
         23    2    1    2    0    0 -0.24113393268E+03  0.19632495318E+03 -0.12854130112E+04  0.13253256933E+04  0.86674813056E+02 0.  0.
          5    1    3    3  502    0  0.50163939857E+02 -0.27528569494E+02 -0.30549903783E+03  0.31084722151E+03  0.47000000000E+01 0. -1.
         -5    1    3    3    0  502  0.19096999283E+03 -0.16879638368E+03 -0.48944260962E+03  0.55184954056E+03  0.47000000000E+01 0. -1.
        -11    1    4    4    0    0 -0.12679712800E+02  0.60603667199E+01 -0.14866196882E+02  0.20457442929E+02  0.00000000000E+00 0.  1.
         11    1    4    4    0    0 -0.22845421988E+03  0.19026458646E+03 -0.12705468144E+04  0.13048682504E+04  0.00000000000E+00 0. -1.
<mgrwt>
<rscale>  0 0.33200624E+03</rscale>
<asrwt>0</asrwt>
<pdfrwt beam="2">  1        1 0.32833669E+00 0.33513203E+03</pdfrwt>
<pdfrwt beam="1">  1       -1 0.82821384E-02 0.33513203E+03</pdfrwt>
<totfact> 0.22262513E+02</totfact>
</mgrwt>
</event>
<event>
 8    1  0.9424564E-006  0.1301619E+03  0.7546771E-02  0.1255969E+00
         -2   -1    0    0    0  501 -0.00000000000E+00  0.00000000000E+00  0.49197175186E+03  0.49197175186E+03  0.00000000000E+00 0.  1.
          2   -1    0    0  501    0  0.00000000000E+00 -0.00000000000E+00 -0.22292484279E+02  0.22292484279E+02  0.00000000000E+00 0. -1.
         23    2    1    2    0    0  0.33072855761E+02  0.14923423321E+02  0.35879569685E+03  0.38167586788E+03  0.12500237476E+03 0.  0.
         23    2    1    2    0    0 -0.33072855761E+02 -0.14923423321E+02  0.11088357073E+03  0.13258836826E+03  0.62991958111E+02 0.  0.
          5    1    3    3  502    0  0.48162499626E+02 -0.19205292584E+02  0.55653383179E+02  0.76209308439E+02  0.47000000000E+01 0.  1.
         -5    1    3    3    0  502 -0.15089643865E+02  0.34128715905E+02  0.30314231367E+03  0.30546655945E+03  0.47000000000E+01 0.  1.
        -11    1    4    4    0    0  0.52780159256E+01  0.19652119401E+02  0.23468619481E+02  0.31061863264E+02  0.00000000000E+00 0.  1.
         11    1    4    4    0    0 -0.38350871687E+02 -0.34575542722E+02  0.87414951253E+02  0.10152650499E+03  0.00000000000E+00 0. -1.
<mgrwt>
<rscale>  0 0.11252226E+03</rscale>
<asrwt>0</asrwt>
<pdfrwt beam="2">  1        2 0.34296134E-02 0.13016188E+03</pdfrwt>
<pdfrwt beam="1">  1       -2 0.75687953E-01 0.13016188E+03</pdfrwt>
<totfact> 0.39780958E+03</totfact>
</mgrwt>
</event>
<event>
 8    1  0.9424564E-006  0.1397827E+03  0.7546771E-02  0.1224715E+00
         -2   -1    0    0    0  501 -0.00000000000E+00  0.00000000000E+00  0.24631072820E+02  0.24631072820E+02  0.00000000000E+00 0.  1.
          2   -1    0    0  501    0  0.00000000000E+00 -0.00000000000E+00 -0.63729490752E+03  0.63729490752E+03  0.00000000000E+00 0. -1.
         23    2    1    2    0    0 -0.49323003250E+02 -0.38464956786E+02 -0.35084153117E+03  0.37766252649E+03  0.12500756926E+03 0.  0.
         23    2    1    2    0    0  0.49323003250E+02  0.38464956786E+02 -0.26182230353E+03  0.28426345384E+03  0.91337183102E+02 0.  0.
          5    1    3    3  502    0 -0.46780040633E+00  0.25648111586E+02 -0.10903515691E+02  0.28266961626E+02  0.47000000000E+01 0. -1.
         -5    1    3    3    0  502 -0.48855202843E+02 -0.64113068371E+02 -0.33993801548E+03  0.34939556487E+03  0.47000000000E+01 0. -1.
        -11    1    4    4    0    0  0.33218729345E+02  0.33448193854E+02 -0.26315433152E+03  0.26734335198E+03  0.00000000000E+00 0. -1.
         11    1    4    4    0    0  0.16104273905E+02  0.50167629316E+01  0.13320279966E+01  0.16920101858E+02  0.00000000000E+00 0.  1.
<mgrwt>
<rscale>  0 0.13186463E+03</rscale>
<asrwt>0</asrwt>
<pdfrwt beam="2">  1        2 0.98045374E-01 0.13978270E+03</pdfrwt>
<pdfrwt beam="1">  1       -2 0.37893957E-02 0.13978270E+03</pdfrwt>
<totfact> 0.13356435E+04</totfact>
</mgrwt>
</event>
<event>
 8    1  0.9424564E-006  0.1412579E+03  0.7546771E-02  0.1222714E+00
         -2   -1    0    0    0  501 -0.00000000000E+00  0.00000000000E+00  0.21575772989E+03  0.21575772989E+03  0.00000000000E+00 0.  1.
          2   -1    0    0  501    0  0.00000000000E+00 -0.00000000000E+00 -0.97942548013E+02  0.97942548013E+02  0.00000000000E+00 0. -1.
         23    2    1    2    0    0  0.46736526028E+02 -0.46311072744E+02  0.14088325473E+03  0.19950410181E+03  0.12499910740E+03 0.  0.
         23    2    1    2    0    0 -0.46736526028E+02  0.46311072744E+02 -0.23068072855E+02  0.11419617609E+03  0.90441209217E+02 0.  0.
          5    1    3    3  502    0 -0.17214753172E+02 -0.69569160881E+02  0.59121081719E+02  0.93024771841E+02  0.47000000000E+01 0. -1.
         -5    1    3    3    0  502  0.63951279200E+02  0.23258088137E+02  0.81762173012E+02  0.10647932997E+03  0.47000000000E+01 0. -1.
        -11    1    4    4    0    0  0.25774146387E+02  0.25685438563E+02 -0.56566991625E+01  0.36824538308E+02  0.00000000000E+00 0. -1.
         11    1    4    4    0    0 -0.72510672414E+02  0.20625634180E+02 -0.17411373693E+02  0.77371637783E+02  0.00000000000E+00 0.  1.
<mgrwt>
<rscale>  0 0.13324803E+03</rscale>
<asrwt>0</asrwt>
<pdfrwt beam="2">  1        2 0.15068084E-01 0.14125790E+03</pdfrwt>
<pdfrwt beam="1">  1       -2 0.33193497E-01 0.14125790E+03</pdfrwt>
<totfact> 0.31671847E+03</totfact>
</mgrwt>
</event>
<event>
 8    1  0.9424564E-006  0.1532668E+03  0.7546771E-02  0.1205277E+00
         -1   -1    0    0    0  501 -0.00000000000E+00  0.00000000000E+00  0.25506642969E+03  0.25506642969E+03  0.00000000000E+00 0.  1.
          1   -1    0    0  501    0  0.00000000000E+00 -0.00000000000E+00 -0.97154650167E+02  0.97154650167E+02  0.00000000000E+00 0. -1.
         23    2    1    2    0    0  0.77679462198E+02 -0.42794972888E+02  0.16509719094E+03  0.22527267925E+03  0.12500075603E+03 0.  0.
         23    2    1    2    0    0 -0.77679462198E+02  0.42794972888E+02 -0.71854114185E+01  0.12694840061E+03  0.90546991817E+02 0.  0.
          5    1    3    3  502    0  0.39594021775E+02 -0.73183693774E+02  0.43108440650E+02  0.93829458327E+02  0.47000000000E+01 0.  1.
         -5    1    3    3    0  502  0.38085440423E+02  0.30388720886E+02  0.12198875029E+03  0.13144322093E+03  0.47000000000E+01 0.  1.
        -11    1    4    4    0    0 -0.12495932352E+02 -0.20037345281E+02 -0.25310309093E+02  0.34615824093E+02  0.00000000000E+00 0. -1.
         11    1    4    4    0    0 -0.65183529846E+02  0.62832318169E+02  0.18124897675E+02  0.92332576512E+02  0.00000000000E+00 0.  1.
<mgrwt>
<rscale>  0 0.14615665E+03</rscale>
<asrwt>0</asrwt>
<pdfrwt beam="2">  1        1 0.14946869E-01 0.15326675E+03</pdfrwt>
<pdfrwt beam="1">  1       -1 0.39240989E-01 0.15326675E+03</pdfrwt>
<totfact> 0.23331818E+03</totfact>
</mgrwt>
</event>
<event>
 8    1  0.9424564E-006  0.1276549E+03  0.7546771E-02  0.1246061E+00
          2   -1    0    0  501    0  0.00000000000E+00  0.00000000000E+00  0.16860765261E+03  0.16860765261E+03  0.00000000000E+00 0. -1.
         -2   -1    0    0    0  501 -0.00000000000E+00 -0.00000000000E+00 -0.75231370470E+02  0.75231370470E+02  0.00000000000E+00 0.  1.
         23    2    1    2    0    0 -0.16077129669E+02 -0.20303867452E+02  0.31821704280E+02  0.13156141927E+03  0.12500026018E+03 0.  0.
         23    2    1    2    0    0  0.16077129669E+02  0.20303867452E+02  0.61554577858E+02  0.11227760381E+03  0.90258368756E+02 0.  0.
          5    1    3    3  502    0 -0.64312497233E+02 -0.13631641796E+02  0.46296196534E+02  0.80544067267E+02  0.47000000000E+01 0.  1.
         -5    1    3    3    0  502  0.48235367563E+02 -0.66722256560E+01 -0.14474492254E+02  0.51017352001E+02  0.47000000000E+01 0.  1.
        -11    1    4    4    0    0 -0.32569199443E+02  0.84617966345E+01  0.94570400608E+00  0.33663765545E+02  0.00000000000E+00 0.  1.
         11    1    4    4    0    0  0.48646329112E+02  0.11842070817E+02  0.60608873852E+02  0.78613838266E+02  0.00000000000E+00 0. -1.
<mgrwt>
<rscale>  0 0.11822114E+03</rscale>
<asrwt>0</asrwt>
<pdfrwt beam="1">  1        2 0.25939639E-01 0.12765495E+03</pdfrwt>
<pdfrwt beam="2">  1       -2 0.11574057E-01 0.12765495E+03</pdfrwt>
<totfact> 0.10136908E+04</totfact>
</mgrwt>
</event>
<event>
 8    1  0.9424564E-006  0.1261821E+03  0.7546771E-02  0.1248406E+00
          1   -1    0    0  501    0  0.00000000000E+00  0.00000000000E+00  0.30583634233E+03  0.30583634233E+03  0.00000000000E+00 0. -1.
         -1   -1    0    0    0  501 -0.00000000000E+00 -0.00000000000E+00 -0.40413330460E+02  0.40413330460E+02  0.00000000000E+00 0.  1.
         23    2    1    2    0    0 -0.11755335718E+02  0.12576459846E+02  0.12249370850E+03  0.17585971518E+03  0.12500230214E+03 0.  0.
         23    2    1    2    0    0  0.11755335718E+02 -0.12576459846E+02  0.14292930336E+03  0.17038995760E+03  0.91146018189E+02 0.  0.
          5    1    3    3  502    0  0.22474108350E+02  0.56625125499E+02  0.96307160749E+02  0.11405546719E+03  0.47000000000E+01 0.  1.
         -5    1    3    3    0  502 -0.34229444068E+02 -0.44048665653E+02  0.26186547753E+02  0.61804247995E+02  0.47000000000E+01 0.  1.
        -11    1    4    4    0    0 -0.36654746123E+01 -0.42902013283E+02  0.30081584177E+02  0.52525423886E+02  0.00000000000E+00 0.  1.
         11    1    4    4    0    0  0.15420810331E+02  0.30325553437E+02  0.11284771919E+03  0.11786453372E+03  0.00000000000E+00 0. -1.
<mgrwt>
<rscale>  0 0.11683841E+03</rscale>
<asrwt>0</asrwt>
<pdfrwt beam="1">  1        1 0.47051743E-01 0.12618213E+03</pdfrwt>
<pdfrwt beam="2">  1       -1 0.62174357E-02 0.12618213E+03</pdfrwt>
<totfact> 0.10176849E+04</totfact>
</mgrwt>
</event>
<event>
 8    1  0.1409669E-005  0.1463216E+03  0.7546771E-02  0.1215917E+00
          2   -1    0    0  501    0  0.00000000000E+00  0.00000000000E+00  0.11503279898E+03  0.11503279898E+03  0.00000000000E+00 0. -1.
         -2   -1    0    0    0  501 -0.00000000000E+00 -0.00000000000E+00 -0.15924495457E+03  0.15924495457E+03  0.00000000000E+00 0.  1.
         23    2    1    2    0    0 -0.63879094191E+02 -0.41294810538E+02 -0.57957068320E+02  0.15738177799E+03  0.12499680885E+03 0.  0.
         23    2    1    2    0    0  0.63879094191E+02  0.41294810538E+02  0.13744912728E+02  0.11689597556E+03  0.87692339600E+02 0.  0.
          5    1    3    3  502    0 -0.78282014641E+02 -0.53402800126E+02 -0.82756392516E+02  0.12589933828E+03  0.47000000000E+01 0.  1.
         -5    1    3    3    0  502  0.14402920450E+02  0.12107989588E+02  0.24799324196E+02  0.31482439708E+02  0.47000000000E+01 0.  1.
        -11    1    4    4    0    0 -0.39490163584E+01  0.41947139873E+02 -0.12832975792E+02  0.44043643598E+02  0.00000000000E+00 0.  1.
         11    1    4    4    0    0  0.67828110550E+02 -0.65232933530E+00  0.26577888519E+02  0.72852331963E+02  0.00000000000E+00 0. -1.
<mgrwt>
<rscale>  0 0.13809418E+03</rscale>
<asrwt>0</asrwt>
<pdfrwt beam="1">  1        2 0.17697354E-01 0.14632157E+03</pdfrwt>
<pdfrwt beam="2">  1       -2 0.24499224E-01 0.14632157E+03</pdfrwt>
<totfact> 0.45295144E+03</totfact>
</mgrwt>
</event>
<event>
 8    1  0.1064117E-005  0.2177936E+03  0.7546771E-02  0.1138662E+00
         -2   -1    0    0    0  501 -0.00000000000E+00  0.00000000000E+00  0.17215565354E+03  0.17215565354E+03  0.00000000000E+00 0.  1.
          2   -1    0    0  501    0  0.00000000000E+00 -0.00000000000E+00 -0.25739477984E+03  0.25739477984E+03  0.00000000000E+00 0. -1.
         23    2    1    2    0    0  0.13183562995E+03 -0.12011533630E+03 -0.27351724769E+02  0.21950436784E+03  0.12500289322E+03 0.  0.
         23    2    1    2    0    0 -0.13183562995E+03  0.12011533630E+03 -0.57887401535E+02  0.21004606554E+03  0.94657651849E+02 0.  0.
          5    1    3    3  502    0  0.15481816213E+03 -0.88593442254E+02 -0.24464984310E+02  0.18010576557E+03  0.47000000000E+01 0.  1.
         -5    1    3    3    0  502 -0.22982532182E+02 -0.31521894050E+02 -0.28867404592E+01  0.39398602265E+02  0.47000000000E+01 0.  1.
        -11    1    4    4    0    0 -0.83210713330E+02  0.13007141975E+02 -0.21593527031E+02  0.86945321696E+02  0.00000000000E+00 0.  1.
         11    1    4    4    0    0 -0.48624916617E+02  0.10710819433E+03 -0.36293874503E+02  0.12310074384E+03  0.00000000000E+00 0. -1.
<mgrwt>
<rscale>  0 0.21370973E+03</rscale>
<asrwt>0</asrwt>
<pdfrwt beam="2">  1        2 0.39599197E-01 0.21779360E+03</pdfrwt>
<pdfrwt beam="1">  1       -2 0.26485485E-01 0.21779360E+03</pdfrwt>
<totfact> 0.16451254E+03</totfact>
</mgrwt>
</event>
<event>
 8    1  0.9424564E-006  0.1568844E+03  0.7546771E-02  0.1200191E+00
          1   -1    0    0  501    0  0.00000000000E+00  0.00000000000E+00  0.81876943396E+02  0.81876943396E+02  0.00000000000E+00 0. -1.
         -1   -1    0    0    0  501 -0.00000000000E+00 -0.00000000000E+00 -0.27111355603E+03  0.27111355603E+03  0.00000000000E+00 0.  1.
         23    2    1    2    0    0 -0.86029677347E+02 -0.39864049294E+02 -0.14562905546E+03  0.21405731626E+03  0.12498985976E+03 0.  0.
         23    2    1    2    0    0  0.86029677347E+02  0.39864049294E+02 -0.43607557175E+02  0.13893318316E+03  0.91709119124E+02 0.  0.
          5    1    3    3  502    0 -0.47917250545E+02 -0.38363548280E+01  0.10379252160E+02  0.49402422952E+02  0.47000000000E+01 0.  1.
         -5    1    3    3    0  502 -0.38112426802E+02 -0.36027694466E+02 -0.15600830762E+03  0.16465489331E+03  0.47000000000E+01 0.  1.
        -11    1    4    4    0    0  0.22311650598E+02  0.54776560876E+02 -0.43623306809E+02  0.73493362086E+02  0.00000000000E+00 0.  1.
         11    1    4    4    0    0  0.63718026750E+02 -0.14912511582E+02  0.15749634097E-01  0.65439821077E+02  0.00000000000E+00 0. -1.
<mgrwt>
<rscale>  0 0.15022977E+03</rscale>
<asrwt>0</asrwt>
<pdfrwt beam="1">  1        1 0.12596453E-01 0.15688439E+03</pdfrwt>
<pdfrwt beam="2">  1       -1 0.41709777E-01 0.15688439E+03</pdfrwt>
<totfact> 0.26228635E+03</totfact>
</mgrwt>
</event>
<event>
 8    1  0.9424564E-006  0.1398079E+03  0.7546771E-02  0.1226567E+00
         -3   -1    0    0    0  501 -0.00000000000E+00  0.00000000000E+00  0.72819232843E+02  0.72819232843E+02  0.00000000000E+00 0.  1.
          3   -1    0    0  501    0  0.00000000000E+00 -0.00000000000E+00 -0.21012886215E+03  0.21012886215E+03  0.00000000000E+00 0. -1.
         23    2    1    2    0    0 -0.62391935434E+02  0.53541677176E+01 -0.64485067205E+02  0.15396293454E+03  0.12499936240E+03 0.  0.
         23    2    1    2    0    0  0.62391935434E+02 -0.53541677176E+01 -0.72824562102E+02  0.12898516046E+03  0.86094913053E+02 0.  0.
          5    1    3    3  502    0  0.48269589207E+01  0.37593022882E+02 -0.69281443260E+02  0.79110955512E+02  0.47000000000E+01 0. -1.
         -5    1    3    3    0  502 -0.67218894355E+02 -0.32238855165E+02  0.47963760551E+01  0.74851979024E+02  0.47000000000E+01 0. -1.
        -11    1    4    4    0    0  0.51176855016E+02  0.15376436254E+02 -0.10581583991E+01  0.53447403869E+02  0.00000000000E+00 0.  1.
         11    1    4    4    0    0  0.11215080418E+02 -0.20730603972E+02 -0.71766403703E+02  0.75537756588E+02  0.00000000000E+00 0. -1.
<mgrwt>
<rscale>  0 0.13060073E+03</rscale>
<asrwt>0</asrwt>
<pdfrwt beam="2">  1        3 0.32327517E-01 0.13980794E+03</pdfrwt>
<pdfrwt beam="1">  1       -3 0.11202959E-01 0.13980794E+03</pdfrwt>
<totfact> 0.13164155E+03</totfact>
</mgrwt>
</event>
<event>
 8    1  0.9424564E-006  0.2287410E+03  0.7546771E-02  0.1129671E+00
          1   -1    0    0  501    0  0.00000000000E+00  0.00000000000E+00  0.49566118245E+02  0.49566118245E+02  0.00000000000E+00 0. -1.
         -1   -1    0    0    0  501 -0.00000000000E+00 -0.00000000000E+00 -0.10373350428E+04  0.10373350428E+04  0.00000000000E+00 0.  1.
         23    2    1    2    0    0 -0.40065975628E+02 -0.18732789963E+03 -0.60663389180E+03  0.64832641671E+03  0.12500175817E+03 0.  0.
         23    2    1    2    0    0  0.40065975628E+02  0.18732789963E+03 -0.38113503280E+03  0.43857474438E+03  0.10191598891E+03 0.  0.
          5    1    3    3  502    0 -0.68697540219E+02 -0.18714844625E+03 -0.54024715939E+03  0.57587583401E+03  0.47000000000E+01 0.  1.
         -5    1    3    3    0  502  0.28631564591E+02 -0.17945338141E+00 -0.66386732404E+02  0.72450582701E+02  0.47000000000E+01 0.  1.
        -11    1    4    4    0    0  0.59872984010E+02  0.77786802517E+02 -0.12232578504E+03  0.15684118894E+03  0.00000000000E+00 0. -1.
         11    1    4    4    0    0 -0.19807008382E+02  0.10954109711E+03 -0.25880924775E+03  0.28173355544E+03  0.00000000000E+00 0.  1.
<mgrwt>
<rscale>  0 0.22574447E+03</rscale>
<asrwt>0</asrwt>
<pdfrwt beam="1">  1        1 0.76255576E-02 0.22874104E+03</pdfrwt>
<pdfrwt beam="2">  1       -1 0.15958999E+00 0.22874104E+03</pdfrwt>
<totfact> 0.29814172E+02</totfact>
</mgrwt>
</event>
<event>
 8    1  0.9424564E-006  0.1664043E+03  0.7546771E-02  0.1188528E+00
         -3   -1    0    0    0  501 -0.00000000000E+00  0.00000000000E+00  0.42584566877E+03  0.42584566877E+03  0.00000000000E+00 0. -1.
          3   -1    0    0  501    0  0.00000000000E+00 -0.00000000000E+00 -0.61573361993E+02  0.61573361993E+02  0.00000000000E+00 0.  1.
         23    2    1    2    0    0  0.97363905996E+02  0.50855121114E+02  0.26720627671E+03  0.31478498864E+03  0.12499768488E+03 0.  0.
         23    2    1    2    0    0 -0.97363905996E+02 -0.50855121114E+02  0.97066030063E+02  0.17263404212E+03  0.91185112663E+02 0.  0.
          5    1    3    3  502    0  0.12564805561E+03  0.45557357653E+02  0.19077392590E+03  0.23298001528E+03  0.47000000000E+01 0.  1.
         -5    1    3    3    0  502 -0.28284149612E+02  0.52977634613E+01  0.76432350809E+02  0.81804973365E+02  0.47000000000E+01 0.  1.
        -11    1    4    4    0    0 -0.34141666631E+02 -0.27560091606E+02  0.95659099370E+02  0.10524198469E+03  0.00000000000E+00 0. -1.
         11    1    4    4    0    0 -0.63222239366E+02 -0.23295029509E+02  0.14069306936E+01  0.67392057427E+02  0.00000000000E+00 0.  1.
<mgrwt>
<rscale>  0 0.16014958E+03</rscale>
<asrwt>0</asrwt>
<pdfrwt beam="2">  1        3 0.94728252E-02 0.16640431E+03</pdfrwt>
<pdfrwt beam="1">  1       -3 0.65514717E-01 0.16640431E+03</pdfrwt>
<totfact> 0.44123457E+02</totfact>
</mgrwt>
</event>
<event>
 8    1  0.1149454E-005  0.3756685E+03  0.7546771E-02  0.1053398E+00
          2   -1    0    0  501    0  0.00000000000E+00  0.00000000000E+00  0.12886195374E+04  0.12886195374E+04  0.00000000000E+00 0. -1.
         -2   -1    0    0    0  501 -0.00000000000E+00 -0.00000000000E+00 -0.12557645982E+03  0.12557645982E+03  0.00000000000E+00 0.  1.
         23    2    1    2    0    0 -0.21106770438E+03  0.28452273343E+03  0.31496397255E+03  0.49023376551E+03  0.12499631661E+03 0.  0.
         23    2    1    2    0    0  0.21106770438E+03 -0.28452273343E+03  0.84807910507E+03  0.92396223176E+03  0.94685139243E+02 0.  0.
          5    1    3    3  502    0 -0.17855095899E+03  0.25051385294E+03  0.20275719943E+03  0.36847009023E+03  0.47000000000E+01 0.  1.
         -5    1    3    3    0  502 -0.32516745392E+02  0.34008880488E+02  0.11220677313E+03  0.12176367528E+03  0.47000000000E+01 0.  1.
        -11    1    4    4    0    0  0.16515002079E+03 -0.15016224143E+03  0.47690366743E+03  0.52655515962E+03  0.00000000000E+00 0.  1.
         11    1    4    4    0    0  0.45917683586E+02 -0.13436049200E+03  0.37117543764E+03  0.39740707214E+03  0.00000000000E+00 0. -1.
<mgrwt>
<rscale>  0 0.37340574E+03</rscale>
<asrwt>0</asrwt>
<pdfrwt beam="1">  1        2 0.19824915E+00 0.37566853E+03</pdfrwt>
<pdfrwt beam="2">  1       -2 0.19319456E-01 0.37566853E+03</pdfrwt>
<totfact> 0.39484708E+02</totfact>
</mgrwt>
</event>
<event>
 8    1  0.9424564E-006  0.1274354E+03  0.7546771E-02  0.1246060E+00
          2   -1    0    0  501    0  0.00000000000E+00  0.00000000000E+00  0.69759499107E+03  0.69759499107E+03  0.00000000000E+00 0. -1.
         -2   -1    0    0    0  501 -0.00000000000E+00 -0.00000000000E+00 -0.22005888280E+02  0.22005888280E+02  0.00000000000E+00 0.  1.
         23    2    1    2    0    0 -0.23216024805E+02 -0.87207904625E+01  0.21918349411E+03  0.25353733882E+03  0.12499896836E+03 0.  0.
         23    2    1    2    0    0  0.23216024805E+02  0.87207904625E+01  0.45640560868E+03  0.46606354053E+03  0.91071994493E+02 0.  0.
          5    1    3    3  502    0  0.33100678725E+02  0.40278047379E+02  0.98786365093E+02  0.11179808568E+03  0.47000000000E+01 0. -1.
         -5    1    3    3    0  502 -0.56316703530E+02 -0.48998837841E+02  0.12039712901E+03  0.14173925314E+03  0.47000000000E+01 0. -1.
        -11    1    4    4    0    0  0.12677269209E+02 -0.41150146323E+02  0.18895649343E+03  0.19380042339E+03  0.00000000000E+00 0.  1.
         11    1    4    4    0    0  0.10538755596E+02  0.49870936786E+02  0.26744911525E+03  0.27226311714E+03  0.00000000000E+00 0. -1.
<mgrwt>
<rscale>  0 0.11822165E+03</rscale>
<asrwt>0</asrwt>
<pdfrwt beam="1">  1        2 0.10732229E+00 0.12743539E+03</pdfrwt>
<pdfrwt beam="2">  1       -2 0.33855218E-02 0.12743539E+03</pdfrwt>
<totfact> 0.14100581E+04</totfact>
</mgrwt>
</event>
<event>
 8    1  0.9424564E-006  0.1266675E+03  0.7546771E-02  0.1247835E+00
         -2   -1    0    0    0  501 -0.00000000000E+00  0.00000000000E+00  0.19189348691E+03  0.19189348691E+03  0.00000000000E+00 0.  1.
          2   -1    0    0  501    0  0.00000000000E+00 -0.00000000000E+00 -0.10040896608E+03  0.10040896608E+03  0.00000000000E+00 0. -1.
         23    2    1    2    0    0  0.25925357403E+02  0.10176695344E+02  0.13902631735E+03  0.18807701553E+03  0.12356762347E+03 0.  0.
         23    2    1    2    0    0 -0.25925357403E+02 -0.10176695344E+02 -0.47541796527E+02  0.10422543745E+03  0.88470504182E+02 0.  0.
          5    1    3    3  502    0  0.38654970337E+02  0.49545312520E+02  0.26991031756E+02  0.68553267754E+02  0.47000000000E+01 0. -1.
         -5    1    3    3    0  502 -0.12729612935E+02 -0.39368617177E+02  0.11203528560E+03  0.11952374778E+03  0.47000000000E+01 0.  1.
        -11    1    4    4    0    0  0.23345494085E+02  0.23347652278E+02 -0.19705512034E+02  0.38450385765E+02  0.00000000000E+00 0.  1.
         11    1    4    4    0    0 -0.49270851488E+02 -0.33524347622E+02 -0.27836284493E+02  0.65775051686E+02  0.00000000000E+00 0. -1.
<mgrwt>
<rscale>  0 0.11717320E+03</rscale>
<asrwt>0</asrwt>
<pdfrwt beam="2">  1        2 0.15447533E-01 0.12666747E+03</pdfrwt>
<pdfrwt beam="1">  1       -2 0.29522075E-01 0.12666747E+03</pdfrwt>
<totfact> 0.37796272E+03</totfact>
</mgrwt>
</event>
<event>
 8    1  0.9424564E-006  0.1608738E+03  0.7546771E-02  0.1194978E+00
         -1   -1    0    0    0  501 -0.00000000000E+00  0.00000000000E+00  0.30196115090E+03  0.30196115090E+03  0.00000000000E+00 0.  1.
          1   -1    0    0  501    0  0.00000000000E+00 -0.00000000000E+00 -0.89163204537E+02  0.89163204537E+02  0.00000000000E+00 0. -1.
         23    2    1    2    0    0 -0.30871586485E+02 -0.96338867381E+02  0.19517060345E+03  0.25292678113E+03  0.12508461113E+03 0.  0.
         23    2    1    2    0    0  0.30871586485E+02  0.96338867381E+02  0.17627342915E+02  0.13819757431E+03  0.92485750823E+02 0.  0.
          5    1    3    3  502    0  0.99423727295E+01 -0.47410363355E+02  0.11770189693E+01  0.48683351391E+02  0.47000000000E+01 0. -1.
         -5    1    3    3    0  502 -0.40813959215E+02 -0.48928504026E+02  0.19399358448E+03  0.20424342974E+03  0.47000000000E+01 0. -1.
        -11    1    4    4    0    0  0.41493845631E+02  0.43534002422E+02  0.47471825583E+02  0.76619337091E+02  0.00000000000E+00 0.  1.
         11    1    4    4    0    0 -0.10622259146E+02  0.52804864959E+02 -0.29844482668E+02  0.61578237214E+02  0.00000000000E+00 0. -1.
<mgrwt>
<rscale>  0 0.15456056E+03</rscale>
<asrwt>0</asrwt>
<pdfrwt beam="2">  1        1 0.13717416E-01 0.16087384E+03</pdfrwt>
<pdfrwt beam="1">  1       -1 0.46455561E-01 0.16087384E+03</pdfrwt>
<totfact> 0.19362398E+03</totfact>
</mgrwt>
</event>
<event>
 8    1  0.9424564E-006  0.1311794E+03  0.7546771E-02  0.1237678E+00
          1   -1    0    0  501    0  0.00000000000E+00  0.00000000000E+00  0.32472088084E+03  0.32472088084E+03  0.00000000000E+00 0. -1.
         -1   -1    0    0    0  501 -0.00000000000E+00 -0.00000000000E+00 -0.42792964902E+02  0.42792964902E+02  0.00000000000E+00 0.  1.
         23    2    1    2    0    0 -0.15996121817E+02  0.36394237634E+02  0.13399508851E+03  0.18751723749E+03  0.12501045622E+03 0.  0.
         23    2    1    2    0    0  0.15996121817E+02 -0.36394237634E+02  0.14793282743E+03  0.17999660825E+03  0.94521114598E+02 0.  0.
          5    1    3    3  502    0 -0.13152172906E+02  0.11769325738E+02  0.15414802767E+03  0.15522629003E+03  0.47000000000E+01 0. -1.
         -5    1    3    3    0  502 -0.28439489109E+01  0.24624911896E+02 -0.20152939162E+02  0.32290947464E+02  0.47000000000E+01 0. -1.
        -11    1    4    4    0    0  0.17461845287E+02 -0.68353223696E+02  0.10174677225E+03  0.12381229702E+03  0.00000000000E+00 0. -1.
         11    1    4    4    0    0 -0.14657234698E+01  0.31958986062E+02  0.46186055181E+02  0.56184311232E+02  0.00000000000E+00 0.  1.
<mgrwt>
<rscale>  0 0.12334558E+03</rscale>
<asrwt>0</asrwt>
<pdfrwt beam="1">  1        1 0.49957057E-01 0.13117938E+03</pdfrwt>
<pdfrwt beam="2">  1       -1 0.65835333E-02 0.13117938E+03</pdfrwt>
<totfact> 0.87020519E+03</totfact>
</mgrwt>
</event>
<event>
 8    1  0.9424564E-006  0.2418524E+03  0.7546771E-02  0.1121180E+00
          1   -1    0    0  501    0  0.00000000000E+00  0.00000000000E+00  0.14600136245E+03  0.14600136245E+03  0.00000000000E+00 0. -1.
         -1   -1    0    0    0  501 -0.00000000000E+00 -0.00000000000E+00 -0.37595660983E+03  0.37595660983E+03  0.00000000000E+00 0.  1.
         23    2    1    2    0    0  0.18076639674E+02 -0.20625101403E+03 -0.11143849144E+03  0.26629141182E+03  0.12500533167E+03 0.  0.
         23    2    1    2    0    0 -0.18076639674E+02  0.20625101403E+03 -0.11851675594E+03  0.25566656046E+03  0.91939779260E+02 0.  0.
          5    1    3    3  502    0 -0.23502950708E+02 -0.14735715921E+03 -0.21350092276E+02  0.15081259066E+03  0.47000000000E+01 0.  1.
         -5    1    3    3    0  502  0.41579590382E+02 -0.58893854820E+02 -0.90088399168E+02  0.11547882116E+03  0.47000000000E+01 0.  1.
        -11    1    4    4    0    0 -0.46387453580E+02  0.15388531397E+03 -0.11174591198E+03  0.19575401541E+03  0.00000000000E+00 0.  1.
         11    1    4    4    0    0  0.28310813906E+02  0.52365700058E+02 -0.67708439599E+01  0.59912545051E+02  0.00000000000E+00 0. -1.
<mgrwt>
<rscale>  0 0.23792920E+03</rscale>
<asrwt>0</asrwt>
<pdfrwt beam="1">  1        1 0.22461748E-01 0.24185239E+03</pdfrwt>
<pdfrwt beam="2">  1       -1 0.57839478E-01 0.24185239E+03</pdfrwt>
<totfact> 0.68619324E+02</totfact>
</mgrwt>
</event>
<event>
 8    1  0.9424564E-006  0.1251404E+03  0.7546771E-02  0.1250040E+00
          2   -1    0    0  501    0  0.00000000000E+00  0.00000000000E+00  0.30102011186E+03  0.30102011186E+03  0.00000000000E+00 0. -1.
         -2   -1    0    0    0  501 -0.00000000000E+00 -0.00000000000E+00 -0.40887827451E+02  0.40887827451E+02  0.00000000000E+00 0.  1.
         23    2    1    2    0    0  0.24783444334E+00 -0.60541907834E+01  0.11442397209E+03  0.16956698305E+03  0.12499360665E+03 0.  0.
         23    2    1    2    0    0 -0.24783444334E+00  0.60541907834E+01  0.14570831232E+03  0.17234095626E+03  0.91835604630E+02 0.  0.
          5    1    3    3  502    0  0.66924589765E+01 -0.47848682691E+02  0.11398999362E+01  0.48555893713E+02  0.47000000000E+01 0.  1.
         -5    1    3    3    0  502 -0.64446245332E+01  0.41794491908E+02  0.11328407215E+03  0.12101108933E+03  0.47000000000E+01 0.  1.
        -11    1    4    4    0    0 -0.14842142898E+02  0.41367015515E+02  0.38150565163E+02  0.58197807524E+02  0.00000000000E+00 0.  1.
         11    1    4    4    0    0  0.14594308455E+02 -0.35312824731E+02  0.10755774716E+03  0.11414314874E+03  0.00000000000E+00 0. -1.
<mgrwt>
<rscale>  0 0.11588753E+03</rscale>
<asrwt>0</asrwt>
<pdfrwt beam="1">  1        2 0.46310785E-01 0.12514039E+03</pdfrwt>
<pdfrwt beam="2">  1       -2 0.62904352E-02 0.12514039E+03</pdfrwt>
<totfact> 0.13996287E+04</totfact>
</mgrwt>
</event>
<event>
 8    1  0.9424564E-006  0.1542869E+03  0.7546771E-02  0.1203052E+00
          2   -1    0    0  501    0  0.00000000000E+00  0.00000000000E+00  0.58206739220E+02  0.58206739220E+02  0.00000000000E+00 0. -1.
         -2   -1    0    0    0  501 -0.00000000000E+00 -0.00000000000E+00 -0.35369236359E+03  0.35369236359E+03  0.00000000000E+00 0.  1.
         23    2    1    2    0    0  0.25498417912E+02 -0.86772294843E+02 -0.18603067616E+03  0.24168542884E+03  0.12499933429E+03 0.  0.
         23    2    1    2    0    0 -0.25498417912E+02  0.86772294843E+02 -0.10945494821E+03  0.17021367397E+03  0.93876028094E+02 0.  0.
          5    1    3    3  502    0 -0.22278977169E+02 -0.10141358518E+03 -0.12026627633E+03  0.15895639435E+03  0.47000000000E+01 0. -1.
         -5    1    3    3    0  502  0.47777395080E+02  0.14641290332E+02 -0.65764399829E+02  0.82729034493E+02  0.47000000000E+01 0. -1.
        -11    1    4    4    0    0 -0.26226911677E+02  0.48779569160E+02 -0.11058459377E+01  0.55394224959E+02  0.00000000000E+00 0. -1.
         11    1    4    4    0    0  0.72849376533E+00  0.37992725683E+02 -0.10834910228E+03  0.11481944901E+03  0.00000000000E+00 0.  1.
<mgrwt>
<rscale>  0 0.14792046E+03</rscale>
<asrwt>0</asrwt>
<pdfrwt beam="1">  1        2 0.89548832E-02 0.15428686E+03</pdfrwt>
<pdfrwt beam="2">  1       -2 0.54414209E-01 0.15428686E+03</pdfrwt>
<totfact> 0.23116898E+03</totfact>
</mgrwt>
</event>
<event>
 8    1  0.9424564E-006  0.1691605E+03  0.7546771E-02  0.1185415E+00
         -1   -1    0    0    0  501 -0.00000000000E+00  0.00000000000E+00  0.33023966749E+02  0.33023966749E+02  0.00000000000E+00 0.  1.
          1   -1    0    0  501    0  0.00000000000E+00 -0.00000000000E+00 -0.75957118109E+03  0.75957118109E+03  0.00000000000E+00 0. -1.
         23    2    1    2    0    0  0.11096089105E+03 -0.26048562384E+02 -0.43416191052E+03  0.46595260254E+03  0.12499766526E+03 0.  0.
         23    2    1    2    0    0 -0.11096089105E+03  0.26048562384E+02 -0.29238530382E+03  0.32664254530E+03  0.90638510393E+02 0.  0.
          5    1    3    3  502    0  0.10515215501E+02 -0.89251517332E+01 -0.28428410979E+03  0.28465729074E+03  0.47000000000E+01 0. -1.
         -5    1    3    3    0  502  0.10044567555E+03 -0.17123410651E+02 -0.14987780073E+03  0.18129531180E+03  0.47000000000E+01 0. -1.
        -11    1    4    4    0    0 -0.38015404718E+02  0.48172096754E+02 -0.78886506842E+02  0.99943998636E+02  0.00000000000E+00 0.  1.
         11    1    4    4    0    0 -0.72945486333E+02 -0.22123534370E+02 -0.21349879698E+03  0.22669854667E+03  0.00000000000E+00 0. -1.
<mgrwt>
<rscale>  0 0.16294160E+03</rscale>
<asrwt>0</asrwt>
<pdfrwt beam="2">  1        1 0.11685709E+00 0.16916047E+03</pdfrwt>
<pdfrwt beam="1">  1       -1 0.50806107E-02 0.16916047E+03</pdfrwt>
<totfact> 0.42106868E+03</totfact>
</mgrwt>
</event>
<event>
 8    1  0.9424564E-006  0.1550367E+03  0.7546771E-02  0.1203099E+00
         -1   -1    0    0    0  501 -0.00000000000E+00  0.00000000000E+00  0.44068891463E+02  0.44068891463E+02  0.00000000000E+00 0.  1.
          1   -1    0    0  501    0  0.00000000000E+00 -0.00000000000E+00 -0.48668904636E+03  0.48668904636E+03  0.00000000000E+00 0. -1.
         23    2    1    2    0    0 -0.16881611905E+02  0.90040258291E+02 -0.17398045972E+03  0.23303556556E+03  0.12507652665E+03 0.  0.
         23    2    1    2    0    0  0.16881611905E+02 -0.90040258291E+02 -0.26863969518E+03  0.29772237226E+03  0.89883748171E+02 0.  0.
          5    1    3    3  502    0  0.39063828602E+02  0.89516344160E+02 -0.96777966855E+02  0.13757624593E+03  0.47000000000E+01 0.  1.
         -5    1    3    3    0  502 -0.55945440507E+02  0.52391413135E+00 -0.77202492865E+02  0.95459319629E+02  0.47000000000E+01 0.  1.
        -11    1    4    4    0    0 -0.29707272388E+02 -0.72719700411E+02 -0.15928984480E+03  0.17760611340E+03  0.00000000000E+00 0.  1.
         11    1    4    4    0    0  0.46588884293E+02 -0.17320557880E+02 -0.10934985037E+03  0.12011625886E+03  0.00000000000E+00 0. -1.
<mgrwt>
<rscale>  0 0.14788255E+03</rscale>
<asrwt>0</asrwt>
<pdfrwt beam="2">  1        1 0.74875237E-01 0.15503669E+03</pdfrwt>
<pdfrwt beam="1">  1       -1 0.67798296E-02 0.15503669E+03</pdfrwt>
<totfact> 0.50407404E+03</totfact>
</mgrwt>
</event>
<event>
 8    1  0.9424564E-006  0.1251859E+03  0.7546771E-02  0.1251421E+00
          2   -1    0    0  501    0  0.00000000000E+00  0.00000000000E+00  0.43464572501E+02  0.43464572501E+02  0.00000000000E+00 0. -1.
         -2   -1    0    0    0  501 -0.00000000000E+00 -0.00000000000E+00 -0.26704634492E+03  0.26704634492E+03  0.00000000000E+00 0.  1.
         23    2    1    2    0    0 -0.31541001258E+01  0.58656992207E+01 -0.11667736298E+03  0.17112893597E+03  0.12500860339E+03 0.  0.
         23    2    1    2    0    0  0.31541001258E+01 -0.58656992207E+01 -0.10690440944E+03  0.13938198145E+03  0.89187606874E+02 0.  0.
          5    1    3    3  502    0  0.51515804932E+02  0.33730922775E+02 -0.43629313933E+02  0.75612567364E+02  0.47000000000E+01 0. -1.
         -5    1    3    3    0  502 -0.54669905058E+02 -0.27865223554E+02 -0.73048049043E+02  0.95516368607E+02  0.47000000000E+01 0. -1.
        -11    1    4    4    0    0 -0.18004771416E+02  0.28929705982E+02 -0.12028907251E+02  0.36135775785E+02  0.00000000000E+00 0. -1.
         11    1    4    4    0    0  0.21158871542E+02 -0.34795405203E+02 -0.94875502191E+02  0.10324620566E+03  0.00000000000E+00 0.  1.
<mgrwt>
<rscale>  0 0.11509184E+03</rscale>
<asrwt>0</asrwt>
<pdfrwt beam="1">  1        2 0.66868573E-02 0.12518588E+03</pdfrwt>
<pdfrwt beam="2">  1       -2 0.41084053E-01 0.12518588E+03</pdfrwt>
<totfact> 0.57084098E+03</totfact>
</mgrwt>
</event>
<event>
 8    1  0.9424564E-006  0.1527838E+03  0.7546771E-02  0.1205538E+00
          1   -1    0    0  501    0  0.00000000000E+00  0.00000000000E+00  0.98752518997E+02  0.98752518997E+02  0.00000000000E+00 0. -1.
         -1   -1    0    0    0  501 -0.00000000000E+00 -0.00000000000E+00 -0.21028160670E+03  0.21028160670E+03  0.00000000000E+00 0.  1.
         23    2    1    2    0    0 -0.36887624374E+02 -0.79524810698E+02 -0.96995825169E+02  0.18097261264E+03  0.12513194667E+03 0.  0.
         23    2    1    2    0    0  0.36887624374E+02  0.79524810698E+02 -0.14533262530E+02  0.12806151305E+03  0.92215199706E+02 0.  0.
          5    1    3    3  502    0  0.33005003334E+02 -0.19941667573E+02 -0.77898494260E+02  0.87047491398E+02  0.47000000000E+01 0. -1.
         -5    1    3    3    0  502 -0.69892627708E+02 -0.59583143125E+02 -0.19097330909E+02  0.93925121243E+02  0.47000000000E+01 0. -1.
        -11    1    4    4    0    0 -0.11188909053E+02  0.69258045707E+02 -0.30321173613E+02  0.76428019405E+02  0.00000000000E+00 0. -1.
         11    1    4    4    0    0  0.48076533427E+02  0.10266764991E+02  0.15787911084E+02  0.51633493647E+02  0.00000000000E+00 0.  1.
<mgrwt>
<rscale>  0 0.14595164E+03</rscale>
<asrwt>0</asrwt>
<pdfrwt beam="1">  1        1 0.15192695E-01 0.15278382E+03</pdfrwt>
<pdfrwt beam="2">  1       -1 0.32351016E-01 0.15278382E+03</pdfrwt>
<totfact> 0.31872722E+03</totfact>
</mgrwt>
</event>
<event>
 8    1  0.9424564E-006  0.1359018E+03  0.7546771E-02  0.1231460E+00
          1   -1    0    0  501    0  0.00000000000E+00  0.00000000000E+00  0.12386895331E+04  0.12386895331E+04  0.00000000000E+00 0. -1.
         -1   -1    0    0    0  501 -0.00000000000E+00 -0.00000000000E+00 -0.13404660414E+02  0.13404660414E+02  0.00000000000E+00 0.  1.
         23    2    1    2    0    0 -0.42441264075E+02 -0.32297198566E+02  0.90415308881E+03  0.91430962756E+03  0.12499966848E+03 0.  0.
         23    2    1    2    0    0  0.42441264075E+02  0.32297198566E+02  0.32113178387E+03  0.33778456594E+03  0.90157753114E+02 0.  0.
          5    1    3    3  502    0  0.21472461547E+02  0.59967360336E+00  0.30011842764E+02  0.37205200166E+02  0.47000000000E+01 0.  1.
         -5    1    3    3    0  502 -0.63913725622E+02 -0.32896872170E+02  0.87414124604E+03  0.87710442739E+03  0.47000000000E+01 0.  1.
        -11    1    4    4    0    0 -0.23093914538E+02  0.15757480780E+02  0.41074142332E+02  0.49686137478E+02  0.00000000000E+00 0.  1.
         11    1    4    4    0    0  0.65535178613E+02  0.16539717787E+02  0.28005764153E+03  0.28809842846E+03  0.00000000000E+00 0. -1.
<mgrwt>
<rscale>  0 0.12733812E+03</rscale>
<asrwt>0</asrwt>
<pdfrwt beam="1">  1        1 0.19056753E+00 0.13590176E+03</pdfrwt>
<pdfrwt beam="2">  1       -1 0.20622564E-02 0.13590176E+03</pdfrwt>
<totfact> 0.68747596E+03</totfact>
</mgrwt>
</event>
<event>
 8    1  0.9424564E-006  0.1390879E+03  0.7546771E-02  0.1225089E+00
         -2   -1    0    0    0  501 -0.00000000000E+00  0.00000000000E+00  0.26007187224E+02  0.26007187224E+02  0.00000000000E+00 0. -1.
          2   -1    0    0  501    0  0.00000000000E+00 -0.00000000000E+00 -0.68079523827E+03  0.68079523827E+03  0.00000000000E+00 0.  1.
         23    2    1    2    0    0  0.85710802985E+01  0.60401756212E+02 -0.24099945117E+03  0.27825560987E+03  0.12499445343E+03 0.  0.
         23    2    1    2    0    0 -0.85710802985E+01 -0.60401756212E+02 -0.41378859988E+03  0.42854681563E+03  0.93324874626E+02 0.  0.
          5    1    3    3  502    0  0.15942595022E+02 -0.14798771341E+02 -0.17906441418E+03  0.18044202502E+03  0.47000000000E+01 0. -1.
         -5    1    3    3    0  502 -0.73715147232E+01  0.75200527553E+02 -0.61935036993E+02  0.97813584848E+02  0.47000000000E+01 0. -1.
        -11    1    4    4    0    0 -0.45688102840E+02 -0.58051686661E+02 -0.25693741997E+03  0.26734666418E+03  0.00000000000E+00 0.  1.
         11    1    4    4    0    0  0.37117022541E+02 -0.23500695508E+01 -0.15685117991E+03  0.16120015145E+03  0.00000000000E+00 0. -1.
<mgrwt>
<rscale>  0 0.13160789E+03</rscale>
<asrwt>0</asrwt>
<pdfrwt beam="2">  1        2 0.10473773E+00 0.13908792E+03</pdfrwt>
<pdfrwt beam="1">  1       -2 0.40011056E-02 0.13908792E+03</pdfrwt>
<totfact> 0.11402480E+04</totfact>
</mgrwt>
</event>
<event>
 8    1  0.9424564E-006  0.1521071E+03  0.7546771E-02  0.1206967E+00
          1   -1    0    0  501    0  0.00000000000E+00  0.00000000000E+00  0.37197283387E+02  0.37197283387E+02  0.00000000000E+00 0. -1.
         -1   -1    0    0    0  501 -0.00000000000E+00 -0.00000000000E+00 -0.51980936262E+03  0.51980936262E+03  0.00000000000E+00 0.  1.
         23    2    1    2    0    0 -0.54639775882E+02  0.67278747220E+02 -0.28769538345E+03  0.32543079432E+03  0.12499853316E+03 0.  0.
         23    2    1    2    0    0  0.54639775882E+02 -0.67278747220E+02 -0.19491669578E+03  0.23157585169E+03  0.90127253687E+02 0.  0.
          5    1    3    3  502    0 -0.42425824273E+02  0.10333489907E+03 -0.18970189022E+03  0.22019752288E+03  0.47000000000E+01 0.  1.
         -5    1    3    3    0  502 -0.12213951608E+02 -0.36056151849E+02 -0.97993493238E+02  0.10523327144E+03  0.47000000000E+01 0.  1.
        -11    1    4    4    0    0  0.26671379566E+02 -0.68180698430E+02 -0.18939573822E+03  0.20305348011E+03  0.00000000000E+00 0.  1.
         11    1    4    4    0    0  0.27968396316E+02  0.90195121045E+00 -0.55209575558E+01  0.28522371584E+02  0.00000000000E+00 0. -1.
<mgrwt>
<rscale>  0 0.14483511E+03</rscale>
<asrwt>0</asrwt>
<pdfrwt beam="1">  1        1 0.57226590E-02 0.15210709E+03</pdfrwt>
<pdfrwt beam="2">  1       -1 0.79970671E-01 0.15210709E+03</pdfrwt>
<totfact> 0.21958612E+03</totfact>
</mgrwt>
</event>
<event>
 8    1  0.9424564E-006  0.2301984E+03  0.7546771E-02  0.1129572E+00
          2   -1    0    0  501    0  0.00000000000E+00  0.00000000000E+00  0.38087205084E+03  0.38087205084E+03  0.00000000000E+00 0. -1.
         -2   -1    0    0    0  501 -0.00000000000E+00 -0.00000000000E+00 -0.15087254075E+03  0.15087254075E+03  0.00000000000E+00 0.  1.
         23    2    1    2    0    0 -0.11035347570E+03 -0.15871727089E+03  0.17955471240E+02  0.23089759278E+03  0.12498895041E+03 0.  0.
         23    2    1    2    0    0  0.11035347570E+03  0.15871727089E+03  0.21204403885E+03  0.30084699881E+03  0.90427764537E+02 0.  0.
          5    1    3    3  502    0 -0.22783491016E+01 -0.44748776241E+01 -0.34625175877E+02  0.35301674307E+02  0.47000000000E+01 0. -1.
         -5    1    3    3    0  502 -0.10807512660E+03 -0.15424239327E+03  0.52580647117E+02  0.19559591847E+03  0.47000000000E+01 0. -1.
        -11    1    4    4    0    0  0.10831285375E+03  0.10996947458E+03  0.19601035865E+03  0.24948951947E+03  0.00000000000E+00 0.  1.
         11    1    4    4    0    0  0.20406219560E+01  0.48747796316E+02  0.16033680206E+02  0.51357479344E+02  0.00000000000E+00 0. -1.
<mgrwt>
<rscale>  0 0.22588286E+03</rscale>
<asrwt>0</asrwt>
<pdfrwt beam="1">  1        2 0.58595700E-01 0.23019839E+03</pdfrwt>
<pdfrwt beam="2">  1       -2 0.23211160E-01 0.23019839E+03</pdfrwt>
<totfact> 0.13621969E+03</totfact>
</mgrwt>
</event>
<event>
 8    1  0.9424564E-006  0.1947871E+03  0.7546771E-02  0.1158702E+00
         -1   -1    0    0    0  501 -0.00000000000E+00  0.00000000000E+00  0.19955833915E+03  0.19955833915E+03  0.00000000000E+00 0.  1.
          1   -1    0    0  501    0  0.00000000000E+00 -0.00000000000E+00 -0.24242895689E+03  0.24242895689E+03  0.00000000000E+00 0. -1.
         23    2    1    2    0    0 -0.24385229225E+02  0.14738428693E+03  0.97081000110E+02  0.21763896608E+03  0.12500092614E+03 0.  0.
         23    2    1    2    0    0  0.24385229225E+02 -0.14738428693E+03 -0.13995161785E+03  0.22434832996E+03  0.91809315321E+02 0.  0.
          5    1    3    3  502    0 -0.56157340138E+02  0.49265155102E+02  0.85677287035E+02  0.11376901983E+03  0.47000000000E+01 0.  1.
         -5    1    3    3    0  502  0.31772110913E+02  0.98119131832E+02  0.11403713075E+02  0.10386994626E+03  0.47000000000E+01 0.  1.
        -11    1    4    4    0    0  0.87771553517E+01 -0.11736571705E+03 -0.49324100237E+02  0.12761119409E+03  0.00000000000E+00 0.  1.
         11    1    4    4    0    0  0.15608073874E+02 -0.30018569889E+02 -0.90627517611E+02  0.96737135871E+02  0.00000000000E+00 0. -1.
<mgrwt>
<rscale>  0 0.18973312E+03</rscale>
<asrwt>0</asrwt>
<pdfrwt beam="2">  1        1 0.37296762E-01 0.19478706E+03</pdfrwt>
<pdfrwt beam="1">  1       -1 0.30701283E-01 0.19478706E+03</pdfrwt>
<totfact> 0.11232329E+03</totfact>
</mgrwt>
</event>
<event>
 8    1  0.9424564E-006  0.1751174E+03  0.7546771E-02  0.1178737E+00
         -1   -1    0    0    0  501 -0.00000000000E+00  0.00000000000E+00  0.47518921804E+03  0.47518921804E+03  0.00000000000E+00 0.  1.
          1   -1    0    0  501    0  0.00000000000E+00 -0.00000000000E+00 -0.68107917854E+02  0.68107917854E+02  0.00000000000E+00 0. -1.
         23    2    1    2    0    0  0.10428292774E+03  0.64567830073E+02  0.32739029379E+03  0.37128226984E+03  0.12498874240E+03 0.  0.
         23    2    1    2    0    0 -0.10428292774E+03 -0.64567830073E+02  0.79691006397E+02  0.17201486606E+03  0.90523609880E+02 0.  0.
          5    1    3    3  502    0  0.11725102847E+03  0.84454009239E+02  0.23619638535E+03  0.27693159048E+03  0.47000000000E+01 0. -1.
         -5    1    3    3    0  502 -0.12968100726E+02 -0.19886179167E+02  0.91193908442E+02  0.94350679358E+02  0.47000000000E+01 0. -1.
        -11    1    4    4    0    0 -0.10085761218E+03 -0.20506847996E+02  0.75456650270E+02  0.12761855202E+03  0.00000000000E+00 0. -1.
         11    1    4    4    0    0 -0.34253155588E+01 -0.44060982077E+02  0.42343561270E+01  0.44396314037E+02  0.00000000000E+00 0.  1.
<mgrwt>
<rscale>  0 0.16915038E+03</rscale>
<asrwt>0</asrwt>
<pdfrwt beam="2">  1        1 0.10478142E-01 0.17511744E+03</pdfrwt>
<pdfrwt beam="1">  1       -1 0.73106031E-01 0.17511744E+03</pdfrwt>
<totfact> 0.11704725E+03</totfact>
</mgrwt>
</event>
<event>
 8    1  0.9424564E-006  0.1316859E+03  0.7546771E-02  0.1238633E+00
         -3   -1    0    0    0  501 -0.00000000000E+00  0.00000000000E+00  0.21521548326E+02  0.21521548326E+02  0.00000000000E+00 0.  1.
          3   -1    0    0  501    0  0.00000000000E+00 -0.00000000000E+00 -0.66934862565E+03  0.66934862565E+03  0.00000000000E+00 0. -1.
         23    2    1    2    0    0  0.22730798377E+02 -0.34609294941E+02 -0.27324236333E+03  0.30331925539E+03  0.12500675616E+03 0.  0.
         23    2    1    2    0    0 -0.22730798377E+02  0.34609294941E+02 -0.37458471400E+03  0.38755091859E+03  0.90374299679E+02 0.  0.
          5    1    3    3  502    0  0.22233527619E+02 -0.79863227114E+02 -0.20624622125E+03  0.22233321519E+03  0.47000000000E+01 0.  1.
         -5    1    3    3    0  502  0.49727075835E+00  0.45253932173E+02 -0.66996142076E+02  0.80986040207E+02  0.47000000000E+01 0.  1.
        -11    1    4    4    0    0  0.26126115686E+02  0.41103052466E+02 -0.21882349514E+03  0.22417795803E+03  0.00000000000E+00 0. -1.
         11    1    4    4    0    0 -0.48856914063E+02 -0.64937575244E+01 -0.15576121886E+03  0.16337296056E+03  0.00000000000E+00 0.  1.
<mgrwt>
<rscale>  0 0.12274679E+03</rscale>
<asrwt>0</asrwt>
<pdfrwt beam="2">  1        3 0.10297673E+00 0.13168592E+03</pdfrwt>
<pdfrwt beam="1">  1       -3 0.33110068E-02 0.13168592E+03</pdfrwt>
<totfact> 0.85213512E+02</totfact>
</mgrwt>
</event>
<event>
 8    1  0.9424564E-006  0.1862935E+03  0.7546771E-02  0.1166669E+00
         -1   -1    0    0    0  501 -0.00000000000E+00  0.00000000000E+00  0.66380761241E+03  0.66380761241E+03  0.00000000000E+00 0.  1.
          1   -1    0    0  501    0  0.00000000000E+00 -0.00000000000E+00 -0.50109723222E+02  0.50109723222E+02  0.00000000000E+00 0. -1.
         23    2    1    2    0    0  0.11748521959E+03 -0.72636834804E+02  0.41282747386E+03  0.45291477805E+03  0.12500554551E+03 0.  0.
         23    2    1    2    0    0 -0.11748521959E+03  0.72636834804E+02  0.20087041534E+03  0.26100255759E+03  0.93244435322E+02 0.  0.
          5    1    3    3  502    0  0.13235058504E+02  0.21463741374E+02  0.17349371814E+03  0.17537964306E+03  0.47000000000E+01 0.  1.
         -5    1    3    3    0  502  0.10425016109E+03 -0.94100576178E+02  0.23933375572E+03  0.27753513498E+03  0.47000000000E+01 0.  1.
        -11    1    4    4    0    0 -0.75288247991E+02 -0.15801255195E+01  0.60017911641E+02  0.96296244994E+02  0.00000000000E+00 0. -1.
         11    1    4    4    0    0 -0.42196971601E+02  0.74216960323E+02  0.14085250369E+03  0.16470631260E+03  0.00000000000E+00 0.  1.
<mgrwt>
<rscale>  0 0.18117654E+03</rscale>
<asrwt>0</asrwt>
<pdfrwt beam="2">  1        1 0.77091887E-02 0.18629351E+03</pdfrwt>
<pdfrwt beam="1">  1       -1 0.10212424E+00 0.18629351E+03</pdfrwt>
<totfact> 0.87375881E+02</totfact>
</mgrwt>
</event>
<event>
 8    1  0.9424564E-006  0.1341185E+03  0.7546771E-02  0.1233711E+00
          1   -1    0    0  501    0  0.00000000000E+00  0.00000000000E+00  0.31192384877E+03  0.31192384877E+03  0.00000000000E+00 0. -1.
         -1   -1    0    0    0  501 -0.00000000000E+00 -0.00000000000E+00 -0.45611008264E+02  0.45611008264E+02  0.00000000000E+00 0.  1.
         23    2    1    2    0    0  0.44288386888E+01  0.48506397664E+02  0.13990021519E+03  0.19380359704E+03  0.12496110910E+03 0.  0.
         23    2    1    2    0    0 -0.44288386888E+01 -0.48506397664E+02  0.12641262532E+03  0.16373126000E+03  0.91952642345E+02 0.  0.
          5    1    3    3  502    0 -0.24038628175E+01  0.37189102985E+01  0.14748610842E+03  0.14762740609E+03  0.47000000000E+01 0.  1.
         -5    1    3    3    0  502  0.68327015063E+01  0.44787487365E+02 -0.75858932346E+01  0.46176190949E+02  0.47000000000E+01 0.  1.
        -11    1    4    4    0    0  0.38772192966E+02 -0.24286017303E+02  0.28216137478E+02  0.53751688327E+02  0.00000000000E+00 0.  1.
         11    1    4    4    0    0 -0.43201031655E+02 -0.24220380360E+02  0.98196487839E+02  0.10997957167E+03  0.00000000000E+00 0. -1.
<mgrwt>
<rscale>  0 0.12587336E+03</rscale>
<asrwt>0</asrwt>
<pdfrwt beam="1">  1        1 0.47988283E-01 0.13411847E+03</pdfrwt>
<pdfrwt beam="2">  1       -1 0.70170784E-02 0.13411847E+03</pdfrwt>
<totfact> 0.83273133E+03</totfact>
</mgrwt>
</event>
<event>
 8    1  0.9424564E-006  0.2308399E+03  0.7546771E-02  0.1128284E+00
         -1   -1    0    0    0  501 -0.00000000000E+00  0.00000000000E+00  0.16700066820E+03  0.16700066820E+03  0.00000000000E+00 0.  1.
          1   -1    0    0  501    0  0.00000000000E+00 -0.00000000000E+00 -0.30342101863E+03  0.30342101863E+03  0.00000000000E+00 0. -1.
         23    2    1    2    0    0 -0.13060591619E+03 -0.14932060069E+03 -0.55139106492E+02  0.23733385633E+03  0.11803597401E+03 0.  0.
         23    2    1    2    0    0  0.13060591619E+03  0.14932060069E+03 -0.81281243941E+02  0.23308783050E+03  0.91480866725E+02 0.  0.
          5    1    3    3  502    0 -0.37211606282E+01 -0.13930709461E+02  0.29625476931E+02  0.33281685443E+02  0.47000000000E+01 0. -1.
         -5    1    3    3    0  502 -0.12688475556E+03 -0.13538989123E+03 -0.84764583423E+02  0.20405217089E+03  0.47000000000E+01 0.  1.
        -11    1    4    4    0    0  0.89409153081E+02  0.14478628403E+03 -0.87221304654E+02  0.19121877702E+03  0.00000000000E+00 0. -1.
         11    1    4    4    0    0  0.41196763112E+02  0.45343166573E+01  0.59400607127E+01  0.41869053485E+02  0.00000000000E+00 0.  1.
<mgrwt>
<rscale>  0 0.22767975E+03</rscale>
<asrwt>0</asrwt>
<pdfrwt beam="2">  1        1 0.46680157E-01 0.23083985E+03</pdfrwt>
<pdfrwt beam="1">  1       -1 0.25692411E-01 0.23083985E+03</pdfrwt>
<totfact> 0.11471594E+03</totfact>
</mgrwt>
</event>
<event>
 8    1  0.9424564E-006  0.1302341E+03  0.7546771E-02  0.1241403E+00
          3   -1    0    0  501    0  0.00000000000E+00  0.00000000000E+00  0.12162138812E+03  0.12162138812E+03  0.00000000000E+00 0. -1.
         -3   -1    0    0    0  501 -0.00000000000E+00 -0.00000000000E+00 -0.11219609818E+03  0.11219609818E+03  0.00000000000E+00 0.  1.
         23    2    1    2    0    0 -0.35424089446E+02  0.89443749091E+01 -0.21216344278E+02  0.13195097027E+03  0.12500422927E+03 0.  0.
         23    2    1    2    0    0  0.35424089446E+02 -0.89443749091E+01  0.30641634211E+02  0.10186651603E+03  0.90016717260E+02 0.  0.
          5    1    3    3  502    0  0.67950780283E+00 -0.26725421108E+02 -0.61343826105E+02  0.67081032084E+02  0.47000000000E+01 0. -1.
         -5    1    3    3    0  502 -0.36103597248E+02  0.35669796017E+02  0.40127481827E+02  0.64869938184E+02  0.47000000000E+01 0. -1.
        -11    1    4    4    0    0  0.54279131901E+02 -0.25139561655E+02  0.43422903281E+02  0.73917320362E+02  0.00000000000E+00 0. -1.
         11    1    4    4    0    0 -0.18855042455E+02  0.16195186746E+02 -0.12781269070E+02  0.27949195673E+02  0.00000000000E+00 0.  1.
<mgrwt>
<rscale>  0 0.12103274E+03</rscale>
<asrwt>0</asrwt>
<pdfrwt beam="1">  1        3 0.18710983E-01 0.13023412E+03</pdfrwt>
<pdfrwt beam="2">  1       -3 0.17260938E-01 0.13023412E+03</pdfrwt>
<totfact> 0.16743862E+03</totfact>
</mgrwt>
</event>
<event>
 8    1  0.9424564E-006  0.1263303E+03  0.7546771E-02  0.1248098E+00
          3   -1    0    0  501    0  0.00000000000E+00  0.00000000000E+00  0.48652475970E+02  0.48652475970E+02  0.00000000000E+00 0. -1.
         -3   -1    0    0    0  501 -0.00000000000E+00 -0.00000000000E+00 -0.28939184073E+03  0.28939184073E+03  0.00000000000E+00 0.  1.
         23    2    1    2    0    0  0.17869513477E+02  0.38663550502E+01 -0.19989173766E+03  0.23646576527E+03  0.12500033259E+03 0.  0.
         23    2    1    2    0    0 -0.17869513477E+02 -0.38663550502E+01 -0.40847627102E+02  0.10157855143E+03  0.91188843935E+02 0.  0.
          5    1    3    3  502    0  0.27335275867E+02 -0.25009138575E+02 -0.33091019946E+01  0.37492858986E+02  0.47000000000E+01 0.  1.
         -5    1    3    3    0  502 -0.94657623899E+01  0.28875493625E+02 -0.19658263566E+03  0.19897290628E+03  0.47000000000E+01 0.  1.
        -11    1    4    4    0    0 -0.38902799900E+02 -0.31564678977E+02 -0.30139515866E+01  0.50188053390E+02  0.00000000000E+00 0.  1.
         11    1    4    4    0    0  0.21033286423E+02  0.27698323926E+02 -0.37833675516E+02  0.51390498043E+02  0.00000000000E+00 0. -1.
<mgrwt>
<rscale>  0 0.11701881E+03</rscale>
<asrwt>0</asrwt>
<pdfrwt beam="1">  1        3 0.74849964E-02 0.12633033E+03</pdfrwt>
<pdfrwt beam="2">  1       -3 0.44521821E-01 0.12633033E+03</pdfrwt>
<totfact> 0.13610936E+03</totfact>
</mgrwt>
</event>
<event>
 8    1  0.9424564E-006  0.1256633E+03  0.7546771E-02  0.1249709E+00
         -1   -1    0    0    0  501 -0.00000000000E+00  0.00000000000E+00  0.45950224757E+02  0.45950224757E+02  0.00000000000E+00 0.  1.
          1   -1    0    0  501    0  0.00000000000E+00 -0.00000000000E+00 -0.30915156209E+03  0.30915156209E+03  0.00000000000E+00 0. -1.
         23    2    1    2    0    0 -0.11441025405E+02 -0.58892101845E+01 -0.76314640351E+02  0.14702107078E+03  0.12500276422E+03 0.  0.
         23    2    1    2    0    0  0.11441025405E+02  0.58892101845E+01 -0.18688669699E+03  0.20808071607E+03  0.90583481006E+02 0.  0.
          5    1    3    3  502    0  0.27548846255E+02  0.17467506680E+02 -0.92774236826E+02  0.98454059024E+02  0.47000000000E+01 0. -1.
         -5    1    3    3    0  502 -0.38989871661E+02 -0.23356716864E+02  0.16459596475E+02  0.48567011756E+02  0.47000000000E+01 0. -1.
        -11    1    4    4    0    0 -0.36114912958E+02  0.56920219930E+01 -0.12374751914E+03  0.12903540036E+03  0.00000000000E+00 0. -1.
         11    1    4    4    0    0  0.47555938363E+02  0.19718819151E+00 -0.63139177842E+02  0.79045315708E+02  0.00000000000E+00 0.  1.
<mgrwt>
<rscale>  0 0.11607889E+03</rscale>
<asrwt>0</asrwt>
<pdfrwt beam="2">  1        1 0.47561780E-01 0.12566332E+03</pdfrwt>
<pdfrwt beam="1">  1       -1 0.70692652E-02 0.12566332E+03</pdfrwt>
<totfact> 0.82878572E+03</totfact>
</mgrwt>
</event>
<event>
 8    1  0.9424564E-006  0.1116357E+03  0.7546771E-02  0.1268682E+00
         -1   -1    0    0    0  501 -0.00000000000E+00  0.00000000000E+00  0.10025836680E+03  0.10025836680E+03  0.00000000000E+00 0.  1.
          1   -1    0    0  501    0  0.00000000000E+00 -0.00000000000E+00 -0.13529357353E+03  0.13529357353E+03  0.00000000000E+00 0. -1.
         23    2    1    2    0    0 -0.13948776180E+02  0.36846219008E+01  0.39916664134E+02  0.11855749952E+03  0.11069957462E+03 0.  0.
         23    2    1    2    0    0  0.13948776180E+02 -0.36846219008E+01 -0.74951870871E+02  0.11699444082E+03  0.88666630925E+02 0.  0.
          5    1    3    3  502    0  0.35604112798E+02  0.28305352485E+02  0.43230592648E+02  0.62927100427E+02  0.47000000000E+01 0. -1.
         -5    1    3    3    0  502 -0.49552888978E+02 -0.24620730584E+02 -0.33139285136E+01  0.55630399089E+02  0.47000000000E+01 0.  1.
        -11    1    4    4    0    0 -0.27277272547E+02 -0.14542633562E+01 -0.70332102897E+02  0.75450441864E+02  0.00000000000E+00 0. -1.
         11    1    4    4    0    0  0.41226048727E+02 -0.22303585446E+01 -0.46197679737E+01  0.41543998953E+02  0.00000000000E+00 0.  1.
<mgrwt>
<rscale>  0 0.10573313E+03</rscale>
<asrwt>0</asrwt>
<pdfrwt beam="2">  1        1 0.20814396E-01 0.11163575E+03</pdfrwt>
<pdfrwt beam="1">  1       -1 0.15424364E-01 0.11163575E+03</pdfrwt>
<totfact> 0.69614498E+03</totfact>
</mgrwt>
</event>
<event>
 8    1  0.9424564E-006  0.1367427E+03  0.7546771E-02  0.1230142E+00
         -2   -1    0    0    0  501 -0.00000000000E+00  0.00000000000E+00  0.17967999838E+03  0.17967999838E+03  0.00000000000E+00 0.  1.
          2   -1    0    0  501    0  0.00000000000E+00 -0.00000000000E+00 -0.83657032470E+02  0.83657032470E+02  0.00000000000E+00 0. -1.
         23    2    1    2    0    0  0.52049285561E+02 -0.19124594005E+02  0.73712761046E+02  0.15534525134E+03  0.12499479089E+03 0.  0.
         23    2    1    2    0    0 -0.52049285561E+02  0.19124594005E+02  0.22310204862E+02  0.10799177951E+03  0.89942209099E+02 0.  0.
          5    1    3    3  502    0  0.25692706711E+01 -0.22941169384E+02  0.97361471231E+02  0.10017107609E+03  0.47000000000E+01 0. -1.
         -5    1    3    3    0  502  0.49480014890E+02  0.38165753789E+01 -0.23648710184E+02  0.55174175250E+02  0.47000000000E+01 0. -1.
        -11    1    4    4    0    0 -0.64948143514E+02 -0.14242565337E+02  0.27288815025E+02  0.71873440427E+02  0.00000000000E+00 0.  1.
         11    1    4    4    0    0  0.12898857953E+02  0.33367159341E+02 -0.49786101627E+01  0.36118339084E+02  0.00000000000E+00 0. -1.
<mgrwt>
<rscale>  0 0.12820590E+03</rscale>
<asrwt>0</asrwt>
<pdfrwt beam="2">  1        2 0.12870313E-01 0.13674274E+03</pdfrwt>
<pdfrwt beam="1">  1       -2 0.27643077E-01 0.13674274E+03</pdfrwt>
<totfact> 0.52959365E+03</totfact>
</mgrwt>
</event>
<event>
 8    1  0.9424564E-006  0.1545589E+03  0.7546771E-02  0.1203753E+00
         -2   -1    0    0    0  501 -0.00000000000E+00  0.00000000000E+00  0.40888803874E+02  0.40888803874E+02  0.00000000000E+00 0.  1.
          2   -1    0    0  501    0  0.00000000000E+00 -0.00000000000E+00 -0.52178425216E+03  0.52178425216E+03  0.00000000000E+00 0. -1.
         23    2    1    2    0    0 -0.94069749020E+01  0.90370798004E+02 -0.18964666325E+03  0.24465137453E+03  0.12503225932E+03 0.  0.
         23    2    1    2    0    0  0.94069749020E+01 -0.90370798004E+02 -0.29124878504E+03  0.31802168151E+03  0.89758357896E+02 0.  0.
          5    1    3    3  502    0 -0.40025274567E+02  0.86599521093E+01 -0.13600720239E+03  0.14211638357E+03  0.47000000000E+01 0.  1.
         -5    1    3    3    0  502  0.30618299665E+02  0.81710845895E+02 -0.53639460851E+02  0.10253499096E+03  0.47000000000E+01 0.  1.
        -11    1    4    4    0    0  0.36394905449E+00 -0.47100710392E+02 -0.25914033008E+03  0.26338625638E+03  0.00000000000E+00 0. -1.
         11    1    4    4    0    0  0.90430258475E+01 -0.43270087612E+02 -0.32108454964E+02  0.54635425125E+02  0.00000000000E+00 0.  1.
<mgrwt>
<rscale>  0 0.14736135E+03</rscale>
<asrwt>0</asrwt>
<pdfrwt beam="2">  1        2 0.80274498E-01 0.15455885E+03</pdfrwt>
<pdfrwt beam="1">  1       -2 0.62905854E-02 0.15455885E+03</pdfrwt>
<totfact> 0.78697729E+03</totfact>
</mgrwt>
</event>
<event>
 8    1  0.9424564E-006  0.1489683E+03  0.7546771E-02  0.1211212E+00
         -2   -1    0    0    0  501 -0.00000000000E+00  0.00000000000E+00  0.17854885494E+02  0.17854885494E+02  0.00000000000E+00 0.  1.
          2   -1    0    0  501    0  0.00000000000E+00 -0.00000000000E+00 -0.10561256937E+04  0.10561256937E+04  0.00000000000E+00 0. -1.
         23    2    1    2    0    0  0.46932156621E+02  0.66043122851E+02 -0.47802560742E+03  0.50069954690E+03  0.12500893376E+03 0.  0.
         23    2    1    2    0    0 -0.46932156621E+02 -0.66043122851E+02 -0.56024520077E+03  0.57328103228E+03  0.90620834126E+02 0.  0.
          5    1    3    3  502    0 -0.25303646326E+02  0.69296224133E+02 -0.19487507083E+03  0.20842414550E+03  0.47000000000E+01 0. -1.
         -5    1    3    3    0  502  0.72235802947E+02 -0.32531012825E+01 -0.28315053659E+03  0.29227540140E+03  0.47000000000E+01 0. -1.
        -11    1    4    4    0    0 -0.34571403306E+02 -0.87214390656E+02 -0.48948015268E+03  0.49838975886E+03  0.00000000000E+00 0. -1.
         11    1    4    4    0    0 -0.12360753315E+02  0.21171267806E+02 -0.70765048092E+02  0.74891273420E+02  0.00000000000E+00 0.  1.
<mgrwt>
<rscale>  0 0.14158482E+03</rscale>
<asrwt>0</asrwt>
<pdfrwt beam="2">  1        2 0.16248086E+00 0.14896830E+03</pdfrwt>
<pdfrwt beam="1">  1       -2 0.27469058E-02 0.14896830E+03</pdfrwt>
<totfact> 0.11355988E+04</totfact>
</mgrwt>
</event>
<event>
 8    1  0.9424564E-006  0.1285944E+03  0.7546771E-02  0.1241668E+00
         -1   -1    0    0    0  501 -0.00000000000E+00  0.00000000000E+00  0.57327299238E+03  0.57327299238E+03  0.00000000000E+00 0.  1.
          1   -1    0    0  501    0  0.00000000000E+00 -0.00000000000E+00 -0.23565721625E+02  0.23565721625E+02  0.00000000000E+00 0. -1.
         23    2    1    2    0    0 -0.26251014439E+02 -0.17988889307E+02  0.25654435849E+03  0.28696957139E+03  0.12459458710E+03 0.  0.
         23    2    1    2    0    0  0.26251014439E+02  0.17988889307E+02  0.29316291226E+03  0.30986914261E+03  0.95192838592E+02 0.  0.
          5    1    3    3  502    0  0.50291270034E+02 -0.68086312296E+01  0.10814771893E+03  0.11955579623E+03  0.47000000000E+01 0. -1.
         -5    1    3    3    0  502 -0.76542284473E+02 -0.11180258077E+02  0.14839663956E+03  0.16741377517E+03  0.47000000000E+01 0. -1.
        -11    1    4    4    0    0  0.56722596044E+02  0.23906045123E+02  0.24465515601E+03  0.25227979954E+03  0.00000000000E+00 0.  1.
         11    1    4    4    0    0 -0.30471581605E+02 -0.59171558159E+01  0.48507756256E+02  0.57589343072E+02  0.00000000000E+00 0. -1.
<mgrwt>
<rscale>  0 0.12087013E+03</rscale>
<asrwt>0</asrwt>
<pdfrwt beam="2">  1        1 0.36254961E-02 0.12859443E+03</pdfrwt>
<pdfrwt beam="1">  1       -1 0.88195835E-01 0.12859443E+03</pdfrwt>
<totfact> 0.33208651E+03</totfact>
</mgrwt>
</event>
<event>
 8    1  0.9424564E-006  0.1384142E+03  0.7546771E-02  0.1221479E+00
          2   -1    0    0  501    0  0.00000000000E+00  0.00000000000E+00  0.19509461776E+03  0.19509461776E+03  0.00000000000E+00 0. -1.
         -2   -1    0    0    0  501 -0.00000000000E+00 -0.00000000000E+00 -0.21802758278E+03  0.21802758278E+03  0.00000000000E+00 0.  1.
         23    2    1    2    0    0  0.45517000126E+02  0.66847034870E+02 -0.17182233923E+03  0.22063863650E+03  0.11233062042E+03 0.  0.
         23    2    1    2    0    0 -0.45517000126E+02 -0.66847034870E+02  0.14888937421E+03  0.19248356404E+03  0.91332104438E+02 0.  0.
          5    1    3    3  502    0  0.17340531030E+02 -0.24995757343E+02 -0.99569633870E+01  0.32352944556E+02  0.47000000000E+01 0. -1.
         -5    1    3    3    0  502  0.28176469096E+02  0.91842792213E+02 -0.16186537585E+03  0.18828569194E+03  0.47000000000E+01 0.  1.
        -11    1    4    4    0    0 -0.60999401230E+02 -0.46569486260E+02  0.14828114239E+03  0.16696389187E+03  0.00000000000E+00 0. -1.
         11    1    4    4    0    0  0.15482401105E+02 -0.20277548610E+02  0.60823182289E+00  0.25519672168E+02  0.00000000000E+00 0.  1.
<mgrwt>
<rscale>  0 0.13411202E+03</rscale>
<asrwt>0</asrwt>
<pdfrwt beam="1">  1        2 0.30014557E-01 0.13841420E+03</pdfrwt>
<pdfrwt beam="2">  1       -2 0.33542705E-01 0.13841420E+03</pdfrwt>
<totfact> 0.14297716E+03</totfact>
</mgrwt>
</event>
<event>
 7    1  0.9424564E-006  0.1742934E+03  0.7546771E-02  0.1187342E+00
         -2   -1    0    0    0  501 -0.00000000000E+00  0.00000000000E+00  0.19438660932E+03  0.19438660932E+03  0.00000000000E+00 0.  1.
          2   -1    0    0  501    0  0.00000000000E+00 -0.00000000000E+00 -0.11836655802E+03  0.11836655802E+03  0.00000000000E+00 0. -1.
         23    2    1    2    0    0  0.10070469519E+02 -0.88515995666E+02  0.47679479974E+02  0.13617068834E+03  0.91283227969E+02 0.  0.
          5    1    1    2  502    0  0.41951439208E+02 -0.24670479310E+02  0.15363180597E+02  0.51251079199E+02  0.47000000000E+01 0. -1.
         -5    1    1    2    0  502 -0.52021908727E+02  0.11318647498E+03  0.12977390733E+02  0.12533139980E+03  0.47000000000E+01 0.  1.
        -11    1    3    3    0    0  0.33179134729E+02 -0.53740338387E+02  0.65304992388E+02  0.90849441287E+02  0.00000000000E+00 0. -1.
         11    1    3    3    0    0 -0.23108665210E+02 -0.34775657279E+02 -0.17625512414E+02  0.45321247057E+02  0.00000000000E+00 0.  1.
<mgrwt>
<rscale>  0 0.16120600E+03</rscale>
<asrwt>0</asrwt>
<pdfrwt beam="2">  1        2 0.18210240E-01 0.17429338E+03</pdfrwt>
<pdfrwt beam="1">  1       -2 0.29905632E-01 0.17429338E+03</pdfrwt>
<totfact> 0.31065791E+03</totfact>
</mgrwt>
</event>
<event>
 7    1  0.9424564E-006  0.1565218E+03  0.7546771E-02  0.1203765E+00
          2   -1    0    0  501    0  0.00000000000E+00  0.00000000000E+00  0.24752930877E+03  0.24752930877E+03  0.00000000000E+00 0. -1.
         -2   -1    0    0    0  501 -0.00000000000E+00 -0.00000000000E+00 -0.86894937531E+02  0.86894937531E+02  0.00000000000E+00 0.  1.
         23    2    1    2    0    0 -0.78490164805E+02  0.33046921158E+02  0.21106871598E+02  0.12474116201E+03  0.88668215851E+02 0.  0.
          5    1    1    2  502    0  0.10309119437E+03 -0.28709343632E+02  0.14817061934E+03  0.18283501635E+03  0.47000000000E+01 0. -1.
         -5    1    1    2    0  502 -0.24601029562E+02 -0.43375775260E+01 -0.86431196955E+01  0.26848067945E+02  0.47000000000E+01 0.  1.
        -11    1    3    3    0    0 -0.58412914009E+02 -0.13689548101E+02 -0.15627105091E+02  0.61997408524E+02  0.00000000000E+00 0. -1.
         11    1    3    3    0    0 -0.20077250796E+02  0.46736469259E+02  0.36733976689E+02  0.62743753487E+02  0.00000000000E+00 0.  1.
<mgrwt>
<rscale>  0 0.14735220E+03</rscale>
<asrwt>0</asrwt>
<pdfrwt beam="1">  1        2 0.38081432E-01 0.15652180E+03</pdfrwt>
<pdfrwt beam="2">  1       -2 0.13368452E-01 0.15652180E+03</pdfrwt>
<totfact> 0.53863954E+03</totfact>
</mgrwt>
</event>
<event>
 8    1  0.9424564E-006  0.1330550E+03  0.7546771E-02  0.1231088E+00
         -1   -1    0    0    0  501 -0.00000000000E+00  0.00000000000E+00  0.75260200468E+03  0.75260200468E+03  0.00000000000E+00 0.  1.
          1   -1    0    0  501    0  0.00000000000E+00 -0.00000000000E+00 -0.23530185245E+02  0.23530185245E+02  0.00000000000E+00 0. -1.
         23    2    1    2    0    0  0.60795387938E+02  0.24366936390E+02  0.53984390905E+03  0.55599918350E+03  0.11581804320E+03 0.  0.
         23    2    1    2    0    0 -0.60795387938E+02 -0.24366936390E+02  0.18922791039E+03  0.22013300643E+03  0.91441301754E+02 0.  0.
          5    1    3    3  502    0  0.56875701827E+02  0.27074382238E+02  0.11584151442E+03  0.13194398090E+03  0.47000000000E+01 0. -1.
         -5    1    3    3    0  502  0.39196861115E+01 -0.27074458485E+01  0.42400239463E+03  0.42405520260E+03  0.47000000000E+01 0.  1.
        -11    1    4    4    0    0  0.25121147991E+01 -0.33187882804E+02  0.12563223230E+03  0.12996616513E+03  0.00000000000E+00 0. -1.
         11    1    4    4    0    0 -0.63307502737E+02  0.88209464143E+01  0.63595678086E+02  0.90166841298E+02  0.00000000000E+00 0.  1.
<mgrwt>
<rscale>  0 0.12758234E+03</rscale>
<asrwt>0</asrwt>
<pdfrwt beam="2">  1        1 0.36200291E-02 0.13305505E+03</pdfrwt>
<pdfrwt beam="1">  1       -1 0.11578491E+00 0.13305505E+03</pdfrwt>
<totfact> 0.18288099E+03</totfact>
</mgrwt>
</event>
<event>
 8    1  0.9424564E-006  0.1601466E+03  0.7546771E-02  0.1196743E+00
          2   -1    0    0  501    0  0.00000000000E+00  0.00000000000E+00  0.33479688266E+03  0.33479688266E+03  0.00000000000E+00 0. -1.
         -2   -1    0    0    0  501 -0.00000000000E+00 -0.00000000000E+00 -0.69875213899E+02  0.69875213899E+02  0.00000000000E+00 0.  1.
         23    2    1    2    0    0  0.32160877748E+02  0.94800712650E+02  0.87400331977E+02  0.18244382741E+03  0.12500173980E+03 0.  0.
         23    2    1    2    0    0 -0.32160877748E+02 -0.94800712650E+02  0.17752133678E+03  0.22222826915E+03  0.88600685209E+02 0.  0.
          5    1    3    3  502    0  0.39306220167E+02  0.11098257467E+03  0.10442688578E+03  0.15744578526E+03  0.47000000000E+01 0. -1.
         -5    1    3    3    0  502 -0.71453424191E+01 -0.16181862017E+02 -0.17026553803E+02  0.24998042144E+02  0.47000000000E+01 0. -1.
        -11    1    4    4    0    0 -0.61738052324E+02 -0.62719843437E+02  0.13602269442E+03  0.16201092328E+03  0.00000000000E+00 0.  1.
         11    1    4    4    0    0  0.29577174576E+02 -0.32080869213E+02  0.41498642365E+02  0.60217345869E+02  0.00000000000E+00 0. -1.
<mgrwt>
<rscale>  0 0.15307654E+03</rscale>
<asrwt>0</asrwt>
<pdfrwt beam="1">  1        2 0.51507212E-01 0.16014660E+03</pdfrwt>
<pdfrwt beam="2">  1       -2 0.10750033E-01 0.16014660E+03</pdfrwt>
<totfact> 0.55433005E+03</totfact>
</mgrwt>
</event>
<event>
 8    1  0.9424564E-006  0.1386964E+03  0.7546771E-02  0.1226429E+00
          4   -1    0    0  501    0  0.00000000000E+00  0.00000000000E+00  0.10784631571E+03  0.10784631571E+03  0.00000000000E+00 0. -1.
         -4   -1    0    0    0  501 -0.00000000000E+00 -0.00000000000E+00 -0.34667924262E+03  0.34667924262E+03  0.00000000000E+00 0.  1.
         23    2    1    2    0    0  0.53562514534E+02  0.27249154656E+02 -0.29907893442E+03  0.32967393460E+03  0.12500093899E+03 0.  0.
         23    2    1    2    0    0 -0.53562514534E+02 -0.27249154656E+02  0.60246007506E+02  0.12485162373E+03  0.91361299984E+02 0.  0.
          5    1    3    3  502    0  0.73821783350E+02 -0.15195998659E+01 -0.27951443689E+03  0.28914075346E+03  0.47000000000E+01 0. -1.
         -5    1    3    3    0  502 -0.20259268816E+02  0.28768754521E+02 -0.19564497522E+02  0.40533181135E+02  0.47000000000E+01 0. -1.
        -11    1    4    4    0    0 -0.26833799286E+02 -0.32737862163E+02  0.80445107319E+02  0.90902341525E+02  0.00000000000E+00 0. -1.
         11    1    4    4    0    0 -0.26728715248E+02  0.54887075079E+01 -0.20199099813E+02  0.33949282204E+02  0.00000000000E+00 0.  1.
<mgrwt>
<rscale>  0 0.13069465E+03</rscale>
<asrwt>0</asrwt>
<pdfrwt beam="1">  1        4 0.16591741E-01 0.13869641E+03</pdfrwt>
<pdfrwt beam="2">  1       -4 0.53335267E-01 0.13869641E+03</pdfrwt>
<totfact> 0.17960213E+02</totfact>
</mgrwt>
</event>
<event>
 8    1  0.9424564E-006  0.1266804E+03  0.7546771E-02  0.1247470E+00
          1   -1    0    0  501    0  0.00000000000E+00  0.00000000000E+00  0.90697480656E+02  0.90697480656E+02  0.00000000000E+00 0. -1.
         -1   -1    0    0    0  501 -0.00000000000E+00 -0.00000000000E+00 -0.15145907649E+03  0.15145907649E+03  0.00000000000E+00 0.  1.
         23    2    1    2    0    0  0.16259898025E+02  0.12559087613E+02 -0.75688108730E+02  0.14756899187E+03  0.12500321033E+03 0.  0.
         23    2    1    2    0    0 -0.16259898025E+02 -0.12559087613E+02  0.14926512894E+02  0.94587565277E+02  0.91114717541E+02 0.  0.
          5    1    3    3  502    0 -0.33227430339E+02 -0.30612395295E+02 -0.67303632070E+02  0.81197597024E+02  0.47000000000E+01 0. -1.
         -5    1    3    3    0  502  0.49487328364E+02  0.43171482908E+02 -0.83844766599E+01  0.66371394847E+02  0.47000000000E+01 0. -1.
        -11    1    4    4    0    0 -0.37653697157E+02 -0.81919119051E+01  0.43831814770E+02  0.58362113706E+02  0.00000000000E+00 0. -1.
         11    1    4    4    0    0  0.21393799133E+02 -0.43671757080E+01 -0.28905301876E+02  0.36225451571E+02  0.00000000000E+00 0.  1.
<mgrwt>
<rscale>  0 0.11738741E+03</rscale>
<asrwt>0</asrwt>
<pdfrwt beam="1">  1        1 0.13953459E-01 0.12668038E+03</pdfrwt>
<pdfrwt beam="2">  1       -1 0.23301396E-01 0.12668038E+03</pdfrwt>
<totfact> 0.60734188E+03</totfact>
</mgrwt>
</event>
<event>
 8    1  0.9424564E-006  0.1398999E+03  0.7546771E-02  0.1224337E+00
          2   -1    0    0  501    0  0.00000000000E+00  0.00000000000E+00  0.10488922508E+03  0.10488922508E+03  0.00000000000E+00 0. -1.
         -2   -1    0    0    0  501 -0.00000000000E+00 -0.00000000000E+00 -0.15396626256E+03  0.15396626256E+03  0.00000000000E+00 0.  1.
         23    2    1    2    0    0  0.55754663432E+02 -0.28929461726E+02 -0.46851311936E+02  0.14753649951E+03  0.12500590788E+03 0.  0.
         23    2    1    2    0    0 -0.55754663432E+02  0.28929461726E+02 -0.22257255424E+01  0.11131898814E+03  0.91877456514E+02 0.  0.
          5    1    3    3  502    0  0.79061083124E+02  0.22317185834E+02 -0.18547045909E+02  0.84349241610E+02  0.47000000000E+01 0. -1.
         -5    1    3    3    0  502 -0.23306419692E+02 -0.51246647560E+02 -0.28304266026E+02  0.63187257895E+02  0.47000000000E+01 0. -1.
        -11    1    4    4    0    0 -0.23120908652E+02 -0.27593005961E+02 -0.23126040725E+02  0.42787429865E+02  0.00000000000E+00 0.  1.
         11    1    4    4    0    0 -0.32633754780E+02  0.56522467687E+02  0.20900315182E+02  0.68531558272E+02  0.00000000000E+00 0. -1.
<mgrwt>
<rscale>  0 0.13212457E+03</rscale>
<asrwt>0</asrwt>
<pdfrwt beam="1">  1        2 0.16136804E-01 0.13989987E+03</pdfrwt>
<pdfrwt beam="2">  1       -2 0.23687117E-01 0.13989987E+03</pdfrwt>
<totfact> 0.53285142E+03</totfact>
</mgrwt>
</event>
<event>
 8    1  0.9424564E-006  0.1371482E+03  0.7546771E-02  0.1229094E+00
          2   -1    0    0  501    0  0.00000000000E+00  0.00000000000E+00  0.94900024485E+02  0.94900024485E+02  0.00000000000E+00 0. -1.
         -2   -1    0    0    0  501 -0.00000000000E+00 -0.00000000000E+00 -0.15830364554E+03  0.15830364554E+03  0.00000000000E+00 0.  1.
         23    2    1    2    0    0 -0.48455282871E+02 -0.28938111036E+02 -0.46731122286E+02  0.14489107988E+03  0.12499719409E+03 0.  0.
         23    2    1    2    0    0  0.48455282871E+02  0.28938111036E+02 -0.16672498766E+02  0.10831259015E+03  0.90930282417E+02 0.  0.
          5    1    3    3  502    0  0.34647721358E+02  0.17312355559E+01 -0.43886864742E+02  0.56139190133E+02  0.47000000000E+01 0.  1.
         -5    1    3    3    0  502 -0.83103004229E+02 -0.30669346592E+02 -0.28442575445E+01  0.88751889745E+02  0.47000000000E+01 0.  1.
        -11    1    4    4    0    0 -0.26514672658E+02 -0.12547420197E+00 -0.61681600660E+01  0.27222964727E+02  0.00000000000E+00 0.  1.
         11    1    4    4    0    0  0.74969955529E+02  0.29063585238E+02 -0.10504338700E+02  0.81089625418E+02  0.00000000000E+00 0. -1.
<mgrwt>
<rscale>  0 0.12890226E+03</rscale>
<asrwt>0</asrwt>
<pdfrwt beam="1">  1        2 0.14600004E-01 0.13714819E+03</pdfrwt>
<pdfrwt beam="2">  1       -2 0.24354407E-01 0.13714819E+03</pdfrwt>
<totfact> 0.56996259E+03</totfact>
</mgrwt>
</event>
<event>
 8    1  0.9424564E-006  0.1260543E+03  0.7546771E-02  0.1248240E+00
          2   -1    0    0  501    0  0.00000000000E+00  0.00000000000E+00  0.89096748333E+02  0.89096748333E+02  0.00000000000E+00 0. -1.
         -2   -1    0    0    0  501 -0.00000000000E+00 -0.00000000000E+00 -0.15312863914E+03  0.15312863914E+03  0.00000000000E+00 0.  1.
         23    2    1    2    0    0  0.11406980727E+02 -0.11544677566E+02 -0.77406222846E+02  0.14792364170E+03  0.12500512649E+03 0.  0.
         23    2    1    2    0    0 -0.11406980727E+02  0.11544677566E+02  0.13374332035E+02  0.94301745775E+02  0.91926860652E+02 0.  0.
          5    1    3    3  502    0  0.54453542127E+02 -0.49938736148E+01 -0.87211821028E+02  0.10304425627E+03  0.47000000000E+01 0.  1.
         -5    1    3    3    0  502 -0.43046561400E+02 -0.65508039512E+01  0.98055981822E+01  0.44879385429E+02  0.47000000000E+01 0.  1.
        -11    1    4    4    0    0 -0.10446237675E+01  0.15051892468E+02 -0.38466204729E+02  0.41319482232E+02  0.00000000000E+00 0.  1.
         11    1    4    4    0    0 -0.10362356959E+02 -0.35072149017E+01  0.51840536764E+02  0.52982263543E+02  0.00000000000E+00 0. -1.
<mgrwt>
<rscale>  0 0.11693514E+03</rscale>
<asrwt>0</asrwt>
<pdfrwt beam="1">  1        2 0.13707192E-01 0.12605428E+03</pdfrwt>
<pdfrwt beam="2">  1       -2 0.23558252E-01 0.12605428E+03</pdfrwt>
<totfact> 0.64639200E+03</totfact>
</mgrwt>
</event>
<event>
 8    1  0.9424564E-006  0.1324763E+03  0.7546771E-02  0.1236264E+00
         -2   -1    0    0    0  501 -0.00000000000E+00  0.00000000000E+00  0.14162087482E+02  0.14162087482E+02  0.00000000000E+00 0. -1.
          2   -1    0    0  501    0  0.00000000000E+00 -0.00000000000E+00 -0.97878929264E+03  0.97878929264E+03  0.00000000000E+00 0.  1.
         23    2    1    2    0    0 -0.42514535696E+02  0.10309913657E+02 -0.57636983665E+03  0.59139847285E+03  0.12504473207E+03 0.  0.
         23    2    1    2    0    0  0.42514535696E+02 -0.10309913657E+02 -0.38825736851E+03  0.40155290728E+03  0.92667001012E+02 0.  0.
          5    1    3    3  502    0 -0.60049906033E+02  0.40322194616E+02 -0.18866137273E+03  0.20210659107E+03  0.47000000000E+01 0. -1.
         -5    1    3    3    0  502  0.17535370337E+02 -0.30012280959E+02 -0.38770846393E+03  0.38929188178E+03  0.47000000000E+01 0. -1.
        -11    1    4    4    0    0 -0.13747697342E+02 -0.28455083780E+02 -0.58040203735E+02  0.66085976006E+02  0.00000000000E+00 0. -1.
         11    1    4    4    0    0  0.56262233037E+02  0.18145170123E+02 -0.33021716477E+03  0.33546693127E+03  0.00000000000E+00 0.  1.
<mgrwt>
<rscale>  0 0.12423878E+03</rscale>
<asrwt>0</asrwt>
<pdfrwt beam="2">  1        2 0.15058298E+00 0.13247628E+03</pdfrwt>
<pdfrwt beam="1">  1       -2 0.21787825E-02 0.13247628E+03</pdfrwt>
<totfact> 0.17579595E+04</totfact>
</mgrwt>
</event>
<event>
 8    1  0.9424564E-006  0.2034739E+03  0.7546771E-02  0.1148264E+00
         -1   -1    0    0    0  501 -0.00000000000E+00  0.00000000000E+00  0.84244820023E+02  0.84244820023E+02  0.00000000000E+00 0.  1.
          1   -1    0    0  501    0  0.00000000000E+00 -0.00000000000E+00 -0.48114680996E+03  0.48114680996E+03  0.00000000000E+00 0. -1.
         23    2    1    2    0    0 -0.48579286886E+02  0.16396658497E+03 -0.17037729630E+03  0.26538660057E+03  0.11025713839E+03 0.  0.
         23    2    1    2    0    0  0.48579286886E+02 -0.16396658497E+03 -0.22652469364E+03  0.30000502942E+03  0.97183294595E+02 0.  0.
          5    1    3    3  502    0 -0.53364279070E+02  0.59350273860E+02 -0.13086647287E+03  0.15335685511E+03  0.47000000000E+01 0. -1.
         -5    1    3    3    0  502  0.47849921840E+01  0.10461631111E+03 -0.39510823437E+02  0.11202974546E+03  0.47000000000E+01 0.  1.
        -11    1    4    4    0    0  0.17484491445E+02 -0.16445646609E+03 -0.18538207662E+03  0.24843138089E+03  0.00000000000E+00 0. -1.
         11    1    4    4    0    0  0.31094795441E+02  0.48988112602E+00 -0.41142617018E+02  0.51573648524E+02  0.00000000000E+00 0.  1.
<mgrwt>
<rscale>  0 0.20175800E+03</rscale>
<asrwt>0</asrwt>
<pdfrwt beam="2">  1        1 0.74022588E-01 0.20347389E+03</pdfrwt>
<pdfrwt beam="1">  1       -1 0.12960741E-01 0.20347389E+03</pdfrwt>
<totfact> 0.19143530E+03</totfact>
</mgrwt>
</event>
<event>
 8    1  0.9424564E-006  0.1501618E+03  0.7546771E-02  0.1210109E+00
         -1   -1    0    0    0  501 -0.00000000000E+00  0.00000000000E+00  0.82162384303E+02  0.82162384303E+02  0.00000000000E+00 0.  1.
          1   -1    0    0  501    0  0.00000000000E+00 -0.00000000000E+00 -0.31596669475E+03  0.31596669475E+03  0.00000000000E+00 0. -1.
         23    2    1    2    0    0  0.62505785640E+02  0.54928203191E+02 -0.19026038680E+02  0.15136236971E+03  0.12499798427E+03 0.  0.
         23    2    1    2    0    0 -0.62505785640E+02 -0.54928203191E+02 -0.21477827176E+03  0.24676670934E+03  0.88543899118E+02 0.  0.
          5    1    3    3  502    0  0.50239691546E+02 -0.29566966799E+02 -0.28988795201E+02  0.65273826144E+02  0.47000000000E+01 0. -1.
         -5    1    3    3    0  502  0.12266094094E+02  0.84495169990E+02  0.99627565215E+01  0.86088543567E+02  0.47000000000E+01 0. -1.
        -11    1    4    4    0    0 -0.44201176003E+02 -0.60977468538E+01 -0.17656556303E+03  0.18211623904E+03  0.00000000000E+00 0. -1.
         11    1    4    4    0    0 -0.18304609636E+02 -0.48830456337E+02 -0.38212708737E+02  0.64650470293E+02  0.00000000000E+00 0.  1.
<mgrwt>
<rscale>  0 0.14241986E+03</rscale>
<asrwt>0</asrwt>
<pdfrwt beam="2">  1        1 0.48610262E-01 0.15016184E+03</pdfrwt>
<pdfrwt beam="1">  1       -1 0.12640367E-01 0.15016184E+03</pdfrwt>
<totfact> 0.33642543E+03</totfact>
</mgrwt>
</event>
<event>
 7    1  0.9424564E-006  0.1389366E+03  0.7546771E-02  0.1232085E+00
          1   -1    0    0  501    0  0.00000000000E+00  0.00000000000E+00  0.14889063866E+03  0.14889063866E+03  0.00000000000E+00 0. -1.
         -1   -1    0    0    0  501 -0.00000000000E+00 -0.00000000000E+00 -0.48072173031E+03  0.48072173031E+03  0.00000000000E+00 0.  1.
         23    2    1    2    0    0  0.36955410765E+02  0.19945450429E+01  0.12157670506E+03  0.15539509978E+03  0.89426289354E+02 0.  0.
          5    1    1    2  502    0  0.31449944050E+02  0.18457561185E+01 -0.25413788191E+02  0.40748698465E+02  0.47000000000E+01 0. -1.
         -5    1    1    2    0  502 -0.68405354815E+02 -0.38403011614E+01 -0.42799400852E+03  0.43346857072E+03  0.47000000000E+01 0.  1.
        -11    1    3    3    0    0  0.57699921017E+02  0.27456535339E+02  0.82394175959E+02  0.10426860721E+03  0.00000000000E+00 0. -1.
         11    1    3    3    0    0 -0.20744510251E+02 -0.25461990297E+02  0.39182529099E+02  0.51126492565E+02  0.00000000000E+00 0.  1.
<mgrwt>
<rscale>  0 0.12692908E+03</rscale>
<asrwt>0</asrwt>
<pdfrwt beam="1">  1        1 0.22906252E-01 0.13893663E+03</pdfrwt>
<pdfrwt beam="2">  1       -1 0.73957189E-01 0.13893663E+03</pdfrwt>
<totfact> 0.41361619E+02</totfact>
</mgrwt>
</event>
<event>
 8    1  0.9424564E-006  0.1371258E+03  0.7546771E-02  0.1223504E+00
          2   -1    0    0  501    0  0.00000000000E+00  0.00000000000E+00  0.81519522903E+02  0.81519522903E+02  0.00000000000E+00 0. -1.
         -2   -1    0    0    0  501 -0.00000000000E+00 -0.00000000000E+00 -0.20324801095E+03  0.20324801095E+03  0.00000000000E+00 0.  1.
         23    2    1    2    0    0 -0.46034608140E+02  0.32663373515E+02 -0.67750664194E+02  0.15294980971E+03  0.12496963902E+03 0.  0.
         23    2    1    2    0    0  0.46034608140E+02 -0.32663373515E+02 -0.53977823849E+02  0.13181772414E+03  0.10618957488E+03 0.  0.
          5    1    3    3  502    0 -0.25860329129E+02 -0.80143016623E+01 -0.95604142390E+02  0.99474759090E+02  0.47000000000E+01 0.  1.
         -5    1    3    3    0  502 -0.20174279010E+02  0.40677675177E+02  0.27853478196E+02  0.53475050622E+02  0.47000000000E+01 0.  1.
        -11    1    4    4    0    0  0.55252450039E+02 -0.45402891984E+02  0.41169733124E+01  0.71632431936E+02  0.00000000000E+00 0. -1.
         11    1    4    4    0    0 -0.92178418992E+01  0.12739518469E+02 -0.58094797161E+02  0.60185292201E+02  0.00000000000E+00 0.  1.
<mgrwt>
<rscale>  0 0.13269945E+03</rscale>
<asrwt>0</asrwt>
<pdfrwt beam="1">  1        2 0.12541465E-01 0.13712582E+03</pdfrwt>
<pdfrwt beam="2">  1       -2 0.31268925E-01 0.13712582E+03</pdfrwt>
<totfact> 0.43802155E+03</totfact>
</mgrwt>
</event>
<event>
 8    1  0.9424564E-006  0.1670516E+03  0.7546771E-02  0.1187932E+00
         -4   -1    0    0    0  501 -0.00000000000E+00  0.00000000000E+00  0.91722526856E+03  0.91722526856E+03  0.00000000000E+00 0.  1.
          4   -1    0    0  501    0  0.00000000000E+00 -0.00000000000E+00 -0.26268641267E+02  0.26268641267E+02  0.00000000000E+00 0. -1.
         23    2    1    2    0    0 -0.98279697263E+02  0.51197165057E+02  0.50420615918E+03  0.53115918318E+03  0.12500471321E+03 0.  0.
         23    2    1    2    0    0  0.98279697263E+02 -0.51197165057E+02  0.38675046812E+03  0.41233472665E+03  0.90354599243E+02 0.  0.
          5    1    3    3  502    0  0.64055043215E+01 -0.32170961478E+02  0.98206498295E+02  0.10364655110E+03  0.47000000000E+01 0. -1.
         -5    1    3    3    0  502 -0.10468520158E+03  0.83368126535E+02  0.40599966088E+03  0.42751263208E+03  0.47000000000E+01 0. -1.
        -11    1    4    4    0    0  0.74286076371E+02 -0.58694236817E+02  0.37049227372E+03  0.38239764573E+03  0.00000000000E+00 0.  1.
         11    1    4    4    0    0  0.23993620892E+02  0.74970717592E+01  0.16258194405E+02  0.29937080916E+02  0.00000000000E+00 0. -1.
<mgrwt>
<rscale>  0 0.16067883E+03</rscale>
<asrwt>0</asrwt>
<pdfrwt beam="2">  1        4 0.40413301E-02 0.16705157E+03</pdfrwt>
<pdfrwt beam="1">  1       -4 0.14111155E+00 0.16705157E+03</pdfrwt>
<totfact> 0.21641139E+02</totfact>
</mgrwt>
</event>
<event>
 8    1  0.9424564E-006  0.1485197E+03  0.7546771E-02  0.1211435E+00
          1   -1    0    0  501    0  0.00000000000E+00  0.00000000000E+00  0.15377948204E+03  0.15377948204E+03  0.00000000000E+00 0. -1.
         -1   -1    0    0    0  501 -0.00000000000E+00 -0.00000000000E+00 -0.12281982732E+03  0.12281982732E+03  0.00000000000E+00 0.  1.
         23    2    1    2    0    0  0.68392424198E+02 -0.41880407657E+02 -0.71969484191E+01  0.14869400688E+03  0.12500647736E+03 0.  0.
         23    2    1    2    0    0 -0.68392424198E+02  0.41880407657E+02  0.38156603138E+02  0.12790530249E+03  0.92045357348E+02 0.  0.
          5    1    3    3  502    0  0.75119173374E+02 -0.15878885474E+01  0.40689687735E+02  0.85575418704E+02  0.47000000000E+01 0.  1.
         -5    1    3    3    0  502 -0.67267491754E+01 -0.40292519110E+02 -0.47886636154E+02  0.63118588172E+02  0.47000000000E+01 0.  1.
        -11    1    4    4    0    0 -0.55123887972E+02 -0.10125606010E+02 -0.86263359314E+01  0.56706124835E+02  0.00000000000E+00 0.  1.
         11    1    4    4    0    0 -0.13268536227E+02  0.52006013667E+02  0.46782939069E+02  0.71199177657E+02  0.00000000000E+00 0. -1.
<mgrwt>
<rscale>  0 0.14141660E+03</rscale>
<asrwt>0</asrwt>
<pdfrwt beam="1">  1        1 0.23658382E-01 0.14851973E+03</pdfrwt>
<pdfrwt beam="2">  1       -1 0.18895358E-01 0.14851973E+03</pdfrwt>
<totfact> 0.43785463E+03</totfact>
</mgrwt>
</event>
<event>
 8    1  0.9424564E-006  0.2605911E+03  0.7546771E-02  0.1108916E+00
          2   -1    0    0  501    0  0.00000000000E+00  0.00000000000E+00  0.92363048516E+03  0.92363048516E+03  0.00000000000E+00 0. -1.
         -2   -1    0    0    0  501 -0.00000000000E+00 -0.00000000000E+00 -0.14080933094E+03  0.14080933094E+03  0.00000000000E+00 0.  1.
         23    2    1    2    0    0  0.22815533510E+03  0.15129569491E+02  0.18481915327E+02  0.26124564728E+03  0.12499578482E+03 0.  0.
         23    2    1    2    0    0 -0.22815533510E+03 -0.15129569491E+02  0.76433923889E+03  0.80319416881E+03  0.92858170852E+02 0.  0.
          5    1    3    3  502    0  0.21156540693E+03 -0.27770973540E+02  0.23574197702E+02  0.21473001928E+03  0.47000000000E+01 0. -1.
         -5    1    3    3    0  502  0.16589928164E+02  0.42900543030E+02 -0.50922823758E+01  0.46515628004E+02  0.47000000000E+01 0. -1.
        -11    1    4    4    0    0 -0.43570972327E+02 -0.40384450681E+02  0.15433681723E+03  0.16537589498E+03  0.00000000000E+00 0. -1.
         11    1    4    4    0    0 -0.18458436277E+03  0.25254881191E+02  0.61000242166E+03  0.63781827383E+03  0.00000000000E+00 0.  1.
<mgrwt>
<rscale>  0 0.25707066E+03</rscale>
<asrwt>0</asrwt>
<pdfrwt beam="1">  1        2 0.14209699E+00 0.26059107E+03</pdfrwt>
<pdfrwt beam="2">  1       -2 0.21662975E-01 0.26059107E+03</pdfrwt>
<totfact> 0.53976669E+02</totfact>
</mgrwt>
</event>
<event>
 8    1  0.9424564E-006  0.1304527E+03  0.7546771E-02  0.1240565E+00
         -2   -1    0    0    0  501 -0.00000000000E+00  0.00000000000E+00  0.22271867604E+02  0.22271867604E+02  0.00000000000E+00 0.  1.
          2   -1    0    0  501    0  0.00000000000E+00 -0.00000000000E+00 -0.68192926689E+03  0.68192926689E+03  0.00000000000E+00 0. -1.
         23    2    1    2    0    0 -0.37185315618E+02 -0.28191375233E+01 -0.23981227670E+03  0.27299787940E+03  0.12500887516E+03 0.  0.
         23    2    1    2    0    0  0.37185315618E+02  0.28191375233E+01 -0.41984512259E+03  0.43120325509E+03  0.90970462266E+02 0.  0.
          5    1    3    3  502    0 -0.37743965947E+02  0.30989110942E+02 -0.23309894878E+03  0.23820609120E+03  0.47000000000E+01 0.  1.
         -5    1    3    3    0  502  0.55865032843E+00 -0.33808248466E+02 -0.67133279146E+01  0.34791788201E+02  0.47000000000E+01 0.  1.
        -11    1    4    4    0    0  0.65482741473E+02  0.12102805796E+02 -0.32652588119E+03  0.33324708315E+03  0.00000000000E+00 0.  1.
         11    1    4    4    0    0 -0.28297425855E+02 -0.92836682732E+01 -0.93319241403E+02  0.97956171948E+02  0.00000000000E+00 0. -1.
<mgrwt>
<rscale>  0 0.12154792E+03</rscale>
<asrwt>0</asrwt>
<pdfrwt beam="2">  1        2 0.10491219E+00 0.13045273E+03</pdfrwt>
<pdfrwt beam="1">  1       -2 0.34264412E-02 0.13045273E+03</pdfrwt>
<totfact> 0.14253933E+04</totfact>
</mgrwt>
</event>
<event>
 7    1  0.9424564E-006  0.1671683E+03  0.7546771E-02  0.1196501E+00
         -1   -1    0    0    0  501 -0.00000000000E+00  0.00000000000E+00  0.59610578629E+02  0.59610578629E+02  0.00000000000E+00 0.  1.
          1   -1    0    0  501    0  0.00000000000E+00 -0.00000000000E+00 -0.39567260571E+03  0.39567260571E+03  0.00000000000E+00 0. -1.
         23    2    1    2    0    0  0.10294894639E+03 -0.41504011697E+02 -0.10973283139E+03  0.19996635231E+03  0.12499671684E+03 0.  0.
          5    1    3    3  502    0  0.12287815529E+03 -0.45086079299E+01 -0.68153263431E+02  0.14066387564E+03  0.47000000000E+01 0. -1.
         -5    1    3    3    0  502 -0.19929208900E+02 -0.36995403767E+02 -0.41579567957E+02  0.59302476666E+02  0.47000000000E+01 0. -1.
        -11    1    1    2    0    0 -0.63649902785E+02  0.55578200305E+01 -0.13983818458E+03  0.15374302376E+03  0.00000000000E+00 0.  1.
         11    1    1    2    0    0 -0.39299043608E+02  0.35946191667E+02 -0.86491011114E+02  0.10157380827E+03  0.00000000000E+00 0. -1.
<mgrwt>
<rscale>  0 0.15327915E+03</rscale>
<asrwt>0</asrwt>
<pdfrwt beam="2">  1        1 0.60872707E-01 0.16716832E+03</pdfrwt>
<pdfrwt beam="1">  1       -1 0.91708584E-02 0.16716832E+03</pdfrwt>
<totfact> 0.41769202E+03</totfact>
</mgrwt>
</event>
<event>
 8    1  0.9424564E-006  0.1498925E+03  0.7546771E-02  0.1210530E+00
         -1   -1    0    0    0  501 -0.00000000000E+00  0.00000000000E+00  0.29145645321E+03  0.29145645321E+03  0.00000000000E+00 0.  1.
          1   -1    0    0  501    0  0.00000000000E+00 -0.00000000000E+00 -0.63041336089E+02  0.63041336089E+02  0.00000000000E+00 0. -1.
         23    2    1    2    0    0 -0.63578953179E+02 -0.52909488076E+02  0.13192594150E+03  0.19968025263E+03  0.12500420806E+03 0.  0.
         23    2    1    2    0    0  0.63578953179E+02  0.52909488076E+02  0.96489175621E+02  0.15481753667E+03  0.88411602369E+02 0.  0.
          5    1    3    3  502    0 -0.96764445806E+02 -0.20016439331E+02  0.66710994898E+02  0.11931664870E+03  0.47000000000E+01 0. -1.
         -5    1    3    3    0  502  0.33185492627E+02 -0.32893048744E+02  0.65214946602E+02  0.80363603932E+02  0.47000000000E+01 0. -1.
        -11    1    4    4    0    0 -0.71881843899E+01  0.46406466185E+02  0.21970892595E+02  0.51845445509E+02  0.00000000000E+00 0.  1.
         11    1    4    4    0    0  0.70767137569E+02  0.65030218909E+01  0.74518283025E+02  0.10297209116E+03  0.00000000000E+00 0. -1.
<mgrwt>
<rscale>  0 0.14210041E+03</rscale>
<asrwt>0</asrwt>
<pdfrwt beam="2">  1        1 0.96986672E-02 0.14989246E+03</pdfrwt>
<pdfrwt beam="1">  1       -1 0.44839454E-01 0.14989246E+03</pdfrwt>
<totfact> 0.32507897E+03</totfact>
</mgrwt>
</event>
<event>
 8    1  0.9424564E-006  0.1593768E+03  0.7546771E-02  0.1197281E+00
         -2   -1    0    0    0  501 -0.00000000000E+00  0.00000000000E+00  0.26138718013E+03  0.26138718013E+03  0.00000000000E+00 0. -1.
          2   -1    0    0  501    0  0.00000000000E+00 -0.00000000000E+00 -0.83930257291E+02  0.83930257291E+02  0.00000000000E+00 0.  1.
         23    2    1    2    0    0  0.79034759749E+02 -0.59395522166E+02  0.11987474973E+03  0.19942648030E+03  0.12500657632E+03 0.  0.
         23    2    1    2    0    0 -0.79034759749E+02  0.59395522166E+02  0.57582173116E+02  0.14589095712E+03  0.90521507979E+02 0.  0.
          5    1    3    3  502    0  0.44652171904E+02 -0.29988861507E+02  0.13972744118E+03  0.14979651561E+03  0.47000000000E+01 0.  1.
         -5    1    3    3    0  502  0.34382587845E+02 -0.29406660659E+02 -0.19852691450E+02  0.49629964697E+02  0.47000000000E+01 0.  1.
        -11    1    4    4    0    0 -0.50006733674E+02  0.82063149994E+00 -0.10929872628E+02  0.51193837173E+02  0.00000000000E+00 0.  1.
         11    1    4    4    0    0 -0.29028026076E+02  0.58574890666E+02  0.68512045744E+02  0.94697119948E+02  0.00000000000E+00 0. -1.
<mgrwt>
<rscale>  0 0.15262747E+03</rscale>
<asrwt>0</asrwt>
<pdfrwt beam="2">  1        2 0.12912347E-01 0.15937680E+03</pdfrwt>
<pdfrwt beam="1">  1       -2 0.40213412E-01 0.15937680E+03</pdfrwt>
<totfact> 0.26763003E+03</totfact>
</mgrwt>
</event>
<event>
 8    1  0.9424564E-006  0.1836738E+03  0.7546771E-02  0.1169976E+00
          1   -1    0    0  501    0  0.00000000000E+00  0.00000000000E+00  0.93025967657E+03  0.93025967657E+03  0.00000000000E+00 0. -1.
         -1   -1    0    0    0  501 -0.00000000000E+00 -0.00000000000E+00 -0.53600416981E+02  0.53600416981E+02  0.00000000000E+00 0.  1.
         23    2    1    2    0    0  0.62159322539E+02 -0.11935878299E+03  0.14320330944E+03  0.23290179273E+03  0.12500302702E+03 0.  0.
         23    2    1    2    0    0 -0.62159322539E+02  0.11935878299E+03  0.73345595015E+03  0.75095830082E+03  0.88715490818E+02 0.  0.
          5    1    3    3  502    0  0.58545749266E+02 -0.14341397839E+03  0.13816036531E+03  0.20761876239E+03  0.47000000000E+01 0.  1.
         -5    1    3    3    0  502  0.36135732739E+01  0.24055195398E+02  0.50429441349E+01  0.25283030337E+02  0.47000000000E+01 0.  1.
        -11    1    4    4    0    0  0.11642269598E+02  0.64796404997E+02  0.23143308409E+03  0.24061460669E+03  0.00000000000E+00 0. -1.
         11    1    4    4    0    0 -0.73801592138E+02  0.54562377997E+02  0.50202286605E+03  0.51034369413E+03  0.00000000000E+00 0.  1.
<mgrwt>
<rscale>  0 0.17777341E+03</rscale>
<asrwt>0</asrwt>
<pdfrwt beam="1">  1        1 0.14311686E+00 0.18367378E+03</pdfrwt>
<pdfrwt beam="2">  1       -1 0.82462187E-02 0.18367378E+03</pdfrwt>
<totfact> 0.14841876E+03</totfact>
</mgrwt>
</event>
<event>
 8    1  0.9424564E-006  0.1305316E+03  0.7546771E-02  0.1240649E+00
         -1   -1    0    0    0  501 -0.00000000000E+00  0.00000000000E+00  0.15255858497E+03  0.15255858497E+03  0.00000000000E+00 0.  1.
          1   -1    0    0  501    0  0.00000000000E+00 -0.00000000000E+00 -0.88725349560E+02  0.88725349560E+02  0.00000000000E+00 0. -1.
         23    2    1    2    0    0  0.33083447348E+02 -0.17803383330E+02  0.58852944460E+02  0.14318577912E+03  0.12500809304E+03 0.  0.
         23    2    1    2    0    0 -0.33083447348E+02  0.17803383330E+02  0.49802909470E+01  0.98098155404E+02  0.90481875806E+02 0.  0.
          5    1    3    3  502    0  0.18820198554E+02  0.51627710852E+02  0.44142788065E+02  0.70642028139E+02  0.47000000000E+01 0.  1.
         -5    1    3    3    0  502  0.14263248794E+02 -0.69431094183E+02  0.14710156395E+02  0.72543750983E+02  0.47000000000E+01 0.  1.
        -11    1    4    4    0    0 -0.42746766000E+02  0.32398027488E+02 -0.28189347707E+02  0.60593378456E+02  0.00000000000E+00 0. -1.
         11    1    4    4    0    0  0.96633186525E+01 -0.14594644158E+02  0.33169638654E+02  0.37504776948E+02  0.00000000000E+00 0.  1.
<mgrwt>
<rscale>  0 0.12149596E+03</rscale>
<asrwt>0</asrwt>
<pdfrwt beam="2">  1        1 0.13650054E-01 0.13053160E+03</pdfrwt>
<pdfrwt beam="1">  1       -1 0.23470552E-01 0.13053160E+03</pdfrwt>
<totfact> 0.61895529E+03</totfact>
</mgrwt>
</event>
<event>
 8    1  0.9424564E-006  0.1238305E+03  0.7546771E-02  0.1246355E+00
         -1   -1    0    0    0  501 -0.00000000000E+00  0.00000000000E+00  0.36198318483E+02  0.36198318483E+02  0.00000000000E+00 0.  1.
          1   -1    0    0  501    0  0.00000000000E+00 -0.00000000000E+00 -0.51803853263E+03  0.51803853263E+03  0.00000000000E+00 0. -1.
         23    2    1    2    0    0  0.30871476078E+02 -0.29631011068E+02 -0.10067553017E+03  0.15959183437E+03  0.11620217886E+03 0.  0.
         23    2    1    2    0    0 -0.30871476078E+02  0.29631011068E+02 -0.38116468397E+03  0.39464501673E+03  0.92882334576E+02 0.  0.
          5    1    3    3  502    0  0.19981135857E+02  0.38970214076E+02 -0.71775826786E+02  0.84212722828E+02  0.47000000000E+01 0. -1.
         -5    1    3    3    0  502  0.10890340221E+02 -0.68601225145E+02 -0.28899703389E+02  0.75379111546E+02  0.47000000000E+01 0.  1.
        -11    1    4    4    0    0  0.32575319453E+02  0.19175677839E+02 -0.13053202824E+03  0.13589506413E+03  0.00000000000E+00 0.  1.
         11    1    4    4    0    0 -0.63446795531E+02  0.10455333229E+02 -0.25063265572E+03  0.25874995260E+03  0.00000000000E+00 0. -1.
<mgrwt>
<rscale>  0 0.11804638E+03</rscale>
<asrwt>0</asrwt>
<pdfrwt beam="2">  1        1 0.79698230E-01 0.12383049E+03</pdfrwt>
<pdfrwt beam="1">  1       -1 0.55689725E-02 0.12383049E+03</pdfrwt>
<totfact> 0.61551483E+03</totfact>
</mgrwt>
</event>
<event>
 8    1  0.9424564E-006  0.1646810E+03  0.7546771E-02  0.1191818E+00
         -1   -1    0    0    0  501 -0.00000000000E+00  0.00000000000E+00  0.49828957339E+02  0.49828957339E+02  0.00000000000E+00 0.  1.
          1   -1    0    0  501    0  0.00000000000E+00 -0.00000000000E+00 -0.45696028325E+03  0.45696028325E+03  0.00000000000E+00 0. -1.
         23    2    1    2    0    0 -0.10716582683E+03 -0.32982138089E+01 -0.23007832260E+03  0.28294145061E+03  0.12499774915E+03 0.  0.
         23    2    1    2    0    0  0.10716582683E+03  0.32982138089E+01 -0.17705300331E+03  0.22384778997E+03  0.85233059544E+02 0.  0.
          5    1    3    3  502    0 -0.14759602547E+02 -0.55439830159E+02 -0.67044697227E+02  0.88365729000E+02  0.47000000000E+01 0. -1.
         -5    1    3    3    0  502 -0.92406224280E+02  0.52141616350E+02 -0.16303362537E+03  0.19457572161E+03  0.47000000000E+01 0. -1.
        -11    1    4    4    0    0  0.71084600393E+02 -0.36726943907E+02 -0.81909026334E+02  0.11450317645E+03  0.00000000000E+00 0. -1.
         11    1    4    4    0    0  0.36081226434E+02  0.40025157716E+02 -0.95143976979E+02  0.10934461352E+03  0.00000000000E+00 0.  1.
<mgrwt>
<rscale>  0 0.15726675E+03</rscale>
<asrwt>0</asrwt>
<pdfrwt beam="2">  1        1 0.70301582E-01 0.16468099E+03</pdfrwt>
<pdfrwt beam="1">  1       -1 0.76659935E-02 0.16468099E+03</pdfrwt>
<totfact> 0.45588181E+03</totfact>
</mgrwt>
</event>
<event>
 8    1  0.9424564E-006  0.2009274E+03  0.7546771E-02  0.1152487E+00
          1   -1    0    0  501    0  0.00000000000E+00  0.00000000000E+00  0.12003843954E+03  0.12003843954E+03  0.00000000000E+00 0. -1.
         -1   -1    0    0    0  501 -0.00000000000E+00 -0.00000000000E+00 -0.36733570433E+03  0.36733570433E+03  0.00000000000E+00 0.  1.
         23    2    1    2    0    0 -0.13911320859E+03 -0.73516822320E+02 -0.22426947871E+03  0.30111227849E+03  0.12495838192E+03 0.  0.
         23    2    1    2    0    0  0.13911320859E+03  0.73516822320E+02 -0.23027786079E+02  0.18626186537E+03  0.96984512128E+02 0.  0.
          5    1    3    3  502    0 -0.26544778819E+02  0.15711861038E+02  0.39069409619E+01  0.31445858988E+02  0.47000000000E+01 0. -1.
         -5    1    3    3    0  502 -0.11256842977E+03 -0.89228683358E+02 -0.22817641967E+03  0.26966641950E+03  0.47000000000E+01 0. -1.
        -11    1    4    4    0    0  0.56173106646E+02 -0.19671504783E+02 -0.66833890906E+00  0.59521699300E+02  0.00000000000E+00 0. -1.
         11    1    4    4    0    0  0.82940101939E+02  0.93188327102E+02 -0.22359447170E+02  0.12674016607E+03  0.00000000000E+00 0.  1.
<mgrwt>
<rscale>  0 0.19677691E+03</rscale>
<asrwt>0</asrwt>
<pdfrwt beam="1">  1        1 0.18467452E-01 0.20092736E+03</pdfrwt>
<pdfrwt beam="2">  1       -1 0.56513185E-01 0.20092736E+03</pdfrwt>
<totfact> 0.92107822E+02</totfact>
</mgrwt>
</event>
<event>
 8    1  0.9424564E-006  0.1665701E+03  0.7546771E-02  0.1188151E+00
          1   -1    0    0  501    0  0.00000000000E+00  0.00000000000E+00  0.62806231825E+02  0.62806231825E+02  0.00000000000E+00 0. -1.
         -1   -1    0    0    0  501 -0.00000000000E+00 -0.00000000000E+00 -0.64421099633E+03  0.64421099633E+03  0.00000000000E+00 0.  1.
         23    2    1    2    0    0 -0.64753500077E+02 -0.89034625772E+02 -0.52836829609E+03  0.55400238340E+03  0.12500161656E+03 0.  0.
         23    2    1    2    0    0  0.64753500077E+02  0.89034625772E+02 -0.53036468414E+02  0.15301484475E+03  0.92089605138E+02 0.  0.
          5    1    3    3  502    0 -0.53691010166E+02 -0.33694792517E+00 -0.77901390219E+02  0.94728848323E+02  0.47000000000E+01 0. -1.
         -5    1    3    3    0  502 -0.11062489911E+02 -0.88697677846E+02 -0.45046690587E+03  0.45927353508E+03  0.47000000000E+01 0. -1.
        -11    1    4    4    0    0  0.24087272318E+02  0.82320763594E+02 -0.67696042123E+02  0.10926874633E+03  0.00000000000E+00 0.  1.
         11    1    4    4    0    0  0.40666227759E+02  0.67138621774E+01  0.14659573710E+02  0.43746098418E+02  0.00000000000E+00 0. -1.
<mgrwt>
<rscale>  0 0.16048442E+03</rscale>
<asrwt>0</asrwt>
<pdfrwt beam="1">  1        1 0.96624972E-02 0.16657006E+03</pdfrwt>
<pdfrwt beam="2">  1       -1 0.99109384E-01 0.16657006E+03</pdfrwt>
<totfact> 0.68784799E+02</totfact>
</mgrwt>
</event>
<event>
 8    1  0.9424564E-006  0.1899713E+03  0.7546771E-02  0.1164758E+00
          1   -1    0    0  501    0  0.00000000000E+00  0.00000000000E+00  0.90525779682E+03  0.90525779682E+03  0.00000000000E+00 0. -1.
         -1   -1    0    0    0  501 -0.00000000000E+00 -0.00000000000E+00 -0.37654095072E+02  0.37654095072E+02  0.00000000000E+00 0.  1.
         23    2    1    2    0    0  0.10998406829E+03 -0.91468874146E+02  0.32992619715E+03  0.38071036319E+03  0.12500413937E+03 0.  0.
         23    2    1    2    0    0 -0.10998406829E+03  0.91468874146E+02  0.53767750460E+03  0.56220152870E+03  0.80687109939E+02 0.  0.
          5    1    3    3  502    0  0.67162537347E+01  0.17600505415E+02  0.12549958558E+03  0.12699260544E+03  0.47000000000E+01 0.  1.
         -5    1    3    3    0  502  0.10326781455E+03 -0.10906937956E+03  0.20442661157E+03  0.25371775775E+03  0.47000000000E+01 0.  1.
        -11    1    4    4    0    0 -0.54754459713E+02 -0.15288081722E+01  0.14877622335E+03  0.15853943594E+03  0.00000000000E+00 0. -1.
         11    1    4    4    0    0 -0.55229608575E+02  0.92997682318E+02  0.38890128124E+03  0.40366209276E+03  0.00000000000E+00 0.  1.
<mgrwt>
<rscale>  0 0.18318210E+03</rscale>
<asrwt>0</asrwt>
<pdfrwt beam="1">  1        1 0.13927041E+00 0.18997127E+03</pdfrwt>
<pdfrwt beam="2">  1       -1 0.57929383E-02 0.18997127E+03</pdfrwt>
<totfact> 0.26461744E+03</totfact>
</mgrwt>
</event>
<event>
 8    1  0.9424564E-006  0.1318197E+03  0.7546771E-02  0.1237969E+00
         -1   -1    0    0    0  501 -0.00000000000E+00  0.00000000000E+00  0.14885390973E+03  0.14885390973E+03  0.00000000000E+00 0.  1.
          1   -1    0    0  501    0  0.00000000000E+00 -0.00000000000E+00 -0.91018571314E+02  0.91018571314E+02  0.00000000000E+00 0. -1.
         23    2    1    2    0    0 -0.57818684380E+01 -0.41419049003E+02  0.40749353404E+02  0.13797445305E+03  0.12500988868E+03 0.  0.
         23    2    1    2    0    0  0.57818684380E+01  0.41419049003E+02  0.17085985016E+02  0.10189802800E+03  0.91336244740E+02 0.  0.
          5    1    3    3  502    0 -0.14142488749E+02 -0.46138922497E+02 -0.36059668386E+02  0.60425159010E+02  0.47000000000E+01 0.  1.
         -5    1    3    3    0  502  0.83606203112E+01  0.47198734948E+01  0.76809021790E+02  0.77549294040E+02  0.47000000000E+01 0.  1.
        -11    1    4    4    0    0 -0.22828721041E+02  0.61428775829E+02  0.11769507405E+02  0.66582026920E+02  0.00000000000E+00 0. -1.
         11    1    4    4    0    0  0.28610589479E+02 -0.20009726827E+02  0.53164776119E+01  0.35316001079E+02  0.00000000000E+00 0.  1.
<mgrwt>
<rscale>  0 0.12316252E+03</rscale>
<asrwt>0</asrwt>
<pdfrwt beam="2">  1        1 0.14002857E-01 0.13181972E+03</pdfrwt>
<pdfrwt beam="1">  1       -1 0.22900602E-01 0.13181972E+03</pdfrwt>
<totfact> 0.62365828E+03</totfact>
</mgrwt>
</event>
<event>
 8    1  0.9424564E-006  0.3359474E+03  0.7546771E-02  0.1069834E+00
         -1   -1    0    0    0  501 -0.00000000000E+00  0.00000000000E+00  0.35416518339E+03  0.35416518339E+03  0.00000000000E+00 0.  1.
          1   -1    0    0  501    0  0.00000000000E+00 -0.00000000000E+00 -0.31524562608E+03  0.31524562608E+03  0.00000000000E+00 0. -1.
         23    2    1    2    0    0  0.23356322382E+03  0.20658814840E+03 -0.32378751684E+02  0.33750410116E+03  0.12502076690E+03 0.  0.
         23    2    1    2    0    0 -0.23356322382E+03 -0.20658814840E+03  0.71298309003E+02  0.33190670831E+03  0.88589906723E+02 0.  0.
          5    1    3    3  502    0  0.83653038605E+02  0.70419462034E+01 -0.25191990098E+02  0.87773266085E+02  0.47000000000E+01 0.  1.
         -5    1    3    3    0  502  0.14991018522E+03  0.19954620220E+03 -0.71867615861E+01  0.24973083507E+03  0.47000000000E+01 0.  1.
        -11    1    4    4    0    0 -0.60447532721E+02 -0.70151639267E+02  0.61710714568E+02  0.11128058679E+03  0.00000000000E+00 0. -1.
         11    1    4    4    0    0 -0.17311569110E+03 -0.13643650914E+03  0.95875944343E+01  0.22062612152E+03  0.00000000000E+00 0.  1.
<mgrwt>
<rscale>  0 0.33296051E+03</rscale>
<asrwt>0</asrwt>
<pdfrwt beam="2">  1        1 0.48499327E-01 0.33594737E+03</pdfrwt>
<pdfrwt beam="1">  1       -1 0.54486952E-01 0.33594737E+03</pdfrwt>
<totfact> 0.28828820E+02</totfact>
</mgrwt>
</event>
<event>
 8    1  0.9424564E-006  0.2125633E+03  0.7546771E-02  0.1143236E+00
          1   -1    0    0  501    0  0.00000000000E+00  0.00000000000E+00  0.46603745227E+03  0.46603745227E+03  0.00000000000E+00 0. -1.
         -1   -1    0    0    0  501 -0.00000000000E+00 -0.00000000000E+00 -0.12882695520E+03  0.12882695520E+03  0.00000000000E+00 0.  1.
         23    2    1    2    0    0 -0.92916517377E+02 -0.14465163720E+03  0.82918764889E+01  0.21272492412E+03  0.12500225111E+03 0.  0.
         23    2    1    2    0    0  0.92916517377E+02  0.14465163720E+03  0.32891862058E+03  0.38213948335E+03  0.91024998906E+02 0.  0.
          5    1    3    3  502    0 -0.79326217960E+02 -0.16735816745E+03  0.11687401165E+02  0.18563429212E+03  0.47000000000E+01 0. -1.
         -5    1    3    3    0  502 -0.13590299417E+02  0.22706530250E+02 -0.33955246756E+01  0.27090631998E+02  0.47000000000E+01 0. -1.
        -11    1    4    4    0    0  0.16691181054E+02  0.10919741073E+03  0.18654839391E+03  0.21680169119E+03  0.00000000000E+00 0.  1.
         11    1    4    4    0    0  0.76225336323E+02  0.35454226461E+02  0.14237022668E+03  0.16533779216E+03  0.00000000000E+00 0. -1.
<mgrwt>
<rscale>  0 0.20790480E+03</rscale>
<asrwt>0</asrwt>
<pdfrwt beam="1">  1        1 0.71698069E-01 0.21256326E+03</pdfrwt>
<pdfrwt beam="2">  1       -1 0.19819532E-01 0.21256326E+03</pdfrwt>
<totfact> 0.10155063E+03</totfact>
</mgrwt>
</event>
<event>
 8    1  0.9424564E-006  0.2039464E+03  0.7546771E-02  0.1150468E+00
          1   -1    0    0  501    0  0.00000000000E+00  0.00000000000E+00  0.78488469368E+03  0.78488469368E+03  0.00000000000E+00 0. -1.
         -1   -1    0    0    0  501 -0.00000000000E+00 -0.00000000000E+00 -0.53909134773E+02  0.53909134773E+02  0.00000000000E+00 0.  1.
         23    2    1    2    0    0 -0.45365010029E+02 -0.15463278260E+03  0.24571688036E+03  0.31932884579E+03  0.12499937949E+03 0.  0.
         23    2    1    2    0    0  0.45365010029E+02  0.15463278260E+03  0.48525867855E+03  0.51946498266E+03  0.91643884233E+02 0.  0.
          5    1    3    3  502    0  0.32593269742E+02 -0.10371943448E+03  0.15381667160E+03  0.18841895017E+03  0.47000000000E+01 0.  1.
         -5    1    3    3    0  502 -0.77958279770E+02 -0.50913348112E+02  0.91900208758E+02  0.13090989562E+03  0.47000000000E+01 0.  1.
        -11    1    4    4    0    0  0.60721956417E+02  0.15299701646E+03  0.39549542890E+03  0.42838286301E+03  0.00000000000E+00 0.  1.
         11    1    4    4    0    0 -0.15356946388E+02  0.16357661311E+01  0.89763249650E+02  0.91082119655E+02  0.00000000000E+00 0. -1.
<mgrwt>
<rscale>  0 0.19913890E+03</rscale>
<asrwt>0</asrwt>
<pdfrwt beam="1">  1        1 0.12075148E+00 0.20394638E+03</pdfrwt>
<pdfrwt beam="2">  1       -1 0.82937136E-02 0.20394638E+03</pdfrwt>
<totfact> 0.19246852E+03</totfact>
</mgrwt>
</event>
<event>
 8    1  0.9424564E-006  0.1611750E+03  0.7546771E-02  0.1194836E+00
         -2   -1    0    0    0  501 -0.00000000000E+00  0.00000000000E+00  0.32738782303E+02  0.32738782303E+02  0.00000000000E+00 0.  1.
          2   -1    0    0  501    0  0.00000000000E+00 -0.00000000000E+00 -0.69408770984E+03  0.69408770984E+03  0.00000000000E+00 0. -1.
         23    2    1    2    0    0 -0.76046930771E+02 -0.67746797261E+02 -0.30148803628E+03  0.34186609740E+03  0.12491848669E+03 0.  0.
         23    2    1    2    0    0  0.76046930771E+02  0.67746797261E+02 -0.35986089126E+03  0.38496039474E+03  0.91224340181E+02 0.  0.
          5    1    3    3  502    0 -0.46605696421E+02  0.16260645146E+02 -0.20325969087E+03  0.20922019848E+03  0.47000000000E+01 0.  1.
         -5    1    3    3    0  502 -0.29441234350E+02 -0.84007442406E+02 -0.98228345406E+02  0.13264589892E+03  0.47000000000E+01 0.  1.
        -11    1    4    4    0    0  0.37830342946E+02 -0.42923823844E+01 -0.21826225851E+03  0.22155805759E+03  0.00000000000E+00 0. -1.
         11    1    4    4    0    0  0.38216587825E+02  0.72039179645E+02 -0.14159863275E+03  0.16340233715E+03  0.00000000000E+00 0.  1.
<mgrwt>
<rscale>  0 0.15468136E+03</rscale>
<asrwt>0</asrwt>
<pdfrwt beam="2">  1        2 0.10678272E+00 0.16117504E+03</pdfrwt>
<pdfrwt beam="1">  1       -2 0.50367361E-02 0.16117504E+03</pdfrwt>
<totfact> 0.79652033E+03</totfact>
</mgrwt>
</event>
<event>
 8    1  0.9424564E-006  0.1809258E+03  0.7546771E-02  0.1172130E+00
         -2   -1    0    0    0  501 -0.00000000000E+00  0.00000000000E+00  0.83289376485E+02  0.83289376485E+02  0.00000000000E+00 0.  1.
          2   -1    0    0  501    0  0.00000000000E+00 -0.00000000000E+00 -0.37407737737E+03  0.37407737737E+03  0.00000000000E+00 0. -1.
         23    2    1    2    0    0  0.58583640294E+02  0.11693499899E+03 -0.95586186814E+02  0.20462373182E+03  0.12501326175E+03 0.  0.
         23    2    1    2    0    0 -0.58583640294E+02 -0.11693499899E+03 -0.19520181407E+03  0.25274302204E+03  0.93109881716E+02 0.  0.
          5    1    3    3  502    0  0.59792202974E+02  0.56116567809E+02 -0.11435047371E+03  0.14079168142E+03  0.47000000000E+01 0. -1.
         -5    1    3    3    0  502 -0.12085626794E+01  0.60818431183E+02  0.18764286896E+02  0.63832050398E+02  0.47000000000E+01 0. -1.
        -11    1    4    4    0    0  0.17482759563E+02 -0.52368018556E+02 -0.10312872091E+03  0.11697687517E+03  0.00000000000E+00 0. -1.
         11    1    4    4    0    0 -0.76066399857E+02 -0.64566980436E+02 -0.92073093165E+02  0.13576614687E+03  0.00000000000E+00 0.  1.
<mgrwt>
<rscale>  0 0.17560054E+03</rscale>
<asrwt>0</asrwt>
<pdfrwt beam="2">  1        2 0.57550367E-01 0.18092582E+03</pdfrwt>
<pdfrwt beam="1">  1       -2 0.12813750E-01 0.18092582E+03</pdfrwt>
<totfact> 0.37371228E+03</totfact>
</mgrwt>
</event>
<event>
 8    1  0.9424564E-006  0.1260026E+03  0.7546771E-02  0.1251397E+00
          2   -1    0    0  501    0  0.00000000000E+00  0.00000000000E+00  0.37986734664E+02  0.37986734664E+02  0.00000000000E+00 0. -1.
         -2   -1    0    0    0  501 -0.00000000000E+00 -0.00000000000E+00 -0.30078449521E+03  0.30078449521E+03  0.00000000000E+00 0.  1.
         23    2    1    2    0    0  0.14269221559E+02 -0.69900617741E+01 -0.15770371542E+03  0.20185915124E+03  0.12499673370E+03 0.  0.
         23    2    1    2    0    0 -0.14269221559E+02  0.69900617741E+01 -0.10509404512E+03  0.13691207863E+03  0.86299984396E+02 0.  0.
          5    1    3    3  502    0 -0.54211820217E+02 -0.15732127204E+02 -0.65910888880E+02  0.86906596704E+02  0.47000000000E+01 0.  1.
         -5    1    3    3    0  502  0.68481041776E+02  0.87420654298E+01 -0.91792826538E+02  0.11495255454E+03  0.47000000000E+01 0.  1.
        -11    1    4    4    0    0  0.16838821602E+02 -0.31068594570E+02 -0.62829312263E+02  0.72085546130E+02  0.00000000000E+00 0.  1.
         11    1    4    4    0    0 -0.31108043161E+02  0.38058656344E+02 -0.42264732861E+02  0.64826532499E+02  0.00000000000E+00 0. -1.
<mgrwt>
<rscale>  0 0.11510577E+03</rscale>
<asrwt>0</asrwt>
<pdfrwt beam="1">  1        2 0.58441130E-02 0.12600260E+03</pdfrwt>
<pdfrwt beam="2">  1       -2 0.46274538E-01 0.12600260E+03</pdfrwt>
<totfact> 0.53998306E+03</totfact>
</mgrwt>
</event>
<event>
 8    1  0.9424564E-006  0.1374634E+03  0.7546771E-02  0.1228360E+00
          2   -1    0    0  501    0  0.00000000000E+00  0.00000000000E+00  0.26571054706E+03  0.26571054706E+03  0.00000000000E+00 0. -1.
         -2   -1    0    0    0  501 -0.00000000000E+00 -0.00000000000E+00 -0.57121300115E+02  0.57121300115E+02  0.00000000000E+00 0.  1.
         23    2    1    2    0    0  0.26541153105E+02  0.50652250757E+02  0.10219753549E+03  0.17129072273E+03  0.12500436840E+03 0.  0.
         23    2    1    2    0    0 -0.26541153105E+02 -0.50652250757E+02  0.10639171146E+03  0.15154112445E+03  0.91517390789E+02 0.  0.
          5    1    3    3  502    0 -0.35625856907E+02 -0.21436315368E+02  0.36589780013E+02  0.55584344004E+02  0.47000000000E+01 0. -1.
         -5    1    3    3    0  502  0.62167010012E+02  0.72088566124E+02  0.65607755476E+02  0.11570637873E+03  0.47000000000E+01 0. -1.
        -11    1    4    4    0    0  0.35248938530E+01  0.11908615461E+02 -0.10053265364E+02  0.15978364853E+02  0.00000000000E+00 0.  1.
         11    1    4    4    0    0 -0.30066046958E+02 -0.62560866218E+02  0.11644497682E+03  0.13556275960E+03  0.00000000000E+00 0. -1.
<mgrwt>
<rscale>  0 0.12939278E+03</rscale>
<asrwt>0</asrwt>
<pdfrwt beam="1">  1        2 0.40878545E-01 0.13746336E+03</pdfrwt>
<pdfrwt beam="2">  1       -2 0.87878924E-02 0.13746336E+03</pdfrwt>
<totfact> 0.96310322E+03</totfact>
</mgrwt>
</event>
<event>
 8    1  0.9424564E-006  0.1381071E+03  0.7546771E-02  0.1228097E+00
         -2   -1    0    0    0  501 -0.00000000000E+00  0.00000000000E+00  0.12607835611E+03  0.12607835611E+03  0.00000000000E+00 0. -1.
          2   -1    0    0  501    0  0.00000000000E+00 -0.00000000000E+00 -0.11914206694E+03  0.11914206694E+03  0.00000000000E+00 0.  1.
         23    2    1    2    0    0  0.54151481216E+02 -0.22695508089E+02  0.22500775160E+01  0.13812540725E+03  0.12500438502E+03 0.  0.
         23    2    1    2    0    0 -0.54151481216E+02  0.22695508089E+02  0.46862116512E+01  0.10709501580E+03  0.89442231766E+02 0.  0.
          5    1    3    3  502    0  0.77756439784E+02 -0.51933984215E+02  0.20875986870E+02  0.95922361690E+02  0.47000000000E+01 0. -1.
         -5    1    3    3    0  502 -0.23604958568E+02  0.29238476126E+02 -0.18625909354E+02  0.42203045558E+02  0.47000000000E+01 0. -1.
        -11    1    4    4    0    0 -0.75778528663E+02  0.37199502146E+01 -0.66721940812E+01  0.76162599810E+02  0.00000000000E+00 0. -1.
         11    1    4    4    0    0  0.21627047447E+02  0.18975557874E+02  0.11358405732E+02  0.30932415985E+02  0.00000000000E+00 0.  1.
<mgrwt>
<rscale>  0 0.12956874E+03</rscale>
<asrwt>0</asrwt>
<pdfrwt beam="2">  1        2 0.18329549E-01 0.13810708E+03</pdfrwt>
<pdfrwt beam="1">  1       -2 0.19396670E-01 0.13810708E+03</pdfrwt>
<totfact> 0.64684302E+03</totfact>
</mgrwt>
</event>
<event>
 8    1  0.9424564E-006  0.1160353E+03  0.7546771E-02  0.1257960E+00
         -2   -1    0    0    0  501 -0.00000000000E+00  0.00000000000E+00  0.64893633301E+02  0.64893633301E+02  0.00000000000E+00 0.  1.
          2   -1    0    0  501    0  0.00000000000E+00 -0.00000000000E+00 -0.20887221104E+03  0.20887221104E+03  0.00000000000E+00 0. -1.
         23    2    1    2    0    0  0.23808333578E+02 -0.19717721538E+02 -0.24094653312E+02  0.11851047104E+03  0.11184164759E+03 0.  0.
         23    2    1    2    0    0 -0.23808333578E+02  0.19717721538E+02 -0.11988392442E+03  0.15525537330E+03  0.93682710854E+02 0.  0.
          5    1    3    3  502    0  0.61869069386E+02 -0.28485927173E+02 -0.36296181953E+02  0.77322264698E+02  0.47000000000E+01 0. -1.
         -5    1    3    3    0  502 -0.38060735808E+02  0.87682056353E+01  0.12201528640E+02  0.41188206339E+02  0.47000000000E+01 0.  1.
        -11    1    4    4    0    0  0.11393502564E+02 -0.33131613199E+02 -0.39070223706E+02  0.52478548706E+02  0.00000000000E+00 0. -1.
         11    1    4    4    0    0 -0.35201836142E+02  0.52849334738E+02 -0.80813700716E+02  0.10277682459E+03  0.00000000000E+00 0.  1.
<mgrwt>
<rscale>  0 0.11142128E+03</rscale>
<asrwt>0</asrwt>
<pdfrwt beam="2">  1        2 0.32134186E-01 0.11603525E+03</pdfrwt>
<pdfrwt beam="1">  1       -2 0.99836359E-02 0.11603525E+03</pdfrwt>
<totfact> 0.10068732E+04</totfact>
</mgrwt>
</event>
<event>
 8    1  0.9424564E-006  0.1263552E+03  0.7546771E-02  0.1248843E+00
         -1   -1    0    0    0  501 -0.00000000000E+00  0.00000000000E+00  0.46530011790E+03  0.46530011790E+03  0.00000000000E+00 0.  1.
          1   -1    0    0  501    0  0.00000000000E+00 -0.00000000000E+00 -0.31511873076E+02  0.31511873076E+02  0.00000000000E+00 0. -1.
         23    2    1    2    0    0 -0.16616325192E+02  0.80266663264E+01  0.35215142323E+03  0.37413401208E+03  0.12500041790E+03 0.  0.
         23    2    1    2    0    0  0.16616325192E+02 -0.80266663264E+01  0.81636821595E+02  0.12267797890E+03  0.89692732321E+02 0.  0.
          5    1    3    3  502    0 -0.67843547265E+02 -0.21653896819E+01  0.25273603220E+03  0.26173465149E+03  0.47000000000E+01 0.  1.
         -5    1    3    3    0  502  0.51227222073E+02  0.10192056008E+02  0.99415391024E+02  0.11239936058E+03  0.47000000000E+01 0.  1.
        -11    1    4    4    0    0 -0.32117906912E+02 -0.22516303370E+02  0.46708146588E+02  0.60993399803E+02  0.00000000000E+00 0.  1.
         11    1    4    4    0    0  0.48734232104E+02  0.14489637044E+02  0.34928675007E+02  0.61684579095E+02  0.00000000000E+00 0. -1.
<mgrwt>
<rscale>  0 0.11658287E+03</rscale>
<asrwt>0</asrwt>
<pdfrwt beam="2">  1        1 0.48479808E-02 0.12635519E+03</pdfrwt>
<pdfrwt beam="1">  1       -1 0.71584628E-01 0.12635519E+03</pdfrwt>
<totfact> 0.34089549E+03</totfact>
</mgrwt>
</event>
<event>
 8    1  0.9424564E-006  0.1654781E+03  0.7546771E-02  0.1189992E+00
         -3   -1    0    0    0  501 -0.00000000000E+00  0.00000000000E+00  0.85061014454E+03  0.85061014454E+03  0.00000000000E+00 0.  1.
          3   -1    0    0  501    0  0.00000000000E+00 -0.00000000000E+00 -0.30849828024E+02  0.30849828024E+02  0.00000000000E+00 0. -1.
         23    2    1    2    0    0 -0.28094013335E+02 -0.10476041700E+03  0.58393977073E+03  0.60693381473E+03  0.12497592196E+03 0.  0.
         23    2    1    2    0    0  0.28094013335E+02  0.10476041700E+03  0.23582054579E+03  0.27452615783E+03  0.89382677090E+02 0.  0.
          5    1    3    3  502    0 -0.52405357117E+02 -0.17208138607E+02  0.98046495516E+02  0.11259505661E+03  0.47000000000E+01 0. -1.
         -5    1    3    3    0  502  0.24311343782E+02 -0.87552278395E+02  0.48589327521E+03  0.49433875812E+03  0.47000000000E+01 0. -1.
        -11    1    4    4    0    0  0.37653728281E+02  0.27975948089E+02  0.32741809446E+02  0.57205620447E+02  0.00000000000E+00 0. -1.
         11    1    4    4    0    0 -0.95597149457E+01  0.76784468913E+02  0.20307873634E+03  0.21732053739E+03  0.00000000000E+00 0.  1.
<mgrwt>
<rscale>  0 0.15885844E+03</rscale>
<asrwt>0</asrwt>
<pdfrwt beam="2">  1        3 0.47461280E-02 0.16547809E+03</pdfrwt>
<pdfrwt beam="1">  1       -3 0.13086308E+00 0.16547809E+03</pdfrwt>
<totfact> 0.28430523E+02</totfact>
</mgrwt>
</event>
<event>
 8    1  0.9424564E-006  0.1294715E+03  0.7546771E-02  0.1240166E+00
          2   -1    0    0  501    0  0.00000000000E+00  0.00000000000E+00  0.13084687732E+03  0.13084687732E+03  0.00000000000E+00 0. -1.
         -2   -1    0    0    0  501 -0.00000000000E+00 -0.00000000000E+00 -0.10640537122E+03  0.10640537122E+03  0.00000000000E+00 0.  1.
         23    2    1    2    0    0 -0.33732778817E+02  0.22484694296E+00 -0.10781817520E+02  0.12991966282E+03  0.12499968110E+03 0.  0.
         23    2    1    2    0    0  0.33732778817E+02 -0.22484694296E+00  0.35223323615E+02  0.10733258572E+03  0.95611978894E+02 0.  0.
          5    1    3    3  502    0 -0.41070974539E+02 -0.21041049714E+02 -0.59858898828E+02  0.75727990146E+02  0.47000000000E+01 0. -1.
         -5    1    3    3    0  502  0.73381957222E+01  0.21265896657E+02  0.49077081308E+02  0.54191672671E+02  0.47000000000E+01 0. -1.
        -11    1    4    4    0    0  0.47091501723E+02 -0.32390961155E+02 -0.88633234398E+00  0.57162658127E+02  0.00000000000E+00 0.  1.
         11    1    4    4    0    0 -0.13358722906E+02  0.32166114212E+02  0.36109655959E+02  0.50169927593E+02  0.00000000000E+00 0. -1.
<mgrwt>
<rscale>  0 0.12179450E+03</rscale>
<asrwt>0</asrwt>
<pdfrwt beam="1">  1        2 0.20130289E-01 0.12947151E+03</pdfrwt>
<pdfrwt beam="2">  1       -2 0.16370057E-01 0.12947151E+03</pdfrwt>
<totfact> 0.76795043E+03</totfact>
</mgrwt>
</event>
<event>
 8    1  0.9424564E-006  0.1578933E+03  0.7546771E-02  0.1199657E+00
          1   -1    0    0  501    0  0.00000000000E+00  0.00000000000E+00  0.60934798688E+03  0.60934798688E+03  0.00000000000E+00 0. -1.
         -1   -1    0    0    0  501 -0.00000000000E+00 -0.00000000000E+00 -0.34220382888E+02  0.34220382888E+02  0.00000000000E+00 0.  1.
         23    2    1    2    0    0  0.34717119847E+02 -0.89999643987E+02  0.31558668097E+03  0.35288133068E+03  0.12500026404E+03 0.  0.
         23    2    1    2    0    0 -0.34717119847E+02  0.89999643987E+02  0.25954092302E+03  0.29068703909E+03  0.88499997968E+02 0.  0.
          5    1    3    3  502    0 -0.30747204885E+01 -0.10438165154E+03  0.27976554019E+03  0.29865671023E+03  0.47000000000E+01 0.  1.
         -5    1    3    3    0  502  0.37791840335E+02  0.14382007551E+02  0.35821140774E+02  0.54224620455E+02  0.47000000000E+01 0.  1.
        -11    1    4    4    0    0 -0.46687053636E+02  0.82694927665E+02  0.25985202363E+03  0.27666081440E+03  0.00000000000E+00 0. -1.
         11    1    4    4    0    0  0.11969933789E+02  0.73047163219E+01 -0.31110060476E+00  0.14026224689E+02  0.00000000000E+00 0.  1.
<mgrwt>
<rscale>  0 0.15066626E+03</rscale>
<asrwt>0</asrwt>
<pdfrwt beam="1">  1        1 0.93745836E-01 0.15789326E+03</pdfrwt>
<pdfrwt beam="2">  1       -1 0.52646747E-02 0.15789326E+03</pdfrwt>
<totfact> 0.54531200E+03</totfact>
</mgrwt>
</event>
<event>
 8    1  0.9424564E-006  0.1280992E+03  0.7546771E-02  0.1245748E+00
         -1   -1    0    0    0  501 -0.00000000000E+00  0.00000000000E+00  0.55914736481E+03  0.55914736481E+03  0.00000000000E+00 0.  1.
          1   -1    0    0  501    0  0.00000000000E+00 -0.00000000000E+00 -0.25762111820E+02  0.25762111820E+02  0.00000000000E+00 0. -1.
         23    2    1    2    0    0 -0.20374144575E+02  0.19205190008E+02  0.41336949024E+03  0.43276291852E+03  0.12500185237E+03 0.  0.
         23    2    1    2    0    0  0.20374144575E+02 -0.19205190008E+02  0.12001576274E+03  0.15214655810E+03  0.89223577295E+02 0.  0.
          5    1    3    3  502    0  0.42733090393E+02  0.38259335810E+02  0.13690755882E+03  0.14851149266E+03  0.47000000000E+01 0. -1.
         -5    1    3    3    0  502 -0.63107234968E+02 -0.19054145802E+02  0.27646193142E+03  0.28425142586E+03  0.47000000000E+01 0. -1.
        -11    1    4    4    0    0  0.11643489970E+01  0.27468446659E+02  0.69965665868E+01  0.28369406311E+02  0.00000000000E+00 0. -1.
         11    1    4    4    0    0  0.19209795578E+02 -0.46673636667E+02  0.11301919616E+03  0.12377715179E+03  0.00000000000E+00 0.  1.
<mgrwt>
<rscale>  0 0.11840731E+03</rscale>
<asrwt>0</asrwt>
<pdfrwt beam="2">  1        1 0.39634022E-02 0.12809921E+03</pdfrwt>
<pdfrwt beam="1">  1       -1 0.86022662E-01 0.12809921E+03</pdfrwt>
<totfact> 0.30947562E+03</totfact>
</mgrwt>
</event>
<event>
 8    1  0.9424564E-006  0.1556945E+03  0.7546771E-02  0.1202466E+00
          2   -1    0    0  501    0  0.00000000000E+00  0.00000000000E+00  0.68537443712E+03  0.68537443712E+03  0.00000000000E+00 0. -1.
         -2   -1    0    0    0  501 -0.00000000000E+00 -0.00000000000E+00 -0.41512343077E+02  0.41512343077E+02  0.00000000000E+00 0.  1.
         23    2    1    2    0    0  0.53484820062E+02  0.75877249730E+02  0.14857553971E+03  0.21521026014E+03  0.12499112794E+03 0.  0.
         23    2    1    2    0    0 -0.53484820062E+02 -0.75877249730E+02  0.49528655433E+03  0.51167652006E+03  0.88803757110E+02 0.  0.
          5    1    3    3  502    0 -0.40058626148E+02  0.20495953269E+02  0.58507382839E+02  0.73959323117E+02  0.47000000000E+01 0.  1.
         -5    1    3    3    0  502  0.93543446210E+02  0.55381296460E+02  0.90068156875E+02  0.14125093702E+03  0.47000000000E+01 0.  1.
        -11    1    4    4    0    0  0.71262003149E+01  0.81403236776E+01  0.78871014423E+01  0.13388576088E+02  0.00000000000E+00 0.  1.
         11    1    4    4    0    0 -0.60611020377E+02 -0.84017573407E+02  0.48739945289E+03  0.49828794397E+03  0.00000000000E+00 0. -1.
<mgrwt>
<rscale>  0 0.14838972E+03</rscale>
<asrwt>0</asrwt>
<pdfrwt beam="1">  1        2 0.10544221E+00 0.15569446E+03</pdfrwt>
<pdfrwt beam="2">  1       -2 0.63865148E-02 0.15569446E+03</pdfrwt>
<totfact> 0.56299020E+03</totfact>
</mgrwt>
</event>
<event>
 8    1  0.9424564E-006  0.1470809E+03  0.7546771E-02  0.1214298E+00
         -3   -1    0    0    0  501 -0.00000000000E+00  0.00000000000E+00  0.97110384157E+02  0.97110384157E+02  0.00000000000E+00 0.  1.
          3   -1    0    0  501    0  0.00000000000E+00 -0.00000000000E+00 -0.18169478578E+03  0.18169478578E+03  0.00000000000E+00 0. -1.
         23    2    1    2    0    0  0.13214208522E+02 -0.76365715930E+02 -0.40255497465E+02  0.15249029581E+03  0.12500578932E+03 0.  0.
         23    2    1    2    0    0 -0.13214208522E+02  0.76365715930E+02 -0.44328904154E+02  0.12631487412E+03  0.89353555076E+02 0.  0.
          5    1    3    3  502    0  0.10989355081E+02  0.39471437188E+01  0.38124575706E+02  0.40148712824E+02  0.47000000000E+01 0.  1.
         -5    1    3    3    0  502  0.22248534409E+01 -0.80312859648E+02 -0.78380073170E+02  0.11234158299E+03  0.47000000000E+01 0.  1.
        -11    1    4    4    0    0 -0.34978799998E+02  0.64995496496E+02 -0.61727961128E+02  0.96219915813E+02  0.00000000000E+00 0.  1.
         11    1    4    4    0    0  0.21764591476E+02  0.11370219434E+02  0.17399056974E+02  0.30094958310E+02  0.00000000000E+00 0. -1.
<mgrwt>
<rscale>  0 0.13928230E+03</rscale>
<asrwt>0</asrwt>
<pdfrwt beam="2">  1        3 0.27953044E-01 0.14708088E+03</pdfrwt>
<pdfrwt beam="1">  1       -3 0.14940059E-01 0.14708088E+03</pdfrwt>
<totfact> 0.10678989E+03</totfact>
</mgrwt>
</event>
<event>
 8    1  0.9424564E-006  0.1259533E+03  0.7546771E-02  0.1247729E+00
          2   -1    0    0  501    0  0.00000000000E+00  0.00000000000E+00  0.26080878662E+03  0.26080878662E+03  0.00000000000E+00 0. -1.
         -2   -1    0    0    0  501 -0.00000000000E+00 -0.00000000000E+00 -0.10822311830E+03  0.10822311830E+03  0.00000000000E+00 0.  1.
         23    2    1    2    0    0  0.11167949560E+02  0.10680112824E+02 -0.57648973938E+02  0.13851949228E+03  0.12500183054E+03 0.  0.
         23    2    1    2    0    0 -0.11167949560E+02 -0.10680112824E+02  0.21023464225E+03  0.23051241263E+03  0.93266176443E+02 0.  0.
          5    1    3    3  502    0  0.63712773169E+02  0.26905352311E+02 -0.42396494063E+02  0.81257419086E+02  0.47000000000E+01 0. -1.
         -5    1    3    3    0  502 -0.52544823609E+02 -0.16225239486E+02 -0.15252479876E+02  0.57262073197E+02  0.47000000000E+01 0. -1.
        -11    1    4    4    0    0  0.47366616778E+01  0.33329427403E+02  0.15261728875E+03  0.15628603111E+03  0.00000000000E+00 0. -1.
         11    1    4    4    0    0 -0.15904611237E+02 -0.44009540227E+02  0.57617353505E+02  0.74226381527E+02  0.00000000000E+00 0.  1.
<mgrwt>
<rscale>  0 0.11723532E+03</rscale>
<asrwt>0</asrwt>
<pdfrwt beam="1">  1        2 0.40124428E-01 0.12595335E+03</pdfrwt>
<pdfrwt beam="2">  1       -2 0.16649711E-01 0.12595335E+03</pdfrwt>
<totfact> 0.35164200E+03</totfact>
</mgrwt>
</event>
<event>
 8    1  0.9424564E-006  0.1462848E+03  0.7546771E-02  0.1214163E+00
         -2   -1    0    0    0  501 -0.00000000000E+00  0.00000000000E+00  0.13395270095E+02  0.13395270095E+02  0.00000000000E+00 0.  1.
          2   -1    0    0  501    0  0.00000000000E+00 -0.00000000000E+00 -0.13533696810E+04  0.13533696810E+04  0.00000000000E+00 0. -1.
         23    2    1    2    0    0 -0.52982775288E+02 -0.54472934002E+02 -0.82467350916E+03  0.83754738717E+03  0.12499901613E+03 0.  0.
         23    2    1    2    0    0  0.52982775288E+02  0.54472934002E+02 -0.51530090171E+03  0.52921756389E+03  0.93604143111E+02 0.  0.
          5    1    3    3  502    0 -0.24284769285E+00  0.60115168391E+01 -0.57912872068E+03  0.57917904177E+03  0.47000000000E+01 0. -1.
         -5    1    3    3    0  502 -0.52739927595E+02 -0.60484450841E+02 -0.24554478848E+03  0.25836834540E+03  0.47000000000E+01 0. -1.
        -11    1    4    4    0    0  0.61650485901E+02 -0.31947808767E+01 -0.24044169280E+03  0.24824019955E+03  0.00000000000E+00 0.  1.
         11    1    4    4    0    0 -0.86677106131E+01  0.57667714878E+02 -0.27485920892E+03  0.28097736434E+03  0.00000000000E+00 0. -1.
<mgrwt>
<rscale>  0 0.13938168E+03</rscale>
<asrwt>0</asrwt>
<pdfrwt beam="2">  1        2 0.20821076E+00 0.14628475E+03</pdfrwt>
<pdfrwt beam="1">  1       -2 0.20608104E-02 0.14628475E+03</pdfrwt>
<totfact> 0.11800423E+04</totfact>
</mgrwt>
</event>
<event>
 8    1  0.9424564E-006  0.1276206E+03  0.7546771E-02  0.1245884E+00
         -1   -1    0    0    0  501 -0.00000000000E+00  0.00000000000E+00  0.12139487801E+03  0.12139487801E+03  0.00000000000E+00 0.  1.
          1   -1    0    0  501    0  0.00000000000E+00 -0.00000000000E+00 -0.10322750933E+03  0.10322750933E+03  0.00000000000E+00 0. -1.
         23    2    1    2    0    0 -0.23344640650E+02  0.10767573227E+02  0.25070875633E+02  0.13005990173E+03  0.12500446534E+03 0.  0.
         23    2    1    2    0    0  0.23344640650E+02 -0.10767573227E+02 -0.69035069538E+01  0.94562485615E+02  0.90738593758E+02 0.  0.
          5    1    3    3  502    0 -0.44589727967E+02 -0.43655084005E+02  0.33278129965E+02  0.70876894215E+02  0.47000000000E+01 0. -1.
         -5    1    3    3    0  502  0.21245087317E+02  0.54422657231E+02 -0.82072543323E+01  0.59183007518E+02  0.47000000000E+01 0. -1.
        -11    1    4    4    0    0 -0.20962458651E+02 -0.35618212903E+02 -0.13171172748E+02  0.43376970326E+02  0.00000000000E+00 0. -1.
         11    1    4    4    0    0  0.44307099302E+02  0.24850639676E+02  0.62676657945E+01  0.51185515289E+02  0.00000000000E+00 0.  1.
<mgrwt>
<rscale>  0 0.11832604E+03</rscale>
<asrwt>0</asrwt>
<pdfrwt beam="2">  1        1 0.15881155E-01 0.12762065E+03</pdfrwt>
<pdfrwt beam="1">  1       -1 0.18676135E-01 0.12762065E+03</pdfrwt>
<totfact> 0.73402778E+03</totfact>
</mgrwt>
</event>
<event>
 8    1  0.9424564E-006  0.2312260E+03  0.7546771E-02  0.1128852E+00
         -2   -1    0    0    0  501 -0.00000000000E+00  0.00000000000E+00  0.61597532080E+02  0.61597532080E+02  0.00000000000E+00 0.  1.
          2   -1    0    0  501    0  0.00000000000E+00 -0.00000000000E+00 -0.83602557305E+03  0.83602557305E+03  0.00000000000E+00 0. -1.
         23    2    1    2    0    0  0.12310382041E+03  0.15064139709E+03 -0.31603269179E+03  0.39158921560E+03  0.12497227844E+03 0.  0.
         23    2    1    2    0    0 -0.12310382041E+03 -0.15064139709E+03 -0.45839534918E+03  0.50603388953E+03  0.89981220747E+02 0.  0.
          5    1    3    3  502    0  0.73984746647E+02  0.15770046283E+03 -0.28106785035E+03  0.33070289568E+03  0.47000000000E+01 0. -1.
         -5    1    3    3    0  502  0.49119073762E+02 -0.70590657396E+01 -0.34964841444E+02  0.60886319921E+02  0.47000000000E+01 0. -1.
        -11    1    4    4    0    0 -0.61039887414E+02 -0.75901080528E+02 -0.33564101851E+03  0.34948781837E+03  0.00000000000E+00 0. -1.
         11    1    4    4    0    0 -0.62063932994E+02 -0.74740316560E+02 -0.12275433067E+03  0.15654607116E+03  0.00000000000E+00 0.  1.
<mgrwt>
<rscale>  0 0.22688515E+03</rscale>
<asrwt>0</asrwt>
<pdfrwt beam="2">  1        2 0.12861932E+00 0.23122597E+03</pdfrwt>
<pdfrwt beam="1">  1       -2 0.94765435E-02 0.23122597E+03</pdfrwt>
<totfact> 0.24135135E+03</totfact>
</mgrwt>
</event>
<event>
 8    1  0.9424564E-006  0.1668065E+03  0.7546771E-02  0.1188014E+00
          1   -1    0    0  501    0  0.00000000000E+00  0.00000000000E+00  0.15752163194E+04  0.15752163194E+04  0.00000000000E+00 0. -1.
         -1   -1    0    0    0  501 -0.00000000000E+00 -0.00000000000E+00 -0.16099345720E+02  0.16099345720E+02  0.00000000000E+00 0.  1.
         23    2    1    2    0    0  0.37860007598E+02 -0.10376762715E+03  0.10158214917E+04  0.10294259059E+04  0.12499316803E+03 0.  0.
         23    2    1    2    0    0 -0.37860007598E+02  0.10376762715E+03  0.54329548195E+03  0.56188975922E+03  0.91372972976E+02 0.  0.
          5    1    3    3  502    0  0.10417408235E+02 -0.10513413255E+03  0.97030990173E+03  0.97605589165E+03  0.47000000000E+01 0. -1.
         -5    1    3    3    0  502  0.27442599363E+02  0.13665053955E+01  0.45511589983E+02  0.53370014236E+02  0.47000000000E+01 0. -1.
        -11    1    4    4    0    0 -0.30493088606E+02 -0.70927171940E+01  0.94726729090E+02  0.99766168083E+02  0.00000000000E+00 0.  1.
         11    1    4    4    0    0 -0.73669189917E+01  0.11086034435E+03  0.44856875286E+03  0.46212359114E+03  0.00000000000E+00 0. -1.
<mgrwt>
<rscale>  0 0.16060588E+03</rscale>
<asrwt>0</asrwt>
<pdfrwt beam="1">  1        1 0.24234085E+00 0.16680645E+03</pdfrwt>
<pdfrwt beam="2">  1       -1 0.24768237E-02 0.16680645E+03</pdfrwt>
<totfact> 0.31789564E+03</totfact>
</mgrwt>
</event>
<event>
 8    1  0.9424564E-006  0.1157667E+03  0.7546771E-02  0.1259975E+00
          1   -1    0    0  501    0  0.00000000000E+00  0.00000000000E+00  0.10194209478E+03  0.10194209478E+03  0.00000000000E+00 0. -1.
         -1   -1    0    0    0  501 -0.00000000000E+00 -0.00000000000E+00 -0.12036430523E+03  0.12036430523E+03  0.00000000000E+00 0.  1.
         23    2    1    2    0    0 -0.25404852229E+02  0.10056657838E+02 -0.43371195411E+02  0.12362440911E+03  0.11249618240E+03 0.  0.
         23    2    1    2    0    0  0.25404852229E+02 -0.10056657838E+02  0.24948984967E+02  0.98681990895E+02  0.91483007124E+02 0.  0.
          5    1    3    3  502    0 -0.69145268947E+02  0.11877035471E+02 -0.35954205989E+02  0.78974218057E+02  0.47000000000E+01 0. -1.
         -5    1    3    3    0  502  0.43740416718E+02 -0.18203776329E+01 -0.74169894220E+01  0.44650191058E+02  0.47000000000E+01 0.  1.
        -11    1    4    4    0    0  0.46158581612E+02 -0.38188652364E+02  0.10342733036E+02  0.60794407246E+02  0.00000000000E+00 0.  1.
         11    1    4    4    0    0 -0.20753729383E+02  0.28131994525E+02  0.14606251931E+02  0.37887583649E+02  0.00000000000E+00 0. -1.
<mgrwt>
<rscale>  0 0.11032183E+03</rscale>
<asrwt>0</asrwt>
<pdfrwt beam="1">  1        1 0.15683399E-01 0.11576672E+03</pdfrwt>
<pdfrwt beam="2">  1       -1 0.18517585E-01 0.11576672E+03</pdfrwt>
<totfact> 0.75048388E+03</totfact>
</mgrwt>
</event>
<event>
 8    1  0.9424564E-006  0.1290921E+03  0.7546771E-02  0.1241713E+00
         -2   -1    0    0    0  501 -0.00000000000E+00  0.00000000000E+00  0.40790129547E+02  0.40790129547E+02  0.00000000000E+00 0.  1.
          2   -1    0    0  501    0  0.00000000000E+00 -0.00000000000E+00 -0.35622779567E+03  0.35622779567E+03  0.00000000000E+00 0. -1.
         23    2    1    2    0    0 -0.92224402939E+01  0.30910839324E+02 -0.11278397418E+03  0.17142050985E+03  0.12499693186E+03 0.  0.
         23    2    1    2    0    0  0.92224402939E+01 -0.30910839324E+02 -0.20265369195E+03  0.22559741537E+03  0.93729086029E+02 0.  0.
          5    1    3    3  502    0 -0.59443897872E+02 -0.11461329003E+02 -0.37427547585E+02  0.71329169174E+02  0.47000000000E+01 0.  1.
         -5    1    3    3    0  502  0.50221457579E+02  0.42372168327E+02 -0.75356426591E+02  0.10009134068E+03  0.47000000000E+01 0.  1.
        -11    1    4    4    0    0  0.42913627041E+02 -0.39485929236E+02 -0.16160608109E+03  0.17180583063E+03  0.00000000000E+00 0. -1.
         11    1    4    4    0    0 -0.33691186747E+02  0.85750899117E+01 -0.41047610862E+02  0.53791584740E+02  0.00000000000E+00 0.  1.
<mgrwt>
<rscale>  0 0.12084259E+03</rscale>
<asrwt>0</asrwt>
<pdfrwt beam="2">  1        2 0.54804278E-01 0.12909208E+03</pdfrwt>
<pdfrwt beam="1">  1       -2 0.62754044E-02 0.12909208E+03</pdfrwt>
<totfact> 0.11784643E+04</totfact>
</mgrwt>
</event>
<event>
 6    1  0.9424564E-006  0.1380920E+03  0.7546771E-02  0.1266125E+00
          2   -1    0    0  501    0  0.00000000000E+00  0.00000000000E+00  0.28937048788E+03  0.28937048788E+03  0.00000000000E+00 0.  1.
         -2   -1    0    0    0  501 -0.00000000000E+00 -0.00000000000E+00 -0.36153140922E+02  0.36153140922E+02  0.00000000000E+00 0. -1.
          5    1    1    2  502    0 -0.87809532763E+00 -0.53585030390E+02  0.14349763149E+03  0.15325073173E+03  0.47000000000E+01 0. -1.
         -5    1    1    2    0  502 -0.91250889403E+01  0.11125205072E+02 -0.24660152966E+02  0.28935282621E+02  0.47000000000E+01 0.  1.
        -11    1    1    2    0    0 -0.42818473890E+01  0.11178643799E+02  0.15502965149E+02  0.19586684830E+02  0.00000000000E+00 0. -1.
         11    1    1    2    0    0  0.14285031657E+02  0.31281181520E+02  0.11887690329E+03  0.12375092962E+03  0.00000000000E+00 0.  1.
<mgrwt>
<rscale>  0 0.10705368E+03</rscale>
<asrwt>0</asrwt>
<pdfrwt beam="1">  1        2 0.44518535E-01 0.13809199E+03</pdfrwt>
<pdfrwt beam="2">  1       -2 0.55620219E-02 0.13809199E+03</pdfrwt>
<totfact> 0.17733200E+04</totfact>
</mgrwt>
</event>
<event>
 8    1  0.9424564E-006  0.1478781E+03  0.7546771E-02  0.1211085E+00
         -2   -1    0    0    0  501 -0.00000000000E+00  0.00000000000E+00  0.82304209300E+02  0.82304209300E+02  0.00000000000E+00 0.  1.
          2   -1    0    0  501    0  0.00000000000E+00 -0.00000000000E+00 -0.31246356782E+03  0.31246356782E+03  0.00000000000E+00 0. -1.
         23    2    1    2    0    0 -0.78845652040E+02 -0.52817450474E+01 -0.18331949135E+02  0.14901000374E+03  0.12499354856E+03 0.  0.
         23    2    1    2    0    0  0.78845652040E+02  0.52817450474E+01 -0.21182740938E+03  0.24575777337E+03  0.96340532128E+02 0.  0.
          5    1    3    3  502    0 -0.18875339107E+02 -0.14503914271E+02  0.51169125626E+02  0.56630480952E+02  0.47000000000E+01 0.  1.
         -5    1    3    3    0  502 -0.59970312933E+02  0.92221692239E+01 -0.69501074761E+02  0.92379522793E+02  0.47000000000E+01 0.  1.
        -11    1    4    4    0    0  0.11639240625E+02  0.31457501874E+02 -0.16181129818E+02  0.37240774813E+02  0.00000000000E+00 0.  1.
         11    1    4    4    0    0  0.67206411416E+02 -0.26175756826E+02 -0.19564627957E+03  0.20851699856E+03  0.00000000000E+00 0. -1.
<mgrwt>
<rscale>  0 0.14168059E+03</rscale>
<asrwt>0</asrwt>
<pdfrwt beam="2">  1        2 0.48071319E-01 0.14787806E+03</pdfrwt>
<pdfrwt beam="1">  1       -2 0.12662186E-01 0.14787806E+03</pdfrwt>
<totfact> 0.45730484E+03</totfact>
</mgrwt>
</event>
<event>
 8    1  0.9424564E-006  0.2482671E+03  0.7546771E-02  0.1117329E+00
         -2   -1    0    0    0  501 -0.00000000000E+00  0.00000000000E+00  0.80328105619E+02  0.80328105619E+02  0.00000000000E+00 0.  1.
          2   -1    0    0  501    0  0.00000000000E+00 -0.00000000000E+00 -0.85554199291E+03  0.85554199291E+03  0.00000000000E+00 0. -1.
         23    2    1    2    0    0 -0.10426770912E+03  0.18746562669E+03 -0.20913916296E+03  0.32461627654E+03  0.12498568381E+03 0.  0.
         23    2    1    2    0    0  0.10426770912E+03 -0.18746562669E+03 -0.56607472433E+03  0.61125382199E+03  0.84708470741E+02 0.  0.
          5    1    3    3  502    0 -0.45653240365E+02  0.14065648642E+03 -0.64065266315E+02  0.16122938280E+03  0.47000000000E+01 0.  1.
         -5    1    3    3    0  502 -0.58614468753E+02  0.46809140264E+02 -0.14507389665E+03  0.16338689375E+03  0.47000000000E+01 0.  1.
        -11    1    4    4    0    0  0.63332665131E+02 -0.81893047760E+02 -0.37615682022E+03  0.39014285991E+03  0.00000000000E+00 0. -1.
         11    1    4    4    0    0  0.40935043988E+02 -0.10557257893E+03 -0.18991790411E+03  0.22111096208E+03  0.00000000000E+00 0.  1.
<mgrwt>
<rscale>  0 0.24373547E+03</rscale>
<asrwt>0</asrwt>
<pdfrwt beam="2">  1        2 0.13162185E+00 0.24826707E+03</pdfrwt>
<pdfrwt beam="1">  1       -2 0.12358170E-01 0.24826707E+03</pdfrwt>
<totfact> 0.15313072E+03</totfact>
</mgrwt>
</event>
<event>
 8    1  0.9424564E-006  0.2079844E+03  0.7546771E-02  0.1146781E+00
          2   -1    0    0  501    0  0.00000000000E+00  0.00000000000E+00  0.10496308987E+04  0.10496308987E+04  0.00000000000E+00 0. -1.
         -2   -1    0    0    0  501 -0.00000000000E+00 -0.00000000000E+00 -0.38067277997E+02  0.38067277997E+02  0.00000000000E+00 0.  1.
         23    2    1    2    0    0 -0.94443375288E+02 -0.13680779062E+03  0.56603831857E+03  0.60303969097E+03  0.12498627157E+03 0.  0.
         23    2    1    2    0    0  0.94443375288E+02  0.13680779062E+03  0.44552530215E+03  0.48465848574E+03  0.93622274267E+02 0.  0.
          5    1    3    3  502    0 -0.97809135552E+02 -0.12635275652E+03  0.56875096516E+03  0.59078879174E+03  0.47000000000E+01 0.  1.
         -5    1    3    3    0  502  0.33657602637E+01 -0.10455034105E+02 -0.27126465909E+01  0.12250899225E+02  0.47000000000E+01 0.  1.
        -11    1    4    4    0    0  0.70366435052E+02  0.22400422610E+02  0.16820947638E+03  0.18370531309E+03  0.00000000000E+00 0.  1.
         11    1    4    4    0    0  0.24076940237E+02  0.11440736801E+03  0.27731582577E+03  0.30095317265E+03  0.00000000000E+00 0. -1.
<mgrwt>
<rscale>  0 0.20354584E+03</rscale>
<asrwt>0</asrwt>
<pdfrwt beam="1">  1        2 0.16148165E+00 0.20798435E+03</pdfrwt>
<pdfrwt beam="2">  1       -2 0.58565051E-02 0.20798435E+03</pdfrwt>
<totfact> 0.37354729E+03</totfact>
</mgrwt>
</event>
<event>
 8    1  0.9424564E-006  0.1330934E+03  0.7546771E-02  0.1236012E+00
         -1   -1    0    0    0  501 -0.00000000000E+00  0.00000000000E+00  0.33050248616E+03  0.33050248616E+03  0.00000000000E+00 0.  1.
          1   -1    0    0  501    0  0.00000000000E+00 -0.00000000000E+00 -0.43725130582E+02  0.43725130582E+02  0.00000000000E+00 0. -1.
         23    2    1    2    0    0 -0.12447720866E+01  0.45657623675E+02  0.20208711226E+03  0.24197737155E+03  0.12501071692E+03 0.  0.
         23    2    1    2    0    0  0.12447720866E+01 -0.45657623675E+02  0.84690243323E+02  0.13225024519E+03  0.90727735461E+02 0.  0.
          5    1    3    3  502    0  0.83751270387E+01 -0.35374792382E+02  0.12260561605E+03  0.12796775288E+03  0.47000000000E+01 0.  1.
         -5    1    3    3    0  502 -0.96198991253E+01  0.81032416057E+02  0.79481496202E+02  0.11400961867E+03  0.47000000000E+01 0.  1.
        -11    1    4    4    0    0 -0.42242210697E+02 -0.11799529253E+02  0.22990418268E+02  0.49519618206E+02  0.00000000000E+00 0. -1.
         11    1    4    4    0    0  0.43486982784E+02 -0.33858094422E+02  0.61699825055E+02  0.82730626985E+02  0.00000000000E+00 0.  1.
<mgrwt>
<rscale>  0 0.12439850E+03</rscale>
<asrwt>0</asrwt>
<pdfrwt beam="2">  1        1 0.67269434E-02 0.13309338E+03</pdfrwt>
<pdfrwt beam="1">  1       -1 0.50846535E-01 0.13309338E+03</pdfrwt>
<totfact> 0.42005986E+03</totfact>
</mgrwt>
</event>
<event>
 8    1  0.9424564E-006  0.1290000E+03  0.7546771E-02  0.1242821E+00
         -1   -1    0    0    0  501 -0.00000000000E+00  0.00000000000E+00  0.67486336413E+02  0.67486336413E+02  0.00000000000E+00 0.  1.
          1   -1    0    0  501    0  0.00000000000E+00 -0.00000000000E+00 -0.19463316002E+03  0.19463316002E+03  0.00000000000E+00 0. -1.
         23    2    1    2    0    0 -0.31286465238E+02  0.63569542854E+01 -0.51083418484E+02  0.13874618829E+03  0.12498694070E+03 0.  0.
         23    2    1    2    0    0  0.31286465238E+02 -0.63569542854E+01 -0.76063405118E+02  0.12337330814E+03  0.91739183493E+02 0.  0.
          5    1    3    3  502    0  0.30475056031E+02  0.39327399001E+02  0.31324570860E+01  0.50072703539E+02  0.47000000000E+01 0.  1.
         -5    1    3    3    0  502 -0.61761521269E+02 -0.32970444715E+02 -0.54215875571E+02  0.88673484752E+02  0.47000000000E+01 0.  1.
        -11    1    4    4    0    0  0.44466491929E+02  0.95129400389E+00  0.13593299573E+01  0.44497434114E+02  0.00000000000E+00 0.  1.
         11    1    4    4    0    0 -0.13180026691E+02 -0.73082482893E+01 -0.77422735076E+02  0.78875874025E+02  0.00000000000E+00 0. -1.
<mgrwt>
<rscale>  0 0.12016744E+03</rscale>
<asrwt>0</asrwt>
<pdfrwt beam="2">  1        1 0.29943563E-01 0.12899996E+03</pdfrwt>
<pdfrwt beam="1">  1       -1 0.10382513E-01 0.12899996E+03</pdfrwt>
<totfact> 0.82277486E+03</totfact>
</mgrwt>
</event>
<event>
 7    1  0.9424564E-006  0.2138162E+03  0.7546771E-02  0.1172167E+00
         -2   -1    0    0    0  501 -0.00000000000E+00  0.00000000000E+00  0.29785076743E+02  0.29785076743E+02  0.00000000000E+00 0.  1.
          2   -1    0    0  501    0  0.00000000000E+00 -0.00000000000E+00 -0.81607212970E+03  0.81607212970E+03  0.00000000000E+00 0. -1.
         23    2    1    2    0    0  0.17055253751E+02  0.16172548291E+00 -0.27467569276E+03  0.29136324143E+03  0.95681212534E+02 0.  0.
          5    1    1    2  502    0 -0.25870502732E+02  0.10472841572E+03 -0.24050311659E+03  0.26363073239E+03  0.47000000000E+01 0. -1.
         -5    1    1    2    0  502  0.88152489813E+01 -0.10489014120E+03 -0.27110824361E+03  0.29086323262E+03  0.47000000000E+01 0.  1.
        -11    1    3    3    0    0 -0.39000618463E+02 -0.95956618996E+01 -0.10638547985E+03  0.11371453421E+03  0.00000000000E+00 0. -1.
         11    1    3    3    0    0  0.56055872213E+02  0.97573873825E+01 -0.16829021291E+03  0.17764870723E+03  0.00000000000E+00 0.  1.
<mgrwt>
<rscale>  0 0.17556395E+03</rscale>
<asrwt>0</asrwt>
<pdfrwt beam="2">  1        2 0.12554956E+00 0.21381621E+03</pdfrwt>
<pdfrwt beam="1">  1       -2 0.45823196E-02 0.21381621E+03</pdfrwt>
<totfact> 0.76291860E+03</totfact>
</mgrwt>
</event>
<event>
 8    1  0.9424564E-006  0.1399236E+03  0.7546771E-02  0.1224619E+00
          3   -1    0    0  501    0  0.00000000000E+00  0.00000000000E+00  0.44334692169E+02  0.44334692169E+02  0.00000000000E+00 0.  1.
         -3   -1    0    0    0  501 -0.00000000000E+00 -0.00000000000E+00 -0.35677297177E+03  0.35677297177E+03  0.00000000000E+00 0. -1.
         23    2    1    2    0    0  0.59615341744E+02  0.19979750646E+02 -0.19230298273E+03  0.23782147980E+03  0.12500175871E+03 0.  0.
         23    2    1    2    0    0 -0.59615341744E+02 -0.19979750646E+02 -0.12013529687E+03  0.16328618414E+03  0.90976419855E+02 0.  0.
          5    1    3    3  502    0  0.79034199748E+02  0.28160549608E+02 -0.19833711933E+03  0.21540455935E+03  0.47000000000E+01 0. -1.
         -5    1    3    3    0  502 -0.19418858004E+02 -0.81807989626E+01  0.60341366020E+01  0.22416920448E+02  0.47000000000E+01 0. -1.
        -11    1    4    4    0    0 -0.38529263052E+02 -0.64522697412E+01  0.15031428618E+01  0.39094697014E+02  0.00000000000E+00 0.  1.
         11    1    4    4    0    0 -0.21086078692E+02 -0.13527480904E+02 -0.12163843973E+03  0.12419148712E+03  0.00000000000E+00 0. -1.
<mgrwt>
<rscale>  0 0.13193077E+03</rscale>
<asrwt>0</asrwt>
<pdfrwt beam="1">  1        3 0.68207220E-02 0.13992362E+03</pdfrwt>
<pdfrwt beam="2">  1       -3 0.54888148E-01 0.13992362E+03</pdfrwt>
<totfact> 0.10598920E+03</totfact>
</mgrwt>
</event>
<event>
 8    1  0.9424564E-006  0.1371794E+03  0.7546771E-02  0.1230019E+00
         -2   -1    0    0    0  501 -0.00000000000E+00  0.00000000000E+00  0.12545083302E+03  0.12545083302E+03  0.00000000000E+00 0.  1.
          2   -1    0    0  501    0  0.00000000000E+00 -0.00000000000E+00 -0.16672537056E+03  0.16672537056E+03  0.00000000000E+00 0. -1.
         23    2    1    2    0    0  0.36961248387E+01 -0.49773722338E+02  0.56874715893E+02  0.14850228156E+03  0.12777757842E+03 0.  0.
         23    2    1    2    0    0 -0.36961248387E+01  0.49773722338E+02 -0.98149253435E+02  0.14367392201E+03  0.92292118531E+02 0.  0.
          5    1    3    3  502    0  0.63086311870E+02 -0.43462175991E+02  0.25519573511E+02  0.80883756834E+02  0.47000000000E+01 0. -1.
         -5    1    3    3    0  502 -0.59390187032E+02 -0.63115463468E+01  0.31355142381E+02  0.67618524730E+02  0.47000000000E+01 0.  1.
        -11    1    4    4    0    0 -0.21033111397E+02 -0.18412786300E+02 -0.75326705337E+01  0.28951055244E+02  0.00000000000E+00 0.  1.
         11    1    4    4    0    0  0.17336986558E+02  0.68186508639E+02 -0.90616582902E+02  0.11472286677E+03  0.00000000000E+00 0. -1.
<mgrwt>
<rscale>  0 0.12828764E+03</rscale>
<asrwt>0</asrwt>
<pdfrwt beam="2">  1        2 0.25650057E-01 0.13717942E+03</pdfrwt>
<pdfrwt beam="1">  1       -2 0.19300128E-01 0.13717942E+03</pdfrwt>
<totfact> 0.44737025E+03</totfact>
</mgrwt>
</event>
<event>
 8    1  0.9424564E-006  0.1369984E+03  0.7546771E-02  0.1228736E+00
         -2   -1    0    0    0  501 -0.00000000000E+00  0.00000000000E+00  0.73197563823E+02  0.73197563823E+02  0.00000000000E+00 0.  1.
          2   -1    0    0  501    0  0.00000000000E+00 -0.00000000000E+00 -0.20572433428E+03  0.20572433428E+03  0.00000000000E+00 0. -1.
         23    2    1    2    0    0 -0.51155119678E+02  0.22963400405E+02 -0.67701953282E+02  0.15281400094E+03  0.12499760149E+03 0.  0.
         23    2    1    2    0    0  0.51155119678E+02 -0.22963400405E+02 -0.64824817172E+02  0.12610789716E+03  0.92502869018E+02 0.  0.
          5    1    3    3  502    0 -0.73656322607E+01 -0.49011880485E+02 -0.40437696702E+02  0.64138243520E+02  0.47000000000E+01 0. -1.
         -5    1    3    3    0  502 -0.43789487417E+02  0.71975280890E+02 -0.27264256580E+02  0.88675757422E+02  0.47000000000E+01 0. -1.
        -11    1    4    4    0    0  0.50848465667E+02  0.22249289231E+02 -0.12385964284E+02  0.56868351859E+02  0.00000000000E+00 0.  1.
         11    1    4    4    0    0  0.30665401157E+00 -0.45212689636E+02 -0.52438852887E+02  0.69239545297E+02  0.00000000000E+00 0. -1.
<mgrwt>
<rscale>  0 0.12914103E+03</rscale>
<asrwt>0</asrwt>
<pdfrwt beam="2">  1        2 0.31649897E-01 0.13699841E+03</pdfrwt>
<pdfrwt beam="1">  1       -2 0.11261164E-01 0.13699841E+03</pdfrwt>
<totfact> 0.85753444E+03</totfact>
</mgrwt>
</event>
<event>
 8    1  0.9424564E-006  0.1288640E+03  0.7546771E-02  0.1243438E+00
         -2   -1    0    0    0  501 -0.00000000000E+00  0.00000000000E+00  0.28279497945E+02  0.28279497945E+02  0.00000000000E+00 0.  1.
          2   -1    0    0  501    0  0.00000000000E+00 -0.00000000000E+00 -0.47207391358E+03  0.47207391358E+03  0.00000000000E+00 0. -1.
         23    2    1    2    0    0 -0.30299054122E+02 -0.80321093859E+01 -0.19641474907E+03  0.23491420361E+03  0.12499352761E+03 0.  0.
         23    2    1    2    0    0  0.30299054122E+02  0.80321093859E+01 -0.24737966656E+03  0.26543920791E+03  0.90987505773E+02 0.  0.
          5    1    3    3  502    0 -0.25729146577E+02  0.48745991292E+01  0.96801070952E+01  0.28311573139E+02  0.47000000000E+01 0.  1.
         -5    1    3    3    0  502 -0.45699075449E+01 -0.12906708515E+02 -0.20609485617E+03  0.20660263047E+03  0.47000000000E+01 0.  1.
        -11    1    4    4    0    0  0.38620572726E+02  0.41238071342E+02 -0.19371088055E+03  0.20178214096E+03  0.00000000000E+00 0. -1.
         11    1    4    4    0    0 -0.83215186041E+01 -0.33205961956E+02 -0.53668786011E+02  0.63657066954E+02  0.00000000000E+00 0.  1.
<mgrwt>
<rscale>  0 0.11979330E+03</rscale>
<asrwt>0</asrwt>
<pdfrwt beam="2">  1        2 0.72626755E-01 0.12886400E+03</pdfrwt>
<pdfrwt beam="1">  1       -2 0.43506920E-02 0.12886400E+03</pdfrwt>
<totfact> 0.15117036E+04</totfact>
</mgrwt>
</event>
<event>
 8    1  0.9424564E-006  0.2323196E+03  0.7546771E-02  0.1127814E+00
         -2   -1    0    0    0  501 -0.00000000000E+00  0.00000000000E+00  0.11101075613E+03  0.11101075613E+03  0.00000000000E+00 0.  1.
          2   -1    0    0  501    0  0.00000000000E+00 -0.00000000000E+00 -0.50316090558E+03  0.50316090558E+03  0.00000000000E+00 0. -1.
         23    2    1    2    0    0  0.19332607431E+03  0.31179527558E+02 -0.10651320640E+03  0.25557278214E+03  0.12500099955E+03 0.  0.
         23    2    1    2    0    0 -0.19332607431E+03 -0.31179527558E+02 -0.28563694305E+03  0.35859887956E+03  0.93046006053E+02 0.  0.
          5    1    3    3  502    0 -0.36730138509E+01 -0.24396098091E+02 -0.24283651242E+02  0.34934887297E+02  0.47000000000E+01 0.  1.
         -5    1    3    3    0  502  0.19699908816E+03  0.55575625649E+02 -0.82229555159E+02  0.22063789485E+03  0.47000000000E+01 0.  1.
        -11    1    4    4    0    0 -0.69470600581E+02  0.31050360239E+02 -0.78188648570E+02  0.10910432613E+03  0.00000000000E+00 0.  1.
         11    1    4    4    0    0 -0.12385547372E+03 -0.62229887798E+02 -0.20744829448E+03  0.24949455342E+03  0.00000000000E+00 0. -1.
<mgrwt>
<rscale>  0 0.22834000E+03</rscale>
<asrwt>0</asrwt>
<pdfrwt beam="2">  1        2 0.77409367E-01 0.23231957E+03</pdfrwt>
<pdfrwt beam="1">  1       -2 0.17078579E-01 0.23231957E+03</pdfrwt>
<totfact> 0.16957171E+03</totfact>
</mgrwt>
</event>
<event>
 8    1  0.9424564E-006  0.1292404E+03  0.7546771E-02  0.1242742E+00
          2   -1    0    0  501    0  0.00000000000E+00  0.00000000000E+00  0.40970313471E+03  0.40970313471E+03  0.00000000000E+00 0. -1.
         -2   -1    0    0    0  501 -0.00000000000E+00 -0.00000000000E+00 -0.34586675531E+02  0.34586675531E+02  0.00000000000E+00 0.  1.
         23    2    1    2    0    0 -0.15222162949E+02  0.29444744996E+02  0.14262256898E+03  0.19246889365E+03  0.12491745509E+03 0.  0.
         23    2    1    2    0    0  0.15222162949E+02 -0.29444744996E+02  0.23249389020E+03  0.25182091660E+03  0.90893662048E+02 0.  0.
          5    1    3    3  502    0  0.48869218189E+02 -0.45401960297E+00  0.24885540067E+02  0.55043498478E+02  0.47000000000E+01 0. -1.
         -5    1    3    3    0  502 -0.64091381138E+02  0.29898764599E+02  0.11773702891E+03  0.13742539517E+03  0.47000000000E+01 0. -1.
        -11    1    4    4    0    0  0.68426343938E+01 -0.45179726251E+02  0.22917669774E+03  0.23368780049E+03  0.00000000000E+00 0. -1.
         11    1    4    4    0    0  0.83795285552E+01  0.15734981255E+02  0.33171924612E+01  0.18133116106E+02  0.00000000000E+00 0.  1.
<mgrwt>
<rscale>  0 0.12021545E+03</rscale>
<asrwt>0</asrwt>
<pdfrwt beam="1">  1        2 0.63031248E-01 0.12924039E+03</pdfrwt>
<pdfrwt beam="2">  1       -2 0.53210273E-02 0.12924039E+03</pdfrwt>
<totfact> 0.13030986E+04</totfact>
</mgrwt>
</event>
<event>
 8    1  0.9429397E-006  0.1374007E+03  0.7546771E-02  0.1223133E+00
         -2   -1    0    0    0  501 -0.00000000000E+00  0.00000000000E+00  0.11318446190E+03  0.11318446190E+03  0.00000000000E+00 0.  1.
          2   -1    0    0  501    0  0.00000000000E+00 -0.00000000000E+00 -0.15351358535E+03  0.15351358535E+03  0.00000000000E+00 0. -1.
         23    2    1    2    0    0  0.47169591412E+02  0.32090645217E+02  0.62381804066E+01  0.13754228560E+03  0.12499674223E+03 0.  0.
         23    2    1    2    0    0 -0.47169591412E+02 -0.32090645217E+02 -0.46567303859E+02  0.12915576165E+03  0.10610333224E+03 0.  0.
          5    1    3    3  502    0 -0.78777552178E+01  0.35428566223E+02  0.53460219161E+02  0.64786783873E+02  0.47000000000E+01 0.  1.
         -5    1    3    3    0  502  0.55047346630E+02 -0.33379210065E+01 -0.47222038754E+02  0.72755501729E+02  0.47000000000E+01 0.  1.
        -11    1    4    4    0    0 -0.35587140016E+02 -0.13040273108E+02 -0.80257368073E+02  0.88756624470E+02  0.00000000000E+00 0. -1.
         11    1    4    4    0    0 -0.11582451396E+02 -0.19050372109E+02  0.33690064214E+02  0.40399137177E+02  0.00000000000E+00 0.  1.
<mgrwt>
<rscale>  0 0.13295673E+03</rscale>
<asrwt>0</asrwt>
<pdfrwt beam="2">  1        2 0.23617474E-01 0.13740075E+03</pdfrwt>
<pdfrwt beam="1">  1       -2 0.17412994E-01 0.13740075E+03</pdfrwt>
<totfact> 0.58226115E+03</totfact>
</mgrwt>
</event>
<event>
 8    1  0.9424564E-006  0.2586578E+03  0.7546771E-02  0.1110328E+00
          2   -1    0    0  501    0  0.00000000000E+00  0.00000000000E+00  0.95474617335E+03  0.95474617335E+03  0.00000000000E+00 0. -1.
         -2   -1    0    0    0  501 -0.00000000000E+00 -0.00000000000E+00 -0.73500719494E+02  0.73500719494E+02  0.00000000000E+00 0.  1.
         23    2    1    2    0    0  0.18548365689E+03  0.12989926128E+03  0.28860562648E+03  0.38755266581E+03  0.12500342429E+03 0.  0.
         23    2    1    2    0    0 -0.18548365689E+03 -0.12989926128E+03  0.59263982738E+03  0.64069422704E+03  0.89381891397E+02 0.  0.
          5    1    3    3  502    0  0.50213726855E+02 -0.18911766022E+02  0.89900212956E+02  0.10480081845E+03  0.47000000000E+01 0. -1.
         -5    1    3    3    0  502  0.13526993003E+03  0.14881102730E+03  0.19870541352E+03  0.28275184735E+03  0.47000000000E+01 0. -1.
        -11    1    4    4    0    0 -0.14006971569E+03 -0.63550847283E+02  0.29896134813E+03  0.33620845189E+03  0.00000000000E+00 0.  1.
         11    1    4    4    0    0 -0.45413941194E+02 -0.66348413999E+02  0.29367847925E+03  0.30448577515E+03  0.00000000000E+00 0. -1.
<mgrwt>
<rscale>  0 0.25476862E+03</rscale>
<asrwt>0</asrwt>
<pdfrwt beam="1">  1        2 0.14688402E+00 0.25865781E+03</pdfrwt>
<pdfrwt beam="2">  1       -2 0.11307804E-01 0.25865781E+03</pdfrwt>
<totfact> 0.15256509E+03</totfact>
</mgrwt>
</event>
<event>
 8    1  0.9424564E-006  0.1441234E+03  0.7546771E-02  0.1218141E+00
          2   -1    0    0  501    0  0.00000000000E+00  0.00000000000E+00  0.15365129420E+03  0.15365129420E+03  0.00000000000E+00 0. -1.
         -2   -1    0    0    0  501 -0.00000000000E+00 -0.00000000000E+00 -0.11095904194E+03  0.11095904194E+03  0.00000000000E+00 0.  1.
         23    2    1    2    0    0  0.63937216891E+02  0.32538965862E+02  0.11518054126E+02  0.14458291893E+03  0.12499921149E+03 0.  0.
         23    2    1    2    0    0 -0.63937216891E+02 -0.32538965862E+02  0.31174198134E+02  0.12002741721E+03  0.91038443795E+02 0.  0.
          5    1    3    3  502    0  0.71754049851E+02 -0.24441671395E+02  0.33266843354E+02  0.82914485087E+02  0.47000000000E+01 0.  1.
         -5    1    3    3    0  502 -0.78168329599E+01  0.56980637257E+02 -0.21748789227E+02  0.61668433842E+02  0.47000000000E+01 0.  1.
        -11    1    4    4    0    0 -0.65463986340E+02 -0.40778101149E+01 -0.13566643024E+02  0.66979219507E+02  0.00000000000E+00 0.  1.
         11    1    4    4    0    0  0.15267694489E+01 -0.28461155747E+02  0.44740841159E+02  0.53048197698E+02  0.00000000000E+00 0. -1.
<mgrwt>
<rscale>  0 0.13648332E+03</rscale>
<asrwt>0</asrwt>
<pdfrwt beam="1">  1        2 0.23638661E-01 0.14412340E+03</pdfrwt>
<pdfrwt beam="2">  1       -2 0.17070622E-01 0.14412340E+03</pdfrwt>
<totfact> 0.60307314E+03</totfact>
</mgrwt>
</event>
<event>
 8    1  0.9424564E-006  0.1933379E+03  0.7546771E-02  0.1160003E+00
          1   -1    0    0  501    0  0.00000000000E+00  0.00000000000E+00  0.29768803545E+03  0.29768803545E+03  0.00000000000E+00 0. -1.
         -1   -1    0    0    0  501 -0.00000000000E+00 -0.00000000000E+00 -0.11579302025E+03  0.11579302025E+03  0.00000000000E+00 0.  1.
         23    2    1    2    0    0 -0.44853722215E+02 -0.14045781952E+03  0.12594042560E+03  0.23073913351E+03  0.12505719280E+03 0.  0.
         23    2    1    2    0    0  0.44853722215E+02  0.14045781952E+03  0.55954589604E+02  0.18274192219E+03  0.92322470539E+02 0.  0.
          5    1    3    3  502    0  0.39161229924E+02 -0.48587398197E+02  0.70816653436E+02  0.94506219883E+02  0.47000000000E+01 0.  1.
         -5    1    3    3    0  502 -0.84014952139E+02 -0.91870421321E+02  0.55123772161E+02  0.13623291362E+03  0.47000000000E+01 0.  1.
        -11    1    4    4    0    0  0.28401270586E+02  0.85281870005E+02 -0.15250177297E+02  0.91171253309E+02  0.00000000000E+00 0.  1.
         11    1    4    4    0    0  0.16452451629E+02  0.55175949514E+02  0.71204766900E+02  0.91570668878E+02  0.00000000000E+00 0. -1.
<mgrwt>
<rscale>  0 0.18830118E+03</rscale>
<asrwt>0</asrwt>
<pdfrwt beam="1">  1        1 0.45798159E-01 0.19333793E+03</pdfrwt>
<pdfrwt beam="2">  1       -1 0.17814311E-01 0.19333793E+03</pdfrwt>
<totfact> 0.21298784E+03</totfact>
</mgrwt>
</event>
<event>
 8    1  0.9424564E-006  0.1128908E+03  0.7546771E-02  0.1264220E+00
          1   -1    0    0  501    0  0.00000000000E+00  0.00000000000E+00  0.17927560789E+03  0.17927560789E+03  0.00000000000E+00 0. -1.
         -1   -1    0    0    0  501 -0.00000000000E+00 -0.00000000000E+00 -0.80445730867E+02  0.80445730867E+02  0.00000000000E+00 0.  1.
         23    2    1    2    0    0  0.47492715102E+01 -0.16037964489E+02 -0.12445323529E+02  0.11357471657E+03  0.11164478618E+03 0.  0.
         23    2    1    2    0    0 -0.47492715102E+01  0.16037964489E+02  0.11127520055E+03  0.14614662219E+03  0.93257133964E+02 0.  0.
          5    1    3    3  502    0  0.10045059098E+02  0.47560407073E+02 -0.72699140678E+01  0.49374458820E+02  0.47000000000E+01 0. -1.
         -5    1    3    3    0  502 -0.52957875874E+01 -0.63598371562E+02 -0.51754094612E+01  0.64200257746E+02  0.47000000000E+01 0.  1.
        -11    1    4    4    0    0  0.29570106545E+02 -0.11247764312E+02  0.61288788561E+01  0.32225247232E+02  0.00000000000E+00 0.  1.
         11    1    4    4    0    0 -0.34319378056E+02  0.27285728801E+02  0.10514632170E+03  0.11392137496E+03  0.00000000000E+00 0. -1.
<mgrwt>
<rscale>  0 0.10805211E+03</rscale>
<asrwt>0</asrwt>
<pdfrwt beam="1">  1        1 0.27580863E-01 0.11289079E+03</pdfrwt>
<pdfrwt beam="2">  1       -1 0.12376266E-01 0.11289079E+03</pdfrwt>
<totfact> 0.68922607E+03</totfact>
</mgrwt>
</event>
<event>
 8    1  0.9424564E-006  0.1295632E+03  0.7546771E-02  0.1239576E+00
         -3   -1    0    0    0  501 -0.00000000000E+00  0.00000000000E+00  0.44444195463E+03  0.44444195463E+03  0.00000000000E+00 0.  1.
          3   -1    0    0  501    0  0.00000000000E+00 -0.00000000000E+00 -0.30283757519E+02  0.30283757519E+02  0.00000000000E+00 0. -1.
         23    2    1    2    0    0  0.16639221652E+02 -0.29765988641E+02  0.23723192036E+03  0.27030648766E+03  0.12499494172E+03 0.  0.
         23    2    1    2    0    0 -0.16639221652E+02  0.29765988641E+02  0.17692627675E+03  0.20441922449E+03  0.96547574592E+02 0.  0.
          5    1    3    3  502    0  0.48457237033E+02 -0.34693936070E+02  0.22909416942E+03  0.23676571011E+03  0.47000000000E+01 0.  1.
         -5    1    3    3    0  502 -0.31818015380E+02  0.49279474292E+01  0.81377509473E+01  0.33540777557E+02  0.47000000000E+01 0.  1.
        -11    1    4    4    0    0  0.37787224622E+02  0.99471693500E+01  0.10521963446E+03  0.11224077690E+03  0.00000000000E+00 0.  1.
         11    1    4    4    0    0 -0.54426446274E+02  0.19818819291E+02  0.71706642290E+02  0.92178447593E+02  0.00000000000E+00 0. -1.
<mgrwt>
<rscale>  0 0.12215989E+03</rscale>
<asrwt>0</asrwt>
<pdfrwt beam="2">  1        3 0.46590399E-02 0.12956316E+03</pdfrwt>
<pdfrwt beam="1">  1       -3 0.68375681E-01 0.12956316E+03</pdfrwt>
<totfact> 0.12196386E+03</totfact>
</mgrwt>
</event>
<event>
 8    1  0.9424564E-006  0.1422091E+03  0.7546771E-02  0.1221703E+00
          4   -1    0    0  501    0  0.00000000000E+00  0.00000000000E+00  0.59801185999E+02  0.59801185999E+02  0.00000000000E+00 0. -1.
         -4   -1    0    0    0  501 -0.00000000000E+00 -0.00000000000E+00 -0.30043705912E+03  0.30043705912E+03  0.00000000000E+00 0.  1.
         23    2    1    2    0    0 -0.62374000118E+02 -0.26579442287E+02 -0.19009867811E+03  0.23740460990E+03  0.12500583482E+03 0.  0.
         23    2    1    2    0    0  0.62374000118E+02  0.26579442287E+02 -0.50537195014E+02  0.12283363522E+03  0.89090466486E+02 0.  0.
          5    1    3    3  502    0 -0.38310720059E+02 -0.44726947077E+02 -0.16770728447E+02  0.61413014898E+02  0.47000000000E+01 0.  1.
         -5    1    3    3    0  502 -0.24063280059E+02  0.18147504790E+02 -0.17332794966E+03  0.17599159500E+03  0.47000000000E+01 0.  1.
        -11    1    4    4    0    0  0.43036419438E+02  0.58425916998E+01 -0.74151158396E+02  0.85934065232E+02  0.00000000000E+00 0.  1.
         11    1    4    4    0    0  0.19337580680E+02  0.20736850587E+02  0.23613963381E+02  0.36899569990E+02  0.00000000000E+00 0. -1.
<mgrwt>
<rscale>  0 0.13395449E+03</rscale>
<asrwt>0</asrwt>
<pdfrwt beam="1">  1        4 0.92001825E-02 0.14220915E+03</pdfrwt>
<pdfrwt beam="2">  1       -4 0.46221086E-01 0.14220915E+03</pdfrwt>
<totfact> 0.66487306E+02</totfact>
</mgrwt>
</event>
<event>
 8    1  0.9424564E-006  0.4546571E+03  0.7546771E-02  0.1026950E+00
          2   -1    0    0  501    0  0.00000000000E+00  0.00000000000E+00  0.26915762908E+04  0.26915762908E+04  0.00000000000E+00 0. -1.
         -2   -1    0    0    0  501 -0.00000000000E+00 -0.00000000000E+00 -0.75428441685E+02  0.75428441685E+02  0.00000000000E+00 0.  1.
         23    2    1    2    0    0 -0.42992202538E+03 -0.79143798040E+02  0.13093727808E+04  0.13860628392E+04  0.12496570135E+03 0.  0.
         23    2    1    2    0    0  0.42992202538E+03  0.79143798040E+02  0.13067750683E+04  0.13809418933E+04  0.90789562763E+02 0.  0.
          5    1    3    3  502    0 -0.12995934667E+03 -0.40074811366E+02  0.59327716813E+03  0.60868325960E+03  0.47000000000E+01 0. -1.
         -5    1    3    3    0  502 -0.29996267871E+03 -0.39068986674E+02  0.71609561268E+03  0.77737957964E+03  0.47000000000E+01 0. -1.
        -11    1    4    4    0    0  0.91697450810E+02  0.32371710924E+02  0.19476004543E+03  0.21768744899E+03  0.00000000000E+00 0. -1.
         11    1    4    4    0    0  0.33822457457E+03  0.46772087116E+02  0.11120150229E+04  0.11632544443E+04  0.00000000000E+00 0.  1.
<mgrwt>
<rscale>  0 0.45259751E+03</rscale>
<asrwt>0</asrwt>
<pdfrwt beam="1">  1        2 0.41408859E+00 0.45465714E+03</pdfrwt>
<pdfrwt beam="2">  1       -2 0.11604378E-01 0.45465714E+03</pdfrwt>
<totfact> 0.15736241E+02</totfact>
</mgrwt>
</event>
<event>
 8    1  0.9424564E-006  0.1354841E+03  0.7546771E-02  0.1231866E+00
          1   -1    0    0  501    0  0.00000000000E+00  0.00000000000E+00  0.88383233599E+03  0.88383233599E+03  0.00000000000E+00 0. -1.
         -1   -1    0    0    0  501 -0.00000000000E+00 -0.00000000000E+00 -0.16980932307E+02  0.16980932307E+02  0.00000000000E+00 0.  1.
         23    2    1    2    0    0 -0.43641665692E+02  0.28756557060E+02  0.39957532203E+03  0.42191986767E+03  0.12499760879E+03 0.  0.
         23    2    1    2    0    0  0.43641665692E+02 -0.28756557060E+02  0.46727608165E+03  0.47889340062E+03  0.90886842385E+02 0.  0.
          5    1    3    3  502    0 -0.15093949795E+02  0.65111163852E+02  0.11120376336E+03  0.12982934169E+03  0.47000000000E+01 0.  1.
         -5    1    3    3    0  502 -0.28547715897E+02 -0.36354606792E+02  0.28837155867E+03  0.29209052598E+03  0.47000000000E+01 0.  1.
        -11    1    4    4    0    0  0.42738092055E+02 -0.57730415278E+02  0.38542169430E+03  0.39205768427E+03  0.00000000000E+00 0. -1.
         11    1    4    4    0    0  0.90357363643E+00  0.28973858218E+02  0.81854387353E+02  0.86835716351E+02  0.00000000000E+00 0.  1.
<mgrwt>
<rscale>  0 0.12707220E+03</rscale>
<asrwt>0</asrwt>
<pdfrwt beam="1">  1        1 0.13597417E+00 0.13548408E+03</pdfrwt>
<pdfrwt beam="2">  1       -1 0.26124518E-02 0.13548408E+03</pdfrwt>
<totfact> 0.87787337E+03</totfact>
</mgrwt>
</event>
<event>
 8    1  0.9424564E-006  0.1857508E+03  0.7546771E-02  0.1167852E+00
          2   -1    0    0  501    0  0.00000000000E+00  0.00000000000E+00  0.48396242594E+03  0.48396242594E+03  0.00000000000E+00 0.  1.
         -2   -1    0    0    0  501 -0.00000000000E+00 -0.00000000000E+00 -0.67354300083E+02  0.67354300083E+02  0.00000000000E+00 0. -1.
         23    2    1    2    0    0 -0.54991658042E+02  0.12591475573E+03  0.15110007040E+03  0.23944643094E+03  0.12499901540E+03 0.  0.
         23    2    1    2    0    0  0.54991658042E+02 -0.12591475573E+03  0.26550805545E+03  0.31187029508E+03  0.88825363922E+02 0.  0.
          5    1    3    3  502    0 -0.79145465181E+02  0.11009599924E+03  0.15912540866E+03  0.20911269543E+03  0.47000000000E+01 0.  1.
         -5    1    3    3    0  502  0.24153807139E+02  0.15818756495E+02 -0.80253382571E+01  0.30333735518E+02  0.47000000000E+01 0.  1.
        -11    1    4    4    0    0  0.71184500617E+02 -0.99788885244E+02  0.24764211954E+03  0.27631806694E+03  0.00000000000E+00 0. -1.
         11    1    4    4    0    0 -0.16192842575E+02 -0.26125870490E+02  0.17865935909E+02  0.35552228135E+02  0.00000000000E+00 0.  1.
<mgrwt>
<rscale>  0 0.17994971E+03</rscale>
<asrwt>0</asrwt>
<pdfrwt beam="1">  1        2 0.74455756E-01 0.18575081E+03</pdfrwt>
<pdfrwt beam="2">  1       -2 0.10362200E-01 0.18575081E+03</pdfrwt>
<totfact> 0.39732133E+03</totfact>
</mgrwt>
</event>
<event>
 8    1  0.9424564E-006  0.1140880E+03  0.7546771E-02  0.1260323E+00
          1   -1    0    0  501    0  0.00000000000E+00  0.00000000000E+00  0.11949090980E+03  0.11949090980E+03  0.00000000000E+00 0. -1.
         -1   -1    0    0    0  501 -0.00000000000E+00 -0.00000000000E+00 -0.95752438279E+02  0.95752438279E+02  0.00000000000E+00 0.  1.
         23    2    1    2    0    0  0.23194314996E+02 -0.18641914508E+02  0.36047461585E+01  0.11414491882E+03  0.11013887176E+03 0.  0.
         23    2    1    2    0    0 -0.23194314996E+02  0.18641914508E+02  0.20133725366E+02  0.10109842926E+03  0.94498826860E+02 0.  0.
          5    1    3    3  502    0  0.45913452616E+02 -0.26290785970E+02  0.42627800236E+02  0.68106313297E+02  0.47000000000E+01 0. -1.
         -5    1    3    3    0  502 -0.22719137619E+02  0.76488714617E+01 -0.39023054077E+02  0.46038605521E+02  0.47000000000E+01 0.  1.
        -11    1    4    4    0    0 -0.35952390415E+02  0.49168711804E+02  0.28080362311E+02  0.67071926649E+02  0.00000000000E+00 0.  1.
         11    1    4    4    0    0  0.12758075418E+02 -0.30526797295E+02 -0.79466369447E+01  0.34026502615E+02  0.00000000000E+00 0. -1.
<mgrwt>
<rscale>  0 0.11013342E+03</rscale>
<asrwt>0</asrwt>
<pdfrwt beam="1">  1        1 0.18383217E-01 0.11408798E+03</pdfrwt>
<pdfrwt beam="2">  1       -1 0.14731144E-01 0.11408798E+03</pdfrwt>
<totfact> 0.87673145E+03</totfact>
</mgrwt>
</event>
<event>
 8    1  0.9424564E-006  0.1317355E+03  0.7546771E-02  0.1238037E+00
          2   -1    0    0  501    0  0.00000000000E+00  0.00000000000E+00  0.17675889500E+03  0.17675889500E+03  0.00000000000E+00 0. -1.
         -2   -1    0    0    0  501 -0.00000000000E+00 -0.00000000000E+00 -0.81499830949E+02  0.81499830949E+02  0.00000000000E+00 0.  1.
         23    2    1    2    0    0 -0.37568457841E+02  0.17843915311E+02  0.21244407098E+02  0.13343748573E+03  0.12499777369E+03 0.  0.
         23    2    1    2    0    0  0.37568457841E+02 -0.17843915311E+02  0.74014656949E+02  0.12482124021E+03  0.91500700689E+02 0.  0.
          5    1    3    3  502    0  0.50168978297E+01 -0.33499713035E+02  0.50056768907E+02  0.60623181628E+02  0.47000000000E+01 0. -1.
         -5    1    3    3    0  502 -0.42585355671E+02  0.51343628346E+02 -0.28812361809E+02  0.72814304105E+02  0.47000000000E+01 0. -1.
        -11    1    4    4    0    0  0.57310058848E+02  0.12077204058E+02  0.65713000536E+02  0.88025565278E+02  0.00000000000E+00 0. -1.
         11    1    4    4    0    0 -0.19741601008E+02 -0.29921119369E+02  0.83016564128E+01  0.36795674933E+02  0.00000000000E+00 0.  1.
<mgrwt>
<rscale>  0 0.12312009E+03</rscale>
<asrwt>0</asrwt>
<pdfrwt beam="1">  1        2 0.27193676E-01 0.13173548E+03</pdfrwt>
<pdfrwt beam="2">  1       -2 0.12538436E-01 0.13173548E+03</pdfrwt>
<totfact> 0.84935307E+03</totfact>
</mgrwt>
</event>
<event>
 8    1  0.1481597E-005  0.4333230E+03  0.7546771E-02  0.1033475E+00
          2   -1    0    0  501    0  0.00000000000E+00  0.00000000000E+00  0.21891465560E+04  0.21891465560E+04  0.00000000000E+00 0. -1.
         -2   -1    0    0    0  501 -0.00000000000E+00 -0.00000000000E+00 -0.84642590023E+02  0.84642590023E+02  0.00000000000E+00 0.  1.
         23    2    1    2    0    0  0.31430462941E+03  0.27084478739E+03  0.97377428826E+03  0.10658354339E+04  0.12499803545E+03 0.  0.
         23    2    1    2    0    0 -0.31430462941E+03 -0.27084478739E+03  0.11307296777E+04  0.12079537120E+04  0.91968839874E+02 0.  0.
          5    1    3    3  502    0  0.30983323768E+03  0.27804458082E+03  0.96975340396E+03  0.10553431568E+04  0.47000000000E+01 0. -1.
         -5    1    3    3    0  502  0.44713917306E+01 -0.71997934310E+01  0.40208843001E+01  0.10492277160E+02  0.47000000000E+01 0. -1.
        -11    1    4    4    0    0 -0.25692243112E+03 -0.25501669870E+03  0.91054162030E+03  0.97986156907E+03  0.00000000000E+00 0. -1.
         11    1    4    4    0    0 -0.57382198288E+02 -0.15828088686E+02  0.22018805739E+03  0.22809214298E+03  0.00000000000E+00 0.  1.
<mgrwt>
<rscale>  0 0.43122039E+03</rscale>
<asrwt>0</asrwt>
<pdfrwt beam="1">  1        2 0.33679174E+00 0.43332298E+03</pdfrwt>
<pdfrwt beam="2">  1       -2 0.13021939E-01 0.43332298E+03</pdfrwt>
<totfact> 0.24830896E+02</totfact>
</mgrwt>
</event>
<event>
 8    1  0.9424564E-006  0.1867796E+03  0.7546771E-02  0.1166392E+00
          1   -1    0    0  501    0  0.00000000000E+00  0.00000000000E+00  0.64783214274E+02  0.64783214274E+02  0.00000000000E+00 0. -1.
         -1   -1    0    0    0  501 -0.00000000000E+00 -0.00000000000E+00 -0.50275654822E+03  0.50275654822E+03  0.00000000000E+00 0.  1.
         23    2    1    2    0    0  0.65755207732E+02  0.12251647929E+03 -0.28947838796E+03  0.34450594140E+03  0.12470994956E+03 0.  0.
         23    2    1    2    0    0 -0.65755207732E+02 -0.12251647929E+03 -0.14849494599E+03  0.22303382110E+03  0.91429214850E+02 0.  0.
          5    1    3    3  502    0  0.92339210551E+02  0.12866653661E+03 -0.25596433450E+03  0.30103394823E+03  0.47000000000E+01 0. -1.
         -5    1    3    3    0  502 -0.26584002819E+02 -0.61500573183E+01 -0.33514053457E+02  0.43471993168E+02  0.47000000000E+01 0.  1.
        -11    1    4    4    0    0  0.16363819724E+02 -0.59257310311E+02 -0.68917658145E+02  0.92351757024E+02  0.00000000000E+00 0. -1.
         11    1    4    4    0    0 -0.82119027456E+02 -0.63259168981E+02 -0.79577287845E+02  0.13068206408E+03  0.00000000000E+00 0.  1.
<mgrwt>
<rscale>  0 0.18146544E+03</rscale>
<asrwt>0</asrwt>
<pdfrwt beam="1">  1        1 0.99666483E-02 0.18677957E+03</pdfrwt>
<pdfrwt beam="2">  1       -1 0.77347162E-01 0.18677957E+03</pdfrwt>
<totfact> 0.11180427E+03</totfact>
</mgrwt>
</event>
<event>
 8    1  0.9424564E-006  0.1281092E+03  0.7546771E-02  0.1248399E+00
         -2   -1    0    0    0  501 -0.00000000000E+00  0.00000000000E+00  0.35522794934E+02  0.35522794934E+02  0.00000000000E+00 0.  1.
          2   -1    0    0  501    0  0.00000000000E+00 -0.00000000000E+00 -0.34971006886E+03  0.34971006886E+03  0.00000000000E+00 0. -1.
         23    2    1    2    0    0  0.15283897711E+02 -0.23500965770E+02 -0.13988319867E+03  0.18968202625E+03  0.12500427548E+03 0.  0.
         23    2    1    2    0    0 -0.15283897711E+02  0.23500965770E+02 -0.17430407525E+03  0.19555083755E+03  0.84097125367E+02 0.  0.
          5    1    3    3  502    0  0.63345778933E+01 -0.34621553316E+02  0.11676351610E+02  0.37379219067E+02  0.47000000000E+01 0. -1.
         -5    1    3    3    0  502  0.89493198178E+01  0.11120587546E+02 -0.15155955028E+03  0.15230280718E+03  0.47000000000E+01 0. -1.
        -11    1    4    4    0    0  0.12934326630E+02 -0.24028282942E+02 -0.95301743115E+02  0.99131616689E+02  0.00000000000E+00 0. -1.
         11    1    4    4    0    0 -0.28218224342E+02  0.47529248712E+02 -0.79002332138E+02  0.96419220860E+02  0.00000000000E+00 0.  1.
<mgrwt>
<rscale>  0 0.11684246E+03</rscale>
<asrwt>0</asrwt>
<pdfrwt beam="2">  1        2 0.53801547E-01 0.12810918E+03</pdfrwt>
<pdfrwt beam="1">  1       -2 0.54650456E-02 0.12810918E+03</pdfrwt>
<totfact> 0.14802810E+04</totfact>
</mgrwt>
</event>
<event>
 8    1  0.9424564E-006  0.1254877E+03  0.7546771E-02  0.1250008E+00
         -1   -1    0    0    0  501 -0.00000000000E+00  0.00000000000E+00  0.12689084854E+04  0.12689084854E+04  0.00000000000E+00 0.  1.
          1   -1    0    0  501    0  0.00000000000E+00 -0.00000000000E+00 -0.11406329162E+02  0.11406329162E+02  0.00000000000E+00 0. -1.
         23    2    1    2    0    0 -0.93516005069E+01  0.58273925755E+01  0.98393084287E+03  0.99190073197E+03  0.12500299033E+03 0.  0.
         23    2    1    2    0    0  0.93516005069E+01 -0.58273925755E+01  0.27357131333E+03  0.28841408255E+03  0.90664263097E+02 0.  0.
          5    1    3    3  502    0  0.13224843264E+02 -0.35614446034E+02  0.10618183854E+03  0.11287142279E+03  0.47000000000E+01 0. -1.
         -5    1    3    3    0  502 -0.22576443771E+02  0.41441838610E+02  0.87774900433E+03  0.87902930918E+03  0.47000000000E+01 0. -1.
        -11    1    4    4    0    0  0.41510186834E+02 -0.79379815492E+01  0.23197785505E+03  0.23579616705E+03  0.00000000000E+00 0.  1.
         11    1    4    4    0    0 -0.32158586327E+02  0.21105889737E+01  0.41593458277E+02  0.52617915502E+02  0.00000000000E+00 0. -1.
<mgrwt>
<rscale>  0 0.11590597E+03</rscale>
<asrwt>0</asrwt>
<pdfrwt beam="2">  1        1 0.17548209E-02 0.12548768E+03</pdfrwt>
<pdfrwt beam="1">  1       -1 0.19521658E+00 0.12548768E+03</pdfrwt>
<totfact> 0.12750640E+03</totfact>
</mgrwt>
</event>
<event>
 8    1  0.9424564E-006  0.1923550E+03  0.7546771E-02  0.1161180E+00
         -2   -1    0    0    0  501 -0.00000000000E+00  0.00000000000E+00  0.35878757524E+03  0.35878757524E+03  0.00000000000E+00 0.  1.
          2   -1    0    0  501    0  0.00000000000E+00 -0.00000000000E+00 -0.93101524902E+02  0.93101524902E+02  0.00000000000E+00 0. -1.
         23    2    1    2    0    0  0.79033607242E+02 -0.12300023050E+03  0.12122605541E+03  0.22736795391E+03  0.12500024872E+03 0.  0.
         23    2    1    2    0    0 -0.79033607242E+02  0.12300023050E+03  0.14445999493E+03  0.22452114623E+03  0.90364191990E+02 0.  0.
          5    1    3    3  502    0 -0.27354655796E+02 -0.54616781399E+02  0.63600386899E+02  0.88308375694E+02  0.47000000000E+01 0. -1.
         -5    1    3    3    0  502  0.10638826304E+03 -0.68383449097E+02  0.57625668509E+02  0.13905957822E+03  0.47000000000E+01 0. -1.
        -11    1    4    4    0    0 -0.39167600671E+02  0.44262763912E+02  0.47815441651E+01  0.59297186915E+02  0.00000000000E+00 0. -1.
         11    1    4    4    0    0 -0.39866006571E+02  0.78737466584E+02  0.13967845076E+03  0.16522395932E+03  0.00000000000E+00 0.  1.
<mgrwt>
<rscale>  0 0.18701687E+03</rscale>
<asrwt>0</asrwt>
<pdfrwt beam="2">  1        2 0.14323312E-01 0.19235496E+03</pdfrwt>
<pdfrwt beam="1">  1       -2 0.55198088E-01 0.19235496E+03</pdfrwt>
<totfact> 0.12795100E+03</totfact>
</mgrwt>
</event>
<event>
 7    1  0.9424564E-006  0.2315979E+03  0.7546771E-02  0.1158988E+00
         -2   -1    0    0    0  501 -0.00000000000E+00  0.00000000000E+00  0.14488004599E+03  0.14488004599E+03  0.00000000000E+00 0.  1.
          2   -1    0    0  501    0  0.00000000000E+00 -0.00000000000E+00 -0.37564167535E+03  0.37564167535E+03  0.00000000000E+00 0. -1.
         23    2    1    2    0    0  0.30570812956E+02 -0.41170703294E+02 -0.26672461834E+03  0.28614828370E+03  0.90051190000E+02 0.  0.
          5    1    1    2  502    0 -0.70157549919E+02 -0.29115262062E+01 -0.78483152680E+02  0.10541467663E+03  0.47000000000E+01 0. -1.
         -5    1    1    2    0  502  0.39586736963E+02  0.44082229500E+02  0.11444614166E+03  0.12895876101E+03  0.47000000000E+01 0.  1.
        -11    1    3    3    0    0 -0.21190639339E+02 -0.45848772251E+02 -0.11027448058E+03  0.12129144315E+03  0.00000000000E+00 0.  1.
         11    1    3    3    0    0  0.51761452295E+02  0.46780689570E+01 -0.15645013776E+03  0.16485684055E+03  0.00000000000E+00 0. -1.
<mgrwt>
<rscale>  0 0.18941766E+03</rscale>
<asrwt>0</asrwt>
<pdfrwt beam="2">  1        2 0.57791026E-01 0.23159787E+03</pdfrwt>
<pdfrwt beam="1">  1       -2 0.22289238E-01 0.23159787E+03</pdfrwt>
<totfact> 0.14840877E+03</totfact>
</mgrwt>
</event>
<event>
 8    1  0.9424564E-006  0.1389440E+03  0.7546771E-02  0.1226069E+00
          2   -1    0    0  501    0  0.00000000000E+00  0.00000000000E+00  0.24262695029E+03  0.24262695029E+03  0.00000000000E+00 0. -1.
         -2   -1    0    0    0  501 -0.00000000000E+00 -0.00000000000E+00 -0.63652771514E+02  0.63652771514E+02  0.00000000000E+00 0.  1.
         23    2    1    2    0    0 -0.60112519204E+02  0.79688429114E+01  0.98325478120E+02  0.17021555216E+03  0.12501366776E+03 0.  0.
         23    2    1    2    0    0  0.60112519204E+02 -0.79688429114E+01  0.80648700652E+02  0.13606416964E+03  0.91281038118E+02 0.  0.
          5    1    3    3  502    0  0.13021396098E+02  0.34178051067E+02  0.83093917744E+02  0.90908663488E+02  0.47000000000E+01 0.  1.
         -5    1    3    3    0  502 -0.73133915303E+02 -0.26209208156E+02  0.15231560376E+02  0.79306888674E+02  0.47000000000E+01 0.  1.
        -11    1    4    4    0    0  0.31422839676E+02 -0.21466392811E+01 -0.15823923886E+02  0.35247687593E+02  0.00000000000E+00 0.  1.
         11    1    4    4    0    0  0.28689679528E+02 -0.58222036303E+01  0.96472624538E+02  0.10081648204E+03  0.00000000000E+00 0. -1.
<mgrwt>
<rscale>  0 0.13093909E+03</rscale>
<asrwt>0</asrwt>
<pdfrwt beam="1">  1        2 0.37327223E-01 0.13894400E+03</pdfrwt>
<pdfrwt beam="2">  1       -2 0.97927342E-02 0.13894400E+03</pdfrwt>
<totfact> 0.89656710E+03</totfact>
</mgrwt>
</event>
<event>
 8    1  0.9424564E-006  0.1261981E+03  0.7546771E-02  0.1247215E+00
          3   -1    0    0  501    0  0.00000000000E+00  0.00000000000E+00  0.20689368289E+02  0.20689368289E+02  0.00000000000E+00 0. -1.
         -3   -1    0    0    0  501 -0.00000000000E+00 -0.00000000000E+00 -0.73224572373E+03  0.73224572373E+03  0.00000000000E+00 0.  1.
         23    2    1    2    0    0 -0.24892626700E+01 -0.17056385984E+02 -0.56032425143E+03  0.57435984344E+03  0.12501538421E+03 0.  0.
         23    2    1    2    0    0  0.24892626700E+01  0.17056385984E+02 -0.15123210401E+03  0.17857524857E+03  0.93385509521E+02 0.  0.
          5    1    3    3  502    0 -0.18927026343E+02 -0.52286398976E+02 -0.49545168678E+03  0.49858456031E+03  0.47000000000E+01 0. -1.
         -5    1    3    3    0  502  0.16437763673E+02  0.35230012992E+02 -0.64872564644E+02  0.75775283130E+02  0.47000000000E+01 0. -1.
        -11    1    4    4    0    0  0.25137775163E+02 -0.16462796616E+02 -0.12892192674E+03  0.13237747016E+03  0.00000000000E+00 0.  1.
         11    1    4    4    0    0 -0.22648512493E+02  0.33519182601E+02 -0.22310177273E+02  0.46197778414E+02  0.00000000000E+00 0. -1.
<mgrwt>
<rscale>  0 0.11753798E+03</rscale>
<asrwt>0</asrwt>
<pdfrwt beam="1">  1        3 0.31829803E-02 0.12619811E+03</pdfrwt>
<pdfrwt beam="2">  1       -3 0.11265317E+00 0.12619811E+03</pdfrwt>
<totfact> 0.73001360E+02</totfact>
</mgrwt>
</event>
<event>
 8    1  0.9424564E-006  0.2359963E+03  0.7546771E-02  0.1125218E+00
          2   -1    0    0  501    0  0.00000000000E+00  0.00000000000E+00  0.34210997973E+03  0.34210997973E+03  0.00000000000E+00 0. -1.
         -2   -1    0    0    0  501 -0.00000000000E+00 -0.00000000000E+00 -0.16260410546E+03  0.16260410546E+03  0.00000000000E+00 0.  1.
         23    2    1    2    0    0  0.12485876141E+03  0.15645387239E+03  0.29116609501E+02  0.23778564156E+03  0.12500683939E+03 0.  0.
         23    2    1    2    0    0 -0.12485876141E+03 -0.15645387239E+03  0.15038926477E+03  0.26692844364E+03  0.92554516792E+02 0.  0.
          5    1    3    3  502    0  0.11469711678E+03  0.13331389182E+03 -0.25172337020E+02  0.17771820082E+03  0.47000000000E+01 0. -1.
         -5    1    3    3    0  502  0.10161644630E+02  0.23139980569E+02  0.54288946521E+02  0.60067440737E+02  0.47000000000E+01 0. -1.
        -11    1    4    4    0    0 -0.62167918343E+02 -0.20586035988E+02  0.74364110671E+02  0.99089131112E+02  0.00000000000E+00 0. -1.
         11    1    4    4    0    0 -0.62690843071E+02 -0.13586783641E+03  0.76025154096E+02  0.16783931253E+03  0.00000000000E+00 0.  1.
<mgrwt>
<rscale>  0 0.23203109E+03</rscale>
<asrwt>0</asrwt>
<pdfrwt beam="1">  1        2 0.52632304E-01 0.23599626E+03</pdfrwt>
<pdfrwt beam="2">  1       -2 0.25016016E-01 0.23599626E+03</pdfrwt>
<totfact> 0.13420215E+03</totfact>
</mgrwt>
</event>
<event>
 8    1  0.9424564E-006  0.1625272E+03  0.7546771E-02  0.1193284E+00
          1   -1    0    0  501    0  0.00000000000E+00  0.00000000000E+00  0.63580984616E+02  0.63580984616E+02  0.00000000000E+00 0. -1.
         -1   -1    0    0    0  501 -0.00000000000E+00 -0.00000000000E+00 -0.36039538392E+03  0.36039538392E+03  0.00000000000E+00 0.  1.
         23    2    1    2    0    0  0.50077186113E+02  0.91009749959E+02 -0.18613375584E+03  0.24710494845E+03  0.12499832530E+03 0.  0.
         23    2    1    2    0    0 -0.50077186113E+02 -0.91009749959E+02 -0.11068064346E+03  0.17687142008E+03  0.90789841112E+02 0.  0.
          5    1    3    3  502    0  0.57131499325E+02  0.25182573335E+02 -0.16205745249E+02  0.64675237873E+02  0.47000000000E+01 0.  1.
         -5    1    3    3    0  502 -0.70543132123E+01  0.65827176624E+02 -0.16992801059E+03  0.18242971058E+03  0.47000000000E+01 0.  1.
        -11    1    4    4    0    0 -0.83044975525E+01 -0.56720785088E+02 -0.10858417507E+03  0.12278735773E+03  0.00000000000E+00 0.  1.
         11    1    4    4    0    0 -0.41772688560E+02 -0.34288964871E+02 -0.20964683858E+01  0.54084062358E+02  0.00000000000E+00 0. -1.
<mgrwt>
<rscale>  0 0.15600328E+03</rscale>
<asrwt>0</asrwt>
<pdfrwt beam="1">  1        1 0.97816901E-02 0.16252717E+03</pdfrwt>
<pdfrwt beam="2">  1       -1 0.55445443E-01 0.16252717E+03</pdfrwt>
<totfact> 0.21870806E+03</totfact>
</mgrwt>
</event>
<event>
 8    1  0.9424564E-006  0.1434070E+03  0.7546771E-02  0.1216072E+00
          2   -1    0    0  501    0  0.00000000000E+00  0.00000000000E+00  0.27468944720E+03  0.27468944720E+03  0.00000000000E+00 0. -1.
         -2   -1    0    0    0  501 -0.00000000000E+00 -0.00000000000E+00 -0.67541155144E+02  0.67541155144E+02  0.00000000000E+00 0.  1.
         23    2    1    2    0    0 -0.63706688112E+02  0.29729721696E+02  0.75264303338E+02  0.16195767927E+03  0.12499270401E+03 0.  0.
         23    2    1    2    0    0  0.63706688112E+02 -0.29729721696E+02  0.13188398872E+03  0.18027292307E+03  0.10080943334E+03 0.  0.
          5    1    3    3  502    0  0.29716932706E+02 -0.37667432129E+01  0.51553795106E+02  0.59809432648E+02  0.47000000000E+01 0.  1.
         -5    1    3    3    0  502 -0.93423620819E+02  0.33496464909E+02  0.23710508232E+02  0.10214824663E+03  0.47000000000E+01 0.  1.
        -11    1    4    4    0    0  0.46539738558E+02 -0.52810248857E+02  0.33851741383E+02  0.78107682362E+02  0.00000000000E+00 0.  1.
         11    1    4    4    0    0  0.17166949555E+02  0.23080527161E+02  0.98032247339E+02  0.10216524071E+03  0.00000000000E+00 0. -1.
<mgrwt>
<rscale>  0 0.13798049E+03</rscale>
<asrwt>0</asrwt>
<pdfrwt beam="1">  1        2 0.42259914E-01 0.14340702E+03</pdfrwt>
<pdfrwt beam="2">  1       -2 0.10390947E-01 0.14340702E+03</pdfrwt>
<totfact> 0.71713119E+03</totfact>
</mgrwt>
</event>
<event>
 8    1  0.9424564E-006  0.1335690E+03  0.7546771E-02  0.1235206E+00
          1   -1    0    0  501    0  0.00000000000E+00  0.00000000000E+00  0.42436836778E+03  0.42436836778E+03  0.00000000000E+00 0. -1.
         -1   -1    0    0    0  501 -0.00000000000E+00 -0.00000000000E+00 -0.40368500327E+02  0.40368500327E+02  0.00000000000E+00 0.  1.
         23    2    1    2    0    0 -0.88821274588E+01  0.46213789161E+02  0.11244367787E+03  0.17459744518E+03  0.12500432262E+03 0.  0.
         23    2    1    2    0    0  0.88821274588E+01 -0.46213789161E+02  0.27155618958E+03  0.29013942293E+03  0.90683593553E+02 0.  0.
          5    1    3    3  502    0  0.15946319405E+02 -0.37983852376E+02  0.57647637739E+02  0.71009846365E+02  0.47000000000E+01 0. -1.
         -5    1    3    3    0  502 -0.24828446863E+02  0.84197641537E+02  0.54796040133E+02  0.10358759882E+03  0.47000000000E+01 0. -1.
        -11    1    4    4    0    0  0.39176239705E+02 -0.48843774102E+02  0.11781469042E+03  0.13341961364E+03  0.00000000000E+00 0.  1.
         11    1    4    4    0    0 -0.30294112246E+02  0.26299849411E+01  0.15374149916E+03  0.15671980928E+03  0.00000000000E+00 0. -1.
<mgrwt>
<rscale>  0 0.12491285E+03</rscale>
<asrwt>0</asrwt>
<pdfrwt beam="1">  1        1 0.65287438E-01 0.13356904E+03</pdfrwt>
<pdfrwt beam="2">  1       -1 0.62105388E-02 0.13356904E+03</pdfrwt>
<totfact> 0.67980390E+03</totfact>
</mgrwt>
</event>
<event>
 8    1  0.9424564E-006  0.1406401E+03  0.7546771E-02  0.1222330E+00
          3   -1    0    0  501    0  0.00000000000E+00  0.00000000000E+00  0.41937010663E+02  0.41937010663E+02  0.00000000000E+00 0. -1.
         -3   -1    0    0    0  501 -0.00000000000E+00 -0.00000000000E+00 -0.39387167422E+03  0.39387167422E+03  0.00000000000E+00 0.  1.
         23    2    1    2    0    0 -0.60590743721E+02 -0.21977946318E+02 -0.22196665784E+03  0.26277143629E+03  0.12500144875E+03 0.  0.
         23    2    1    2    0    0  0.60590743721E+02  0.21977946318E+02 -0.12996800572E+03  0.17303724859E+03  0.94318283175E+02 0.  0.
          5    1    3    3  502    0 -0.58313203473E+02 -0.14658321787E+02 -0.24495137086E+02  0.65095298124E+02  0.47000000000E+01 0. -1.
         -5    1    3    3    0  502 -0.22775402476E+01 -0.73196245307E+01 -0.19747152075E+03  0.19767613817E+03  0.47000000000E+01 0. -1.
        -11    1    4    4    0    0  0.64501479236E+02  0.50399865819E+02 -0.74943647483E+02  0.11098260042E+03  0.00000000000E+00 0.  1.
         11    1    4    4    0    0 -0.39107355148E+01 -0.28421919501E+02 -0.55024358238E+02  0.62054648174E+02  0.00000000000E+00 0. -1.
<mgrwt>
<rscale>  0 0.13351621E+03</rscale>
<asrwt>0</asrwt>
<pdfrwt beam="1">  1        3 0.64518478E-02 0.14064007E+03</pdfrwt>
<pdfrwt beam="2">  1       -3 0.60595642E-01 0.14064007E+03</pdfrwt>
<totfact> 0.94739494E+02</totfact>
</mgrwt>
</event>
<event>
 8    1  0.9424564E-006  0.1341930E+03  0.7546771E-02  0.1233311E+00
         -1   -1    0    0    0  501 -0.00000000000E+00  0.00000000000E+00  0.31948320900E+03  0.31948320900E+03  0.00000000000E+00 0.  1.
          1   -1    0    0  501    0  0.00000000000E+00 -0.00000000000E+00 -0.48869833671E+02  0.48869833671E+02  0.00000000000E+00 0. -1.
         23    2    1    2    0    0  0.48803898516E+02 -0.78637843160E+00  0.20415123972E+03  0.24430615821E+03  0.12500132543E+03 0.  0.
         23    2    1    2    0    0 -0.48803898516E+02  0.78637843160E+00  0.66462135614E+02  0.12404688446E+03  0.92671328755E+02 0.  0.
          5    1    3    3  502    0 -0.18246194443E+02  0.44402977516E+02  0.11000289206E+03  0.12011358909E+03  0.47000000000E+01 0.  1.
         -5    1    3    3    0  502  0.67050092958E+02 -0.45189355947E+02  0.94148347659E+02  0.12419256912E+03  0.47000000000E+01 0.  1.
        -11    1    4    4    0    0 -0.15978344620E+02  0.20366124362E+02 -0.17871627439E+02  0.31456026221E+02  0.00000000000E+00 0. -1.
         11    1    4    4    0    0 -0.32825553896E+02 -0.19579745931E+02  0.84333763053E+02  0.92590858242E+02  0.00000000000E+00 0.  1.
<mgrwt>
<rscale>  0 0.12613202E+03</rscale>
<asrwt>0</asrwt>
<pdfrwt beam="2">  1        1 0.75184362E-02 0.13419303E+03</pdfrwt>
<pdfrwt beam="1">  1       -1 0.49151262E-01 0.13419303E+03</pdfrwt>
<totfact> 0.38485065E+03</totfact>
</mgrwt>
</event>
<event>
 8    1  0.9424564E-006  0.2055933E+03  0.7546771E-02  0.1149018E+00
         -3   -1    0    0    0  501 -0.00000000000E+00  0.00000000000E+00  0.15090006707E+03  0.15090006707E+03  0.00000000000E+00 0.  1.
          3   -1    0    0  501    0  0.00000000000E+00 -0.00000000000E+00 -0.25863483800E+03  0.25863483800E+03  0.00000000000E+00 0. -1.
         23    2    1    2    0    0  0.54010972444E+02 -0.15403767773E+03 -0.34666366224E+02  0.20849545253E+03  0.12499522180E+03 0.  0.
         23    2    1    2    0    0 -0.54010972444E+02  0.15403767773E+03 -0.73068404704E+02  0.20103945253E+03  0.91831794072E+02 0.  0.
          5    1    3    3  502    0  0.59578859398E+00 -0.10691613720E+03  0.31085084229E+02  0.11144410177E+03  0.47000000000E+01 0.  1.
         -5    1    3    3    0  502  0.53415183850E+02 -0.47121540530E+02 -0.65751450452E+02  0.97051350759E+02  0.47000000000E+01 0.  1.
        -11    1    4    4    0    0 -0.47165645225E+02  0.23132683964E+02 -0.39497789858E+02  0.65725144051E+02  0.00000000000E+00 0.  1.
         11    1    4    4    0    0 -0.68453272195E+01  0.13090499377E+03 -0.33570614845E+02  0.13531430848E+03  0.00000000000E+00 0. -1.
<mgrwt>
<rscale>  0 0.20085648E+03</rscale>
<asrwt>0</asrwt>
<pdfrwt beam="2">  1        3 0.39789975E-01 0.20559328E+03</pdfrwt>
<pdfrwt beam="1">  1       -3 0.23215395E-01 0.20559328E+03</pdfrwt>
<totfact> 0.26411471E+02</totfact>
</mgrwt>
</event>
<event>
 8    1  0.9424564E-006  0.1263957E+03  0.7546771E-02  0.1247966E+00
         -1   -1    0    0    0  501 -0.00000000000E+00  0.00000000000E+00  0.21591435655E+02  0.21591435655E+02  0.00000000000E+00 0.  1.
          1   -1    0    0  501    0  0.00000000000E+00 -0.00000000000E+00 -0.56241556694E+03  0.56241556694E+03  0.00000000000E+00 0. -1.
         23    2    1    2    0    0  0.18320621876E+02 -0.37850697700E+01 -0.33705708675E+03  0.35997689308E+03  0.12500364749E+03 0.  0.
         23    2    1    2    0    0 -0.18320621876E+02  0.37850697700E+01 -0.20376704453E+03  0.22403010951E+03  0.91205863796E+02 0.  0.
          5    1    3    3  502    0  0.29144052078E+02 -0.26963100837E+02 -0.33082464226E+03  0.33323177895E+03  0.47000000000E+01 0.  1.
         -5    1    3    3    0  502 -0.10823430202E+02  0.23178031067E+02 -0.62324444910E+01  0.26745114130E+02  0.47000000000E+01 0.  1.
        -11    1    4    4    0    0 -0.49563333082E+02  0.23129828488E+02 -0.14185536737E+03  0.15203439810E+03  0.00000000000E+00 0. -1.
         11    1    4    4    0    0  0.31242711206E+02 -0.19344758718E+02 -0.61911677162E+02  0.71995711416E+02  0.00000000000E+00 0.  1.
<mgrwt>
<rscale>  0 0.11709604E+03</rscale>
<asrwt>0</asrwt>
<pdfrwt beam="2">  1        1 0.86525449E-01 0.12639574E+03</pdfrwt>
<pdfrwt beam="1">  1       -1 0.33217602E-02 0.12639574E+03</pdfrwt>
<totfact> 0.11811076E+04</totfact>
</mgrwt>
</event>
<event>
 8    1  0.9424564E-006  0.1291207E+03  0.7546771E-02  0.1242822E+00
         -2   -1    0    0    0  501 -0.00000000000E+00  0.00000000000E+00  0.35742628330E+03  0.35742628330E+03  0.00000000000E+00 0.  1.
          2   -1    0    0  501    0  0.00000000000E+00 -0.00000000000E+00 -0.38112227121E+02  0.38112227121E+02  0.00000000000E+00 0. -1.
         23    2    1    2    0    0  0.32309111506E+02  0.25002852892E+01  0.23010091789E+03  0.26385336375E+03  0.12498813959E+03 0.  0.
         23    2    1    2    0    0 -0.32309111506E+02 -0.25002852892E+01  0.89213138297E+02  0.13168514668E+03  0.91279043036E+02 0.  0.
          5    1    3    3  502    0  0.72086559694E+02  0.32132094570E+02  0.13332801740E+03  0.15500772179E+03  0.47000000000E+01 0.  1.
         -5    1    3    3    0  502 -0.39777448188E+02 -0.29631809281E+02  0.96772900483E+02  0.10884564196E+03  0.47000000000E+01 0.  1.
        -11    1    4    4    0    0 -0.42240572149E+02  0.85300163268E+01  0.19166413393E+01  0.43135839252E+02  0.00000000000E+00 0. -1.
         11    1    4    4    0    0  0.99314606426E+01 -0.11030301616E+02  0.87296496958E+02  0.88549307424E+02  0.00000000000E+00 0.  1.
<mgrwt>
<rscale>  0 0.12016663E+03</rscale>
<asrwt>0</asrwt>
<pdfrwt beam="2">  1        2 0.58634198E-02 0.12912074E+03</pdfrwt>
<pdfrwt beam="1">  1       -2 0.54988657E-01 0.12912074E+03</pdfrwt>
<totfact> 0.38288399E+03</totfact>
</mgrwt>
</event>
<event>
 8    1  0.9424564E-006  0.1588275E+03  0.7546771E-02  0.1197616E+00
          2   -1    0    0  501    0  0.00000000000E+00  0.00000000000E+00  0.29128997294E+03  0.29128997294E+03  0.00000000000E+00 0. -1.
         -2   -1    0    0    0  501 -0.00000000000E+00 -0.00000000000E+00 -0.74603916399E+02  0.74603916399E+02  0.00000000000E+00 0.  1.
         23    2    1    2    0    0  0.63745013916E+02  0.74412607637E+02  0.98596329913E+02  0.18694223222E+03  0.12500199574E+03 0.  0.
         23    2    1    2    0    0 -0.63745013916E+02 -0.74412607637E+02  0.11808972663E+03  0.17895165712E+03  0.92075235958E+02 0.  0.
          5    1    3    3  502    0 -0.33151296041E+01  0.32254511054E+02  0.10238720905E+03  0.10750150764E+03  0.47000000000E+01 0.  1.
         -5    1    3    3    0  502  0.67060143520E+02  0.42158096583E+02 -0.37908791401E+01  0.79440724576E+02  0.47000000000E+01 0.  1.
        -11    1    4    4    0    0 -0.54297578783E+02 -0.95763526572E+02  0.88428041546E+02  0.14120339449E+03  0.00000000000E+00 0.  1.
         11    1    4    4    0    0 -0.94474351332E+01  0.21350918934E+02  0.29661685083E+02  0.37748262634E+02  0.00000000000E+00 0. -1.
<mgrwt>
<rscale>  0 0.15234897E+03</rscale>
<asrwt>0</asrwt>
<pdfrwt beam="1">  1        2 0.44813842E-01 0.15882746E+03</pdfrwt>
<pdfrwt beam="2">  1       -2 0.11477526E-01 0.15882746E+03</pdfrwt>
<totfact> 0.57904059E+03</totfact>
</mgrwt>
</event>
<event>
 8    1  0.9424564E-006  0.1226968E+03  0.7546771E-02  0.1249748E+00
         -1   -1    0    0    0  501 -0.00000000000E+00  0.00000000000E+00  0.31791737850E+02  0.31791737850E+02  0.00000000000E+00 0.  1.
          1   -1    0    0  501    0  0.00000000000E+00 -0.00000000000E+00 -0.50014160439E+03  0.50014160439E+03  0.00000000000E+00 0. -1.
         23    2    1    2    0    0 -0.37704036353E+02  0.10327945847E+00 -0.12639778292E+03  0.17615592713E+03  0.11676003646E+03 0.  0.
         23    2    1    2    0    0  0.37704036353E+02 -0.10327945847E+00 -0.34195208363E+03  0.35577741511E+03  0.90690333448E+02 0.  0.
          5    1    3    3  502    0 -0.46408610263E+02 -0.45764187309E+02 -0.10701284648E+03  0.12538723723E+03  0.47000000000E+01 0. -1.
         -5    1    3    3    0  502  0.87045739099E+01  0.45867466767E+02 -0.19384936433E+02  0.50768689910E+02  0.47000000000E+01 0.  1.
        -11    1    4    4    0    0  0.53195885464E+02  0.28557578566E+02 -0.27185709418E+03  0.27848090991E+03  0.00000000000E+00 0.  1.
         11    1    4    4    0    0 -0.15491849111E+02 -0.28660858025E+02 -0.70094989443E+02  0.77296505203E+02  0.00000000000E+00 0. -1.
<mgrwt>
<rscale>  0 0.11605673E+03</rscale>
<asrwt>0</asrwt>
<pdfrwt beam="2">  1        1 0.76944864E-01 0.12269683E+03</pdfrwt>
<pdfrwt beam="1">  1       -1 0.48910365E-02 0.12269683E+03</pdfrwt>
<totfact> 0.78021442E+03</totfact>
</mgrwt>
</event>
<event>
 8    1  0.9424564E-006  0.1289080E+03  0.7546771E-02  0.1243969E+00
          3   -1    0    0  501    0  0.00000000000E+00  0.00000000000E+00  0.29810794217E+02  0.29810794217E+02  0.00000000000E+00 0. -1.
         -3   -1    0    0    0  501 -0.00000000000E+00 -0.00000000000E+00 -0.45682206439E+03  0.45682206439E+03  0.00000000000E+00 0.  1.
         23    2    1    2    0    0 -0.30867218036E+02  0.62881513944E+01 -0.31071946975E+03  0.33639837114E+03  0.12499979690E+03 0.  0.
         23    2    1    2    0    0  0.30867218036E+02 -0.62881513944E+01 -0.11629180042E+03  0.15023448746E+03  0.89745709547E+02 0.  0.
          5    1    3    3  502    0 -0.34423143265E+02 -0.37456261414E+02 -0.48344152437E+02  0.70336131442E+02  0.47000000000E+01 0.  1.
         -5    1    3    3    0  502  0.35559252292E+01  0.43744412808E+02 -0.26237531732E+03  0.26606223970E+03  0.47000000000E+01 0.  1.
        -11    1    4    4    0    0 -0.10818315508E+02 -0.23099753006E+02 -0.98739544601E+02  0.10198103847E+03  0.00000000000E+00 0.  1.
         11    1    4    4    0    0  0.41685533544E+02  0.16811601611E+02 -0.17552255815E+02  0.48253448994E+02  0.00000000000E+00 0. -1.
<mgrwt>
<rscale>  0 0.11947326E+03</rscale>
<asrwt>0</asrwt>
<pdfrwt beam="1">  1        3 0.45862762E-02 0.12890801E+03</pdfrwt>
<pdfrwt beam="2">  1       -3 0.70280314E-01 0.12890801E+03</pdfrwt>
<totfact> 0.11787689E+03</totfact>
</mgrwt>
</event>
<event>
 8    1  0.9424564E-006  0.1422213E+03  0.7546771E-02  0.1220000E+00
         -4   -1    0    0    0  501 -0.00000000000E+00  0.00000000000E+00  0.32423326977E+03  0.32423326977E+03  0.00000000000E+00 0.  1.
          4   -1    0    0  501    0  0.00000000000E+00 -0.00000000000E+00 -0.58193766234E+02  0.58193766234E+02  0.00000000000E+00 0. -1.
         23    2    1    2    0    0 -0.38886186203E+02  0.55576866868E+02  0.20993765293E+03  0.25357586766E+03  0.12500391566E+03 0.  0.
         23    2    1    2    0    0  0.38886186203E+02 -0.55576866868E+02  0.56101850609E+02  0.12885116835E+03  0.94097196215E+02 0.  0.
          5    1    3    3  502    0  0.43070994019E+01  0.38380799228E+02  0.20256839440E+03  0.20627089292E+03  0.47000000000E+01 0. -1.
         -5    1    3    3    0  502 -0.43193285605E+02  0.17196067640E+02  0.73692585282E+01  0.47304974737E+02  0.47000000000E+01 0. -1.
        -11    1    4    4    0    0  0.18331960127E+02 -0.80719476256E+02  0.33560460876E+02  0.89319645898E+02  0.00000000000E+00 0. -1.
         11    1    4    4    0    0  0.20554226076E+02  0.25142609388E+02  0.22541389733E+02  0.39531522454E+02  0.00000000000E+00 0.  1.
<mgrwt>
<rscale>  0 0.13515584E+03</rscale>
<asrwt>0</asrwt>
<pdfrwt beam="2">  1        4 0.89528873E-02 0.14222132E+03</pdfrwt>
<pdfrwt beam="1">  1       -4 0.49882040E-01 0.14222132E+03</pdfrwt>
<totfact> 0.59633489E+02</totfact>
</mgrwt>
</event>
<event>
 8    1  0.9424564E-006  0.1819960E+03  0.7546771E-02  0.1170580E+00
         -1   -1    0    0    0  501 -0.00000000000E+00  0.00000000000E+00  0.12267572982E+03  0.12267572982E+03  0.00000000000E+00 0.  1.
          1   -1    0    0  501    0  0.00000000000E+00 -0.00000000000E+00 -0.26191199341E+03  0.26191199341E+03  0.00000000000E+00 0. -1.
         23    2    1    2    0    0  0.84201573810E+02  0.10263356215E+03 -0.21672553841E+02  0.18328183070E+03  0.12449488649E+03 0.  0.
         23    2    1    2    0    0 -0.84201573810E+02 -0.10263356215E+03 -0.11756370975E+03  0.20130589254E+03  0.95285273830E+02 0.  0.
          5    1    3    3  502    0  0.73446817788E+02  0.74252520645E+02 -0.70145611677E+02  0.12589824742E+03  0.47000000000E+01 0.  1.
         -5    1    3    3    0  502  0.10754756022E+02  0.28381041503E+02  0.48473057836E+02  0.57383583279E+02  0.47000000000E+01 0.  1.
        -11    1    4    4    0    0 -0.11564241189E+01 -0.76269639659E+02 -0.55387618431E+02  0.94266555713E+02  0.00000000000E+00 0.  1.
         11    1    4    4    0    0 -0.83045149691E+02 -0.26363922489E+02 -0.62176091315E+02  0.10703933682E+03  0.00000000000E+00 0. -1.
<mgrwt>
<rscale>  0 0.17716013E+03</rscale>
<asrwt>0</asrwt>
<pdfrwt beam="2">  1        1 0.40294152E-01 0.18199596E+03</pdfrwt>
<pdfrwt beam="1">  1       -1 0.18873189E-01 0.18199596E+03</pdfrwt>
<totfact> 0.22733762E+03</totfact>
</mgrwt>
</event>
<event>
 8    1  0.9424564E-006  0.1326705E+03  0.7546771E-02  0.1236084E+00
          1   -1    0    0  501    0  0.00000000000E+00  0.00000000000E+00  0.63836086785E+02  0.63836086785E+02  0.00000000000E+00 0. -1.
         -1   -1    0    0    0  501 -0.00000000000E+00 -0.00000000000E+00 -0.22097674177E+03  0.22097674177E+03  0.00000000000E+00 0.  1.
         23    2    1    2    0    0 -0.23778111368E+02  0.37551199170E+02 -0.10878622216E+03  0.17156894032E+03  0.12500387199E+03 0.  0.
         23    2    1    2    0    0  0.23778111368E+02 -0.37551199170E+02 -0.48354432828E+02  0.11324388824E+03  0.92252565870E+02 0.  0.
          5    1    3    3  502    0 -0.16402524126E+02  0.18081908592E+02 -0.13528109377E+03  0.13754658319E+03  0.47000000000E+01 0. -1.
         -5    1    3    3    0  502 -0.73755872414E+01  0.19469290578E+02  0.26494871612E+02  0.34022357127E+02  0.47000000000E+01 0. -1.
        -11    1    4    4    0    0 -0.19170718816E+02  0.19042833562E+02  0.49315819183E+00  0.27025713219E+02  0.00000000000E+00 0. -1.
         11    1    4    4    0    0  0.42948830184E+02 -0.56594032732E+02 -0.48847591020E+02  0.86218175018E+02  0.00000000000E+00 0.  1.
<mgrwt>
<rscale>  0 0.12435325E+03</rscale>
<asrwt>0</asrwt>
<pdfrwt beam="1">  1        1 0.98209365E-02 0.13267049E+03</pdfrwt>
<pdfrwt beam="2">  1       -1 0.33996422E-01 0.13267049E+03</pdfrwt>
<totfact> 0.51499434E+03</totfact>
</mgrwt>
</event>
<event>
 8    1  0.9424564E-006  0.1954101E+03  0.7546771E-02  0.1158139E+00
          2   -1    0    0  501    0  0.00000000000E+00  0.00000000000E+00  0.65072519703E+03  0.65072519703E+03  0.00000000000E+00 0. -1.
         -2   -1    0    0    0  501 -0.00000000000E+00 -0.00000000000E+00 -0.58384968644E+02  0.58384968644E+02  0.00000000000E+00 0.  1.
         23    2    1    2    0    0  0.11502685044E+03  0.96586644562E+02  0.20258587104E+03  0.28147138635E+03  0.12499979983E+03 0.  0.
         23    2    1    2    0    0 -0.11502685044E+03 -0.96586644562E+02  0.38975435735E+03  0.42763877933E+03  0.91685932875E+02 0.  0.
          5    1    3    3  502    0  0.83078703110E+00 -0.26772626949E+02  0.26081322431E+02  0.37680089445E+02  0.47000000000E+01 0.  1.
         -5    1    3    3    0  502  0.11419606341E+03  0.12335927151E+03  0.17650454861E+03  0.24379129690E+03  0.47000000000E+01 0.  1.
        -11    1    4    4    0    0 -0.12519676982E+03 -0.63350510940E+02  0.32848493266E+03  0.35719724159E+03  0.00000000000E+00 0. -1.
         11    1    4    4    0    0  0.10169919388E+02 -0.33236133623E+02  0.61269424681E+02  0.70441537741E+02  0.00000000000E+00 0.  1.
<mgrwt>
<rscale>  0 0.19035825E+03</rscale>
<asrwt>0</asrwt>
<pdfrwt beam="1">  1        2 0.10011156E+00 0.19541010E+03</pdfrwt>
<pdfrwt beam="2">  1       -2 0.89823033E-02 0.19541010E+03</pdfrwt>
<totfact> 0.35617683E+03</totfact>
</mgrwt>
</event>
<event>
 8    1  0.9424564E-006  0.1399625E+03  0.7546771E-02  0.1226533E+00
         -1   -1    0    0    0  501 -0.00000000000E+00  0.00000000000E+00  0.11231055586E+03  0.11231055586E+03  0.00000000000E+00 0.  1.
          1   -1    0    0  501    0  0.00000000000E+00 -0.00000000000E+00 -0.25093727000E+03  0.25093727000E+03  0.00000000000E+00 0. -1.
         23    2    1    2    0    0  0.55772035517E+02 -0.29253394221E+02  0.48472376496E+02  0.14811848150E+03  0.12499292884E+03 0.  0.
         23    2    1    2    0    0 -0.55772035517E+02  0.29253394221E+02 -0.18709909063E+03  0.21512934436E+03  0.85488502551E+02 0.  0.
          5    1    3    3  502    0  0.62762054813E+02 -0.41323800070E+02  0.82108441743E+02  0.11140295410E+03  0.47000000000E+01 0. -1.
         -5    1    3    3    0  502 -0.69900192957E+01  0.12070405848E+02 -0.33636065247E+02  0.36715527401E+02  0.47000000000E+01 0. -1.
        -11    1    4    4    0    0 -0.23003955927E+02  0.42651816503E+02 -0.37159173810E+02  0.61066878400E+02  0.00000000000E+00 0.  1.
         11    1    4    4    0    0 -0.32768079591E+02 -0.13398422282E+02 -0.14993991682E+03  0.15406246596E+03  0.00000000000E+00 0. -1.
<mgrwt>
<rscale>  0 0.13062351E+03</rscale>
<asrwt>0</asrwt>
<pdfrwt beam="2">  1        1 0.38605734E-01 0.13996254E+03</pdfrwt>
<pdfrwt beam="1">  1       -1 0.17278547E-01 0.13996254E+03</pdfrwt>
<totfact> 0.27333091E+03</totfact>
</mgrwt>
</event>
<event>
 8    1  0.9424564E-006  0.1564804E+03  0.7546771E-02  0.1200284E+00
          2   -1    0    0  501    0  0.00000000000E+00  0.00000000000E+00  0.93754264487E+02  0.93754264487E+02  0.00000000000E+00 0. -1.
         -2   -1    0    0    0  501 -0.00000000000E+00 -0.00000000000E+00 -0.22661435153E+03  0.22661435153E+03  0.00000000000E+00 0.  1.
         23    2    1    2    0    0  0.37884708461E+02 -0.86158937026E+02 -0.92140811419E+02  0.18159309136E+03  0.12501003213E+03 0.  0.
         23    2    1    2    0    0 -0.37884708461E+02  0.86158937026E+02 -0.40719275625E+02  0.13877552466E+03  0.93498520168E+02 0.  0.
          5    1    3    3  502    0 -0.13394536324E+02 -0.92410253775E+02 -0.25057259645E+02  0.96793723283E+02  0.47000000000E+01 0. -1.
         -5    1    3    3    0  502  0.51279244785E+02  0.62513167484E+01 -0.67083551774E+02  0.84799368072E+02  0.47000000000E+01 0. -1.
        -11    1    4    4    0    0  0.10864659364E+02  0.46230949244E+02 -0.56507851300E+02  0.73813811374E+02  0.00000000000E+00 0.  1.
         11    1    4    4    0    0 -0.48749367825E+02  0.39927987782E+02  0.15788575675E+02  0.64961713289E+02  0.00000000000E+00 0. -1.
<mgrwt>
<rscale>  0 0.15015365E+03</rscale>
<asrwt>0</asrwt>
<pdfrwt beam="1">  1        2 0.14423733E-01 0.15648042E+03</pdfrwt>
<pdfrwt beam="2">  1       -2 0.34863745E-01 0.15648042E+03</pdfrwt>
<totfact> 0.30633196E+03</totfact>
</mgrwt>
</event>
<event>
 8    1  0.9424564E-006  0.1622614E+03  0.7546771E-02  0.1193420E+00
          1   -1    0    0  501    0  0.00000000000E+00  0.00000000000E+00  0.63417575789E+02  0.63417575789E+02  0.00000000000E+00 0. -1.
         -1   -1    0    0    0  501 -0.00000000000E+00 -0.00000000000E+00 -0.53614825533E+03  0.53614825533E+03  0.00000000000E+00 0.  1.
         23    2    1    2    0    0  0.31199228605E+02  0.98644837677E+02 -0.42234393721E+03  0.45244132669E+03  0.12499822772E+03 0.  0.
         23    2    1    2    0    0 -0.31199228605E+02 -0.98644837677E+02 -0.50386742334E+02  0.14712450443E+03  0.91665697704E+02 0.  0.
          5    1    3    3  502    0 -0.26016391548E+02  0.87138696170E+01 -0.23662918094E+03  0.23826087263E+03  0.47000000000E+01 0. -1.
         -5    1    3    3    0  502  0.57215620153E+02  0.89930968060E+02 -0.18571475627E+03  0.21418045406E+03  0.47000000000E+01 0. -1.
        -11    1    4    4    0    0 -0.39276300329E+02 -0.16389147156E+02 -0.48399188084E+02  0.64449308136E+02  0.00000000000E+00 0.  1.
         11    1    4    4    0    0  0.80770717240E+01 -0.82255690522E+02 -0.19875542498E+01  0.82675196297E+02  0.00000000000E+00 0. -1.
<mgrwt>
<rscale>  0 0.15588698E+03</rscale>
<asrwt>0</asrwt>
<pdfrwt beam="1">  1        1 0.97565499E-02 0.16226137E+03</pdfrwt>
<pdfrwt beam="2">  1       -1 0.82484349E-01 0.16226137E+03</pdfrwt>
<totfact> 0.10045248E+03</totfact>
</mgrwt>
</event>
<event>
 8    1  0.9424564E-006  0.1263329E+03  0.7546771E-02  0.1248476E+00
          4   -1    0    0  501    0  0.00000000000E+00  0.00000000000E+00  0.63953989140E+02  0.63953989140E+02  0.00000000000E+00 0. -1.
         -4   -1    0    0    0  501 -0.00000000000E+00 -0.00000000000E+00 -0.18911631479E+03  0.18911631479E+03  0.00000000000E+00 0.  1.
         23    2    1    2    0    0 -0.14458464910E+02 -0.11138403971E+02 -0.58512076704E+02  0.13922522608E+03  0.12500755660E+03 0.  0.
         23    2    1    2    0    0  0.14458464910E+02  0.11138403971E+02 -0.66650248944E+02  0.11384507785E+03  0.90472840206E+02 0.  0.
          5    1    3    3  502    0 -0.22481547045E+02 -0.25113019461E+02 -0.93998359724E+02  0.99969321968E+02  0.47000000000E+01 0.  1.
         -5    1    3    3    0  502  0.80230821351E+01  0.13974615490E+02  0.35486283020E+02  0.39255904112E+02  0.47000000000E+01 0.  1.
        -11    1    4    4    0    0 -0.26731906350E+02  0.34717501101E+02 -0.40443803120E+02  0.59628859713E+02  0.00000000000E+00 0.  1.
         11    1    4    4    0    0  0.41190371260E+02 -0.23579097130E+02 -0.26206445823E+02  0.54216218134E+02  0.00000000000E+00 0. -1.
<mgrwt>
<rscale>  0 0.11679719E+03</rscale>
<asrwt>0</asrwt>
<pdfrwt beam="1">  1        4 0.98390752E-02 0.12633290E+03</pdfrwt>
<pdfrwt beam="2">  1       -4 0.29094818E-01 0.12633290E+03</pdfrwt>
<totfact> 0.14248608E+03</totfact>
</mgrwt>
</event>
<event>
 8    1  0.9424564E-006  0.1392311E+03  0.7546771E-02  0.1226215E+00
         -2   -1    0    0    0  501 -0.00000000000E+00  0.00000000000E+00  0.70425834130E+02  0.70425834130E+02  0.00000000000E+00 0.  1.
          2   -1    0    0  501    0  0.00000000000E+00 -0.00000000000E+00 -0.22889187665E+03  0.22889187665E+03  0.00000000000E+00 0. -1.
         23    2    1    2    0    0  0.14849436371E+01  0.61298874957E+02 -0.56155940771E+02  0.15012922902E+03  0.12500215436E+03 0.  0.
         23    2    1    2    0    0 -0.14849436371E+01 -0.61298874957E+02 -0.10231010175E+03  0.14918848176E+03  0.89610764089E+02 0.  0.
          5    1    3    3  502    0  0.20964053803E+02 -0.31194859945E+02 -0.38211708956E+02  0.53803675899E+02  0.47000000000E+01 0. -1.
         -5    1    3    3    0  502 -0.19479110166E+02  0.92493734903E+02 -0.17944231815E+02  0.96325553123E+02  0.47000000000E+01 0. -1.
        -11    1    4    4    0    0  0.33573974102E+02 -0.65139201168E+02 -0.70699490424E+02  0.10182703576E+03  0.00000000000E+00 0.  1.
         11    1    4    4    0    0 -0.35058917739E+02  0.38403262111E+01 -0.31610611327E+02  0.47361445997E+02  0.00000000000E+00 0. -1.
<mgrwt>
<rscale>  0 0.13084004E+03</rscale>
<asrwt>0</asrwt>
<pdfrwt beam="2">  1        2 0.35214135E-01 0.13923109E+03</pdfrwt>
<pdfrwt beam="1">  1       -2 0.10834744E-01 0.13923109E+03</pdfrwt>
<totfact> 0.81378131E+03</totfact>
</mgrwt>
</event>
<event>
 8    1  0.9424564E-006  0.1372964E+03  0.7546771E-02  0.1229272E+00
          1   -1    0    0  501    0  0.00000000000E+00  0.00000000000E+00  0.79475009886E+03  0.79475009886E+03  0.00000000000E+00 0. -1.
         -1   -1    0    0    0  501 -0.00000000000E+00 -0.00000000000E+00 -0.18727922969E+02  0.18727922969E+02  0.00000000000E+00 0.  1.
         23    2    1    2    0    0  0.56109965265E+02  0.88318529165E+01  0.41356394871E+03  0.43575847330E+03  0.12499591015E+03 0.  0.
         23    2    1    2    0    0 -0.56109965265E+02 -0.88318529165E+01  0.36245822718E+03  0.37771954852E+03  0.89831848801E+02 0.  0.
          5    1    3    3  502    0  0.30323350848E+02 -0.23282045291E+02  0.27144325806E+02  0.47121796051E+02  0.47000000000E+01 0.  1.
         -5    1    3    3    0  502  0.25786614417E+02  0.32113898207E+02  0.38641962290E+03  0.38863667725E+03  0.47000000000E+01 0.  1.
        -11    1    4    4    0    0  0.17331810633E+02 -0.22068749132E+02  0.14830993223E+03  0.15094123806E+03  0.00000000000E+00 0.  1.
         11    1    4    4    0    0 -0.73441775898E+02  0.13236896215E+02  0.21414829495E+03  0.22677831046E+03  0.00000000000E+00 0. -1.
<mgrwt>
<rscale>  0 0.12878356E+03</rscale>
<asrwt>0</asrwt>
<pdfrwt beam="1">  1        1 0.12226922E+00 0.13729642E+03</pdfrwt>
<pdfrwt beam="2">  1       -1 0.28812195E-02 0.13729642E+03</pdfrwt>
<totfact> 0.89742024E+03</totfact>
</mgrwt>
</event>
<event>
 7    1  0.9424564E-006  0.1909859E+03  0.7546771E-02  0.1167027E+00
         -3   -1    0    0    0  501 -0.00000000000E+00  0.00000000000E+00  0.74397171390E+02  0.74397171390E+02  0.00000000000E+00 0.  1.
          3   -1    0    0  501    0  0.00000000000E+00 -0.00000000000E+00 -0.62400757640E+03  0.62400757640E+03  0.00000000000E+00 0. -1.
         23    2    1    2    0    0 -0.10136692828E+03  0.70775334626E+02 -0.46475465562E+03  0.48941648397E+03  0.90814110788E+02 0.  0.
          5    1    1    2  502    0  0.39220434448E+01  0.24959440478E+02 -0.66228716751E+02  0.71040052198E+02  0.47000000000E+01 0. -1.
         -5    1    1    2    0  502  0.97444884833E+02 -0.95734775105E+02 -0.18627032634E+02  0.13794821162E+03  0.47000000000E+01 0.  1.
        -11    1    3    3    0    0 -0.87601465312E+02  0.21236731327E+02 -0.37774687674E+03  0.38835256967E+03  0.00000000000E+00 0. -1.
         11    1    3    3    0    0 -0.13765462966E+02  0.49538603300E+02 -0.87007778884E+02  0.10106391430E+03  0.00000000000E+00 0.  1.
<mgrwt>
<rscale>  0 0.18080371E+03</rscale>
<asrwt>0</asrwt>
<pdfrwt beam="2">  1        3 0.96001172E-01 0.19098585E+03</pdfrwt>
<pdfrwt beam="1">  1       -3 0.11445718E-01 0.19098585E+03</pdfrwt>
<totfact> 0.14237467E+02</totfact>
</mgrwt>
</event>
<event>
 8    1  0.9424564E-006  0.1498993E+03  0.7546771E-02  0.1211461E+00
         -1   -1    0    0    0  501 -0.00000000000E+00  0.00000000000E+00  0.58663946416E+02  0.58663946416E+02  0.00000000000E+00 0.  1.
          1   -1    0    0  501    0  0.00000000000E+00 -0.00000000000E+00 -0.31318536604E+03  0.31318536604E+03  0.00000000000E+00 0. -1.
         23    2    1    2    0    0  0.80095652042E+02 -0.20649503485E+02 -0.11667643434E+03  0.18995577358E+03  0.12501235985E+03 0.  0.
         23    2    1    2    0    0 -0.80095652042E+02  0.20649503485E+02 -0.13784498528E+03  0.18189353888E+03  0.85101727637E+02 0.  0.
          5    1    3    3  502    0  0.83913087251E+02 -0.22777015821E+02 -0.14049315810E+03  0.16528949191E+03  0.47000000000E+01 0.  1.
         -5    1    3    3    0  502 -0.38174352087E+01  0.21275123355E+01  0.23816723767E+02  0.24666281668E+02  0.47000000000E+01 0.  1.
        -11    1    4    4    0    0 -0.35283842840E+02 -0.24115184156E+02 -0.18067677495E+02  0.46399705198E+02  0.00000000000E+00 0.  1.
         11    1    4    4    0    0 -0.44811809202E+02  0.44764687641E+02 -0.11977730779E+03  0.13549383368E+03  0.00000000000E+00 0. -1.
<mgrwt>
<rscale>  0 0.14139712E+03</rscale>
<asrwt>0</asrwt>
<pdfrwt beam="2">  1        1 0.48182364E-01 0.14989932E+03</pdfrwt>
<pdfrwt beam="1">  1       -1 0.90252224E-02 0.14989932E+03</pdfrwt>
<totfact> 0.57065215E+03</totfact>
</mgrwt>
</event>
<event>
 8    1  0.9424564E-006  0.1349772E+03  0.7546771E-02  0.1232744E+00
          3   -1    0    0  501    0  0.00000000000E+00  0.00000000000E+00  0.25212149494E+03  0.25212149494E+03  0.00000000000E+00 0. -1.
         -3   -1    0    0    0  501 -0.00000000000E+00 -0.00000000000E+00 -0.61420059805E+02  0.61420059805E+02  0.00000000000E+00 0.  1.
         23    2    1    2    0    0 -0.19730824143E+02 -0.46977719557E+02  0.63539817272E+02  0.14918495231E+03  0.12499051988E+03 0.  0.
         23    2    1    2    0    0  0.19730824143E+02  0.46977719557E+02  0.12716161786E+03  0.16435660244E+03  0.90811916352E+02 0.  0.
          5    1    3    3  502    0 -0.26988022689E+02  0.38349757610E+02  0.10306665818E+02  0.48242871367E+02  0.47000000000E+01 0. -1.
         -5    1    3    3    0  502  0.72571985466E+01 -0.85327477167E+02  0.53233151454E+02  0.10094208094E+03  0.47000000000E+01 0. -1.
        -11    1    4    4    0    0  0.99454137367E+01  0.70038011692E+02  0.60289830267E+02  0.92946748033E+02  0.00000000000E+00 0.  1.
         11    1    4    4    0    0  0.97854104058E+01 -0.23060292135E+02  0.66871787592E+02  0.71409854403E+02  0.00000000000E+00 0. -1.
<mgrwt>
<rscale>  0 0.12649957E+03</rscale>
<asrwt>0</asrwt>
<pdfrwt beam="1">  1        3 0.38787922E-01 0.13497719E+03</pdfrwt>
<pdfrwt beam="2">  1       -3 0.94492401E-02 0.13497719E+03</pdfrwt>
<totfact> 0.12295091E+03</totfact>
</mgrwt>
</event>
<event>
 8    1  0.9424564E-006  0.1301063E+03  0.7546771E-02  0.1242099E+00
         -1   -1    0    0    0  501 -0.00000000000E+00  0.00000000000E+00  0.19311371394E+02  0.19311371394E+02  0.00000000000E+00 0.  1.
          1   -1    0    0  501    0  0.00000000000E+00 -0.00000000000E+00 -0.66703925568E+03  0.66703925568E+03  0.00000000000E+00 0. -1.
         23    2    1    2    0    0 -0.36053573264E+02 -0.15327209814E+01 -0.40098857206E+03  0.42156790042E+03  0.12500180143E+03 0.  0.
         23    2    1    2    0    0  0.36053573264E+02  0.15327209814E+01 -0.24673931222E+03  0.26478272665E+03  0.89035918363E+02 0.  0.
          5    1    3    3  502    0  0.25035762437E+02  0.43627447198E+02 -0.11467958425E+03  0.12531416757E+03  0.47000000000E+01 0.  1.
         -5    1    3    3    0  502 -0.61089335701E+02 -0.45160168179E+02 -0.28630898781E+03  0.29625373285E+03  0.47000000000E+01 0.  1.
        -11    1    4    4    0    0 -0.40481898210E+01 -0.37443576397E+02 -0.12990900939E+03  0.13525812351E+03  0.00000000000E+00 0. -1.
         11    1    4    4    0    0  0.40101763085E+02  0.38976297378E+02 -0.11683030283E+03  0.12952460315E+03  0.00000000000E+00 0.  1.
<mgrwt>
<rscale>  0 0.12060678E+03</rscale>
<asrwt>0</asrwt>
<pdfrwt beam="2">  1        1 0.10262142E+00 0.13010634E+03</pdfrwt>
<pdfrwt beam="1">  1       -1 0.29709802E-02 0.13010634E+03</pdfrwt>
<totfact> 0.11027170E+04</totfact>
</mgrwt>
</event>
<event>
 8    1  0.9424564E-006  0.2049217E+03  0.7546771E-02  0.1149570E+00
          2   -1    0    0  501    0  0.00000000000E+00  0.00000000000E+00  0.59055124238E+02  0.59055124238E+02  0.00000000000E+00 0. -1.
         -2   -1    0    0    0  501 -0.00000000000E+00 -0.00000000000E+00 -0.89528758492E+03  0.89528758492E+03  0.00000000000E+00 0.  1.
         23    2    1    2    0    0  0.16206903373E+03  0.94280990062E+01 -0.68221806270E+03  0.71233024097E+03  0.12505049533E+03 0.  0.
         23    2    1    2    0    0 -0.16206903373E+03 -0.94280990062E+01 -0.15401439798E+03  0.24201246819E+03  0.92164739617E+02 0.  0.
          5    1    3    3  502    0  0.16428485794E+03 -0.14233830884E+02 -0.45794080605E+03  0.48674838298E+03  0.47000000000E+01 0.  1.
         -5    1    3    3    0  502 -0.22158242113E+01  0.23661929890E+02 -0.22427725666E+03  0.22558185799E+03  0.47000000000E+01 0.  1.
        -11    1    4    4    0    0 -0.50189471297E+02  0.18957489729E+02 -0.55189433239E+01  0.53933553391E+02  0.00000000000E+00 0. -1.
         11    1    4    4    0    0 -0.11187956243E+03 -0.28385588735E+02 -0.14849545466E+03  0.18807891480E+03  0.00000000000E+00 0.  1.
<mgrwt>
<rscale>  0 0.20020072E+03</rscale>
<asrwt>0</asrwt>
<pdfrwt beam="1">  1        2 0.90854038E-02 0.20492166E+03</pdfrwt>
<pdfrwt beam="2">  1       -2 0.13773655E+00 0.20492166E+03</pdfrwt>
<totfact> 0.28475602E+02</totfact>
</mgrwt>
</event>
<event>
 8    1  0.9424564E-006  0.1146387E+03  0.7546771E-02  0.1257698E+00
         -4   -1    0    0    0  501 -0.00000000000E+00  0.00000000000E+00  0.56612789696E+02  0.56612789696E+02  0.00000000000E+00 0.  1.
          4   -1    0    0  501    0  0.00000000000E+00 -0.00000000000E+00 -0.27849203952E+03  0.27849203952E+03  0.00000000000E+00 0. -1.
         23    2    1    2    0    0  0.25797826733E+02  0.11538302780E+02 -0.31758592670E+02  0.11895645938E+03  0.11110072333E+03 0.  0.
         23    2    1    2    0    0 -0.25797826733E+02 -0.11538302780E+02 -0.19012065715E+03  0.21614836983E+03  0.98871599618E+02 0.  0.
          5    1    3    3  502    0 -0.13113687593E+02  0.47983783562E+02 -0.41012588071E+02  0.64641586208E+02  0.47000000000E+01 0. -1.
         -5    1    3    3    0  502  0.38911514326E+02 -0.36445480782E+02  0.92539954016E+01  0.54314873170E+02  0.47000000000E+01 0.  1.
        -11    1    4    4    0    0  0.22127643659E+02  0.22142769512E+02 -0.12364692296E+03  0.12754801611E+03  0.00000000000E+00 0. -1.
         11    1    4    4    0    0 -0.47925470393E+02 -0.33681072292E+02 -0.66473734193E+02  0.88600353727E+02  0.00000000000E+00 0.  1.
<mgrwt>
<rscale>  0 0.11156543E+03</rscale>
<asrwt>0</asrwt>
<pdfrwt beam="2">  1        4 0.42844929E-01 0.11463870E+03</pdfrwt>
<pdfrwt beam="1">  1       -4 0.87096599E-02 0.11463870E+03</pdfrwt>
<totfact> 0.81052927E+02</totfact>
</mgrwt>
</event>
<event>
 8    1  0.9424564E-006  0.2005115E+03  0.7546771E-02  0.1153919E+00
         -4   -1    0    0    0  501 -0.00000000000E+00  0.00000000000E+00  0.10053995859E+03  0.10053995859E+03  0.00000000000E+00 0.  1.
          4   -1    0    0  501    0  0.00000000000E+00 -0.00000000000E+00 -0.37182500235E+03  0.37182500235E+03  0.00000000000E+00 0. -1.
         23    2    1    2    0    0 -0.23734077935E+02  0.15496772415E+03 -0.18540972930E+03  0.27309636774E+03  0.12500622532E+03 0.  0.
         23    2    1    2    0    0  0.23734077935E+02 -0.15496772415E+03 -0.85875314459E+02  0.19926859320E+03  0.88063049097E+02 0.  0.
          5    1    3    3  502    0 -0.46968166227E+02  0.18698681022E+02 -0.95410150025E+02  0.10807791652E+03  0.47000000000E+01 0.  1.
         -5    1    3    3    0  502  0.23234088293E+02  0.13626904313E+03 -0.89999579276E+02  0.16501845122E+03  0.47000000000E+01 0.  1.
        -11    1    4    4    0    0 -0.12101670396E+02 -0.72677453457E+02 -0.80832322855E+02  0.10937242379E+03  0.00000000000E+00 0. -1.
         11    1    4    4    0    0  0.35835748331E+02 -0.82290270695E+02 -0.50429916034E+01  0.89896169406E+02  0.00000000000E+00 0.  1.
<mgrwt>
<rscale>  0 0.19512408E+03</rscale>
<asrwt>0</asrwt>
<pdfrwt beam="2">  1        4 0.57203846E-01 0.20051149E+03</pdfrwt>
<pdfrwt beam="1">  1       -4 0.15467686E-01 0.20051149E+03</pdfrwt>
<totfact> 0.18633530E+02</totfact>
</mgrwt>
</event>
<event>
 8    1  0.9424564E-006  0.1792822E+03  0.7546771E-02  0.1174153E+00
         -2   -1    0    0    0  501 -0.00000000000E+00  0.00000000000E+00  0.46529966492E+03  0.46529966492E+03  0.00000000000E+00 0.  1.
          2   -1    0    0  501    0  0.00000000000E+00 -0.00000000000E+00 -0.62060149171E+02  0.62060149171E+02  0.00000000000E+00 0. -1.
         23    2    1    2    0    0 -0.12258962720E+03 -0.38536249378E+02  0.17949592299E+03  0.25369447112E+03  0.12501535543E+03 0.  0.
         23    2    1    2    0    0  0.12258962720E+03  0.38536249378E+02  0.22374359276E+03  0.27366534297E+03  0.91204525272E+02 0.  0.
          5    1    3    3  502    0 -0.19651633116E+02  0.22131735963E+02 -0.82670318386E+01  0.31087525413E+02  0.47000000000E+01 0.  1.
         -5    1    3    3    0  502 -0.10293799408E+03 -0.60667985341E+02  0.18776295483E+03  0.22260694571E+03  0.47000000000E+01 0.  1.
        -11    1    4    4    0    0  0.65258090985E+02 -0.68190032298E+01  0.42346060651E+02  0.78091651901E+02  0.00000000000E+00 0. -1.
         11    1    4    4    0    0  0.57331536212E+02  0.45355252608E+02  0.18139753211E+03  0.19557369107E+03  0.00000000000E+00 0.  1.
<mgrwt>
<rscale>  0 0.17359142E+03</rscale>
<asrwt>0</asrwt>
<pdfrwt beam="2">  1        2 0.95477156E-02 0.17928218E+03</pdfrwt>
<pdfrwt beam="1">  1       -2 0.71584562E-01 0.17928218E+03</pdfrwt>
<totfact> 0.12149487E+03</totfact>
</mgrwt>
</event>
<event>
 8    1  0.9424564E-006  0.1283152E+03  0.7546771E-02  0.1243931E+00
         -2   -1    0    0    0  501 -0.00000000000E+00  0.00000000000E+00  0.44616573538E+03  0.44616573538E+03  0.00000000000E+00 0.  1.
          2   -1    0    0  501    0  0.00000000000E+00 -0.00000000000E+00 -0.31575398583E+02  0.31575398583E+02  0.00000000000E+00 0. -1.
         23    2    1    2    0    0 -0.43026107793E+01  0.28967011181E+02  0.30957186955E+03  0.33511124011E+03  0.12492878225E+03 0.  0.
         23    2    1    2    0    0  0.43026107793E+01 -0.28967011181E+02  0.10501846725E+03  0.14262989385E+03  0.91960904528E+02 0.  0.
          5    1    3    3  502    0 -0.35108228667E+01 -0.88361670388E+01 -0.92181019823E+01  0.14052299787E+02  0.47000000000E+01 0. -1.
         -5    1    3    3    0  502 -0.79178791269E+00  0.37803178220E+02  0.31878997153E+03  0.32105894032E+03  0.47000000000E+01 0. -1.
        -11    1    4    4    0    0  0.16098962007E+02 -0.59231210994E+02  0.83633423110E+02  0.10374036049E+03  0.00000000000E+00 0.  1.
         11    1    4    4    0    0 -0.11796351228E+02  0.30264199812E+02  0.21385044137E+02  0.38889533365E+02  0.00000000000E+00 0. -1.
<mgrwt>
<rscale>  0 0.11949592E+03</rscale>
<asrwt>0</asrwt>
<pdfrwt beam="2">  1        2 0.48577539E-02 0.12831524E+03</pdfrwt>
<pdfrwt beam="1">  1       -2 0.68640878E-01 0.12831524E+03</pdfrwt>
<totfact> 0.30918064E+03</totfact>
</mgrwt>
</event>
<event>
 8    1  0.9424564E-006  0.1628719E+03  0.7546771E-02  0.1192866E+00
          2   -1    0    0  501    0  0.00000000000E+00  0.00000000000E+00  0.65819719951E+03  0.65819719951E+03  0.00000000000E+00 0.  1.
         -2   -1    0    0    0  501 -0.00000000000E+00 -0.00000000000E+00 -0.38865863264E+02  0.38865863264E+02  0.00000000000E+00 0. -1.
         23    2    1    2    0    0 -0.10292648744E+03  0.17120386616E+02  0.21506580201E+03  0.26977872199E+03  0.12506114580E+03 0.  0.
         23    2    1    2    0    0  0.10292648744E+03 -0.17120386616E+02  0.40426553424E+03  0.42728434079E+03  0.90853267708E+02 0.  0.
          5    1    3    3  502    0 -0.24908417308E+02 -0.37399949584E+02  0.14044348695E+02  0.47312992000E+02  0.47000000000E+01 0. -1.
         -5    1    3    3    0  502 -0.78018070137E+02  0.54520336200E+02  0.20102145331E+03  0.22246572999E+03  0.47000000000E+01 0. -1.
        -11    1    4    4    0    0  0.80981783547E+02  0.26518184533E+02  0.30456928130E+03  0.31626525337E+03  0.00000000000E+00 0.  1.
         11    1    4    4    0    0  0.21944703898E+02 -0.43638571149E+02  0.99696252941E+02  0.11101908742E+03  0.00000000000E+00 0. -1.
<mgrwt>
<rscale>  0 0.15636193E+03</rscale>
<asrwt>0</asrwt>
<pdfrwt beam="1">  1        2 0.10126110E+00 0.16287191E+03</pdfrwt>
<pdfrwt beam="2">  1       -2 0.59793641E-02 0.16287191E+03</pdfrwt>
<totfact> 0.65434452E+03</totfact>
</mgrwt>
</event>
<event>
 8    1  0.9424564E-006  0.1730231E+03  0.7546771E-02  0.1179933E+00
         -1   -1    0    0    0  501 -0.00000000000E+00  0.00000000000E+00  0.36117264448E+02  0.36117264448E+02  0.00000000000E+00 0.  1.
          1   -1    0    0  501    0  0.00000000000E+00 -0.00000000000E+00 -0.73980374687E+03  0.73980374687E+03  0.00000000000E+00 0. -1.
         23    2    1    2    0    0  0.10077558153E+03  0.64467938212E+02 -0.37949191575E+03  0.41707445007E+03  0.12500059957E+03 0.  0.
         23    2    1    2    0    0 -0.10077558153E+03 -0.64467938212E+02 -0.32419456667E+03  0.35884656125E+03  0.96731094116E+02 0.  0.
          5    1    3    3  502    0  0.12562147159E+03  0.70819505662E+02 -0.34401449630E+03  0.37304720904E+03  0.47000000000E+01 0.  1.
         -5    1    3    3    0  502 -0.24845890062E+02 -0.63515674497E+01 -0.35477419446E+02  0.44027241028E+02  0.47000000000E+01 0.  1.
        -11    1    4    4    0    0 -0.72523640506E+02 -0.39874547179E+01 -0.24359520394E+03  0.25419323675E+03  0.00000000000E+00 0. -1.
         11    1    4    4    0    0 -0.28251941024E+02 -0.60480483494E+02 -0.80599362735E+02  0.10465332450E+03  0.00000000000E+00 0.  1.
<mgrwt>
<rscale>  0 0.16801571E+03</rscale>
<asrwt>0</asrwt>
<pdfrwt beam="2">  1        1 0.11381595E+00 0.17302307E+03</pdfrwt>
<pdfrwt beam="1">  1       -1 0.55565026E-02 0.17302307E+03</pdfrwt>
<totfact> 0.38339184E+03</totfact>
</mgrwt>
</event>
<event>
 8    1  0.9424564E-006  0.1825072E+03  0.7546771E-02  0.1170936E+00
          2   -1    0    0  501    0  0.00000000000E+00  0.00000000000E+00  0.17781921926E+03  0.17781921926E+03  0.00000000000E+00 0. -1.
         -2   -1    0    0    0  501 -0.00000000000E+00 -0.00000000000E+00 -0.18509197108E+03  0.18509197108E+03  0.00000000000E+00 0.  1.
         23    2    1    2    0    0 -0.84717275722E+02 -0.10250359546E+03 -0.62573199318E+02  0.19293592002E+03  0.12499944028E+03 0.  0.
         23    2    1    2    0    0  0.84717275722E+02  0.10250359546E+03  0.55300447497E+02  0.16997527032E+03  0.90274299429E+02 0.  0.
          5    1    3    3  502    0 -0.41027881861E+02 -0.83947672171E+02 -0.96497410757E+02  0.13440364220E+03  0.47000000000E+01 0. -1.
         -5    1    3    3    0  502 -0.43689393860E+02 -0.18555923293E+02  0.33924211439E+02  0.58532277821E+02  0.47000000000E+01 0. -1.
        -11    1    4    4    0    0  0.91159343050E+02  0.76562499387E+02  0.71357669199E+02  0.13879394472E+03  0.00000000000E+00 0. -1.
         11    1    4    4    0    0 -0.64420673281E+01  0.25941096077E+02 -0.16057221703E+02  0.31181325596E+02  0.00000000000E+00 0.  1.
<mgrwt>
<rscale>  0 0.17680020E+03</rscale>
<asrwt>0</asrwt>
<pdfrwt beam="1">  1        2 0.27356803E-01 0.18250716E+03</pdfrwt>
<pdfrwt beam="2">  1       -2 0.28475688E-01 0.18250716E+03</pdfrwt>
<totfact> 0.21500468E+03</totfact>
</mgrwt>
</event>
<event>
 8    1  0.9424564E-006  0.1707400E+03  0.7546771E-02  0.1183384E+00
          2   -1    0    0  501    0  0.00000000000E+00  0.00000000000E+00  0.16880609557E+04  0.16880609557E+04  0.00000000000E+00 0. -1.
         -2   -1    0    0    0  501 -0.00000000000E+00 -0.00000000000E+00 -0.15145546903E+02  0.15145546903E+02  0.00000000000E+00 0.  1.
         23    2    1    2    0    0 -0.81616359509E+02  0.82859477726E+02  0.83282547609E+03  0.85014728830E+03  0.12500085998E+03 0.  0.
         23    2    1    2    0    0  0.81616359509E+02 -0.82859477726E+02  0.84008993272E+03  0.85305921431E+03  0.91825948829E+02 0.  0.
          5    1    3    3  502    0 -0.10683989503E+03  0.35267432533E+02  0.64238908564E+03  0.65218431622E+03  0.47000000000E+01 0. -1.
         -5    1    3    3    0  502  0.25223535523E+02  0.47592045193E+02  0.19043639044E+03  0.19796297208E+03  0.47000000000E+01 0. -1.
        -11    1    4    4    0    0 -0.19692586865E+02 -0.48395619875E+01  0.12173524400E+03  0.12341267751E+03  0.00000000000E+00 0.  1.
         11    1    4    4    0    0  0.10130894637E+03 -0.78019915739E+02  0.71835468871E+03  0.72964653680E+03  0.00000000000E+00 0. -1.
<mgrwt>
<rscale>  0 0.16479833E+03</rscale>
<asrwt>0</asrwt>
<pdfrwt beam="1">  1        2 0.25970154E+00 0.17073997E+03</pdfrwt>
<pdfrwt beam="2">  1       -2 0.23300855E-02 0.17073997E+03</pdfrwt>
<totfact> 0.66214541E+03</totfact>
</mgrwt>
</event>
<event>
 8    1  0.9424564E-006  0.1759800E+03  0.7546771E-02  0.1177946E+00
         -2   -1    0    0    0  501 -0.00000000000E+00  0.00000000000E+00  0.31005293415E+02  0.31005293415E+02  0.00000000000E+00 0.  1.
          2   -1    0    0  501    0  0.00000000000E+00 -0.00000000000E+00 -0.90666434894E+03  0.90666434894E+03  0.00000000000E+00 0. -1.
         23    2    1    2    0    0 -0.44808640501E+02 -0.11548297489E+03 -0.37618017067E+03  0.41530768590E+03  0.12499928563E+03 0.  0.
         23    2    1    2    0    0  0.44808640501E+02  0.11548297489E+03 -0.49947888485E+03  0.52236195645E+03  0.89658939220E+02 0.  0.
          5    1    3    3  502    0  0.35176191716E+02 -0.16805865021E+02 -0.15795397543E+03  0.16276163527E+03  0.47000000000E+01 0. -1.
         -5    1    3    3    0  502 -0.79984832216E+02 -0.98677109874E+02 -0.21822619525E+03  0.25254605063E+03  0.47000000000E+01 0. -1.
        -11    1    4    4    0    0 -0.24334879140E+02  0.45014100607E+02 -0.12452971568E+03  0.13463322653E+03  0.00000000000E+00 0. -1.
         11    1    4    4    0    0  0.69143519641E+02  0.70468874288E+02 -0.37494916917E+03  0.38772872993E+03  0.00000000000E+00 0.  1.
<mgrwt>
<rscale>  0 0.16990636E+03</rscale>
<asrwt>0</asrwt>
<pdfrwt beam="2">  1        2 0.13948683E+00 0.17597998E+03</pdfrwt>
<pdfrwt beam="1">  1       -2 0.47700449E-02 0.17597998E+03</pdfrwt>
<totfact> 0.62107504E+03</totfact>
</mgrwt>
</event>
<event>
 8    1  0.9424564E-006  0.1406698E+03  0.7546771E-02  0.1223861E+00
         -1   -1    0    0    0  501 -0.00000000000E+00  0.00000000000E+00  0.12678620357E+04  0.12678620357E+04  0.00000000000E+00 0.  1.
          1   -1    0    0  501    0  0.00000000000E+00 -0.00000000000E+00 -0.21810302888E+02  0.21810302888E+02  0.00000000000E+00 0. -1.
         23    2    1    2    0    0  0.58879810617E+02 -0.26695538072E+02  0.10864001887E+04  0.10954694708E+04  0.12493401307E+03 0.  0.
         23    2    1    2    0    0 -0.58879810617E+02  0.26695538072E+02  0.15965154413E+03  0.19420286780E+03  0.89703146355E+02 0.  0.
          5    1    3    3  502    0  0.58514187280E+02  0.45914400251E+01  0.19957272146E+03  0.20807775611E+03  0.47000000000E+01 0.  1.
         -5    1    3    3    0  502  0.36562333730E+00 -0.31286978097E+02  0.88682746724E+03  0.88739171470E+03  0.47000000000E+01 0.  1.
        -11    1    4    4    0    0  0.10728836895E+02  0.33248164193E+02  0.85119855124E+02  0.92010532548E+02  0.00000000000E+00 0. -1.
         11    1    4    4    0    0 -0.69608647513E+02 -0.65526261210E+01  0.74531689011E+02  0.10219233525E+03  0.00000000000E+00 0.  1.
<mgrwt>
<rscale>  0 0.13245300E+03</rscale>
<asrwt>0</asrwt>
<pdfrwt beam="2">  1        1 0.33554322E-02 0.14066980E+03</pdfrwt>
<pdfrwt beam="1">  1       -1 0.19505564E+00 0.14066980E+03</pdfrwt>
<totfact> 0.52113178E+02</totfact>
</mgrwt>
</event>
<event>
 8    1  0.9424564E-006  0.3845978E+03  0.7546771E-02  0.1050311E+00
          2   -1    0    0  501    0  0.00000000000E+00  0.00000000000E+00  0.67876597044E+02  0.67876597044E+02  0.00000000000E+00 0. -1.
         -2   -1    0    0    0  501 -0.00000000000E+00 -0.00000000000E+00 -0.21238067097E+04  0.21238067097E+04  0.00000000000E+00 0.  1.
         23    2    1    2    0    0 -0.36330610795E+03  0.17307990281E+02 -0.97095368882E+03  0.10443498085E+04  0.12499824845E+03 0.  0.
         23    2    1    2    0    0  0.36330610795E+03 -0.17307990281E+02 -0.10849764238E+04  0.11473334982E+04  0.83122928731E+02 0.  0.
          5    1    3    3  502    0 -0.12335145511E+03 -0.49304533850E+02 -0.39764893962E+03  0.41927710135E+03  0.47000000000E+01 0. -1.
         -5    1    3    3    0  502 -0.23995465283E+03  0.66612524131E+02 -0.57330474921E+03  0.62507270717E+03  0.47000000000E+01 0. -1.
        -11    1    4    4    0    0  0.82990390472E+02 -0.35339144031E+02 -0.31767880492E+03  0.33023640488E+03  0.00000000000E+00 0.  1.
         11    1    4    4    0    0  0.28031571747E+03  0.18031153751E+02 -0.76729761891E+03  0.81709709335E+03  0.00000000000E+00 0. -1.
<mgrwt>
<rscale>  0 0.38168941E+03</rscale>
<asrwt>0</asrwt>
<pdfrwt beam="1">  1        2 0.10442553E-01 0.38459779E+03</pdfrwt>
<pdfrwt beam="2">  1       -2 0.32673950E+00 0.38459779E+03</pdfrwt>
<totfact> 0.15055050E+01</totfact>
</mgrwt>
</event>
<event>
 8    1  0.9424564E-006  0.1861393E+03  0.7546771E-02  0.1167074E+00
         -2   -1    0    0    0  501 -0.00000000000E+00  0.00000000000E+00  0.12283960380E+03  0.12283960380E+03  0.00000000000E+00 0.  1.
          2   -1    0    0  501    0  0.00000000000E+00 -0.00000000000E+00 -0.25411614762E+03  0.25411614762E+03  0.00000000000E+00 0. -1.
         23    2    1    2    0    0 -0.21767068105E+02 -0.13619531256E+03 -0.87878053860E+02  0.20584065999E+03  0.12499942616E+03 0.  0.
         23    2    1    2    0    0  0.21767068105E+02  0.13619531256E+03 -0.43398489963E+02  0.17111509142E+03  0.91509437575E+02 0.  0.
          5    1    3    3  502    0 -0.56360241544E+01 -0.12182421791E+03 -0.72765652025E+01  0.12226178160E+03  0.47000000000E+01 0.  1.
         -5    1    3    3    0  502 -0.16131043951E+02 -0.14371094643E+02 -0.80601488658E+02  0.83578878396E+02  0.47000000000E+01 0.  1.
        -11    1    4    4    0    0  0.14758571033E+02 -0.23366239115E+01 -0.27761478562E+02  0.31527367828E+02  0.00000000000E+00 0. -1.
         11    1    4    4    0    0  0.70084970724E+01  0.13853193647E+03 -0.15637011401E+02  0.13958772359E+03  0.00000000000E+00 0.  1.
<mgrwt>
<rscale>  0 0.18075539E+03</rscale>
<asrwt>0</asrwt>
<pdfrwt beam="2">  1        2 0.39094792E-01 0.18613926E+03</pdfrwt>
<pdfrwt beam="1">  1       -2 0.18898401E-01 0.18613926E+03</pdfrwt>
<totfact> 0.29792249E+03</totfact>
</mgrwt>
</event>
<event>
 8    1  0.9424564E-006  0.1456234E+03  0.7546771E-02  0.1215635E+00
         -1   -1    0    0    0  501 -0.00000000000E+00  0.00000000000E+00  0.13868780777E+03  0.13868780777E+03  0.00000000000E+00 0.  1.
          1   -1    0    0  501    0  0.00000000000E+00 -0.00000000000E+00 -0.12685117570E+03  0.12685117570E+03  0.00000000000E+00 0. -1.
         23    2    1    2    0    0  0.74699622441E+02  0.11653450835E+01  0.18998378121E+02  0.14685749002E+03  0.12499916952E+03 0.  0.
         23    2    1    2    0    0 -0.74699622441E+02 -0.11653450835E+01 -0.71617460551E+01  0.11868149345E+03  0.91938102323E+02 0.  0.
          5    1    3    3  502    0 -0.11365162824E+02  0.33414194531E+02 -0.26318346920E+02  0.44276638386E+02  0.47000000000E+01 0.  1.
         -5    1    3    3    0  502  0.86064785265E+02 -0.32248849447E+02  0.45316725041E+02  0.10258085163E+03  0.47000000000E+01 0.  1.
        -11    1    4    4    0    0 -0.62335548852E+02  0.44202013626E+01  0.36903473304E+02  0.72574962437E+02  0.00000000000E+00 0.  1.
         11    1    4    4    0    0 -0.12364073589E+02 -0.55855464461E+01 -0.44065219359E+02  0.46106531013E+02  0.00000000000E+00 0. -1.
<mgrwt>
<rscale>  0 0.13829967E+03</rscale>
<asrwt>0</asrwt>
<pdfrwt beam="2">  1        1 0.19515565E-01 0.14562343E+03</pdfrwt>
<pdfrwt beam="1">  1       -1 0.21336586E-01 0.14562343E+03</pdfrwt>
<totfact> 0.45916081E+03</totfact>
</mgrwt>
</event>
<event>
 8    1  0.9424564E-006  0.1554174E+03  0.7546771E-02  0.1201880E+00
          3   -1    0    0  501    0  0.00000000000E+00  0.00000000000E+00  0.19376834278E+03  0.19376834278E+03  0.00000000000E+00 0. -1.
         -3   -1    0    0    0  501 -0.00000000000E+00 -0.00000000000E+00 -0.11219546576E+03  0.11219546576E+03  0.00000000000E+00 0.  1.
         23    2    1    2    0    0 -0.92344754705E+02  0.13134954167E+01  0.74016922017E+01  0.15559359347E+03  0.12500120915E+03 0.  0.
         23    2    1    2    0    0  0.92344754705E+02 -0.13134954167E+01  0.74171184813E+02  0.15037021508E+03  0.92631301050E+02 0.  0.
          5    1    3    3  502    0 -0.16605464308E+02  0.55136965677E+02  0.21198989218E+02  0.61541153490E+02  0.47000000000E+01 0. -1.
         -5    1    3    3    0  502 -0.75739290397E+02 -0.53823470260E+02 -0.13797297017E+02  0.94052439977E+02  0.47000000000E+01 0. -1.
        -11    1    4    4    0    0  0.23361430674E+02  0.75626021689E+01 -0.21125317392E+02  0.32391795715E+02  0.00000000000E+00 0.  1.
         11    1    4    4    0    0  0.68983324031E+02 -0.88760975855E+01  0.95296502205E+02  0.11797841936E+03  0.00000000000E+00 0. -1.
<mgrwt>
<rscale>  0 0.14886087E+03</rscale>
<asrwt>0</asrwt>
<pdfrwt beam="1">  1        3 0.29810514E-01 0.15541744E+03</pdfrwt>
<pdfrwt beam="2">  1       -3 0.17260841E-01 0.15541744E+03</pdfrwt>
<totfact> 0.74542674E+02</totfact>
</mgrwt>
</event>
<event>
 8    1  0.9424564E-006  0.1711051E+03  0.7546771E-02  0.1183162E+00
         -2   -1    0    0    0  501 -0.00000000000E+00  0.00000000000E+00  0.58540560242E+03  0.58540560242E+03  0.00000000000E+00 0.  1.
          2   -1    0    0  501    0  0.00000000000E+00 -0.00000000000E+00 -0.47006311050E+02  0.47006311050E+02  0.00000000000E+00 0. -1.
         23    2    1    2    0    0  0.32069689333E+02 -0.11233424350E+03  0.37367732666E+03  0.41098870115E+03  0.12501808180E+03 0.  0.
         23    2    1    2    0    0 -0.32069689333E+02  0.11233424350E+03  0.16472196471E+03  0.22142321232E+03  0.90815560658E+02 0.  0.
          5    1    3    3  502    0  0.45890175741E+02 -0.57645097609E+02  0.33350184295E+03  0.34157639666E+03  0.47000000000E+01 0. -1.
         -5    1    3    3    0  502 -0.13820486408E+02 -0.54689145894E+02  0.40175483715E+02  0.69412304492E+02  0.47000000000E+01 0. -1.
        -11    1    4    4    0    0 -0.11302919680E+02  0.99154534546E+02  0.65912860935E+02  0.11959884176E+03  0.00000000000E+00 0. -1.
         11    1    4    4    0    0 -0.20766769653E+02  0.13179708957E+02  0.98809103775E+02  0.10182437055E+03  0.00000000000E+00 0.  1.
<mgrwt>
<rscale>  0 0.16500237E+03</rscale>
<asrwt>0</asrwt>
<pdfrwt beam="2">  1        2 0.72317406E-02 0.17110514E+03</pdfrwt>
<pdfrwt beam="1">  1       -2 0.90062395E-01 0.17110514E+03</pdfrwt>
<totfact> 0.10385545E+03</totfact>
</mgrwt>
</event>
<event>
 8    1  0.9424564E-006  0.1503061E+03  0.7546771E-02  0.1207283E+00
         -1   -1    0    0    0  501 -0.00000000000E+00  0.00000000000E+00  0.13686387187E+03  0.13686387187E+03  0.00000000000E+00 0.  1.
          1   -1    0    0  501    0  0.00000000000E+00 -0.00000000000E+00 -0.56579417654E+03  0.56579417654E+03  0.00000000000E+00 0. -1.
         23    2    1    2    0    0 -0.31033323518E+02 -0.78801595504E+02  0.85122633448E+02  0.17273621559E+03  0.12417398612E+03 0.  0.
         23    2    1    2    0    0  0.31033323518E+02  0.78801595504E+02 -0.51405293812E+03  0.52992183282E+03  0.96922479742E+02 0.  0.
          5    1    3    3  502    0 -0.45297246888E+02  0.56425899173E+01 -0.75039206063E+01  0.46498152878E+02  0.47000000000E+01 0. -1.
         -5    1    3    3    0  502  0.14263923370E+02 -0.84444185421E+02  0.92626554055E+02  0.12623806271E+03  0.47000000000E+01 0.  1.
        -11    1    4    4    0    0  0.95877084482E+01  0.98866371134E+02 -0.39989328134E+03  0.41204504603E+03  0.00000000000E+00 0. -1.
         11    1    4    4    0    0  0.21445615070E+02 -0.20064775631E+02 -0.11415965678E+03  0.11787678679E+03  0.00000000000E+00 0.  1.
<mgrwt>
<rscale>  0 0.14458963E+03</rscale>
<asrwt>0</asrwt>
<pdfrwt beam="2">  1        1 0.87045257E-01 0.15030615E+03</pdfrwt>
<pdfrwt beam="1">  1       -1 0.21055980E-01 0.15030615E+03</pdfrwt>
<totfact> 0.71139733E+02</totfact>
</mgrwt>
</event>
<event>
 8    1  0.9424564E-006  0.1282998E+03  0.7546771E-02  0.1245235E+00
         -2   -1    0    0    0  501 -0.00000000000E+00  0.00000000000E+00  0.89800372817E+02  0.89800372817E+02  0.00000000000E+00 0. -1.
          2   -1    0    0  501    0  0.00000000000E+00 -0.00000000000E+00 -0.14355070688E+03  0.14355070688E+03  0.00000000000E+00 0.  1.
         23    2    1    2    0    0 -0.28853761132E+02  0.20231760241E+01 -0.74158445333E+01  0.12851389503E+03  0.12499677473E+03 0.  0.
         23    2    1    2    0    0  0.28853761132E+02 -0.20231760241E+01 -0.46334489533E+02  0.10483718467E+03  0.89483616355E+02 0.  0.
          5    1    3    3  502    0  0.44722936242E+02  0.24223846007E+02  0.76059996859E+00  0.51084285782E+02  0.47000000000E+01 0.  1.
         -5    1    3    3    0  502 -0.73576697374E+02 -0.22200669983E+02 -0.81764445019E+01  0.77429609252E+02  0.47000000000E+01 0.  1.
        -11    1    4    4    0    0 -0.26642090232E+02  0.18779564750E+02 -0.59888574951E+01  0.33141204538E+02  0.00000000000E+00 0. -1.
         11    1    4    4    0    0  0.55495851363E+02 -0.20802740774E+02 -0.40345632038E+02  0.71695980130E+02  0.00000000000E+00 0.  1.
<mgrwt>
<rscale>  0 0.11871351E+03</rscale>
<asrwt>0</asrwt>
<pdfrwt beam="2">  1        2 0.22084724E-01 0.12829975E+03</pdfrwt>
<pdfrwt beam="1">  1       -2 0.13815442E-01 0.12829975E+03</pdfrwt>
<totfact> 0.91235290E+03</totfact>
</mgrwt>
</event>
<event>
 8    1  0.1356370E-005  0.2351611E+03  0.7546771E-02  0.1125817E+00
          2   -1    0    0  501    0  0.00000000000E+00  0.00000000000E+00  0.61382985521E+03  0.61382985521E+03  0.00000000000E+00 0.  1.
         -2   -1    0    0    0  501 -0.00000000000E+00 -0.00000000000E+00 -0.84470912654E+02  0.84470912654E+02  0.00000000000E+00 0. -1.
         23    2    1    2    0    0  0.47785756715E+02 -0.19336958219E+03  0.25515210774E+03  0.34699184837E+03  0.12500188355E+03 0.  0.
         23    2    1    2    0    0 -0.47785756715E+02  0.19336958219E+03  0.27420683482E+03  0.35130891950E+03  0.92484024540E+02 0.  0.
          5    1    3    3  502    0  0.20652200897E+02 -0.18348797793E+02  0.12249205719E+03  0.12565661883E+03  0.47000000000E+01 0. -1.
         -5    1    3    3    0  502  0.27133555818E+02 -0.17502078440E+03  0.13266005055E+03  0.22133522954E+03  0.47000000000E+01 0. -1.
        -11    1    4    4    0    0 -0.64167875451E+02  0.11993150383E+03  0.12750607095E+03  0.18643733526E+03  0.00000000000E+00 0. -1.
         11    1    4    4    0    0  0.16382118736E+02  0.73438078356E+02  0.14670076387E+03  0.16487158424E+03  0.00000000000E+00 0.  1.
<mgrwt>
<rscale>  0 0.23117303E+03</rscale>
<asrwt>0</asrwt>
<pdfrwt beam="1">  1        2 0.94435360E-01 0.23516110E+03</pdfrwt>
<pdfrwt beam="2">  1       -2 0.12995525E-01 0.23516110E+03</pdfrwt>
<totfact> 0.21229442E+03</totfact>
</mgrwt>
</event>
<event>
 8    1  0.9424564E-006  0.1663398E+03  0.7546771E-02  0.1188416E+00
          2   -1    0    0  501    0  0.00000000000E+00  0.00000000000E+00  0.21885797274E+03  0.21885797274E+03  0.00000000000E+00 0. -1.
         -2   -1    0    0    0  501 -0.00000000000E+00 -0.00000000000E+00 -0.12791246326E+03  0.12791246326E+03  0.00000000000E+00 0.  1.
         23    2    1    2    0    0 -0.27167931419E+02  0.10632942722E+03 -0.17240815473E+02  0.16723093773E+03  0.12499958890E+03 0.  0.
         23    2    1    2    0    0  0.27167931419E+02 -0.10632942722E+03  0.10818632495E+03  0.17953949827E+03  0.92120068071E+02 0.  0.
          5    1    3    3  502    0  0.40826046505E+02  0.72573340673E+02 -0.32763153656E+02  0.89605636470E+02  0.47000000000E+01 0. -1.
         -5    1    3    3    0  502 -0.67993977924E+02  0.33756086551E+02  0.15522338182E+02  0.77625301261E+02  0.47000000000E+01 0. -1.
        -11    1    4    4    0    0  0.16552322106E+02 -0.11833990359E+03  0.70873672277E+02  0.13892944098E+03  0.00000000000E+00 0.  1.
         11    1    4    4    0    0  0.10615609313E+02  0.12010476367E+02  0.37312652669E+02  0.40610057286E+02  0.00000000000E+00 0. -1.
<mgrwt>
<rscale>  0 0.16024933E+03</rscale>
<asrwt>0</asrwt>
<pdfrwt beam="1">  1        2 0.33670457E-01 0.16633984E+03</pdfrwt>
<pdfrwt beam="2">  1       -2 0.19678841E-01 0.16633984E+03</pdfrwt>
<totfact> 0.32517308E+03</totfact>
</mgrwt>
</event>
<event>
 8    1  0.9424564E-006  0.2773116E+03  0.7546771E-02  0.1099559E+00
         -1   -1    0    0    0  501 -0.00000000000E+00  0.00000000000E+00  0.10734220538E+04  0.10734220538E+04  0.00000000000E+00 0.  1.
          1   -1    0    0  501    0  0.00000000000E+00 -0.00000000000E+00 -0.80389894862E+02  0.80389894862E+02  0.00000000000E+00 0. -1.
         23    2    1    2    0    0 -0.55507043911E+02  0.24123714912E+03  0.74144552261E+03  0.79160798959E+03  0.12500140858E+03 0.  0.
         23    2    1    2    0    0  0.55507043911E+02 -0.24123714912E+03  0.25158663636E+03  0.36220395910E+03  0.81360176694E+02 0.  0.
          5    1    3    3  502    0 -0.78354646984E+02  0.20424375283E+03  0.49346570296E+03  0.53980130721E+03  0.47000000000E+01 0.  1.
         -5    1    3    3    0  502  0.22847603073E+02  0.36993396294E+02  0.24797981965E+03  0.25180668238E+03  0.47000000000E+01 0.  1.
        -11    1    4    4    0    0  0.74854056705E+02 -0.15466509068E+03  0.16313811426E+03  0.23693557015E+03  0.00000000000E+00 0. -1.
         11    1    4    4    0    0 -0.19347012794E+02 -0.86572058449E+02  0.88448522092E+02  0.12526838894E+03  0.00000000000E+00 0.  1.
<mgrwt>
<rscale>  0 0.27302757E+03</rscale>
<asrwt>0</asrwt>
<pdfrwt beam="2">  1        1 0.12367677E-01 0.27731164E+03</pdfrwt>
<pdfrwt beam="1">  1       -1 0.16514184E+00 0.27731164E+03</pdfrwt>
<totfact> 0.14085159E+02</totfact>
</mgrwt>
</event>
<event>
 8    1  0.9424564E-006  0.1219349E+03  0.7546771E-02  0.1250522E+00
         -2   -1    0    0    0  501 -0.00000000000E+00  0.00000000000E+00  0.12259721932E+03  0.12259721932E+03  0.00000000000E+00 0.  1.
          2   -1    0    0  501    0  0.00000000000E+00 -0.00000000000E+00 -0.12338709772E+03  0.12338709772E+03  0.00000000000E+00 0. -1.
         23    2    1    2    0    0 -0.15129452441E+02  0.37356736425E+02  0.53871882733E+02  0.13330528727E+03  0.11508124859E+03 0.  0.
         23    2    1    2    0    0  0.15129452441E+02 -0.37356736425E+02 -0.54661761133E+02  0.11267902976E+03  0.89912343595E+02 0.  0.
          5    1    3    3  502    0 -0.30997312150E+02 -0.21846341271E+02  0.60415053844E+02  0.71485416124E+02  0.47000000000E+01 0. -1.
         -5    1    3    3    0  502  0.15867859709E+02  0.59203077696E+02 -0.65431711111E+01  0.61819871147E+02  0.47000000000E+01 0.  1.
        -11    1    4    4    0    0  0.33804456650E+02  0.17919275190E+02 -0.32723194325E+02  0.50345299280E+02  0.00000000000E+00 0.  1.
         11    1    4    4    0    0 -0.18675004210E+02 -0.55276011616E+02 -0.21938566808E+02  0.62333730483E+02  0.00000000000E+00 0. -1.
<mgrwt>
<rscale>  0 0.11560880E+03</rscale>
<asrwt>0</asrwt>
<pdfrwt beam="2">  1        2 0.18982630E-01 0.12193490E+03</pdfrwt>
<pdfrwt beam="1">  1       -2 0.18861111E-01 0.12193490E+03</pdfrwt>
<totfact> 0.64568624E+03</totfact>
</mgrwt>
</event>
<event>
 8    1  0.9424564E-006  0.1263791E+03  0.7546771E-02  0.1248696E+00
          1   -1    0    0  501    0  0.00000000000E+00  0.00000000000E+00  0.49879161915E+03  0.49879161915E+03  0.00000000000E+00 0. -1.
         -1   -1    0    0    0  501 -0.00000000000E+00 -0.00000000000E+00 -0.30562748183E+02  0.30562748183E+02  0.00000000000E+00 0.  1.
         23    2    1    2    0    0  0.24445466382E+00 -0.18603827434E+02  0.14032711212E+03  0.18884747114E+03  0.12500202721E+03 0.  0.
         23    2    1    2    0    0 -0.24445466382E+00  0.18603827434E+02  0.32790175884E+03  0.34050689619E+03  0.89884485566E+02 0.  0.
          5    1    3    3  502    0 -0.54710979538E+02  0.17465366156E+02  0.85578489450E+02  0.10317023870E+03  0.47000000000E+01 0. -1.
         -5    1    3    3    0  502  0.54955434201E+02 -0.36069193590E+02  0.54748622669E+02  0.85677232440E+02  0.47000000000E+01 0. -1.
        -11    1    4    4    0    0  0.39888568018E+02  0.21662920033E+02  0.11135024496E+03  0.12024665075E+03  0.00000000000E+00 0.  1.
         11    1    4    4    0    0 -0.40133022682E+02 -0.30590925994E+01  0.21655151388E+03  0.22026024544E+03  0.00000000000E+00 0. -1.
<mgrwt>
<rscale>  0 0.11666889E+03</rscale>
<asrwt>0</asrwt>
<pdfrwt beam="1">  1        1 0.76737166E-01 0.12637907E+03</pdfrwt>
<pdfrwt beam="2">  1       -1 0.47019616E-02 0.12637907E+03</pdfrwt>
<totfact> 0.83144879E+03</totfact>
</mgrwt>
</event>
<event>
 8    1  0.9424564E-006  0.1315018E+03  0.7546771E-02  0.1239342E+00
          2   -1    0    0  501    0  0.00000000000E+00  0.00000000000E+00  0.27895410919E+03  0.27895410919E+03  0.00000000000E+00 0. -1.
         -2   -1    0    0    0  501 -0.00000000000E+00 -0.00000000000E+00 -0.54200114818E+02  0.54200114818E+02  0.00000000000E+00 0.  1.
         23    2    1    2    0    0  0.32961702507E+02  0.24134835058E+02  0.67915405620E+02  0.14800413851E+03  0.12499503430E+03 0.  0.
         23    2    1    2    0    0 -0.32961702507E+02 -0.24134835058E+02  0.15683858876E+03  0.18515008550E+03  0.89516742245E+02 0.  0.
          5    1    3    3  502    0  0.89532776122E+01  0.97066574489E+01  0.10238540814E+03  0.10334041891E+03  0.47000000000E+01 0.  1.
         -5    1    3    3    0  502  0.24008424895E+02  0.14428177609E+02 -0.34470002524E+02  0.44663719606E+02  0.47000000000E+01 0.  1.
        -11    1    4    4    0    0 -0.56266991993E+02 -0.33524150413E+02  0.14094426693E+03  0.15541920548E+03  0.00000000000E+00 0. -1.
         11    1    4    4    0    0  0.23305289486E+02  0.93893153552E+01  0.15894321822E+02  0.29730880025E+02  0.00000000000E+00 0.  1.
<mgrwt>
<rscale>  0 0.12230539E+03</rscale>
<asrwt>0</asrwt>
<pdfrwt beam="1">  1        2 0.42916016E-01 0.13150180E+03</pdfrwt>
<pdfrwt beam="2">  1       -2 0.83384794E-02 0.13150180E+03</pdfrwt>
<totfact> 0.98904171E+03</totfact>
</mgrwt>
</event>
<event>
 8    1  0.9424564E-006  0.1660274E+03  0.7546771E-02  0.1188437E+00
         -2   -1    0    0    0  501 -0.00000000000E+00  0.00000000000E+00  0.87622067978E+02  0.87622067978E+02  0.00000000000E+00 0.  1.
          2   -1    0    0  501    0  0.00000000000E+00 -0.00000000000E+00 -0.27430406230E+03  0.27430406230E+03  0.00000000000E+00 0. -1.
         23    2    1    2    0    0  0.10036755464E+03 -0.43200463980E+02 -0.10152296682E+03  0.19460734426E+03  0.12500071814E+03 0.  0.
         23    2    1    2    0    0 -0.10036755464E+03  0.43200463980E+02 -0.85159027496E+02  0.16731878601E+03  0.93827448423E+02 0.  0.
          5    1    3    3  502    0  0.96501350823E+02  0.21175544992E+02 -0.44763263212E+02  0.10856681883E+03  0.47000000000E+01 0.  1.
         -5    1    3    3    0  502  0.38662038135E+01 -0.64376008972E+02 -0.56759703609E+02  0.86040525434E+02  0.47000000000E+01 0.  1.
        -11    1    4    4    0    0 -0.31901389299E+02  0.61464693913E+02 -0.22743487775E+02  0.72889460646E+02  0.00000000000E+00 0.  1.
         11    1    4    4    0    0 -0.68466165337E+02 -0.18264229932E+02 -0.62415539721E+02  0.94429325369E+02  0.00000000000E+00 0. -1.
<mgrwt>
<rscale>  0 0.16023049E+03</rscale>
<asrwt>0</asrwt>
<pdfrwt beam="2">  1        2 0.42200625E-01 0.16602742E+03</pdfrwt>
<pdfrwt beam="1">  1       -2 0.13480318E-01 0.16602742E+03</pdfrwt>
<totfact> 0.47771513E+03</totfact>
</mgrwt>
</event>
<event>
 8    1  0.9424564E-006  0.2112363E+03  0.7546771E-02  0.1144334E+00
         -4   -1    0    0    0  501 -0.00000000000E+00  0.00000000000E+00  0.89585293414E+03  0.89585293414E+03  0.00000000000E+00 0.  1.
          4   -1    0    0  501    0  0.00000000000E+00 -0.00000000000E+00 -0.46120392846E+02  0.46120392846E+02  0.00000000000E+00 0. -1.
         23    2    1    2    0    0 -0.14826465793E+03  0.83750841629E+02  0.49286758345E+03  0.53622686355E+03  0.12499672839E+03 0.  0.
         23    2    1    2    0    0  0.14826465793E+03 -0.83750841629E+02  0.35686495785E+03  0.40574646344E+03  0.90999902137E+02 0.  0.
          5    1    3    3  502    0  0.93854294681E+01  0.40404764073E+02  0.56795346471E+02  0.70487109650E+02  0.47000000000E+01 0.  1.
         -5    1    3    3    0  502 -0.15765008740E+03  0.43346077557E+02  0.43607223698E+03  0.46573975390E+03  0.47000000000E+01 0.  1.
        -11    1    4    4    0    0  0.14311101376E+03 -0.71981473754E+02  0.35862588622E+03  0.39277808123E+03  0.00000000000E+00 0.  1.
         11    1    4    4    0    0  0.51536441716E+01 -0.11769367875E+02 -0.17609283767E+01  0.12968382211E+02  0.00000000000E+00 0. -1.
<mgrwt>
<rscale>  0 0.20654157E+03</rscale>
<asrwt>0</asrwt>
<pdfrwt beam="2">  1        4 0.70954457E-02 0.21123635E+03</pdfrwt>
<pdfrwt beam="1">  1       -4 0.13782352E+00 0.21123635E+03</pdfrwt>
<totfact> 0.95058554E+01</totfact>
</mgrwt>
</event>
<event>
 8    1  0.9424564E-006  0.1492853E+03  0.7546771E-02  0.1210531E+00
         -1   -1    0    0    0  501 -0.00000000000E+00  0.00000000000E+00  0.71741187213E+03  0.71741187213E+03  0.00000000000E+00 0.  1.
          1   -1    0    0  501    0  0.00000000000E+00 -0.00000000000E+00 -0.35262946716E+02  0.35262946716E+02  0.00000000000E+00 0. -1.
         23    2    1    2    0    0 -0.21916465301E+02  0.78669118305E+02  0.56033641902E+03  0.57988188515E+03  0.12496774235E+03 0.  0.
         23    2    1    2    0    0  0.21916465301E+02 -0.78669118305E+02  0.12181250640E+03  0.17279293369E+03  0.91378058597E+02 0.  0.
          5    1    3    3  502    0 -0.18431158572E+02 -0.31261514949E+02  0.97703317988E+02  0.10433129094E+03  0.47000000000E+01 0.  1.
         -5    1    3    3    0  502 -0.34853067293E+01  0.10993063325E+03  0.46263310103E+03  0.47555059421E+03  0.47000000000E+01 0.  1.
        -11    1    4    4    0    0 -0.15544288977E+02 -0.45874160606E+02  0.87046024182E+01  0.49212128936E+02  0.00000000000E+00 0. -1.
         11    1    4    4    0    0  0.37460754279E+02 -0.32794957699E+02  0.11310790398E+03  0.12358080476E+03  0.00000000000E+00 0.  1.
<mgrwt>
<rscale>  0 0.14209974E+03</rscale>
<asrwt>0</asrwt>
<pdfrwt beam="2">  1        1 0.54250693E-02 0.14928529E+03</pdfrwt>
<pdfrwt beam="1">  1       -1 0.11037105E+00 0.14928529E+03</pdfrwt>
<totfact> 0.11765009E+03</totfact>
</mgrwt>
</event>
<event>
 8    1  0.9424564E-006  0.2194904E+03  0.7546771E-02  0.1137644E+00
          1   -1    0    0  501    0  0.00000000000E+00  0.00000000000E+00  0.11492846973E+04  0.11492846973E+04  0.00000000000E+00 0. -1.
         -1   -1    0    0    0  501 -0.00000000000E+00 -0.00000000000E+00 -0.38908561642E+02  0.38908561642E+02  0.00000000000E+00 0.  1.
         23    2    1    2    0    0  0.15113173852E+03  0.98531100729E+02  0.53211385585E+03  0.57560507763E+03  0.12500747824E+03 0.  0.
         23    2    1    2    0    0 -0.15113173852E+03 -0.98531100729E+02  0.57826227978E+03  0.61258818127E+03  0.91256974646E+02 0.  0.
          5    1    3    3  502    0  0.11650406653E+03  0.12556973236E+03  0.46173526499E+03  0.49250634528E+03  0.47000000000E+01 0. -1.
         -5    1    3    3    0  502  0.34627671995E+02 -0.27038631635E+02  0.70378590851E+02  0.83098732353E+02  0.47000000000E+01 0. -1.
        -11    1    4    4    0    0 -0.75849768876E+02 -0.50501544058E+02  0.15324229581E+03  0.17828851510E+03  0.00000000000E+00 0.  1.
         11    1    4    4    0    0 -0.75281969645E+02 -0.48029556672E+02  0.42501998396E+03  0.43429966617E+03  0.00000000000E+00 0. -1.
<mgrwt>
<rscale>  0 0.21502878E+03</rscale>
<asrwt>0</asrwt>
<pdfrwt beam="1">  1        1 0.17681300E+00 0.21949043E+03</pdfrwt>
<pdfrwt beam="2">  1       -1 0.59859334E-02 0.21949043E+03</pdfrwt>
<totfact> 0.16674305E+03</totfact>
</mgrwt>
</event>
<event>
 8    1  0.9424564E-006  0.1808009E+03  0.7546771E-02  0.1172550E+00
         -2   -1    0    0    0  501 -0.00000000000E+00  0.00000000000E+00  0.23924423287E+03  0.23924423287E+03  0.00000000000E+00 0.  1.
          2   -1    0    0  501    0  0.00000000000E+00 -0.00000000000E+00 -0.12090415347E+03  0.12090415347E+03  0.00000000000E+00 0. -1.
         23    2    1    2    0    0  0.89802189749E+01  0.13032176631E+03  0.63203865829E+02  0.19152991857E+03  0.12499829578E+03 0.  0.
         23    2    1    2    0    0 -0.89802189749E+01 -0.13032176631E+03  0.55136213567E+02  0.16861846777E+03  0.91256662886E+02 0.  0.
          5    1    3    3  502    0  0.58702865686E+02  0.61517125776E+02 -0.71098993705E+00  0.85164421622E+02  0.47000000000E+01 0.  1.
         -5    1    3    3    0  502 -0.49722646711E+02  0.68804640529E+02  0.63914855766E+02  0.10636549695E+03  0.47000000000E+01 0.  1.
        -11    1    4    4    0    0  0.36475352294E+02 -0.90713998945E+02  0.23611391635E+02  0.10058319315E+03  0.00000000000E+00 0.  1.
         11    1    4    4    0    0 -0.45455571269E+02 -0.39607767360E+02  0.31524821932E+02  0.68035274619E+02  0.00000000000E+00 0. -1.
<mgrwt>
<rscale>  0 0.17518141E+03</rscale>
<asrwt>0</asrwt>
<pdfrwt beam="2">  1        2 0.18600639E-01 0.18080094E+03</pdfrwt>
<pdfrwt beam="1">  1       -2 0.36806805E-01 0.18080094E+03</pdfrwt>
<totfact> 0.20725664E+03</totfact>
</mgrwt>
</event>
<event>
 8    1  0.9424564E-006  0.1254881E+03  0.7546771E-02  0.1250151E+00
         -1   -1    0    0    0  501 -0.00000000000E+00  0.00000000000E+00  0.12082580374E+02  0.12082580374E+02  0.00000000000E+00 0.  1.
          1   -1    0    0  501    0  0.00000000000E+00 -0.00000000000E+00 -0.99105544034E+03  0.99105544034E+03  0.00000000000E+00 0. -1.
         23    2    1    2    0    0 -0.51340088021E+01 -0.99285075519E+01 -0.63724630146E+03  0.64948449371E+03  0.12498930169E+03 0.  0.
         23    2    1    2    0    0  0.51340088021E+01  0.99285075519E+01 -0.34172655851E+03  0.35365352701E+03  0.90381652260E+02 0.  0.
          5    1    3    3  502    0 -0.79765880638E+01  0.50042939992E+02 -0.14715099335E+03  0.15570300782E+03  0.47000000000E+01 0. -1.
         -5    1    3    3    0  502  0.28425792617E+01 -0.59971447544E+02 -0.49009530811E+03  0.49378148589E+03  0.47000000000E+01 0. -1.
        -11    1    4    4    0    0  0.45232590193E+02 -0.31545875764E+01 -0.12771568587E+03  0.13552577266E+03  0.00000000000E+00 0.  1.
         11    1    4    4    0    0 -0.40098581391E+02  0.13083095128E+02 -0.21401087264E+03  0.21812775435E+03  0.00000000000E+00 0. -1.
<mgrwt>
<rscale>  0 0.11582329E+03</rscale>
<asrwt>0</asrwt>
<pdfrwt beam="2">  1        1 0.15247016E+00 0.12548808E+03</pdfrwt>
<pdfrwt beam="1">  1       -1 0.18588575E-02 0.12548808E+03</pdfrwt>
<totfact> 0.11860925E+04</totfact>
</mgrwt>
</event>
<event>
 7    1  0.9424564E-006  0.3838308E+03  0.7546771E-02  0.1083877E+00
         -2   -1    0    0    0  501 -0.00000000000E+00  0.00000000000E+00  0.34575627502E+03  0.34575627502E+03  0.00000000000E+00 0.  1.
          2   -1    0    0  501    0  0.00000000000E+00 -0.00000000000E+00 -0.33037466281E+03  0.33037466281E+03  0.00000000000E+00 0. -1.
         23    2    1    2    0    0 -0.10606765061E+03 -0.45229679021E+02 -0.18970312972E+03  0.24094611246E+03  0.93657254453E+02 0.  0.
          5    1    1    2  502    0 -0.91114139257E+02 -0.93286376415E+02  0.21573229249E+02  0.13225592092E+03  0.47000000000E+01 0. -1.
         -5    1    1    2    0  502  0.19718178987E+03  0.13851605544E+03  0.18351151268E+03  0.30292890446E+03  0.47000000000E+01 0.  1.
        -11    1    3    3    0    0 -0.12357017587E+03 -0.43190807622E+02 -0.16874466654E+03  0.21356450246E+03  0.00000000000E+00 0. -1.
         11    1    3    3    0    0  0.17502525256E+02 -0.20388713987E+01 -0.20958463184E+02  0.27381609995E+02  0.00000000000E+00 0.  1.
<mgrwt>
<rscale>  0 0.30274336E+03</rscale>
<asrwt>0</asrwt>
<pdfrwt beam="2">  1        2 0.50826872E-01 0.38383080E+03</pdfrwt>
<pdfrwt beam="1">  1       -2 0.53193273E-01 0.38383080E+03</pdfrwt>
<totfact> 0.33433061E+02</totfact>
</mgrwt>
</event>
<event>
 8    1  0.2174724E-005  0.2663864E+03  0.7546771E-02  0.1105972E+00
          2   -1    0    0  501    0  0.00000000000E+00  0.00000000000E+00  0.18181082538E+04  0.18181082538E+04  0.00000000000E+00 0. -1.
         -2   -1    0    0    0  501 -0.00000000000E+00 -0.00000000000E+00 -0.37139384742E+02  0.37139384742E+02  0.00000000000E+00 0.  1.
         23    2    1    2    0    0  0.46473420434E+02 -0.23060112721E+03  0.10375557027E+04  0.10712065805E+04  0.12500017263E+03 0.  0.
         23    2    1    2    0    0 -0.46473420434E+02  0.23060112721E+03  0.74341316631E+03  0.78404105802E+03  0.81979181199E+02 0.  0.
          5    1    3    3  502    0  0.58924761227E+02 -0.11937450541E+03  0.76529046529E+03  0.77679726203E+03  0.47000000000E+01 0.  1.
         -5    1    3    3    0  502 -0.12451340793E+02 -0.11122662180E+03  0.27226523741E+03  0.29440931844E+03  0.47000000000E+01 0.  1.
        -11    1    4    4    0    0 -0.68465904289E+02  0.13951361081E+03  0.46344516261E+03  0.48880778063E+03  0.00000000000E+00 0.  1.
         11    1    4    4    0    0  0.21992483855E+02  0.91087516401E+02  0.27996800370E+03  0.29523327740E+03  0.00000000000E+00 0. -1.
<mgrwt>
<rscale>  0 0.26195885E+03</rscale>
<asrwt>0</asrwt>
<pdfrwt beam="1">  1        2 0.27970889E+00 0.26638638E+03</pdfrwt>
<pdfrwt beam="2">  1       -2 0.57137529E-02 0.26638638E+03</pdfrwt>
<totfact> 0.14781544E+03</totfact>
</mgrwt>
</event>
<event>
 8    1  0.9424564E-006  0.1307356E+03  0.7546771E-02  0.1243588E+00
          3   -1    0    0  501    0  0.00000000000E+00  0.00000000000E+00  0.13376847116E+03  0.13376847116E+03  0.00000000000E+00 0. -1.
         -3   -1    0    0    0  501 -0.00000000000E+00 -0.00000000000E+00 -0.92845315574E+02  0.92845315574E+02  0.00000000000E+00 0.  1.
         23    2    1    2    0    0  0.78495734369E+01  0.37502945012E+02  0.29504773200E+02  0.13402365907E+03  0.12499489135E+03 0.  0.
         23    2    1    2    0    0 -0.78495734369E+01 -0.37502945012E+02  0.11418382388E+02  0.92590127662E+02  0.83513265990E+02 0.  0.
          5    1    3    3  502    0  0.78205736533E+01 -0.35937986807E+02 -0.22990808314E+02  0.43627600609E+02  0.47000000000E+01 0.  1.
         -5    1    3    3    0  502  0.28999783615E-01  0.73440931819E+02  0.52495581515E+02  0.90396058465E+02  0.47000000000E+01 0.  1.
        -11    1    4    4    0    0  0.73112942234E+01 -0.38510790039E+02 -0.29423763748E+02  0.49013200730E+02  0.00000000000E+00 0.  1.
         11    1    4    4    0    0 -0.15160867660E+02  0.10078450268E+01  0.40842146136E+02  0.43576926932E+02  0.00000000000E+00 0. -1.
<mgrwt>
<rscale>  0 0.11970292E+03</rscale>
<asrwt>0</asrwt>
<pdfrwt beam="1">  1        3 0.20579765E-01 0.13073565E+03</pdfrwt>
<pdfrwt beam="2">  1       -3 0.14283895E-01 0.13073565E+03</pdfrwt>
<totfact> 0.19618619E+03</totfact>
</mgrwt>
</event>
<event>
 8    1  0.9424564E-006  0.1906470E+03  0.7546771E-02  0.1162773E+00
          2   -1    0    0  501    0  0.00000000000E+00  0.00000000000E+00  0.35305909312E+02  0.35305909312E+02  0.00000000000E+00 0. -1.
         -2   -1    0    0    0  501 -0.00000000000E+00 -0.00000000000E+00 -0.10898135220E+04  0.10898135220E+04  0.00000000000E+00 0.  1.
         23    2    1    2    0    0 -0.11794945023E+03  0.82503736889E+02 -0.77328424159E+03  0.79643881729E+03  0.12500932756E+03 0.  0.
         23    2    1    2    0    0  0.11794945023E+03 -0.82503736889E+02 -0.28122337112E+03  0.32868061405E+03  0.90694113250E+02 0.  0.
          5    1    3    3  502    0 -0.10652950525E+03  0.15341343777E+02 -0.31083330610E+03  0.32897313948E+03  0.47000000000E+01 0.  1.
         -5    1    3    3    0  502 -0.11419944982E+02  0.67162393112E+02 -0.46245093549E+03  0.46746567780E+03  0.47000000000E+01 0.  1.
        -11    1    4    4    0    0 -0.91473652902E+01  0.93030782458E+01 -0.16828508324E+02  0.21293666876E+02  0.00000000000E+00 0. -1.
         11    1    4    4    0    0  0.12709681552E+03 -0.91806815134E+02 -0.26439486280E+03  0.30738694718E+03  0.00000000000E+00 0.  1.
<mgrwt>
<rscale>  0 0.18529681E+03</rscale>
<asrwt>0</asrwt>
<pdfrwt beam="1">  1        2 0.54316786E-02 0.19064698E+03</pdfrwt>
<pdfrwt beam="2">  1       -2 0.16766361E+00 0.19064698E+03</pdfrwt>
<totfact> 0.33075811E+02</totfact>
</mgrwt>
</event>
<event>
 8    1  0.9424564E-006  0.1300165E+03  0.7546771E-02  0.1239814E+00
         -2   -1    0    0    0  501 -0.00000000000E+00  0.00000000000E+00  0.42747584964E+02  0.42747584964E+02  0.00000000000E+00 0.  1.
          2   -1    0    0  501    0  0.00000000000E+00 -0.00000000000E+00 -0.35295365201E+03  0.35295365201E+03  0.00000000000E+00 0. -1.
         23    2    1    2    0    0 -0.20834411420E+02 -0.28577754826E+02 -0.10523015318E+03  0.16726524609E+03  0.12511401457E+03 0.  0.
         23    2    1    2    0    0  0.20834411420E+02  0.28577754826E+02 -0.20497591387E+03  0.22843599088E+03  0.94430481804E+02 0.  0.
          5    1    3    3  502    0  0.40976312212E+02 -0.17146880332E+02 -0.78214600524E-01  0.44667323460E+02  0.47000000000E+01 0. -1.
         -5    1    3    3    0  502 -0.61810723632E+02 -0.11430874494E+02 -0.10515193858E+03  0.12259792263E+03  0.47000000000E+01 0.  1.
        -11    1    4    4    0    0 -0.29658751058E+02  0.30816797462E+02 -0.52018099543E+02  0.67343887623E+02  0.00000000000E+00 0.  1.
         11    1    4    4    0    0  0.50493162478E+02 -0.22390426362E+01 -0.15295781433E+03  0.16109210326E+03  0.00000000000E+00 0. -1.
<mgrwt>
<rscale>  0 0.12201199E+03</rscale>
<asrwt>0</asrwt>
<pdfrwt beam="2">  1        2 0.54300561E-01 0.13001645E+03</pdfrwt>
<pdfrwt beam="1">  1       -2 0.65765516E-02 0.13001645E+03</pdfrwt>
<totfact> 0.11088202E+04</totfact>
</mgrwt>
</event>
<event>
 8    1  0.9424564E-006  0.1409446E+03  0.7546771E-02  0.1224242E+00
         -3   -1    0    0    0  501 -0.00000000000E+00  0.00000000000E+00  0.11819274893E+03  0.11819274893E+03  0.00000000000E+00 0. -1.
          3   -1    0    0  501    0  0.00000000000E+00 -0.00000000000E+00 -0.15656750671E+03  0.15656750671E+03  0.00000000000E+00 0.  1.
         23    2    1    2    0    0 -0.23654984787E+02 -0.60672757546E+02  0.32570650861E+02  0.14465895753E+03  0.12499849952E+03 0.  0.
         23    2    1    2    0    0  0.23654984787E+02  0.60672757546E+02 -0.70945408641E+02  0.13010129811E+03  0.87477739734E+02 0.  0.
          5    1    3    3  502    0  0.23389081128E+02 -0.70668108453E+02 -0.15848667461E+02  0.76251563450E+02  0.47000000000E+01 0. -1.
         -5    1    3    3    0  502 -0.47044065916E+02  0.99953509067E+01  0.48419318322E+02  0.68407394077E+02  0.47000000000E+01 0. -1.
        -11    1    4    4    0    0  0.46065929250E+02  0.70389003672E+02 -0.49562532790E+02  0.97637730064E+02  0.00000000000E+00 0.  1.
         11    1    4    4    0    0 -0.22410944463E+02 -0.97162461261E+01 -0.21382875851E+02  0.32463568045E+02  0.00000000000E+00 0. -1.
<mgrwt>
<rscale>  0 0.13218984E+03</rscale>
<asrwt>0</asrwt>
<pdfrwt beam="2">  1        3 0.24087309E-01 0.14094455E+03</pdfrwt>
<pdfrwt beam="1">  1       -3 0.18183500E-01 0.14094455E+03</pdfrwt>
<totfact> 0.99010512E+02</totfact>
</mgrwt>
</event>
<event>
 8    1  0.9424564E-006  0.1323861E+03  0.7546771E-02  0.1228168E+00
          2   -1    0    0  501    0  0.00000000000E+00  0.00000000000E+00  0.32954763266E+02  0.32954763266E+02  0.00000000000E+00 0. -1.
         -2   -1    0    0    0  501 -0.00000000000E+00 -0.00000000000E+00 -0.66956692279E+03  0.66956692279E+03  0.00000000000E+00 0.  1.
         23    2    1    2    0    0 -0.40837350301E+02  0.15251863505E+02 -0.51114800950E+03  0.52801359303E+03  0.12500303311E+03 0.  0.
         23    2    1    2    0    0  0.40837350301E+02 -0.15251863505E+02 -0.12546415002E+03  0.17450809302E+03  0.11318795461E+03 0.  0.
          5    1    3    3  502    0 -0.61279581258E+02 -0.37966435292E+02 -0.22896537337E+03  0.24009137738E+03  0.47000000000E+01 0.  1.
         -5    1    3    3    0  502  0.20442230957E+02  0.53218298797E+02 -0.28218263613E+03  0.28792221565E+03  0.47000000000E+01 0.  1.
        -11    1    4    4    0    0  0.74963613466E+01 -0.61123767183E+02 -0.84467121981E+02  0.10453231579E+03  0.00000000000E+00 0.  1.
         11    1    4    4    0    0  0.33340988955E+02  0.45871903678E+02 -0.40997028040E+02  0.69975777235E+02  0.00000000000E+00 0. -1.
<mgrwt>
<rscale>  0 0.12952094E+03</rscale>
<asrwt>0</asrwt>
<pdfrwt beam="1">  1        2 0.50699641E-02 0.13238605E+03</pdfrwt>
<pdfrwt beam="2">  1       -2 0.10301028E+00 0.13238605E+03</pdfrwt>
<totfact> 0.11938242E+03</totfact>
</mgrwt>
</event>
<event>
 8    1  0.9424564E-006  0.1430831E+03  0.7546771E-02  0.1220106E+00
         -2   -1    0    0    0  501 -0.00000000000E+00  0.00000000000E+00  0.37063649925E+02  0.37063649925E+02  0.00000000000E+00 0. -1.
          2   -1    0    0  501    0  0.00000000000E+00 -0.00000000000E+00 -0.50048227414E+03  0.50048227414E+03  0.00000000000E+00 0.  1.
         23    2    1    2    0    0  0.62259602225E+02 -0.31111631895E+02 -0.16603115513E+03  0.21917829101E+03  0.12501434746E+03 0.  0.
         23    2    1    2    0    0 -0.62259602225E+02  0.31111631895E+02 -0.29738746908E+03  0.31836763305E+03  0.89857950660E+02 0.  0.
          5    1    3    3  502    0  0.22653067933E+02 -0.43304072442E+02 -0.11564642190E+01  0.49110402017E+02  0.47000000000E+01 0. -1.
         -5    1    3    3    0  502  0.39606534292E+02  0.12192440546E+02 -0.16487469091E+03  0.17006788899E+03  0.47000000000E+01 0. -1.
        -11    1    4    4    0    0 -0.80631361531E+02  0.70981390438E+01 -0.24319126557E+03  0.25630800161E+03  0.00000000000E+00 0.  1.
         11    1    4    4    0    0  0.18371759306E+02  0.24013492851E+02 -0.54196203510E+02  0.62059631435E+02  0.00000000000E+00 0. -1.
<mgrwt>
<rscale>  0 0.13508073E+03</rscale>
<asrwt>0</asrwt>
<pdfrwt beam="2">  1        2 0.76997268E-01 0.14308312E+03</pdfrwt>
<pdfrwt beam="1">  1       -2 0.57021004E-02 0.14308312E+03</pdfrwt>
<totfact> 0.95210747E+03</totfact>
</mgrwt>
</event>
<event>
 8    1  0.9424564E-006  0.1952613E+03  0.7546771E-02  0.1157973E+00
         -1   -1    0    0    0  501 -0.00000000000E+00  0.00000000000E+00  0.82594410803E+03  0.82594410803E+03  0.00000000000E+00 0.  1.
          1   -1    0    0  501    0  0.00000000000E+00 -0.00000000000E+00 -0.42226236328E+02  0.42226236328E+02  0.00000000000E+00 0. -1.
         23    2    1    2    0    0 -0.13125245742E+03  0.72615010592E+02  0.44537820046E+03  0.48630104356E+03  0.12500726448E+03 0.  0.
         23    2    1    2    0    0  0.13125245742E+03 -0.72615010592E+02  0.33833967124E+03  0.38186930080E+03  0.94075939642E+02 0.  0.
          5    1    3    3  502    0 -0.32579670991E+02  0.29589230150E+02  0.31064552077E+03  0.31378286613E+03  0.47000000000E+01 0. -1.
         -5    1    3    3    0  502 -0.98672786431E+02  0.43025780442E+02  0.13473267970E+03  0.17251817743E+03  0.47000000000E+01 0. -1.
        -11    1    4    4    0    0  0.50392710574E+02 -0.51483086549E+02  0.25037145746E+03  0.26052984510E+03  0.00000000000E+00 0.  1.
         11    1    4    4    0    0  0.80859746848E+02 -0.21131924044E+02  0.87968213782E+02  0.12133945570E+03  0.00000000000E+00 0. -1.
<mgrwt>
<rscale>  0 0.19054279E+03</rscale>
<asrwt>0</asrwt>
<pdfrwt beam="2">  1        1 0.64963447E-02 0.19526127E+03</pdfrwt>
<pdfrwt beam="1">  1       -1 0.12706831E+00 0.19526127E+03</pdfrwt>
<totfact> 0.66421022E+02</totfact>
</mgrwt>
</event>
<event>
 8    1  0.9424564E-006  0.1373184E+03  0.7546771E-02  0.1224806E+00
         -1   -1    0    0    0  501 -0.00000000000E+00  0.00000000000E+00  0.14746720269E+03  0.14746720269E+03  0.00000000000E+00 0.  1.
          1   -1    0    0  501    0  0.00000000000E+00 -0.00000000000E+00 -0.12176356923E+03  0.12176356923E+03  0.00000000000E+00 0. -1.
         23    2    1    2    0    0 -0.68769751188E+02  0.15516240145E+02  0.56805375922E+02  0.14860418423E+03  0.11784023274E+03 0.  0.
         23    2    1    2    0    0  0.68769751188E+02 -0.15516240145E+02 -0.31101742460E+02  0.12062658769E+03  0.92808528091E+02 0.  0.
          5    1    3    3  502    0 -0.59042215464E+02  0.56120640382E+02  0.47846912215E+01  0.81734281387E+02  0.47000000000E+01 0. -1.
         -5    1    3    3    0  502 -0.97275357235E+01 -0.40604400237E+02  0.52020684700E+02  0.66869902846E+02  0.47000000000E+01 0.  1.
        -11    1    4    4    0    0  0.46866829350E+01  0.23136252620E+02 -0.38776266445E+02  0.45396586013E+02  0.00000000000E+00 0. -1.
         11    1    4    4    0    0  0.64083068253E+02 -0.38652492765E+02  0.76745239847E+01  0.75230001675E+02  0.00000000000E+00 0.  1.
<mgrwt>
<rscale>  0 0.13180228E+03</rscale>
<asrwt>0</asrwt>
<pdfrwt beam="2">  1        1 0.18732857E-01 0.13731844E+03</pdfrwt>
<pdfrwt beam="1">  1       -1 0.22687262E-01 0.13731844E+03</pdfrwt>
<totfact> 0.43643120E+03</totfact>
</mgrwt>
</event>
<event>
 8    1  0.9424564E-006  0.1993884E+03  0.7546771E-02  0.1154257E+00
          1   -1    0    0  501    0  0.00000000000E+00  0.00000000000E+00  0.86086435689E+02  0.86086435689E+02  0.00000000000E+00 0. -1.
         -1   -1    0    0    0  501 -0.00000000000E+00 -0.00000000000E+00 -0.44952818883E+03  0.44952818883E+03  0.00000000000E+00 0.  1.
         23    2    1    2    0    0 -0.42359494938E+02  0.14945063660E+03 -0.25698589859E+03  0.32526525515E+03  0.12500365811E+03 0.  0.
         23    2    1    2    0    0  0.42359494938E+02 -0.14945063660E+03 -0.10645585455E+03  0.21034936937E+03  0.93724002454E+02 0.  0.
          5    1    3    3  502    0  0.23221311260E+02  0.71923799859E+02 -0.18727478911E+03  0.20200544280E+03  0.47000000000E+01 0. -1.
         -5    1    3    3    0  502 -0.65580806198E+02  0.77526836736E+02 -0.69711109477E+02  0.12325981235E+03  0.47000000000E+01 0. -1.
        -11    1    4    4    0    0  0.20117427528E+02 -0.14813428797E+03 -0.11269327664E+03  0.18721178586E+03  0.00000000000E+00 0.  1.
         11    1    4    4    0    0  0.22242067410E+02 -0.13163486267E+01  0.62374220976E+01  0.23137583513E+02  0.00000000000E+00 0. -1.
<mgrwt>
<rscale>  0 0.19473657E+03</rscale>
<asrwt>0</asrwt>
<pdfrwt beam="1">  1        1 0.13244067E-01 0.19938840E+03</pdfrwt>
<pdfrwt beam="2">  1       -1 0.69158184E-01 0.19938840E+03</pdfrwt>
<totfact> 0.96126408E+02</totfact>
</mgrwt>
</event>
<event>
 8    1  0.9424564E-006  0.1369129E+03  0.7546771E-02  0.1228505E+00
         -4   -1    0    0    0  501 -0.00000000000E+00  0.00000000000E+00  0.13288454378E+03  0.13288454378E+03  0.00000000000E+00 0.  1.
          4   -1    0    0  501    0  0.00000000000E+00 -0.00000000000E+00 -0.11461698612E+03  0.11461698612E+03  0.00000000000E+00 0. -1.
         23    2    1    2    0    0 -0.56043157555E+02 -0.10694056841E+01  0.21337426022E+02  0.13856557210E+03  0.12491258097E+03 0.  0.
         23    2    1    2    0    0  0.56043157555E+02  0.10694056841E+01 -0.30698683585E+01  0.10893595780E+03  0.93357590337E+02 0.  0.
          5    1    3    3  502    0 -0.62460355339E+02 -0.54374075766E+02  0.10725712175E+02  0.83635919353E+02  0.47000000000E+01 0.  1.
         -5    1    3    3    0  502  0.64171977839E+01  0.53304670082E+02  0.10611713848E+02  0.54929652745E+02  0.47000000000E+01 0.  1.
        -11    1    4    4    0    0  0.25386966922E+01  0.32361598636E+02  0.24922499597E+02  0.40924919466E+02  0.00000000000E+00 0.  1.
         11    1    4    4    0    0  0.53504460863E+02 -0.31292192952E+02 -0.27992367955E+02  0.68011038337E+02  0.00000000000E+00 0. -1.
<mgrwt>
<rscale>  0 0.12929534E+03</rscale>
<asrwt>0</asrwt>
<pdfrwt beam="2">  1        4 0.17633383E-01 0.13691286E+03</pdfrwt>
<pdfrwt beam="1">  1       -4 0.20443776E-01 0.13691286E+03</pdfrwt>
<totfact> 0.10145807E+03</totfact>
</mgrwt>
</event>
<event>
 8    1  0.9424564E-006  0.2073475E+03  0.7546771E-02  0.1147574E+00
          4   -1    0    0  501    0  0.00000000000E+00  0.00000000000E+00  0.21104588553E+02  0.21104588553E+02  0.00000000000E+00 0. -1.
         -4   -1    0    0    0  501 -0.00000000000E+00 -0.00000000000E+00 -0.20048795037E+04  0.20048795037E+04  0.00000000000E+00 0.  1.
         23    2    1    2    0    0  0.16318662754E+02 -0.16461988496E+03 -0.13062455992E+04  0.13225999220E+04  0.12500793153E+03 0.  0.
         23    2    1    2    0    0 -0.16318662754E+02  0.16461988496E+03 -0.67752931592E+03  0.70338417024E+03  0.91308880865E+02 0.  0.
          5    1    3    3  502    0  0.55466626751E+02 -0.14117298872E+03 -0.11430546715E+04  0.11530838787E+04  0.47000000000E+01 0. -1.
         -5    1    3    3    0  502 -0.39147963997E+02 -0.23446896242E+02 -0.16319092772E+03  0.16951604325E+03  0.47000000000E+01 0. -1.
        -11    1    4    4    0    0 -0.48477784915E+02  0.13814479523E+03 -0.55412013701E+03  0.57313454469E+03  0.00000000000E+00 0. -1.
         11    1    4    4    0    0  0.32159122160E+02  0.26475089730E+02 -0.12340917892E+03  0.13024962555E+03  0.00000000000E+00 0.  1.
<mgrwt>
<rscale>  0 0.20258752E+03</rscale>
<asrwt>0</asrwt>
<pdfrwt beam="1">  1        4 0.32468600E-02 0.20734751E+03</pdfrwt>
<pdfrwt beam="2">  1       -4 0.30844298E+00 0.20734751E+03</pdfrwt>
<totfact> 0.28041675E+01</totfact>
</mgrwt>
</event>
<event>
 8    1  0.9424564E-006  0.1202135E+03  0.7546771E-02  0.1251848E+00
         -1   -1    0    0    0  501 -0.00000000000E+00  0.00000000000E+00  0.12266075717E+03  0.12266075717E+03  0.00000000000E+00 0.  1.
          1   -1    0    0  501    0  0.00000000000E+00 -0.00000000000E+00 -0.10568759190E+03  0.10568759190E+03  0.00000000000E+00 0. -1.
         23    2    1    2    0    0 -0.23651208568E+02 -0.33788150397E+02  0.37892223699E+02  0.12604406897E+03  0.11291708432E+03 0.  0.
         23    2    1    2    0    0  0.23651208568E+02  0.33788150397E+02 -0.20919058422E+02  0.10230428010E+03  0.91255355717E+02 0.  0.
          5    1    3    3  502    0 -0.63999620450E+02 -0.39209566969E+02  0.86479045136E+01  0.75698202172E+02  0.47000000000E+01 0. -1.
         -5    1    3    3    0  502  0.40348411881E+02  0.54214165724E+01  0.29244319186E+02  0.50345866798E+02  0.47000000000E+01 0.  1.
        -11    1    4    4    0    0  0.22967432599E+02  0.46085873922E+02 -0.49348789567E+02  0.71321201386E+02  0.00000000000E+00 0.  1.
         11    1    4    4    0    0  0.68377596904E+00 -0.12297723526E+02  0.28429731145E+02  0.30983078712E+02  0.00000000000E+00 0. -1.
<mgrwt>
<rscale>  0 0.11484703E+03</rscale>
<asrwt>0</asrwt>
<pdfrwt beam="2">  1        1 0.16259630E-01 0.12021350E+03</pdfrwt>
<pdfrwt beam="1">  1       -1 0.18870886E-01 0.12021350E+03</pdfrwt>
<totfact> 0.69730479E+03</totfact>
</mgrwt>
</event>
<event>
 8    1  0.9424564E-006  0.1712706E+03  0.7546771E-02  0.1183057E+00
          1   -1    0    0  501    0  0.00000000000E+00  0.00000000000E+00  0.62189168068E+02  0.62189168068E+02  0.00000000000E+00 0. -1.
         -1   -1    0    0    0  501 -0.00000000000E+00 -0.00000000000E+00 -0.41854408279E+03  0.41854408279E+03  0.00000000000E+00 0.  1.
         23    2    1    2    0    0 -0.10149179345E+03  0.58379557690E+02 -0.22621246096E+03  0.28373524035E+03  0.12499940893E+03 0.  0.
         23    2    1    2    0    0  0.10149179345E+03 -0.58379557690E+02 -0.13014245376E+03  0.19699801050E+03  0.90346006972E+02 0.  0.
          5    1    3    3  502    0 -0.67656599475E+02  0.93434336303E+02 -0.19192319762E+03  0.22397320027E+03  0.47000000000E+01 0.  1.
         -5    1    3    3    0  502 -0.33835193979E+02 -0.35054778613E+02 -0.34289263336E+02  0.59762040087E+02  0.47000000000E+01 0.  1.
        -11    1    4    4    0    0  0.92212599929E+02 -0.14301902030E+02 -0.11782362171E+03  0.15030007924E+03  0.00000000000E+00 0.  1.
         11    1    4    4    0    0  0.92791935256E+01 -0.44077655660E+02 -0.12318832055E+02  0.46697931262E+02  0.00000000000E+00 0. -1.
<mgrwt>
<rscale>  0 0.16509961E+03</rscale>
<asrwt>0</asrwt>
<pdfrwt beam="1">  1        1 0.95675644E-02 0.17127057E+03</pdfrwt>
<pdfrwt beam="2">  1       -1 0.64391397E-01 0.17127057E+03</pdfrwt>
<totfact> 0.16968049E+03</totfact>
</mgrwt>
</event>
<event>
 7    1  0.9424564E-006  0.1238915E+03  0.7546771E-02  0.1275891E+00
         -2   -1    0    0    0  501 -0.00000000000E+00  0.00000000000E+00  0.77379815780E+02  0.77379815780E+02  0.00000000000E+00 0.  1.
          2   -1    0    0  501    0  0.00000000000E+00 -0.00000000000E+00 -0.11554427987E+03  0.11554427987E+03  0.00000000000E+00 0. -1.
         23    2    1    2    0    0  0.14025551907E+02 -0.32079603870E+02  0.48224125213E+00  0.12389247439E+03  0.11884147240E+03 0.  0.
          5    1    3    3  502    0  0.32825672928E+02 -0.72128421184E+02  0.12244421064E+01  0.79395360092E+02  0.47000000000E+01 0. -1.
         -5    1    3    3    0  502 -0.18800121020E+02  0.40048817314E+02 -0.74220085428E+00  0.44497114297E+02  0.47000000000E+01 0.  1.
        -11    1    1    2    0    0  0.16183921655E+02  0.12570402141E+02 -0.19514717675E+02  0.28297677220E+02  0.00000000000E+00 0. -1.
         11    1    1    2    0    0 -0.30209473562E+02  0.19509201729E+02 -0.19131987665E+02  0.40733944040E+02  0.00000000000E+00 0.  1.
<mgrwt>
<rscale>  0 0.10212440E+03</rscale>
<asrwt>0</asrwt>
<pdfrwt beam="2">  1        2 0.17776043E-01 0.12389154E+03</pdfrwt>
<pdfrwt beam="1">  1       -2 0.11904587E-01 0.12389154E+03</pdfrwt>
<totfact> 0.14758186E+04</totfact>
</mgrwt>
</event>
<event>
 7    1  0.9424564E-006  0.3278792E+03  0.7546771E-02  0.1108220E+00
          2   -1    0    0  501    0  0.00000000000E+00  0.00000000000E+00  0.45851163052E+03  0.45851163052E+03  0.00000000000E+00 0. -1.
         -2   -1    0    0    0  501 -0.00000000000E+00 -0.00000000000E+00 -0.11482085309E+03  0.11482085309E+03  0.00000000000E+00 0.  1.
         23    2    1    2    0    0 -0.19359855050E+02  0.84259899342E+02  0.13460701919E+03  0.18446129651E+03  0.91828022245E+02 0.  0.
          5    1    1    2  502    0 -0.16715981601E+02 -0.61379390644E+02  0.29017046040E+03  0.29709904026E+03  0.47000000000E+01 0. -1.
         -5    1    1    2    0  502  0.36075836651E+02 -0.22880508698E+02 -0.81086702157E+02  0.91772146837E+02  0.47000000000E+01 0.  1.
        -11    1    3    3    0    0  0.84403304203E+01 -0.12700475426E+02 -0.11967652692E+01  0.15296192362E+02  0.00000000000E+00 0.  1.
         11    1    3    3    0    0 -0.27800185471E+02  0.96960374769E+02  0.13580378446E+03  0.16916510415E+03  0.00000000000E+00 0. -1.
<mgrwt>
<rscale>  0 0.25821632E+03</rscale>
<asrwt>0</asrwt>
<pdfrwt beam="1">  1        2 0.70540250E-01 0.32787922E+03</pdfrwt>
<pdfrwt beam="2">  1       -2 0.17664747E-01 0.32787922E+03</pdfrwt>
<totfact> 0.17872265E+03</totfact>
</mgrwt>
</event>
<event>
 8    1  0.9424564E-006  0.1579137E+03  0.7546771E-02  0.1199033E+00
          2   -1    0    0  501    0  0.00000000000E+00  0.00000000000E+00  0.32725502236E+02  0.32725502236E+02  0.00000000000E+00 0. -1.
         -2   -1    0    0    0  501 -0.00000000000E+00 -0.00000000000E+00 -0.89196133973E+03  0.89196133973E+03  0.00000000000E+00 0.  1.
         23    2    1    2    0    0 -0.50471864474E+02 -0.82211710048E+02 -0.69926867533E+03  0.71687754093E+03  0.12502221413E+03 0.  0.
         23    2    1    2    0    0  0.50471864474E+02  0.82211710048E+02 -0.15996716217E+03  0.20780930103E+03  0.91044155509E+02 0.  0.
          5    1    3    3  502    0 -0.83290488909E+01  0.25789275766E+02 -0.29524867956E+03  0.29652711948E+03  0.47000000000E+01 0.  1.
         -5    1    3    3    0  502 -0.42142815583E+02 -0.10800098581E+03 -0.40401999576E+03  0.42035042146E+03  0.47000000000E+01 0.  1.
        -11    1    4    4    0    0  0.33611729075E+01  0.51926738864E+02 -0.13828875672E+03  0.14775474249E+03  0.00000000000E+00 0.  1.
         11    1    4    4    0    0  0.47110691567E+02  0.30284971183E+02 -0.21678405445E+02  0.60054558546E+02  0.00000000000E+00 0. -1.
<mgrwt>
<rscale>  0 0.15117818E+03</rscale>
<asrwt>0</asrwt>
<pdfrwt beam="1">  1        2 0.50346920E-02 0.15791367E+03</pdfrwt>
<pdfrwt beam="2">  1       -2 0.13722484E+00 0.15791367E+03</pdfrwt>
<totfact> 0.60975178E+02</totfact>
</mgrwt>
</event>
<event>
 8    1  0.9424564E-006  0.1552213E+03  0.7546771E-02  0.1202299E+00
          2   -1    0    0  501    0  0.00000000000E+00  0.00000000000E+00  0.18184449393E+03  0.18184449393E+03  0.00000000000E+00 0. -1.
         -2   -1    0    0    0  501 -0.00000000000E+00 -0.00000000000E+00 -0.11194341851E+03  0.11194341851E+03  0.00000000000E+00 0.  1.
         23    2    1    2    0    0  0.67097926832E+02  0.62974064476E+02  0.36572048500E+02  0.15947149613E+03  0.12500311502E+03 0.  0.
         23    2    1    2    0    0 -0.67097926832E+02 -0.62974064476E+02  0.33329026916E+02  0.13431641632E+03  0.91990277068E+02 0.  0.
          5    1    3    3  502    0  0.50947265062E+02 -0.30613607938E+02  0.78283565659E+01  0.60134765110E+02  0.47000000000E+01 0. -1.
         -5    1    3    3    0  502  0.16150661770E+02  0.93587672414E+02  0.28743691934E+02  0.99336731018E+02  0.47000000000E+01 0. -1.
        -11    1    4    4    0    0 -0.10595422878E+02 -0.68642289724E+01 -0.30017094487E+02  0.32563884701E+02  0.00000000000E+00 0.  1.
         11    1    4    4    0    0 -0.56502503954E+02 -0.56109835503E+02  0.63346121403E+02  0.10175253161E+03  0.00000000000E+00 0. -1.
<mgrwt>
<rscale>  0 0.14852371E+03</rscale>
<asrwt>0</asrwt>
<pdfrwt beam="1">  1        2 0.27976076E-01 0.15522127E+03</pdfrwt>
<pdfrwt beam="2">  1       -2 0.17222064E-01 0.15522127E+03</pdfrwt>
<totfact> 0.49580222E+03</totfact>
</mgrwt>
</event>
<event>
 8    1  0.9424564E-006  0.1259432E+03  0.7546771E-02  0.1248662E+00
         -1   -1    0    0    0  501 -0.00000000000E+00  0.00000000000E+00  0.13228960926E+03  0.13228960926E+03  0.00000000000E+00 0.  1.
          1   -1    0    0  501    0  0.00000000000E+00 -0.00000000000E+00 -0.99888640760E+02  0.99888640760E+02  0.00000000000E+00 0. -1.
         23    2    1    2    0    0 -0.84808230937E+01 -0.12863989914E+02  0.53768899691E+02  0.13694083518E+03  0.12499716465E+03 0.  0.
         23    2    1    2    0    0  0.84808230937E+01  0.12863989914E+02 -0.21367931188E+02  0.95237414841E+02  0.91521418835E+02 0.  0.
          5    1    3    3  502    0  0.19572098352E+02  0.26647168059E+02  0.76305373816E+02  0.83293088986E+02  0.47000000000E+01 0. -1.
         -5    1    3    3    0  502 -0.28052921446E+02 -0.39511157974E+02 -0.22536474125E+02  0.53647746197E+02  0.47000000000E+01 0. -1.
        -11    1    4    4    0    0  0.28092844321E+02 -0.23722418490E+01 -0.49959816001E+02  0.57365657394E+02  0.00000000000E+00 0. -1.
         11    1    4    4    0    0 -0.19612021228E+02  0.15236231763E+02  0.28591884813E+02  0.37871757447E+02  0.00000000000E+00 0.  1.
<mgrwt>
<rscale>  0 0.11668877E+03</rscale>
<asrwt>0</asrwt>
<pdfrwt beam="2">  1        1 0.15367483E-01 0.12594323E+03</pdfrwt>
<pdfrwt beam="1">  1       -1 0.20352247E-01 0.12594323E+03</pdfrwt>
<totfact> 0.66679815E+03</totfact>
</mgrwt>
</event>
<event>
 8    1  0.9424564E-006  0.2457606E+03  0.7546771E-02  0.1118369E+00
         -2   -1    0    0    0  501 -0.00000000000E+00  0.00000000000E+00  0.79491862369E+03  0.79491862369E+03  0.00000000000E+00 0.  1.
          2   -1    0    0  501    0  0.00000000000E+00 -0.00000000000E+00 -0.81412524609E+02  0.81412524609E+02  0.00000000000E+00 0. -1.
         23    2    1    2    0    0 -0.21146195374E+03 -0.76509350964E+01  0.51751717210E+03  0.57290686280E+03  0.12499422122E+03 0.  0.
         23    2    1    2    0    0  0.21146195374E+03  0.76509350964E+01  0.19598892699E+03  0.30342428550E+03  0.94233448648E+02 0.  0.
          5    1    3    3  502    0 -0.16152902587E+03  0.20549731079E+02  0.47267708726E+03  0.49995963484E+03  0.47000000000E+01 0.  1.
         -5    1    3    3    0  502 -0.49932927876E+02 -0.28200666175E+02  0.44840084833E+02  0.72947227959E+02  0.47000000000E+01 0.  1.
        -11    1    4    4    0    0  0.19352714635E+03  0.21926523701E+02  0.13154995065E+03  0.23502961161E+03  0.00000000000E+00 0. -1.
         11    1    4    4    0    0  0.17934807392E+02 -0.14275588605E+02  0.64438976337E+02  0.68394673898E+02  0.00000000000E+00 0.  1.
<mgrwt>
<rscale>  0 0.24215032E+03</rscale>
<asrwt>0</asrwt>
<pdfrwt beam="2">  1        2 0.12525004E-01 0.24576055E+03</pdfrwt>
<pdfrwt beam="1">  1       -2 0.12229517E+00 0.24576055E+03</pdfrwt>
<totfact> 0.25740163E+02</totfact>
</mgrwt>
</event>
<event>
 8    1  0.9424564E-006  0.1304082E+03  0.7546771E-02  0.1240654E+00
          1   -1    0    0  501    0  0.00000000000E+00  0.00000000000E+00  0.26279942678E+03  0.26279942678E+03  0.00000000000E+00 0. -1.
         -1   -1    0    0    0  501 -0.00000000000E+00 -0.00000000000E+00 -0.50527500096E+02  0.50527500096E+02  0.00000000000E+00 0.  1.
         23    2    1    2    0    0 -0.85006556035E+01  0.36196210294E+02  0.14027401475E+03  0.19152831381E+03  0.12499547589E+03 0.  0.
         23    2    1    2    0    0  0.85006556035E+01 -0.36196210294E+02  0.71997911941E+02  0.12179861307E+03  0.90932810556E+02 0.  0.
          5    1    3    3  502    0  0.27601656226E+02  0.66825718984E+02  0.45704753247E+02  0.85665294102E+02  0.47000000000E+01 0. -1.
         -5    1    3    3    0  502 -0.36102311829E+02 -0.30629508690E+02  0.94569261500E+02  0.10586301971E+03  0.47000000000E+01 0. -1.
        -11    1    4    4    0    0  0.48461364849E+02 -0.24641989700E+02  0.53492743003E+02  0.76270604386E+02  0.00000000000E+00 0.  1.
         11    1    4    4    0    0 -0.39960709246E+02 -0.11554220595E+02  0.18505168939E+02  0.45528008680E+02  0.00000000000E+00 0. -1.
<mgrwt>
<rscale>  0 0.12149302E+03</rscale>
<asrwt>0</asrwt>
<pdfrwt beam="1">  1        1 0.40430680E-01 0.13040819E+03</pdfrwt>
<pdfrwt beam="2">  1       -1 0.77734617E-02 0.13040819E+03</pdfrwt>
<totfact> 0.88066323E+03</totfact>
</mgrwt>
</event>
<event>
 7    1  0.9424564E-006  0.5050495E+03  0.7546771E-02  0.1012469E+00
          2   -1    0    0  501    0  0.00000000000E+00  0.00000000000E+00  0.69227946372E+03  0.69227946372E+03  0.00000000000E+00 0. -1.
         -2   -1    0    0    0  501 -0.00000000000E+00 -0.00000000000E+00 -0.92114172896E+02  0.92114172896E+02  0.00000000000E+00 0.  1.
         23    2    1    2    0    0 -0.15534643999E+03 -0.45398753894E+02  0.18236934554E+03  0.26220915742E+03  0.96444288442E+02 0.  0.
          5    1    1    2  502    0 -0.46686006140E+02  0.79876972438E+02  0.21364585038E+03  0.23286595560E+03  0.47000000000E+01 0. -1.
         -5    1    1    2    0  502  0.20203244612E+03 -0.34478218544E+02  0.20415009490E+03  0.28931852359E+03  0.47000000000E+01 0.  1.
        -11    1    3    3    0    0 -0.11002050420E+03 -0.64912317471E+02  0.86163616442E+02  0.15408533059E+03  0.00000000000E+00 0.  1.
         11    1    3    3    0    0 -0.45325935783E+02  0.19513563576E+02  0.96205729099E+02  0.10812382684E+03  0.00000000000E+00 0. -1.
<mgrwt>
<rscale>  0 0.50504950E+03</rscale>
<asrwt>0</asrwt>
<pdfrwt beam="1">  1        2 0.10650453E+00 0.50504950E+03</pdfrwt>
<pdfrwt beam="2">  1       -2 0.14171412E-01 0.50504950E+03</pdfrwt>
<totfact> 0.16041158E+03</totfact>
</mgrwt>
</event>
<event>
 8    1  0.9424564E-006  0.1210365E+03  0.7546771E-02  0.1251822E+00
          4   -1    0    0  501    0  0.00000000000E+00  0.00000000000E+00  0.16362346362E+03  0.16362346362E+03  0.00000000000E+00 0. -1.
         -4   -1    0    0    0  501 -0.00000000000E+00 -0.00000000000E+00 -0.79390774705E+02  0.79390774705E+02  0.00000000000E+00 0.  1.
         23    2    1    2    0    0 -0.17016953162E+02  0.30122231919E+02  0.13012134287E+02  0.12173394388E+03  0.11598668848E+03 0.  0.
         23    2    1    2    0    0  0.17016953162E+02 -0.30122231919E+02  0.71220554628E+02  0.12128029444E+03  0.91867387400E+02 0.  0.
          5    1    3    3  502    0  0.34800222719E+02  0.53375600025E+02  0.99556270441E+01  0.64662312742E+02  0.47000000000E+01 0. -1.
         -5    1    3    3    0  502 -0.51817175881E+02 -0.23253368107E+02  0.30565072429E+01  0.57071631141E+02  0.47000000000E+01 0.  1.
        -11    1    4    4    0    0  0.15199672736E+02 -0.60794350533E+02  0.28968335425E+02  0.69037291120E+02  0.00000000000E+00 0.  1.
         11    1    4    4    0    0  0.18172804256E+01  0.30672118614E+02  0.42252219204E+02  0.52243003321E+02  0.00000000000E+00 0. -1.
<mgrwt>
<rscale>  0 0.11486229E+03</rscale>
<asrwt>0</asrwt>
<pdfrwt beam="1">  1        4 0.25172840E-01 0.12103651E+03</pdfrwt>
<pdfrwt beam="2">  1       -4 0.12213965E-01 0.12103651E+03</pdfrwt>
<totfact> 0.12809095E+03</totfact>
</mgrwt>
</event>
<event>
 8    1  0.9424564E-006  0.1828936E+03  0.7546771E-02  0.1170440E+00
         -1   -1    0    0    0  501 -0.00000000000E+00  0.00000000000E+00  0.10024292665E+03  0.10024292665E+03  0.00000000000E+00 0.  1.
          1   -1    0    0  501    0  0.00000000000E+00 -0.00000000000E+00 -0.30174983347E+03  0.30174983347E+03  0.00000000000E+00 0. -1.
         23    2    1    2    0    0  0.12890488557E+03 -0.34786588808E+02 -0.78837987171E+02  0.19916197576E+03  0.12499395217E+03 0.  0.
         23    2    1    2    0    0 -0.12890488557E+03  0.34786588808E+02 -0.12266891965E+03  0.20283078436E+03  0.90918023240E+02 0.  0.
          5    1    3    3  502    0  0.13111209813E+03 -0.43477620976E+02 -0.10339011568E+03  0.17260443743E+03  0.47000000000E+01 0. -1.
         -5    1    3    3    0  502 -0.22072125547E+01  0.86910321677E+01  0.24552128508E+02  0.26557538322E+02  0.47000000000E+01 0. -1.
        -11    1    4    4    0    0 -0.77826478584E+02  0.14151207162E+02 -0.12473533931E+03  0.14770281753E+03  0.00000000000E+00 0. -1.
         11    1    4    4    0    0 -0.51078406990E+02  0.20635381646E+02  0.20664196643E+01  0.55127966828E+02  0.00000000000E+00 0.  1.
<mgrwt>
<rscale>  0 0.17730201E+03</rscale>
<asrwt>0</asrwt>
<pdfrwt beam="2">  1        1 0.46423051E-01 0.18289359E+03</pdfrwt>
<pdfrwt beam="1">  1       -1 0.15421989E-01 0.18289359E+03</pdfrwt>
<totfact> 0.26296869E+03</totfact>
</mgrwt>
</event>
<event>
 8    1  0.9424564E-006  0.1945510E+03  0.7546771E-02  0.1158991E+00
         -2   -1    0    0    0  501 -0.00000000000E+00  0.00000000000E+00  0.27086226637E+02  0.27086226637E+02  0.00000000000E+00 0.  1.
          2   -1    0    0  501    0  0.00000000000E+00 -0.00000000000E+00 -0.13558027874E+04  0.13558027874E+04  0.00000000000E+00 0. -1.
         23    2    1    2    0    0  0.82295349575E+02  0.12430049609E+03 -0.51296471417E+03  0.54861906199E+03  0.12500775697E+03 0.  0.
         23    2    1    2    0    0 -0.82295349575E+02 -0.12430049609E+03 -0.81575184657E+03  0.83426995203E+03  0.91280555349E+02 0.  0.
          5    1    3    3  502    0  0.23392002546E+02  0.12574719030E+03 -0.27349202540E+03  0.30195946683E+03  0.47000000000E+01 0.  1.
         -5    1    3    3    0  502  0.58903347029E+02 -0.14466942160E+01 -0.23947268878E+03  0.24665959516E+03  0.47000000000E+01 0.  1.
        -11    1    4    4    0    0 -0.22509719710E+02 -0.11008911251E+03 -0.56826008464E+03  0.57926317333E+03  0.00000000000E+00 0.  1.
         11    1    4    4    0    0 -0.59785629865E+02 -0.14211383577E+02 -0.24749176192E+03  0.25500677870E+03  0.00000000000E+00 0. -1.
<mgrwt>
<rscale>  0 0.18941345E+03</rscale>
<asrwt>0</asrwt>
<pdfrwt beam="2">  1        2 0.20858502E+00 0.19455096E+03</pdfrwt>
<pdfrwt beam="1">  1       -2 0.41671122E-02 0.19455096E+03</pdfrwt>
<totfact> 0.41970117E+03</totfact>
</mgrwt>
</event>
<event>
 8    1  0.9424564E-006  0.1332729E+03  0.7546771E-02  0.1236031E+00
          2   -1    0    0  501    0  0.00000000000E+00  0.00000000000E+00  0.35686600282E+03  0.35686600282E+03  0.00000000000E+00 0. -1.
         -2   -1    0    0    0  501 -0.00000000000E+00 -0.00000000000E+00 -0.46336790704E+02  0.46336790704E+02  0.00000000000E+00 0.  1.
         23    2    1    2    0    0  0.26438169713E+02 -0.37908319688E+02  0.90643071819E+02  0.16117643061E+03  0.12500263116E+03 0.  0.
         23    2    1    2    0    0 -0.26438169713E+02  0.37908319688E+02  0.21988614029E+03  0.24202636291E+03  0.89949030732E+02 0.  0.
          5    1    3    3  502    0  0.82647025128E+01 -0.74296038193E+02  0.16832340731E+02  0.76769943945E+02  0.47000000000E+01 0.  1.
         -5    1    3    3    0  502  0.18173467201E+02  0.36387718505E+02  0.73810731088E+02  0.84406486669E+02  0.47000000000E+01 0.  1.
        -11    1    4    4    0    0  0.29679263130E+02  0.22030622066E+02  0.12769644940E+03  0.13293829455E+03  0.00000000000E+00 0.  1.
         11    1    4    4    0    0 -0.56117432843E+02  0.15877697622E+02  0.92189690890E+02  0.10908806835E+03  0.00000000000E+00 0. -1.
<mgrwt>
<rscale>  0 0.12438677E+03</rscale>
<asrwt>0</asrwt>
<pdfrwt beam="1">  1        2 0.54902460E-01 0.13327294E+03</pdfrwt>
<pdfrwt beam="2">  1       -2 0.71287373E-02 0.13327294E+03</pdfrwt>
<totfact> 0.97076175E+03</totfact>
</mgrwt>
</event>
<event>
 8    1  0.9424564E-006  0.2163021E+03  0.7546771E-02  0.1140255E+00
          2   -1    0    0  501    0  0.00000000000E+00  0.00000000000E+00  0.22409994607E+03  0.22409994607E+03  0.00000000000E+00 0. -1.
         -2   -1    0    0    0  501 -0.00000000000E+00 -0.00000000000E+00 -0.22776236176E+03  0.22776236176E+03  0.00000000000E+00 0.  1.
         23    2    1    2    0    0 -0.17608931818E+03  0.12355010379E+02 -0.91605792069E+02  0.23490040037E+03  0.12500593064E+03 0.  0.
         23    2    1    2    0    0  0.17608931818E+03 -0.12355010379E+02  0.87943376371E+02  0.21696190746E+03  0.90434161596E+02 0.  0.
          5    1    3    3  502    0  0.11677916128E+02  0.23211763557E+01  0.14177347659E+02  0.19101014932E+02  0.47000000000E+01 0. -1.
         -5    1    3    3    0  502 -0.18776723431E+03  0.10033834023E+02 -0.10578313973E+03  0.21579938544E+03  0.47000000000E+01 0. -1.
        -11    1    4    4    0    0  0.26750577955E+02  0.13592351475E+02 -0.15185158318E+02  0.33629369198E+02  0.00000000000E+00 0.  1.
         11    1    4    4    0    0  0.14933874022E+03 -0.25947361854E+02  0.10312853469E+03  0.18333253826E+03  0.00000000000E+00 0. -1.
<mgrwt>
<rscale>  0 0.21166430E+03</rscale>
<asrwt>0</asrwt>
<pdfrwt beam="1">  1        2 0.34476915E-01 0.21630205E+03</pdfrwt>
<pdfrwt beam="2">  1       -2 0.35040363E-01 0.21630205E+03</pdfrwt>
<totfact> 0.11480670E+03</totfact>
</mgrwt>
</event>
<event>
 8    1  0.9424564E-006  0.1284781E+03  0.7546771E-02  0.1242064E+00
         -2   -1    0    0    0  501 -0.00000000000E+00  0.00000000000E+00  0.13641982585E+03  0.13641982585E+03  0.00000000000E+00 0.  1.
          2   -1    0    0  501    0  0.00000000000E+00 -0.00000000000E+00 -0.10288581491E+03  0.10288581491E+03  0.00000000000E+00 0. -1.
         23    2    1    2    0    0  0.61889058657E+01  0.29028748698E+02  0.50475766750E+02  0.13803773330E+03  0.12500256789E+03 0.  0.
         23    2    1    2    0    0 -0.61889058657E+01 -0.29028748698E+02 -0.16941755814E+02  0.10126790746E+03  0.95326781045E+02 0.  0.
          5    1    3    3  502    0  0.47356165549E+02 -0.58255735230E+01 -0.17584676913E+02  0.51067157592E+02  0.47000000000E+01 0.  1.
         -5    1    3    3    0  502 -0.41167259684E+02  0.34854322221E+02  0.68060443663E+02  0.86970575708E+02  0.47000000000E+01 0.  1.
        -11    1    4    4    0    0 -0.48963862683E+02 -0.28461735414E+02 -0.14273722518E+02  0.58406073196E+02  0.00000000000E+00 0.  1.
         11    1    4    4    0    0  0.42774956817E+02 -0.56701328429E+00 -0.26680332958E+01  0.42861834264E+02  0.00000000000E+00 0. -1.
<mgrwt>
<rscale>  0 0.12062814E+03</rscale>
<asrwt>0</asrwt>
<pdfrwt beam="2">  1        2 0.15828587E-01 0.12847806E+03</pdfrwt>
<pdfrwt beam="1">  1       -2 0.20987666E-01 0.12847806E+03</pdfrwt>
<totfact> 0.66676461E+03</totfact>
</mgrwt>
</event>
<event>
 8    1  0.9424564E-006  0.2001286E+03  0.7546771E-02  0.1153709E+00
          3   -1    0    0  501    0  0.00000000000E+00  0.00000000000E+00  0.13652498426E+03  0.13652498426E+03  0.00000000000E+00 0. -1.
         -3   -1    0    0    0  501 -0.00000000000E+00 -0.00000000000E+00 -0.29495108214E+03  0.29495108214E+03  0.00000000000E+00 0.  1.
         23    2    1    2    0    0 -0.13907424901E+03  0.71321335590E+02 -0.14896927784E+03  0.24948608915E+03  0.12499233292E+03 0.  0.
         23    2    1    2    0    0  0.13907424901E+03 -0.71321335590E+02 -0.94568200415E+01  0.18198997725E+03  0.92749882627E+02 0.  0.
          5    1    3    3  502    0 -0.13978672686E+03  0.73281761135E+02 -0.16753666535E+03  0.23021982920E+03  0.47000000000E+01 0.  1.
         -5    1    3    3    0  502  0.71247784546E+00 -0.19604255447E+01  0.18567387516E+02  0.19266259942E+02  0.47000000000E+01 0.  1.
        -11    1    4    4    0    0  0.43640187269E+02 -0.95655289965E+01 -0.44481221499E+02  0.63043987469E+02  0.00000000000E+00 0.  1.
         11    1    4    4    0    0  0.95434061742E+02 -0.61755806594E+02  0.35024401458E+02  0.11894598979E+03  0.00000000000E+00 0. -1.
<mgrwt>
<rscale>  0 0.19536510E+03</rscale>
<asrwt>0</asrwt>
<pdfrwt beam="1">  1        3 0.21003844E-01 0.20012862E+03</pdfrwt>
<pdfrwt beam="2">  1       -3 0.45377089E-01 0.20012862E+03</pdfrwt>
<totfact> 0.24356294E+02</totfact>
</mgrwt>
</event>
<event>
 8    1  0.9424564E-006  0.1284566E+03  0.7546771E-02  0.1245188E+00
          1   -1    0    0  501    0  0.00000000000E+00  0.00000000000E+00  0.37514091516E+03  0.37514091516E+03  0.00000000000E+00 0. -1.
         -1   -1    0    0    0  501 -0.00000000000E+00 -0.00000000000E+00 -0.37841915339E+02  0.37841915339E+02  0.00000000000E+00 0.  1.
         23    2    1    2    0    0 -0.29285220031E+02 -0.41403597500E+01  0.11782430608E+03  0.17430910655E+03  0.12500532321E+03 0.  0.
         23    2    1    2    0    0  0.29285220031E+02  0.41403597500E+01  0.21947469374E+03  0.23867372395E+03  0.89001340559E+02 0.  0.
          5    1    3    3  502    0 -0.68030662018E+02 -0.17059745232E+01  0.11671610630E+03  0.13518809412E+03  0.47000000000E+01 0.  1.
         -5    1    3    3    0  502  0.38745441987E+02 -0.24343852268E+01  0.11081997829E+01  0.39121012422E+02  0.47000000000E+01 0.  1.
        -11    1    4    4    0    0  0.66099713588E+01 -0.24835181899E+02  0.12728541783E+02  0.28679151962E+02  0.00000000000E+00 0.  1.
         11    1    4    4    0    0  0.22675248672E+02  0.28975541649E+02  0.20674615195E+03  0.20999457199E+03  0.00000000000E+00 0. -1.
<mgrwt>
<rscale>  0 0.11874163E+03</rscale>
<asrwt>0</asrwt>
<pdfrwt beam="1">  1        1 0.57713985E-01 0.12845660E+03</pdfrwt>
<pdfrwt beam="2">  1       -1 0.58218334E-02 0.12845660E+03</pdfrwt>
<totfact> 0.87183811E+03</totfact>
</mgrwt>
</event>
<event>
 8    1  0.9424564E-006  0.1265067E+03  0.7546771E-02  0.1245801E+00
         -1   -1    0    0    0  501 -0.00000000000E+00  0.00000000000E+00  0.16529480150E+03  0.16529480150E+03  0.00000000000E+00 0. -1.
          1   -1    0    0  501    0  0.00000000000E+00 -0.00000000000E+00 -0.75546973116E+02  0.75546973116E+02  0.00000000000E+00 0.  1.
         23    2    1    2    0    0  0.10527376718E+02  0.16352017535E+02  0.51381710731E+02  0.13654312312E+03  0.12500292051E+03 0.  0.
         23    2    1    2    0    0 -0.10527376718E+02 -0.16352017535E+02  0.38366117649E+02  0.10429865149E+03  0.95015975396E+02 0.  0.
          5    1    3    3  502    0  0.35945550221E+02 -0.46197615313E+02  0.26625200212E+02  0.64477077536E+02  0.47000000000E+01 0.  1.
         -5    1    3    3    0  502 -0.25418173503E+02  0.62549632848E+02  0.24756510519E+02  0.72066045588E+02  0.47000000000E+01 0.  1.
        -11    1    4    4    0    0 -0.32766830801E+02 -0.15802710698E+02 -0.20227651985E+02  0.41623896634E+02  0.00000000000E+00 0.  1.
         11    1    4    4    0    0  0.22239454083E+02 -0.54930683735E+00  0.58593769635E+02  0.62674754853E+02  0.00000000000E+00 0. -1.
<mgrwt>
<rscale>  0 0.11837560E+03</rscale>
<asrwt>0</asrwt>
<pdfrwt beam="2">  1        1 0.11622611E-01 0.12650670E+03</pdfrwt>
<pdfrwt beam="1">  1       -1 0.25429969E-01 0.12650670E+03</pdfrwt>
<totfact> 0.66817422E+03</totfact>
</mgrwt>
</event>
<event>
 8    1  0.9424564E-006  0.1293088E+03  0.7546771E-02  0.1241400E+00
          1   -1    0    0  501    0  0.00000000000E+00  0.00000000000E+00  0.23577905868E+02  0.23577905868E+02  0.00000000000E+00 0. -1.
         -1   -1    0    0    0  501 -0.00000000000E+00 -0.00000000000E+00 -0.99261694348E+03  0.99261694348E+03  0.00000000000E+00 0.  1.
         23    2    1    2    0    0  0.11371362366E+02 -0.37690952297E+02 -0.85622114358E+03  0.86593037533E+03  0.12317001436E+03 0.  0.
         23    2    1    2    0    0 -0.11371362366E+02  0.37690952297E+02 -0.11281789403E+03  0.15026447402E+03  0.91113221716E+02 0.  0.
          5    1    3    3  502    0  0.27052757136E+02  0.67469864175E+01 -0.43821424721E+02  0.52151517322E+02  0.47000000000E+01 0. -1.
         -5    1    3    3    0  502 -0.15681394769E+02 -0.44437938714E+02 -0.81239971886E+03  0.81377885801E+03  0.47000000000E+01 0.  1.
        -11    1    4    4    0    0  0.18084349759E+02  0.54538025964E+01 -0.10401768277E+03  0.10571880626E+03  0.00000000000E+00 0.  1.
         11    1    4    4    0    0 -0.29455712125E+02  0.32237149700E+02 -0.88002112637E+01  0.44545667757E+02  0.00000000000E+00 0. -1.
<mgrwt>
<rscale>  0 0.12103447E+03</rscale>
<asrwt>0</asrwt>
<pdfrwt beam="1">  1        1 0.36273704E-02 0.12930881E+03</pdfrwt>
<pdfrwt beam="2">  1       -1 0.15271029E+00 0.12930881E+03</pdfrwt>
<totfact> 0.92355857E+02</totfact>
</mgrwt>
</event>
<event>
 8    1  0.9424564E-006  0.1377836E+03  0.7546771E-02  0.1222542E+00
          1   -1    0    0  501    0  0.00000000000E+00  0.00000000000E+00  0.31832672253E+03  0.31832672253E+03  0.00000000000E+00 0. -1.
         -1   -1    0    0    0  501 -0.00000000000E+00 -0.00000000000E+00 -0.59008962435E+02  0.59008962435E+02  0.00000000000E+00 0.  1.
         23    2    1    2    0    0  0.54160699123E+02  0.20647447626E+02  0.74994018251E+02  0.15687068189E+03  0.12499843856E+03 0.  0.
         23    2    1    2    0    0 -0.54160699123E+02 -0.20647447626E+02  0.18432374184E+03  0.22046500307E+03  0.10615967854E+03 0.  0.
          5    1    3    3  502    0  0.24572419298E+02  0.62448229510E+02  0.16507863588E+01  0.67293389384E+02  0.47000000000E+01 0. -1.
         -5    1    3    3    0  502  0.29588279825E+02 -0.41800781884E+02  0.73343231892E+02  0.89577292511E+02  0.47000000000E+01 0. -1.
        -11    1    4    4    0    0 -0.85117338170E+02 -0.76635014247E+01  0.14875347715E+03  0.17155549387E+03  0.00000000000E+00 0. -1.
         11    1    4    4    0    0  0.30956639047E+02 -0.12983946201E+02  0.35570264689E+02  0.48909509199E+02  0.00000000000E+00 0.  1.
<mgrwt>
<rscale>  0 0.13336811E+03</rscale>
<asrwt>0</asrwt>
<pdfrwt beam="1">  1        1 0.48973341E-01 0.13778356E+03</pdfrwt>
<pdfrwt beam="2">  1       -1 0.90783021E-02 0.13778356E+03</pdfrwt>
<totfact> 0.55154012E+03</totfact>
</mgrwt>
</event>
<event>
 8    1  0.9424564E-006  0.1349620E+03  0.7546771E-02  0.1231603E+00
          2   -1    0    0  501    0  0.00000000000E+00  0.00000000000E+00  0.71377393315E+02  0.71377393315E+02  0.00000000000E+00 0. -1.
         -2   -1    0    0    0  501 -0.00000000000E+00 -0.00000000000E+00 -0.34964254147E+03  0.34964254147E+03  0.00000000000E+00 0.  1.
         23    2    1    2    0    0  0.26207410172E+02 -0.43596806669E+02 -0.28377860660E+03  0.31423723748E+03  0.12500893551E+03 0.  0.
         23    2    1    2    0    0 -0.26207410172E+02  0.43596806669E+02  0.55134584464E+01  0.10678269730E+03  0.93726390727E+02 0.  0.
          5    1    3    3  502    0 -0.28029216624E+02 -0.66883926302E+02 -0.12251549323E+03  0.14244729784E+03  0.47000000000E+01 0.  1.
         -5    1    3    3    0  502  0.54236626796E+02  0.23287119633E+02 -0.16126311337E+03  0.17178993964E+03  0.47000000000E+01 0.  1.
        -11    1    4    4    0    0  0.14842731914E+02  0.48682385820E+02  0.29640101779E+02  0.58896663855E+02  0.00000000000E+00 0.  1.
         11    1    4    4    0    0 -0.41050142086E+02 -0.50855791506E+01 -0.24126643332E+02  0.47886033444E+02  0.00000000000E+00 0. -1.
<mgrwt>
<rscale>  0 0.12724448E+03</rscale>
<asrwt>0</asrwt>
<pdfrwt beam="1">  1        2 0.10981138E-01 0.13496201E+03</pdfrwt>
<pdfrwt beam="2">  1       -2 0.53791160E-01 0.13496201E+03</pdfrwt>
<totfact> 0.18283706E+03</totfact>
</mgrwt>
</event>
<event>
 8    1  0.9424564E-006  0.2094440E+03  0.7546771E-02  0.1145913E+00
          1   -1    0    0  501    0  0.00000000000E+00  0.00000000000E+00  0.70209012700E+02  0.70209012700E+02  0.00000000000E+00 0. -1.
         -1   -1    0    0    0  501 -0.00000000000E+00 -0.00000000000E+00 -0.57495562388E+03  0.57495562388E+03  0.00000000000E+00 0.  1.
         23    2    1    2    0    0  0.13343935491E+03  0.10216134033E+03 -0.29323500037E+03  0.36035199136E+03  0.12499516525E+03 0.  0.
         23    2    1    2    0    0 -0.13343935491E+03 -0.10216134033E+03 -0.21151161081E+03  0.28481264523E+03  0.90211310115E+02 0.  0.
          5    1    3    3  502    0  0.24155910097E+02  0.33235432982E+02 -0.19127942827E+03  0.19569877792E+03  0.47000000000E+01 0. -1.
         -5    1    3    3    0  502  0.10928344482E+03  0.68925907349E+02 -0.10195557210E+03  0.16465321344E+03  0.47000000000E+01 0. -1.
        -11    1    4    4    0    0  0.88307668584E+01 -0.22339626345E+02 -0.11276343450E+02  0.26536715512E+02  0.00000000000E+00 0. -1.
         11    1    4    4    0    0 -0.14227012177E+03 -0.79821713986E+02 -0.20023526736E+03  0.25827592971E+03  0.00000000000E+00 0.  1.
<mgrwt>
<rscale>  0 0.20460225E+03</rscale>
<asrwt>0</asrwt>
<pdfrwt beam="1">  1        1 0.10801386E-01 0.20944401E+03</pdfrwt>
<pdfrwt beam="2">  1       -1 0.88454712E-01 0.20944401E+03</pdfrwt>
<totfact> 0.76042555E+02</totfact>
</mgrwt>
</event>
<event>
 8    1  0.9424564E-006  0.1759666E+03  0.7546771E-02  0.1177754E+00
          1   -1    0    0  501    0  0.00000000000E+00  0.00000000000E+00  0.21826267968E+03  0.21826267968E+03  0.00000000000E+00 0. -1.
         -1   -1    0    0    0  501 -0.00000000000E+00 -0.00000000000E+00 -0.13936859464E+03  0.13936859464E+03  0.00000000000E+00 0.  1.
         23    2    1    2    0    0  0.10207703197E+03 -0.70153813442E+02 -0.16615818224E+02  0.17674934375E+03  0.12499186815E+03 0.  0.
         23    2    1    2    0    0 -0.10207703197E+03  0.70153813442E+02  0.95509903259E+02  0.18088193057E+03  0.90856222634E+02 0.  0.
          5    1    3    3  502    0 -0.25485547788E+01  0.20251129354E+02 -0.31254567541E+02  0.37623680891E+02  0.47000000000E+01 0. -1.
         -5    1    3    3    0  502  0.10462558674E+03 -0.90404942795E+02  0.14638749317E+02  0.13912566286E+03  0.47000000000E+01 0. -1.
        -11    1    4    4    0    0 -0.28225673008E+02 -0.11733837215E+02 -0.58288462894E+01  0.31118274399E+02  0.00000000000E+00 0.  1.
         11    1    4    4    0    0 -0.73851358958E+02  0.81887650656E+02  0.10133874955E+03  0.14976365617E+03  0.00000000000E+00 0. -1.
<mgrwt>
<rscale>  0 0.17008961E+03</rscale>
<asrwt>0</asrwt>
<pdfrwt beam="1">  1        1 0.33578874E-01 0.17596660E+03</pdfrwt>
<pdfrwt beam="2">  1       -1 0.21441322E-01 0.17596660E+03</pdfrwt>
<totfact> 0.23191804E+03</totfact>
</mgrwt>
</event>
<event>
 8    1  0.9424564E-006  0.1383809E+03  0.7546771E-02  0.1227117E+00
          2   -1    0    0  501    0  0.00000000000E+00  0.00000000000E+00  0.87077028177E+02  0.87077028177E+02  0.00000000000E+00 0. -1.
         -2   -1    0    0    0  501 -0.00000000000E+00 -0.00000000000E+00 -0.17506269625E+03  0.17506269625E+03  0.00000000000E+00 0.  1.
         23    2    1    2    0    0  0.50044885684E+02 -0.31930234175E+02 -0.48126178112E+02  0.14651079149E+03  0.12500101025E+03 0.  0.
         23    2    1    2    0    0 -0.50044885684E+02  0.31930234175E+02 -0.39859489957E+02  0.11562893294E+03  0.90869360926E+02 0.  0.
          5    1    3    3  502    0 -0.20563680622E+02  0.20909405149E+02  0.19280309938E+02  0.35410288557E+02  0.47000000000E+01 0. -1.
         -5    1    3    3    0  502  0.70608566306E+02 -0.52839639323E+02 -0.67406488051E+02  0.11110050293E+03  0.47000000000E+01 0. -1.
        -11    1    4    4    0    0  0.32728888502E+01 -0.24814079936E+02 -0.26814078242E+02  0.36680310201E+02  0.00000000000E+00 0.  1.
         11    1    4    4    0    0 -0.53317774534E+02  0.56744314111E+02 -0.13045411715E+02  0.78948622737E+02  0.00000000000E+00 0. -1.
<mgrwt>
<rscale>  0 0.13022855E+03</rscale>
<asrwt>0</asrwt>
<pdfrwt beam="1">  1        2 0.13396466E-01 0.13838093E+03</pdfrwt>
<pdfrwt beam="2">  1       -2 0.26932723E-01 0.13838093E+03</pdfrwt>
<totfact> 0.52918965E+03</totfact>
</mgrwt>
</event>
<event>
 8    1  0.9424564E-006  0.1359859E+03  0.7546771E-02  0.1232375E+00
          1   -1    0    0  501    0  0.00000000000E+00  0.00000000000E+00  0.60106972171E+03  0.60106972171E+03  0.00000000000E+00 0. -1.
         -1   -1    0    0    0  501 -0.00000000000E+00 -0.00000000000E+00 -0.24252426355E+02  0.24252426355E+02  0.00000000000E+00 0.  1.
         23    2    1    2    0    0 -0.39295217013E+02 -0.36370295319E+02  0.37550814697E+03  0.39937268952E+03  0.12500105689E+03 0.  0.
         23    2    1    2    0    0  0.39295217013E+02  0.36370295319E+02  0.20130914838E+03  0.22594945855E+03  0.87526408215E+02 0.  0.
          5    1    3    3  502    0 -0.39674034818E+02 -0.57014820448E+02  0.37131524686E+03  0.37778541706E+03  0.47000000000E+01 0.  1.
         -5    1    3    3    0  502  0.37881780438E+00  0.20644525129E+02  0.41929001107E+01  0.21587272456E+02  0.47000000000E+01 0.  1.
        -11    1    4    4    0    0  0.36153982256E+01 -0.22643713972E+02  0.10513155965E+03  0.10760322356E+03  0.00000000000E+00 0. -1.
         11    1    4    4    0    0  0.35679818788E+02  0.59014009290E+02  0.96177588731E+02  0.11834623499E+03  0.00000000000E+00 0.  1.
<mgrwt>
<rscale>  0 0.12673969E+03</rscale>
<asrwt>0</asrwt>
<pdfrwt beam="1">  1        1 0.92472254E-01 0.13598594E+03</pdfrwt>
<pdfrwt beam="2">  1       -1 0.37311430E-02 0.13598594E+03</pdfrwt>
<totfact> 0.91588491E+03</totfact>
</mgrwt>
</event>
<event>
 8    1  0.9424564E-006  0.1381480E+03  0.7546771E-02  0.1228704E+00
          2   -1    0    0  501    0  0.00000000000E+00  0.00000000000E+00  0.35703447644E+03  0.35703447644E+03  0.00000000000E+00 0. -1.
         -2   -1    0    0    0  501 -0.00000000000E+00 -0.00000000000E+00 -0.46974101524E+02  0.46974101524E+02  0.00000000000E+00 0.  1.
         23    2    1    2    0    0  0.34019309024E+01 -0.58721137833E+02  0.10552852151E+03  0.17384226387E+03  0.12500047476E+03 0.  0.
         23    2    1    2    0    0 -0.34019309024E+01  0.58721137833E+02  0.20453185340E+03  0.23016631409E+03  0.87655621187E+02 0.  0.
          5    1    3    3  502    0 -0.13732373961E+02  0.35370895307E+02  0.50703739443E+02  0.63503051288E+02  0.47000000000E+01 0. -1.
         -5    1    3    3    0  502  0.17134304864E+02 -0.94092033140E+02  0.54824782070E+02  0.11033921258E+03  0.47000000000E+01 0. -1.
        -11    1    4    4    0    0  0.30624409046E+02 -0.36182976581E+01  0.92642005944E+02  0.97639580973E+02  0.00000000000E+00 0.  1.
         11    1    4    4    0    0 -0.34026339948E+02  0.62339435491E+02  0.11188984746E+03  0.13252673312E+03  0.00000000000E+00 0. -1.
<mgrwt>
<rscale>  0 0.12916204E+03</rscale>
<asrwt>0</asrwt>
<pdfrwt beam="1">  1        2 0.54928379E-01 0.13814798E+03</pdfrwt>
<pdfrwt beam="2">  1       -2 0.72267851E-02 0.13814798E+03</pdfrwt>
<totfact> 0.95258065E+03</totfact>
</mgrwt>
</event>
<event>
 8    1  0.9424564E-006  0.1771570E+03  0.7546771E-02  0.1175394E+00
          1   -1    0    0  501    0  0.00000000000E+00  0.00000000000E+00  0.10985155427E+04  0.10985155427E+04  0.00000000000E+00 0. -1.
         -1   -1    0    0    0  501 -0.00000000000E+00 -0.00000000000E+00 -0.25937246713E+02  0.25937246713E+02  0.00000000000E+00 0.  1.
         23    2    1    2    0    0 -0.11956550035E+03 -0.38387488733E+02  0.62078141642E+03  0.64556500702E+03  0.12496040632E+03 0.  0.
         23    2    1    2    0    0  0.11956550035E+03  0.38387488733E+02  0.45179687952E+03  0.47888778235E+03  0.97178081763E+02 0.  0.
          5    1    3    3  502    0 -0.68357648064E+02 -0.81199984904E+01  0.10069410419E+03  0.12206594547E+03  0.47000000000E+01 0.  1.
         -5    1    3    3    0  502 -0.51207852285E+02 -0.30267490242E+02  0.52008731223E+03  0.52349906155E+03  0.47000000000E+01 0.  1.
        -11    1    4    4    0    0  0.22672732035E+02 -0.59559064179E+00  0.97793177247E+01  0.24699039684E+02  0.00000000000E+00 0.  1.
         11    1    4    4    0    0  0.96892768314E+02  0.38983079375E+02  0.44201756180E+03  0.45418874267E+03  0.00000000000E+00 0. -1.
<mgrwt>
<rscale>  0 0.17237411E+03</rscale>
<asrwt>0</asrwt>
<pdfrwt beam="1">  1        1 0.16900235E+00 0.17715702E+03</pdfrwt>
<pdfrwt beam="2">  1       -1 0.39903465E-02 0.17715702E+03</pdfrwt>
<totfact> 0.33093341E+03</totfact>
</mgrwt>
</event>
<event>
 8    1  0.9424564E-006  0.1320239E+03  0.7546771E-02  0.1237203E+00
          1   -1    0    0  501    0  0.00000000000E+00  0.00000000000E+00  0.36793845609E+03  0.36793845609E+03  0.00000000000E+00 0. -1.
         -1   -1    0    0    0  501 -0.00000000000E+00 -0.00000000000E+00 -0.40069727552E+02  0.40069727552E+02  0.00000000000E+00 0.  1.
         23    2    1    2    0    0 -0.42454794189E+02 -0.71856232042E+00  0.12837028225E+03  0.18414463132E+03  0.12500955962E+03 0.  0.
         23    2    1    2    0    0  0.42454794189E+02  0.71856232042E+00  0.19949844628E+03  0.22386355232E+03  0.92262311406E+02 0.  0.
          5    1    3    3  502    0 -0.57234210293E+01 -0.34136183380E+02 -0.10592354687E+02  0.36501021107E+02  0.47000000000E+01 0.  1.
         -5    1    3    3    0  502 -0.36731373160E+02  0.33417621059E+02  0.13896263694E+03  0.14764361021E+03  0.47000000000E+01 0.  1.
        -11    1    4    4    0    0  0.50350431508E+02  0.38216965230E+02  0.12146971282E+03  0.13693280658E+03  0.00000000000E+00 0.  1.
         11    1    4    4    0    0 -0.78956373182E+01 -0.37498402910E+02  0.78028733461E+02  0.86930745740E+02  0.00000000000E+00 0. -1.
<mgrwt>
<rscale>  0 0.12364441E+03</rscale>
<asrwt>0</asrwt>
<pdfrwt beam="1">  1        1 0.56605914E-01 0.13202392E+03</pdfrwt>
<pdfrwt beam="2">  1       -1 0.61645737E-02 0.13202392E+03</pdfrwt>
<totfact> 0.82196947E+03</totfact>
</mgrwt>
</event>
<event>
 8    1  0.9424564E-006  0.1313225E+03  0.7546771E-02  0.1239384E+00
          2   -1    0    0  501    0  0.00000000000E+00  0.00000000000E+00  0.20430484775E+03  0.20430484775E+03  0.00000000000E+00 0. -1.
         -2   -1    0    0    0  501 -0.00000000000E+00 -0.00000000000E+00 -0.73169168187E+02  0.73169168187E+02  0.00000000000E+00 0.  1.
         23    2    1    2    0    0 -0.12358527684E+02  0.38279744931E+02  0.27162738075E+02  0.13410222385E+03  0.12501007969E+03 0.  0.
         23    2    1    2    0    0  0.12358527684E+02 -0.38279744931E+02  0.10397294149E+03  0.14337179209E+03  0.90150020116E+02 0.  0.
          5    1    3    3  502    0 -0.17346511039E+01 -0.30975705749E+02 -0.30107909583E+02  0.43486544822E+02  0.47000000000E+01 0. -1.
         -5    1    3    3    0  502 -0.10623876580E+02  0.69255450679E+02  0.57270647658E+02  0.90615679027E+02  0.47000000000E+01 0. -1.
        -11    1    4    4    0    0  0.33092920365E+02 -0.28815903997E+02  0.11113228174E+03  0.11948172139E+03  0.00000000000E+00 0. -1.
         11    1    4    4    0    0 -0.20734392681E+02 -0.94638409335E+01 -0.71593402545E+01  0.23890070697E+02  0.00000000000E+00 0.  1.
<mgrwt>
<rscale>  0 0.12227919E+03</rscale>
<asrwt>0</asrwt>
<pdfrwt beam="1">  1        2 0.31431515E-01 0.13132247E+03</pdfrwt>
<pdfrwt beam="2">  1       -2 0.11256795E-01 0.13132247E+03</pdfrwt>
<totfact> 0.86181607E+03</totfact>
</mgrwt>
</event>
<event>
 8    1  0.9424564E-006  0.1943341E+03  0.7546771E-02  0.1160032E+00
          3   -1    0    0  501    0  0.00000000000E+00  0.00000000000E+00  0.19437888598E+03  0.19437888598E+03  0.00000000000E+00 0. -1.
         -3   -1    0    0    0  501 -0.00000000000E+00 -0.00000000000E+00 -0.17385362739E+03  0.17385362739E+03  0.00000000000E+00 0.  1.
         23    2    1    2    0    0 -0.14874164400E+03 -0.39915410975E+01 -0.88881095863E+01  0.19453728919E+03  0.12500299731E+03 0.  0.
         23    2    1    2    0    0  0.14874164400E+03  0.39915410975E+01  0.29413368178E+02  0.17369522418E+03  0.84645588281E+02 0.  0.
          5    1    3    3  502    0 -0.71416659232E+02  0.56694809815E+02  0.16785324028E+02  0.92835757004E+02  0.47000000000E+01 0.  1.
         -5    1    3    3    0  502 -0.77324984764E+02 -0.60686350913E+02 -0.25673433614E+02  0.10170153219E+03  0.47000000000E+01 0.  1.
        -11    1    4    4    0    0  0.12673210883E+03 -0.20988126133E+02  0.46068191302E+02  0.13646907011E+03  0.00000000000E+00 0.  1.
         11    1    4    4    0    0  0.22009535162E+02  0.24979667231E+02 -0.16654823124E+02  0.37226154063E+02  0.00000000000E+00 0. -1.
<mgrwt>
<rscale>  0 0.18826922E+03</rscale>
<asrwt>0</asrwt>
<pdfrwt beam="1">  1        3 0.29904444E-01 0.19433414E+03</pdfrwt>
<pdfrwt beam="2">  1       -3 0.26746712E-01 0.19433414E+03</pdfrwt>
<totfact> 0.34903557E+02</totfact>
</mgrwt>
</event>
<event>
 8    1  0.9424564E-006  0.4302900E+03  0.7546771E-02  0.1034465E+00
          1   -1    0    0  501    0  0.00000000000E+00  0.00000000000E+00  0.44260817372E+04  0.44260817372E+04  0.00000000000E+00 0. -1.
         -1   -1    0    0    0  501 -0.00000000000E+00 -0.00000000000E+00 -0.40994110374E+02  0.40994110374E+02  0.00000000000E+00 0.  1.
         23    2    1    2    0    0  0.58608033463E+02  0.40754223411E+03  0.21859307292E+04  0.22278785138E+04  0.12499578188E+03 0.  0.
         23    2    1    2    0    0 -0.58608033463E+02 -0.40754223411E+03  0.21991568977E+04  0.22391973338E+04  0.90487926098E+02 0.  0.
          5    1    3    3  502    0  0.32645360968E+02  0.16435226728E+03  0.12196586149E+04  0.12311241263E+04  0.47000000000E+01 0.  1.
         -5    1    3    3    0  502  0.25962672494E+02  0.24318996683E+03  0.96627211425E+03  0.99675438755E+03  0.47000000000E+01 0.  1.
        -11    1    4    4    0    0 -0.68867770273E+02 -0.17657589897E+03  0.10612650125E+04  0.10780562344E+04  0.00000000000E+00 0.  1.
         11    1    4    4    0    0  0.10259736811E+02 -0.23096633514E+03  0.11378918852E+04  0.11611410994E+04  0.00000000000E+00 0. -1.
<mgrwt>
<rscale>  0 0.42809097E+03</rscale>
<asrwt>0</asrwt>
<pdfrwt beam="1">  1        1 0.68093527E+00 0.43029004E+03</pdfrwt>
<pdfrwt beam="2">  1       -1 0.63067897E-02 0.43029004E+03</pdfrwt>
<totfact> 0.60266919E+00</totfact>
</mgrwt>
</event>
<event>
 8    1  0.9424564E-006  0.1897122E+03  0.7546771E-02  0.1163782E+00
          2   -1    0    0  501    0  0.00000000000E+00  0.00000000000E+00  0.68136542160E+03  0.68136542160E+03  0.00000000000E+00 0. -1.
         -2   -1    0    0    0  501 -0.00000000000E+00 -0.00000000000E+00 -0.47759340723E+02  0.47759340723E+02  0.00000000000E+00 0.  1.
         23    2    1    2    0    0 -0.14178745854E+03 -0.16146476442E+02  0.29322286544E+03  0.34924254065E+03  0.12500524501E+03 0.  0.
         23    2    1    2    0    0  0.14178745854E+03  0.16146476442E+02  0.34038321544E+03  0.37988222167E+03  0.89918723809E+02 0.  0.
          5    1    3    3  502    0 -0.10348692819E+03  0.47636264071E+02  0.19566140124E+03  0.22646022144E+03  0.47000000000E+01 0. -1.
         -5    1    3    3    0  502 -0.38300530357E+02 -0.63782740513E+02  0.97561464201E+02  0.12278231921E+03  0.47000000000E+01 0. -1.
        -11    1    4    4    0    0  0.82337499507E+02  0.50152682899E+01  0.89100283506E+02  0.12142272136E+03  0.00000000000E+00 0.  1.
         11    1    4    4    0    0  0.59449959038E+02  0.11131208152E+02  0.25128293193E+03  0.25845950032E+03  0.00000000000E+00 0. -1.
<mgrwt>
<rscale>  0 0.18421764E+03</rscale>
<asrwt>0</asrwt>
<pdfrwt beam="1">  1        2 0.10482544E+00 0.18971216E+03</pdfrwt>
<pdfrwt beam="2">  1       -2 0.73475914E-02 0.18971216E+03</pdfrwt>
<totfact> 0.46082499E+03</totfact>
</mgrwt>
</event>
<event>
 8    1  0.9424564E-006  0.1432192E+03  0.7546771E-02  0.1219085E+00
          2   -1    0    0  501    0  0.00000000000E+00  0.00000000000E+00  0.62684555998E+02  0.62684555998E+02  0.00000000000E+00 0. -1.
         -2   -1    0    0    0  501 -0.00000000000E+00 -0.00000000000E+00 -0.32312272916E+03  0.32312272916E+03  0.00000000000E+00 0.  1.
         23    2    1    2    0    0 -0.44941226619E+02 -0.53639526333E+02 -0.22125487346E+03  0.26356302909E+03  0.12495934793E+03 0.  0.
         23    2    1    2    0    0  0.44941226619E+02  0.53639526333E+02 -0.39183299700E+02  0.12224425607E+03  0.92257327798E+02 0.  0.
          5    1    3    3  502    0 -0.43950695822E+02 -0.26152786175E+02 -0.12376254115E+02  0.52828908316E+02  0.47000000000E+01 0.  1.
         -5    1    3    3    0  502 -0.99053079763E+00 -0.27486740158E+02 -0.20887861935E+03  0.21073412077E+03  0.47000000000E+01 0.  1.
        -11    1    4    4    0    0  0.52440806591E+02  0.44149981136E+02 -0.64538835450E+02  0.94151581566E+02  0.00000000000E+00 0.  1.
         11    1    4    4    0    0 -0.74995799720E+01  0.94895451975E+01  0.25355535750E+02  0.28092674507E+02  0.00000000000E+00 0. -1.
<mgrwt>
<rscale>  0 0.13580722E+03</rscale>
<asrwt>0</asrwt>
<pdfrwt beam="1">  1        2 0.96437779E-02 0.14321924E+03</pdfrwt>
<pdfrwt beam="2">  1       -2 0.49711189E-01 0.14321924E+03</pdfrwt>
<totfact> 0.25157413E+03</totfact>
</mgrwt>
</event>
<event>
 8    1  0.9424564E-006  0.1279645E+03  0.7546771E-02  0.1237364E+00
          1   -1    0    0  501    0  0.00000000000E+00  0.00000000000E+00  0.14679895013E+03  0.14679895013E+03  0.00000000000E+00 0. -1.
         -1   -1    0    0    0  501 -0.00000000000E+00 -0.00000000000E+00 -0.12211294039E+03  0.12211294039E+03  0.00000000000E+00 0.  1.
         23    2    1    2    0    0 -0.58713507012E+02 -0.26410352879E+02 -0.47345484009E+02  0.13644229328E+03  0.11058988153E+03 0.  0.
         23    2    1    2    0    0  0.58713507012E+02  0.26410352879E+02  0.72031493752E+02  0.13246959723E+03  0.90635950114E+02 0.  0.
          5    1    3    3  502    0 -0.15897809714E+02  0.40951061574E+02 -0.13474846719E+01  0.44199949238E+02  0.47000000000E+01 0. -1.
         -5    1    3    3    0  502 -0.42815697298E+02 -0.67361414452E+02 -0.45997999337E+02  0.92242344046E+02  0.47000000000E+01 0.  1.
        -11    1    4    4    0    0  0.77403584850E+01  0.31225329278E+02 -0.11777623841E+02  0.34258528300E+02  0.00000000000E+00 0.  1.
         11    1    4    4    0    0  0.50973148527E+02 -0.48149763991E+01  0.83809117593E+02  0.98211068929E+02  0.00000000000E+00 0. -1.
<mgrwt>
<rscale>  0 0.12354292E+03</rscale>
<asrwt>0</asrwt>
<pdfrwt beam="1">  1        1 0.22584454E-01 0.12796447E+03</pdfrwt>
<pdfrwt beam="2">  1       -1 0.18786606E-01 0.12796447E+03</pdfrwt>
<totfact> 0.46449810E+03</totfact>
</mgrwt>
</event>
<event>
 8    1  0.9424564E-006  0.1477232E+03  0.7546771E-02  0.1212967E+00
          2   -1    0    0  501    0  0.00000000000E+00  0.00000000000E+00  0.75724096422E+03  0.75724096422E+03  0.00000000000E+00 0. -1.
         -2   -1    0    0    0  501 -0.00000000000E+00 -0.00000000000E+00 -0.24300587528E+02  0.24300587528E+02  0.00000000000E+00 0.  1.
         23    2    1    2    0    0 -0.46295937514E+02 -0.63680488783E+02  0.34115448134E+03  0.37176406539E+03  0.12499448665E+03 0.  0.
         23    2    1    2    0    0  0.46295937514E+02  0.63680488783E+02  0.39178589535E+03  0.40977748636E+03  0.90680108345E+02 0.  0.
          5    1    3    3  502    0 -0.87572998283E+01 -0.86519324192E+02  0.13303960648E+03  0.15900915273E+03  0.47000000000E+01 0.  1.
         -5    1    3    3    0  502 -0.37538637686E+02  0.22838835410E+02  0.20811487486E+03  0.21275491266E+03  0.47000000000E+01 0.  1.
        -11    1    4    4    0    0  0.61864880465E+02  0.75321138645E+02  0.35540692022E+03  0.36853034651E+03  0.00000000000E+00 0. -1.
         11    1    4    4    0    0 -0.15568942951E+02 -0.11640649863E+02  0.36378975130E+02  0.41247139845E+02  0.00000000000E+00 0.  1.
<mgrwt>
<rscale>  0 0.14026924E+03</rscale>
<asrwt>0</asrwt>
<pdfrwt beam="1">  1        2 0.11649859E+00 0.14772319E+03</pdfrwt>
<pdfrwt beam="2">  1       -2 0.37385525E-02 0.14772319E+03</pdfrwt>
<totfact> 0.11143559E+04</totfact>
</mgrwt>
</event>
<event>
 8    1  0.9424564E-006  0.1720541E+03  0.7546771E-02  0.1181522E+00
          2   -1    0    0  501    0  0.00000000000E+00  0.00000000000E+00  0.35851802643E+02  0.35851802643E+02  0.00000000000E+00 0. -1.
         -2   -1    0    0    0  501 -0.00000000000E+00 -0.00000000000E+00 -0.73055773389E+03  0.73055773389E+03  0.00000000000E+00 0.  1.
         23    2    1    2    0    0  0.55233114275E+02  0.10453543941E+03 -0.39408503356E+03  0.43000652742E+03  0.12499697971E+03 0.  0.
         23    2    1    2    0    0 -0.55233114275E+02 -0.10453543941E+03 -0.30062089768E+03  0.33640300911E+03  0.93891988018E+02 0.  0.
          5    1    3    3  502    0 -0.16870226236E+02 -0.17688258142E+02 -0.10533659548E+03  0.10823755059E+03  0.47000000000E+01 0. -1.
         -5    1    3    3    0  502  0.72103340511E+02  0.12222369755E+03 -0.28874843808E+03  0.32176897683E+03  0.47000000000E+01 0. -1.
        -11    1    4    4    0    0 -0.11097344135E+02  0.13455884325E+02 -0.84199975334E+02  0.85987485810E+02  0.00000000000E+00 0.  1.
         11    1    4    4    0    0 -0.44135770140E+02 -0.11799132373E+03 -0.21642092234E+03  0.25041552330E+03  0.00000000000E+00 0. -1.
<mgrwt>
<rscale>  0 0.16652384E+03</rscale>
<asrwt>0</asrwt>
<pdfrwt beam="1">  1        2 0.55156620E-02 0.17205406E+03</pdfrwt>
<pdfrwt beam="2">  1       -2 0.11239350E+00 0.17205406E+03</pdfrwt>
<totfact> 0.88227065E+02</totfact>
</mgrwt>
</event>
<event>
 7    1  0.9424564E-006  0.2555594E+03  0.7546771E-02  0.1113602E+00
         -2   -1    0    0    0  501 -0.00000000000E+00  0.00000000000E+00  0.49761812172E+02  0.49761812172E+02  0.00000000000E+00 0.  1.
          2   -1    0    0  501    0  0.00000000000E+00 -0.00000000000E+00 -0.16060537040E+04  0.16060537040E+04  0.00000000000E+00 0. -1.
         23    2    1    2    0    0  0.17522906909E+03  0.12277486004E+03 -0.11686657576E+04  0.11915261364E+04  0.90421168882E+02 0.  0.
          5    1    1    2  502    0  0.22191785425E+02 -0.29130099451E+02 -0.51933700082E+02  0.63719990887E+02  0.47000000000E+01 0. -1.
         -5    1    1    2    0  502 -0.19742085451E+03 -0.93644760587E+02 -0.33569243412E+03  0.40056938888E+03  0.47000000000E+01 0.  1.
        -11    1    3    3    0    0  0.17334517053E+03  0.10124149562E+03 -0.11253714324E+04  0.11431357091E+04  0.00000000000E+00 0. -1.
         11    1    3    3    0    0  0.18838985540E+01  0.21533364422E+02 -0.43294325224E+02  0.48390427294E+02  0.00000000000E+00 0.  1.
<mgrwt>
<rscale>  0 0.24952998E+03</rscale>
<asrwt>0</asrwt>
<pdfrwt beam="2">  1        2 0.24708518E+00 0.25555940E+03</pdfrwt>
<pdfrwt beam="1">  1       -2 0.76556635E-02 0.25555940E+03</pdfrwt>
<totfact> 0.12160217E+03</totfact>
</mgrwt>
</event>
<event>
 8    1  0.9424564E-006  0.1652909E+03  0.7546771E-02  0.1188772E+00
         -1   -1    0    0    0  501 -0.00000000000E+00  0.00000000000E+00  0.29026440752E+03  0.29026440752E+03  0.00000000000E+00 0.  1.
          1   -1    0    0  501    0  0.00000000000E+00 -0.00000000000E+00 -0.13771109654E+03  0.13771109654E+03  0.00000000000E+00 0. -1.
         23    2    1    2    0    0  0.65097102425E+02  0.86370859736E+02  0.21416977188E+03  0.27053605858E+03  0.12499403845E+03 0.  0.
         23    2    1    2    0    0 -0.65097102425E+02 -0.86370859736E+02 -0.61616460907E+02  0.15743944548E+03  0.96400376463E+02 0.  0.
          5    1    3    3  502    0  0.63081931518E+02  0.99476824347E+02  0.97388237589E+02  0.15291019419E+03  0.47000000000E+01 0.  1.
         -5    1    3    3    0  502  0.20151709065E+01 -0.13105964610E+02  0.11678153429E+03  0.11762586439E+03  0.47000000000E+01 0.  1.
        -11    1    4    4    0    0 -0.54930623224E+02  0.22042112447E+01 -0.15804361611E+02  0.57201483904E+02  0.00000000000E+00 0.  1.
         11    1    4    4    0    0 -0.10166479201E+02 -0.88575070981E+02 -0.45812099296E+02  0.10023796157E+03  0.00000000000E+00 0. -1.
<mgrwt>
<rscale>  0 0.15993360E+03</rscale>
<asrwt>0</asrwt>
<pdfrwt beam="2">  1        1 0.21186323E-01 0.16529086E+03</pdfrwt>
<pdfrwt beam="1">  1       -1 0.44656062E-01 0.16529086E+03</pdfrwt>
<totfact> 0.11871988E+03</totfact>
</mgrwt>
</event>
<event>
 8    1  0.9424564E-006  0.1912892E+03  0.7546771E-02  0.1161977E+00
          1   -1    0    0  501    0  0.00000000000E+00  0.00000000000E+00  0.12976308340E+03  0.12976308340E+03  0.00000000000E+00 0. -1.
         -1   -1    0    0    0  501 -0.00000000000E+00 -0.00000000000E+00 -0.25580780064E+03  0.25580780064E+03  0.00000000000E+00 0.  1.
         23    2    1    2    0    0 -0.14453217692E+03 -0.87721923645E+01 -0.84078640931E+02  0.20895159381E+03  0.12500019668E+03 0.  0.
         23    2    1    2    0    0  0.14453217692E+03  0.87721923645E+01 -0.41966076300E+02  0.17661929023E+03  0.92014784663E+02 0.  0.
          5    1    3    3  502    0 -0.11205487948E+03 -0.38914366176E+02 -0.10612912949E+03  0.15923600735E+03  0.47000000000E+01 0. -1.
         -5    1    3    3    0  502 -0.32477297445E+02  0.30142173812E+02  0.22050488563E+02  0.49715586462E+02  0.47000000000E+01 0. -1.
        -11    1    4    4    0    0  0.87922232474E+02  0.50278297461E+02 -0.22090582745E+02  0.10366397641E+03  0.00000000000E+00 0.  1.
         11    1    4    4    0    0  0.56609944447E+02 -0.41506105097E+02 -0.19875493555E+02  0.72955313821E+02  0.00000000000E+00 0. -1.
<mgrwt>
<rscale>  0 0.18615407E+03</rscale>
<asrwt>0</asrwt>
<pdfrwt beam="1">  1        1 0.19963552E-01 0.19128918E+03</pdfrwt>
<pdfrwt beam="2">  1       -1 0.39355046E-01 0.19128918E+03</pdfrwt>
<totfact> 0.16098199E+03</totfact>
</mgrwt>
</event>
<event>
 7    1  0.9424564E-006  0.1725513E+03  0.7546771E-02  0.1182933E+00
          2   -1    0    0  501    0  0.00000000000E+00  0.00000000000E+00  0.48076375704E+03  0.48076375704E+03  0.00000000000E+00 0. -1.
         -2   -1    0    0    0  501 -0.00000000000E+00 -0.00000000000E+00 -0.64115930518E+02  0.64115930518E+02  0.00000000000E+00 0.  1.
         23    2    1    2    0    0 -0.80147234630E+02 -0.80243438197E+02  0.30943489358E+03  0.34173304463E+03  0.90382143312E+02 0.  0.
          5    1    1    2  502    0  0.10003445244E+03  0.33567706217E+02  0.10950536276E+03  0.15214202920E+03  0.47000000000E+01 0. -1.
         -5    1    1    2    0  502 -0.19887217805E+02  0.46675731979E+02 -0.22924298213E+01  0.51004613736E+02  0.47000000000E+01 0.  1.
        -11    1    3    3    0    0 -0.86001436803E+02 -0.45557949572E+02  0.27805194382E+03  0.29459235795E+03  0.00000000000E+00 0.  1.
         11    1    3    3    0    0  0.58542021727E+01 -0.34685488625E+02  0.31382949763E+02  0.47140686674E+02  0.00000000000E+00 0. -1.
<mgrwt>
<rscale>  0 0.16521424E+03</rscale>
<asrwt>0</asrwt>
<pdfrwt beam="1">  1        2 0.73963653E-01 0.17255128E+03</pdfrwt>
<pdfrwt beam="2">  1       -2 0.98639896E-02 0.17255128E+03</pdfrwt>
<totfact> 0.43136705E+03</totfact>
</mgrwt>
</event>
<event>
 8    1  0.9424564E-006  0.1506422E+03  0.7546771E-02  0.1208695E+00
         -1   -1    0    0    0  501 -0.00000000000E+00  0.00000000000E+00  0.13964601620E+03  0.13964601620E+03  0.00000000000E+00 0.  1.
          1   -1    0    0  501    0  0.00000000000E+00 -0.00000000000E+00 -0.15127715784E+03  0.15127715784E+03  0.00000000000E+00 0. -1.
         23    2    1    2    0    0  0.33342063980E+02 -0.77179894346E+02  0.41082061153E+02  0.15614358405E+03  0.12499861507E+03 0.  0.
         23    2    1    2    0    0 -0.33342063980E+02  0.77179894346E+02 -0.52713202791E+02  0.13477958999E+03  0.91205409975E+02 0.  0.
          5    1    3    3  502    0  0.50227475177E+01  0.25547433528E+02 -0.20057154186E+02  0.33200584129E+02  0.47000000000E+01 0.  1.
         -5    1    3    3    0  502  0.28319316462E+02 -0.10272732787E+03  0.61139215339E+02  0.12294299992E+03  0.47000000000E+01 0.  1.
        -11    1    4    4    0    0 -0.27538114875E+02  0.97153435534E+02 -0.33305259314E+02  0.10633145398E+03  0.00000000000E+00 0. -1.
         11    1    4    4    0    0 -0.58039491050E+01 -0.19973541188E+02 -0.19407943478E+02  0.28448136017E+02  0.00000000000E+00 0.  1.
<mgrwt>
<rscale>  0 0.14350063E+03</rscale>
<asrwt>0</asrwt>
<pdfrwt beam="2">  1        1 0.23273409E-01 0.15064224E+03</pdfrwt>
<pdfrwt beam="1">  1       -1 0.21484002E-01 0.15064224E+03</pdfrwt>
<totfact> 0.36378566E+03</totfact>
</mgrwt>
</event>
<event>
 8    1  0.9424564E-006  0.1452446E+03  0.7546771E-02  0.1216553E+00
         -2   -1    0    0    0  501 -0.00000000000E+00  0.00000000000E+00  0.65256495349E+02  0.65256495349E+02  0.00000000000E+00 0.  1.
          2   -1    0    0  501    0  0.00000000000E+00 -0.00000000000E+00 -0.28005250265E+03  0.28005250265E+03  0.00000000000E+00 0. -1.
         23    2    1    2    0    0 -0.71732397460E+02  0.18047265155E+02 -0.76715741232E+02  0.16425984556E+03  0.12499900514E+03 0.  0.
         23    2    1    2    0    0  0.71732397460E+02 -0.18047265155E+02 -0.13808026607E+03  0.18104915244E+03  0.90782129835E+02 0.  0.
          5    1    3    3  502    0  0.49900730912E+01 -0.69803684917E+00  0.30355711916E+02  0.31127918832E+02  0.47000000000E+01 0.  1.
         -5    1    3    3    0  502 -0.76722470551E+02  0.18745302004E+02 -0.10707145315E+03  0.13313192673E+03  0.47000000000E+01 0.  1.
        -11    1    4    4    0    0  0.22305706598E+01 -0.22284038476E+02  0.40688274028E+01  0.22762011614E+02  0.00000000000E+00 0.  1.
         11    1    4    4    0    0  0.69501826800E+02  0.42367733210E+01 -0.14214909347E+03  0.15828714083E+03  0.00000000000E+00 0. -1.
<mgrwt>
<rscale>  0 0.13763063E+03</rscale>
<asrwt>0</asrwt>
<pdfrwt beam="2">  1        2 0.43085001E-01 0.14524459E+03</pdfrwt>
<pdfrwt beam="1">  1       -2 0.10039461E-01 0.14524459E+03</pdfrwt>
<totfact> 0.74233418E+03</totfact>
</mgrwt>
</event>
<event>
 8    1  0.9424564E-006  0.1467904E+03  0.7546771E-02  0.1214731E+00
          1   -1    0    0  501    0  0.00000000000E+00  0.00000000000E+00  0.16654506263E+03  0.16654506263E+03  0.00000000000E+00 0. -1.
         -1   -1    0    0    0  501 -0.00000000000E+00 -0.00000000000E+00 -0.11572659922E+03  0.11572659922E+03  0.00000000000E+00 0.  1.
         23    2    1    2    0    0  0.72600034145E+02 -0.25535731544E+02 -0.14473626818E+02  0.14750217905E+03  0.12499827362E+03 0.  0.
         23    2    1    2    0    0 -0.72600034145E+02  0.25535731544E+02  0.65292090229E+02  0.13476948280E+03  0.89313593051E+02 0.  0.
          5    1    3    3  502    0  0.43712240093E+02  0.30135421492E+02 -0.51832498243E+02  0.74347840833E+02  0.47000000000E+01 0.  1.
         -5    1    3    3    0  502  0.28887794052E+02 -0.55671153035E+02  0.37358871425E+02  0.73154338215E+02  0.47000000000E+01 0.  1.
        -11    1    4    4    0    0 -0.79085759689E+02 -0.57592858658E+01  0.24592765656E+02  0.83021267648E+02  0.00000000000E+00 0.  1.
         11    1    4    4    0    0  0.64857255435E+01  0.31295017409E+02  0.40699324573E+02  0.51748215150E+02  0.00000000000E+00 0. -1.
<mgrwt>
<rscale>  0 0.13896295E+03</rscale>
<asrwt>0</asrwt>
<pdfrwt beam="1">  1        1 0.25622317E-01 0.14679035E+03</pdfrwt>
<pdfrwt beam="2">  1       -1 0.17804092E-01 0.14679035E+03</pdfrwt>
<totfact> 0.43517879E+03</totfact>
</mgrwt>
</event>
<event>
 8    1  0.9424564E-006  0.1263614E+03  0.7546771E-02  0.1253149E+00
         -2   -1    0    0    0  501 -0.00000000000E+00  0.00000000000E+00  0.72461647680E+02  0.72461647680E+02  0.00000000000E+00 0.  1.
          2   -1    0    0  501    0  0.00000000000E+00 -0.00000000000E+00 -0.15525420073E+03  0.15525420073E+03  0.00000000000E+00 0. -1.
         23    2    1    2    0    0  0.56994307945E+01 -0.17589818278E+02 -0.35298563813E+02  0.13119905050E+03  0.12500126810E+03 0.  0.
         23    2    1    2    0    0 -0.56994307945E+01  0.17589818278E+02 -0.47493989236E+02  0.96516797907E+02  0.81962967529E+02 0.  0.
          5    1    3    3  502    0  0.53064210388E+02 -0.19466160761E+02 -0.55595237840E+02  0.79420792676E+02  0.47000000000E+01 0.  1.
         -5    1    3    3    0  502 -0.47364779593E+02  0.18763424833E+01  0.20296674027E+02  0.51778257827E+02  0.47000000000E+01 0.  1.
        -11    1    4    4    0    0 -0.25602148136E+02  0.14077931374E+02  0.13555619810E+02  0.32208895811E+02  0.00000000000E+00 0.  1.
         11    1    4    4    0    0  0.19902717341E+02  0.35118869043E+01 -0.61049609046E+02  0.64307902095E+02  0.00000000000E+00 0. -1.
<mgrwt>
<rscale>  0 0.11410639E+03</rscale>
<asrwt>0</asrwt>
<pdfrwt beam="2">  1        2 0.23885261E-01 0.12636140E+03</pdfrwt>
<pdfrwt beam="1">  1       -2 0.11147946E-01 0.12636140E+03</pdfrwt>
<totfact> 0.11771715E+04</totfact>
</mgrwt>
</event>
<event>
 8    1  0.9424564E-006  0.1275383E+03  0.7546771E-02  0.1245615E+00
         -1   -1    0    0    0  501 -0.00000000000E+00  0.00000000000E+00  0.17207855916E+03  0.17207855916E+03  0.00000000000E+00 0.  1.
          1   -1    0    0  501    0  0.00000000000E+00 -0.00000000000E+00 -0.12372317538E+03  0.12372317538E+03  0.00000000000E+00 0. -1.
         23    2    1    2    0    0  0.11439592871E+02 -0.22614038007E+02  0.12130944743E+03  0.17601705584E+03  0.12499505154E+03 0.  0.
         23    2    1    2    0    0 -0.11439592871E+02  0.22614038007E+02 -0.72954063655E+02  0.11978467870E+03  0.91563174086E+02 0.  0.
          5    1    3    3  502    0 -0.12013743743E+02  0.50851565763E+01 -0.23154711210E+02  0.26989247995E+02  0.47000000000E+01 0. -1.
         -5    1    3    3    0  502  0.23453336614E+02 -0.27699194583E+02  0.14446415864E+03  0.14902780784E+03  0.47000000000E+01 0. -1.
        -11    1    4    4    0    0 -0.23600510160E+02  0.46130267320E+02 -0.77194207845E+02  0.92972745295E+02  0.00000000000E+00 0.  1.
         11    1    4    4    0    0  0.12160917289E+02 -0.23516229313E+02  0.42401441901E+01  0.26811933410E+02  0.00000000000E+00 0. -1.
<mgrwt>
<rscale>  0 0.11848623E+03</rscale>
<asrwt>0</asrwt>
<pdfrwt beam="2">  1        1 0.19034335E-01 0.12753832E+03</pdfrwt>
<pdfrwt beam="1">  1       -1 0.26473625E-01 0.12753832E+03</pdfrwt>
<totfact> 0.33072079E+03</totfact>
</mgrwt>
</event>
<event>
 7    1  0.9424564E-006  0.1848534E+03  0.7546771E-02  0.1166389E+00
          2   -1    0    0  501    0  0.00000000000E+00  0.00000000000E+00  0.98665976921E+03  0.98665976921E+03  0.00000000000E+00 0. -1.
         -2   -1    0    0    0  501 -0.00000000000E+00 -0.00000000000E+00 -0.35567219937E+02  0.35567219937E+02  0.00000000000E+00 0.  1.
         23    2    1    2    0    0  0.30206209446E+02 -0.11374190629E+03  0.30268011619E+03  0.34797965867E+03  0.12499981509E+03 0.  0.
          5    1    3    3  502    0  0.27103643903E+02  0.60885016598E+01  0.72048991763E+01  0.29080542248E+02  0.47000000000E+01 0.  1.
         -5    1    3    3    0  502  0.31025655425E+01 -0.11983040795E+03  0.29547521701E+03  0.31889911642E+03  0.47000000000E+01 0.  1.
        -11    1    1    2    0    0 -0.12848885811E+02  0.50465759121E+01 -0.25554300286E+01  0.14038946458E+02  0.00000000000E+00 0.  1.
         11    1    1    2    0    0 -0.17357323635E+02  0.10869533038E+03  0.65096786311E+03  0.66020838402E+03  0.00000000000E+00 0. -1.
<mgrwt>
<rscale>  0 0.18146863E+03</rscale>
<asrwt>0</asrwt>
<pdfrwt beam="1">  1        2 0.15179379E+00 0.18485340E+03</pdfrwt>
<pdfrwt beam="2">  1       -2 0.54718807E-02 0.18485340E+03</pdfrwt>
<totfact> 0.45074063E+03</totfact>
</mgrwt>
</event>
<event>
 8    1  0.9424564E-006  0.1346742E+03  0.7546771E-02  0.1233082E+00
         -2   -1    0    0    0  501 -0.00000000000E+00  0.00000000000E+00  0.60706209423E+02  0.60706209423E+02  0.00000000000E+00 0.  1.
          2   -1    0    0  501    0  0.00000000000E+00 -0.00000000000E+00 -0.26829258312E+03  0.26829258312E+03  0.00000000000E+00 0. -1.
         23    2    1    2    0    0 -0.27334376478E+02  0.42067521140E+02 -0.57724516942E+02  0.14652389016E+03  0.12498114281E+03 0.  0.
         23    2    1    2    0    0  0.27334376478E+02 -0.42067521140E+02 -0.14986185676E+03  0.18247490239E+03  0.91223184651E+02 0.  0.
          5    1    3    3  502    0 -0.55494655398E+02  0.53744088557E+02  0.40230881618E+01  0.77500703680E+02  0.47000000000E+01 0.  1.
         -5    1    3    3    0  502  0.28160278919E+02 -0.11676567418E+02 -0.61747605104E+02  0.69023186477E+02  0.47000000000E+01 0.  1.
        -11    1    4    4    0    0 -0.22804182652E+02 -0.16181408979E+02 -0.10971891163E+03  0.11322591714E+03  0.00000000000E+00 0. -1.
         11    1    4    4    0    0  0.50138559130E+02 -0.25886112161E+02 -0.40142945132E+02  0.69248985251E+02  0.00000000000E+00 0.  1.
<mgrwt>
<rscale>  0 0.12627996E+03</rscale>
<asrwt>0</asrwt>
<pdfrwt beam="2">  1        2 0.41275782E-01 0.13467416E+03</pdfrwt>
<pdfrwt beam="1">  1       -2 0.93394168E-02 0.13467416E+03</pdfrwt>
<totfact> 0.86569558E+03</totfact>
</mgrwt>
</event>
<event>
 8    1  0.9424564E-006  0.1329366E+03  0.7546771E-02  0.1235869E+00
          1   -1    0    0  501    0  0.00000000000E+00  0.00000000000E+00  0.61813347821E+02  0.61813347821E+02  0.00000000000E+00 0. -1.
         -1   -1    0    0    0  501 -0.00000000000E+00 -0.00000000000E+00 -0.24350975355E+03  0.24350975355E+03  0.00000000000E+00 0.  1.
         23    2    1    2    0    0  0.40761976325E+02  0.19638400645E+02 -0.14496451727E+03  0.19668973696E+03  0.12499974345E+03 0.  0.
         23    2    1    2    0    0 -0.40761976325E+02 -0.19638400645E+02 -0.36731888458E+02  0.10863336442E+03  0.91677536729E+02 0.  0.
          5    1    3    3  502    0 -0.26248240085E+02  0.43798833369E+02 -0.24895351155E+02  0.57001547533E+02  0.47000000000E+01 0.  1.
         -5    1    3    3    0  502  0.67010216410E+02 -0.24160432724E+02 -0.12006916612E+03  0.13968818942E+03  0.47000000000E+01 0.  1.
        -11    1    4    4    0    0  0.19769551504E+02  0.20016603830E+02 -0.15663746403E+01  0.28177173831E+02  0.00000000000E+00 0.  1.
         11    1    4    4    0    0 -0.60531527830E+02 -0.39655004475E+02 -0.35165513818E+02  0.80456190585E+02  0.00000000000E+00 0. -1.
<mgrwt>
<rscale>  0 0.12448965E+03</rscale>
<asrwt>0</asrwt>
<pdfrwt beam="1">  1        1 0.95097458E-02 0.13293661E+03</pdfrwt>
<pdfrwt beam="2">  1       -1 0.37463039E-01 0.13293661E+03</pdfrwt>
<totfact> 0.45486775E+03</totfact>
</mgrwt>
</event>
<event>
 8    1  0.9424564E-006  0.1150302E+03  0.7546771E-02  0.1260451E+00
          3   -1    0    0  501    0  0.00000000000E+00  0.00000000000E+00  0.44272471612E+02  0.44272471612E+02  0.00000000000E+00 0. -1.
         -3   -1    0    0    0  501 -0.00000000000E+00 -0.00000000000E+00 -0.28695813417E+03  0.28695813417E+03  0.00000000000E+00 0.  1.
         23    2    1    2    0    0 -0.27835496719E+02 -0.20180002573E+01 -0.18796219610E+03  0.22036727095E+03  0.11159327821E+03 0.  0.
         23    2    1    2    0    0  0.27835496719E+02  0.20180002573E+01 -0.54723466466E+02  0.11086333484E+03  0.92288320098E+02 0.  0.
          5    1    3    3  502    0  0.27706685208E+02 -0.11886275311E+02 -0.77615114694E+01  0.31484520106E+02  0.47000000000E+01 0. -1.
         -5    1    3    3    0  502 -0.55542181927E+02  0.98682750542E+01 -0.18020068463E+03  0.18888275084E+03  0.47000000000E+01 0.  1.
        -11    1    4    4    0    0  0.39304787571E+02 -0.36106346402E+02 -0.45171304455E+02  0.69921250866E+02  0.00000000000E+00 0.  1.
         11    1    4    4    0    0 -0.11469290852E+02  0.38124346659E+02 -0.95521620111E+01  0.40942083971E+02  0.00000000000E+00 0. -1.
<mgrwt>
<rscale>  0 0.11006419E+03</rscale>
<asrwt>0</asrwt>
<pdfrwt beam="1">  1        3 0.68111492E-02 0.11503020E+03</pdfrwt>
<pdfrwt beam="2">  1       -3 0.44147407E-01 0.11503020E+03</pdfrwt>
<totfact> 0.15846060E+03</totfact>
</mgrwt>
</event>
<event>
 8    1  0.9424564E-006  0.1270241E+03  0.7546771E-02  0.1246635E+00
         -2   -1    0    0    0  501 -0.00000000000E+00  0.00000000000E+00  0.43802281780E+03  0.43802281780E+03  0.00000000000E+00 0.  1.
          2   -1    0    0  501    0  0.00000000000E+00 -0.00000000000E+00 -0.37365806315E+02  0.37365806315E+02  0.00000000000E+00 0. -1.
         23    2    1    2    0    0  0.14224253322E+02 -0.17541310608E+02  0.34096376111E+03  0.36385629744E+03  0.12500036735E+03 0.  0.
         23    2    1    2    0    0 -0.14224253322E+02  0.17541310608E+02  0.59693250378E+02  0.11153232668E+03  0.91466653994E+02 0.  0.
          5    1    3    3  502    0  0.60513205916E+02 -0.11565337400E+02  0.94079622492E+02  0.11255518863E+03  0.47000000000E+01 0. -1.
         -5    1    3    3    0  502 -0.46288952595E+02 -0.59759732083E+01  0.24688413862E+03  0.25130110881E+03  0.47000000000E+01 0. -1.
        -11    1    4    4    0    0 -0.15682213884E+02 -0.18131179556E+02  0.70310465552E+02  0.74284810497E+02  0.00000000000E+00 0.  1.
         11    1    4    4    0    0  0.14579605627E+01  0.35672490164E+02 -0.10617215175E+02  0.37247516180E+02  0.00000000000E+00 0. -1.
<mgrwt>
<rscale>  0 0.11788073E+03</rscale>
<asrwt>0</asrwt>
<pdfrwt beam="2">  1        2 0.57485859E-02 0.12702409E+03</pdfrwt>
<pdfrwt beam="1">  1       -2 0.67388122E-01 0.12702409E+03</pdfrwt>
<totfact> 0.25814541E+03</totfact>
</mgrwt>
</event>
<event>
 8    1  0.9424564E-006  0.1885411E+03  0.7546771E-02  0.1165006E+00
         -2   -1    0    0    0  501 -0.00000000000E+00  0.00000000000E+00  0.29484999436E+03  0.29484999436E+03  0.00000000000E+00 0.  1.
          2   -1    0    0  501    0  0.00000000000E+00 -0.00000000000E+00 -0.21639035937E+03  0.21639035937E+03  0.00000000000E+00 0. -1.
         23    2    1    2    0    0  0.81696768646E+02 -0.11509806398E+03  0.22181387104E+03  0.29111706335E+03  0.12500329934E+03 0.  0.
         23    2    1    2    0    0 -0.81696768646E+02  0.11509806398E+03 -0.14335423605E+03  0.22012329039E+03  0.89341477709E+02 0.  0.
          5    1    3    3  502    0  0.91086830572E+02 -0.13579523353E+03  0.17950457894E+03  0.24286033026E+03  0.47000000000E+01 0.  1.
         -5    1    3    3    0  502 -0.93900619261E+01  0.20697169550E+02  0.42309292095E+02  0.48256733084E+02  0.47000000000E+01 0.  1.
        -11    1    4    4    0    0  0.43389438195E+01  0.47170979051E+02 -0.81475998636E+02  0.94245774716E+02  0.00000000000E+00 0. -1.
         11    1    4    4    0    0 -0.86035712466E+02  0.67927084933E+02 -0.61878237410E+02  0.12587751567E+03  0.00000000000E+00 0.  1.
<mgrwt>
<rscale>  0 0.18292056E+03</rscale>
<asrwt>0</asrwt>
<pdfrwt beam="2">  1        2 0.33290824E-01 0.18854111E+03</pdfrwt>
<pdfrwt beam="1">  1       -2 0.45361538E-01 0.18854111E+03</pdfrwt>
<totfact> 0.72733898E+02</totfact>
</mgrwt>
</event>
<event>
 8    1  0.9424564E-006  0.1778062E+03  0.7546771E-02  0.1175784E+00
         -3   -1    0    0    0  501 -0.00000000000E+00  0.00000000000E+00  0.16558555096E+03  0.16558555096E+03  0.00000000000E+00 0.  1.
          3   -1    0    0  501    0  0.00000000000E+00 -0.00000000000E+00 -0.17888025689E+03  0.17888025689E+03  0.00000000000E+00 0. -1.
         23    2    1    2    0    0  0.49969590380E+02  0.11615800476E+03  0.35519450781E+02  0.18131929296E+03  0.12500165032E+03 0.  0.
         23    2    1    2    0    0 -0.49969590380E+02 -0.11615800476E+03 -0.48814156712E+02  0.16314651488E+03  0.90798245523E+02 0.  0.
          5    1    3    3  502    0  0.34294148853E+02  0.74539880900E+02  0.82505187922E+02  0.11645376131E+03  0.47000000000E+01 0. -1.
         -5    1    3    3    0  502  0.15675441527E+02  0.41618123861E+02 -0.46985737142E+02  0.64865531645E+02  0.47000000000E+01 0. -1.
        -11    1    4    4    0    0 -0.34063741870E+02 -0.19002533295E+02 -0.51569025478E+02  0.64659099674E+02  0.00000000000E+00 0.  1.
         11    1    4    4    0    0 -0.15905848510E+02 -0.97155471467E+02  0.27548687660E+01  0.98487415210E+02  0.00000000000E+00 0. -1.
<mgrwt>
<rscale>  0 0.17199399E+03</rscale>
<asrwt>0</asrwt>
<pdfrwt beam="2">  1        3 0.27520040E-01 0.17780623E+03</pdfrwt>
<pdfrwt beam="1">  1       -3 0.25474700E-01 0.17780623E+03</pdfrwt>
<totfact> 0.44018303E+02</totfact>
</mgrwt>
</event>
<event>
 8    1  0.9424564E-006  0.1252597E+03  0.7546771E-02  0.1252893E+00
          2   -1    0    0  501    0  0.00000000000E+00  0.00000000000E+00  0.22536156808E+02  0.22536156808E+02  0.00000000000E+00 0. -1.
         -2   -1    0    0    0  501 -0.00000000000E+00 -0.00000000000E+00 -0.52000251549E+03  0.52000251549E+03  0.00000000000E+00 0.  1.
         23    2    1    2    0    0  0.74625163807E+01 -0.29620479418E+01 -0.34653415054E+03  0.36847783381E+03  0.12500213454E+03 0.  0.
         23    2    1    2    0    0 -0.74625163807E+01  0.29620479418E+01 -0.15093220814E+03  0.17406083848E+03  0.86326016715E+02 0.  0.
          5    1    3    3  502    0 -0.55223256849E+02 -0.21808762063E+02 -0.17121140711E+03  0.18127511170E+03  0.47000000000E+01 0. -1.
         -5    1    3    3    0  502  0.62685773230E+02  0.18846714121E+02 -0.17532274343E+03  0.18720272211E+03  0.47000000000E+01 0. -1.
        -11    1    4    4    0    0 -0.41299452830E+02  0.13358401066E+02 -0.11793135114E+03  0.12566580786E+03  0.00000000000E+00 0.  1.
         11    1    4    4    0    0  0.33836936449E+02 -0.10396353125E+02 -0.33000856992E+02  0.48395030621E+02  0.00000000000E+00 0. -1.
<mgrwt>
<rscale>  0 0.11425141E+03</rscale>
<asrwt>0</asrwt>
<pdfrwt beam="1">  1        2 0.34671011E-02 0.12525972E+03</pdfrwt>
<pdfrwt beam="2">  1       -2 0.80000385E-01 0.12525972E+03</pdfrwt>
<totfact> 0.34654143E+03</totfact>
</mgrwt>
</event>
<event>
 8    1  0.9424564E-006  0.1352934E+03  0.7546771E-02  0.1232158E+00
         -1   -1    0    0    0  501 -0.00000000000E+00  0.00000000000E+00  0.59007204924E+03  0.59007204924E+03  0.00000000000E+00 0.  1.
          1   -1    0    0  501    0  0.00000000000E+00 -0.00000000000E+00 -0.31176900474E+02  0.31176900474E+02  0.00000000000E+00 0. -1.
         23    2    1    2    0    0 -0.50870014424E+02 -0.95570224073E+01  0.45132997362E+03  0.47117199037E+03  0.12500081748E+03 0.  0.
         23    2    1    2    0    0  0.50870014424E+02  0.95570224073E+01  0.10756517514E+03  0.15007695935E+03  0.90960055951E+02 0.  0.
          5    1    3    3  502    0 -0.27858192264E+02 -0.31703922591E+01  0.44515406550E+03  0.44606094011E+03  0.47000000000E+01 0. -1.
         -5    1    3    3    0  502 -0.23011822160E+02 -0.63866301482E+01  0.61759081258E+01  0.25111050256E+02  0.47000000000E+01 0. -1.
        -11    1    4    4    0    0  0.13948682248E+02 -0.40047769576E+02  0.50367429623E+02  0.65842748661E+02  0.00000000000E+00 0.  1.
         11    1    4    4    0    0  0.36921332176E+02  0.49604791983E+02  0.57197745517E+02  0.84234210684E+02  0.00000000000E+00 0. -1.
<mgrwt>
<rscale>  0 0.12688147E+03</rscale>
<asrwt>0</asrwt>
<pdfrwt beam="2">  1        1 0.47964467E-02 0.13529338E+03</pdfrwt>
<pdfrwt beam="1">  1       -1 0.90780307E-01 0.13529338E+03</pdfrwt>
<totfact> 0.21331064E+03</totfact>
</mgrwt>
</event>
<event>
 8    1  0.9424564E-006  0.1255905E+03  0.7546771E-02  0.1250539E+00
         -2   -1    0    0    0  501 -0.00000000000E+00  0.00000000000E+00  0.51265332603E+02  0.51265332603E+02  0.00000000000E+00 0.  1.
          2   -1    0    0  501    0  0.00000000000E+00 -0.00000000000E+00 -0.24603912399E+03  0.24603912399E+03  0.00000000000E+00 0. -1.
         23    2    1    2    0    0  0.11789766768E+02  0.30965440917E+01 -0.71277515469E+02  0.14440722971E+03  0.12499750635E+03 0.  0.
         23    2    1    2    0    0 -0.11789766768E+02 -0.30965440917E+01 -0.12349627592E+03  0.15289722689E+03  0.89317661402E+02 0.  0.
          5    1    3    3  502    0 -0.55754896804E+02  0.66890448897E+01 -0.43268929378E+02  0.71046759875E+02  0.47000000000E+01 0. -1.
         -5    1    3    3    0  502  0.67544663572E+02 -0.35925007980E+01 -0.28008586091E+02  0.73360469831E+02  0.47000000000E+01 0. -1.
        -11    1    4    4    0    0 -0.11342296431E+02  0.42768429222E+02 -0.62661742213E+02  0.76709061810E+02  0.00000000000E+00 0. -1.
         11    1    4    4    0    0 -0.44747033783E+00 -0.45864973314E+02 -0.60834533702E+02  0.76188165076E+02  0.00000000000E+00 0.  1.
<mgrwt>
<rscale>  0 0.11559888E+03</rscale>
<asrwt>0</asrwt>
<pdfrwt beam="2">  1        2 0.37852174E-01 0.12559046E+03</pdfrwt>
<pdfrwt beam="1">  1       -2 0.78869741E-02 0.12559046E+03</pdfrwt>
<totfact> 0.12267749E+04</totfact>
</mgrwt>
</event>
<event>
 7    1  0.9424564E-006  0.4925675E+03  0.7546771E-02  0.1072805E+00
          1   -1    0    0  501    0  0.00000000000E+00  0.00000000000E+00  0.28751179501E+03  0.28751179501E+03  0.00000000000E+00 0. -1.
         -1   -1    0    0    0  501 -0.00000000000E+00 -0.00000000000E+00 -0.37661170230E+03  0.37661170230E+03  0.00000000000E+00 0.  1.
         23    2    1    2    0    0 -0.16670964422E+02 -0.13761877878E+02  0.98802271961E+02  0.13693281728E+03  0.92311414056E+02 0.  0.
          5    1    1    2  502    0  0.71520659168E+02 -0.21413150789E+03  0.14709914826E+01  0.22581355401E+03  0.47000000000E+01 0. -1.
         -5    1    1    2    0  502 -0.54849694746E+02  0.22789338577E+03 -0.18937317073E+03  0.30137712601E+03  0.47000000000E+01 0.  1.
        -11    1    3    3    0    0 -0.41459221862E+02  0.23756811275E+02  0.36656243082E+02  0.60224026071E+02  0.00000000000E+00 0.  1.
         11    1    3    3    0    0  0.24788257440E+02 -0.37518689153E+02  0.62146028879E+02  0.76708791205E+02  0.00000000000E+00 0. -1.
<mgrwt>
<rscale>  0 0.32625825E+03</rscale>
<asrwt>0</asrwt>
<pdfrwt beam="1">  1        1 0.44232584E-01 0.49256754E+03</pdfrwt>
<pdfrwt beam="2">  1       -1 0.57940262E-01 0.49256754E+03</pdfrwt>
<totfact> 0.28571891E+02</totfact>
</mgrwt>
</event>
<event>
 8    1  0.9424564E-006  0.1312188E+03  0.7546771E-02  0.1239124E+00
          3   -1    0    0  501    0  0.00000000000E+00  0.00000000000E+00  0.20638760011E+03  0.20638760011E+03  0.00000000000E+00 0. -1.
         -3   -1    0    0    0  501 -0.00000000000E+00 -0.00000000000E+00 -0.66041964008E+02  0.66041964008E+02  0.00000000000E+00 0.  1.
         23    2    1    2    0    0 -0.28971342800E+02 -0.27460335844E+02  0.58748808583E+02  0.14376994808E+03  0.12499986685E+03 0.  0.
         23    2    1    2    0    0  0.28971342800E+02  0.27460335844E+02  0.81596827521E+02  0.12865961604E+03  0.91114465318E+02 0.  0.
          5    1    3    3  502    0 -0.20722099730E+02 -0.53477903532E+02 -0.19504390508E+02  0.60760207640E+02  0.47000000000E+01 0. -1.
         -5    1    3    3    0  502 -0.82492430703E+01  0.26017567689E+02  0.78253199091E+02  0.83009740438E+02  0.47000000000E+01 0. -1.
        -11    1    4    4    0    0  0.14818997094E+01  0.57317028256E+02  0.58727479992E+02  0.82075298726E+02  0.00000000000E+00 0.  1.
         11    1    4    4    0    0  0.27489443091E+02 -0.29856692413E+02  0.22869347529E+02  0.46584317315E+02  0.00000000000E+00 0. -1.
<mgrwt>
<rscale>  0 0.12244060E+03</rscale>
<asrwt>0</asrwt>
<pdfrwt beam="1">  1        3 0.31751938E-01 0.13121881E+03</pdfrwt>
<pdfrwt beam="2">  1       -3 0.10160302E-01 0.13121881E+03</pdfrwt>
<totfact> 0.15844521E+03</totfact>
</mgrwt>
</event>
<event>
 8    1  0.9424564E-006  0.1320424E+03  0.7546771E-02  0.1238685E+00
          1   -1    0    0  501    0  0.00000000000E+00  0.00000000000E+00  0.42460805772E+02  0.42460805772E+02  0.00000000000E+00 0. -1.
         -1   -1    0    0    0  501 -0.00000000000E+00 -0.00000000000E+00 -0.31314374242E+03  0.31314374242E+03  0.00000000000E+00 0.  1.
         23    2    1    2    0    0 -0.26404767393E+02 -0.33183269459E+02 -0.15053326119E+03  0.20023852750E+03  0.12504744723E+03 0.  0.
         23    2    1    2    0    0  0.26404767393E+02  0.33183269459E+02 -0.12014967546E+03  0.15536602069E+03  0.88906213278E+02 0.  0.
          5    1    3    3  502    0 -0.34669753452E+02 -0.50094131951E+02 -0.16505711525E+03  0.17600384983E+03  0.47000000000E+01 0. -1.
         -5    1    3    3    0  502  0.82649860595E+01  0.16910862492E+02  0.14523854065E+02  0.24234677668E+02  0.47000000000E+01 0. -1.
        -11    1    4    4    0    0  0.55254734348E+02  0.84438828229E+01 -0.93551524762E+02  0.10897831257E+03  0.00000000000E+00 0.  1.
         11    1    4    4    0    0 -0.28849966955E+02  0.24739386636E+02 -0.26598150700E+02  0.46387708125E+02  0.00000000000E+00 0. -1.
<mgrwt>
<rscale>  0 0.12271467E+03</rscale>
<asrwt>0</asrwt>
<pdfrwt beam="1">  1        1 0.65324312E-02 0.13204244E+03</pdfrwt>
<pdfrwt beam="2">  1       -1 0.48175963E-01 0.13204244E+03</pdfrwt>
<totfact> 0.48191084E+03</totfact>
</mgrwt>
</event>
<event>
 8    1  0.9424564E-006  0.1338246E+03  0.7546771E-02  0.1234138E+00
         -2   -1    0    0    0  501 -0.00000000000E+00  0.00000000000E+00  0.98866160805E+02  0.98866160805E+02  0.00000000000E+00 0.  1.
          2   -1    0    0  501    0  0.00000000000E+00 -0.00000000000E+00 -0.14648627373E+03  0.14648627373E+03  0.00000000000E+00 0. -1.
         23    2    1    2    0    0  0.36677266755E+02  0.30609681316E+02 -0.74757501910E+01  0.13403320568E+03  0.12500735538E+03 0.  0.
         23    2    1    2    0    0 -0.36677266755E+02 -0.30609681316E+02 -0.40144362739E+02  0.11131922886E+03  0.92185825192E+02 0.  0.
          5    1    3    3  502    0  0.47219279490E+02 -0.10699028881E+02 -0.52690580511E+02  0.71711343937E+02  0.47000000000E+01 0. -1.
         -5    1    3    3    0  502 -0.10542012736E+02  0.41308710198E+02  0.45214830320E+02  0.62321861747E+02  0.47000000000E+01 0. -1.
        -11    1    4    4    0    0 -0.87184849477E+01 -0.36317485804E+02  0.21709513796E+02  0.43200402129E+02  0.00000000000E+00 0.  1.
         11    1    4    4    0    0 -0.27958781807E+02  0.57078044876E+01 -0.61853876534E+02  0.68118826726E+02  0.00000000000E+00 0. -1.
<mgrwt>
<rscale>  0 0.12559757E+03</rscale>
<asrwt>0</asrwt>
<pdfrwt beam="2">  1        2 0.22536350E-01 0.13382456E+03</pdfrwt>
<pdfrwt beam="1">  1       -2 0.15210179E-01 0.13382456E+03</pdfrwt>
<totfact> 0.76530001E+03</totfact>
</mgrwt>
</event>
<event>
 8    1  0.9424564E-006  0.2066085E+03  0.7546771E-02  0.1148032E+00
          2   -1    0    0  501    0  0.00000000000E+00  0.00000000000E+00  0.73093850917E+03  0.73093850917E+03  0.00000000000E+00 0. -1.
         -2   -1    0    0    0  501 -0.00000000000E+00 -0.00000000000E+00 -0.54048920094E+02  0.54048920094E+02  0.00000000000E+00 0.  1.
         23    2    1    2    0    0  0.14297427640E+03 -0.81374642859E+02  0.31418973733E+03  0.37603490356E+03  0.12499432562E+03 0.  0.
         23    2    1    2    0    0 -0.14297427640E+03  0.81374642859E+02  0.36269985175E+03  0.40895252571E+03  0.92884388418E+02 0.  0.
          5    1    3    3  502    0  0.19683638734E+02 -0.85765583813E+01  0.17472937781E+03  0.17610635552E+03  0.47000000000E+01 0.  1.
         -5    1    3    3    0  502  0.12329063767E+03 -0.72798084478E+02  0.13946035953E+03  0.19992854804E+03  0.47000000000E+01 0.  1.
        -11    1    4    4    0    0 -0.12412093842E+03  0.50638060915E+02  0.19000931875E+03  0.23253765669E+03  0.00000000000E+00 0.  1.
         11    1    4    4    0    0 -0.18853337979E+02  0.30736581944E+02  0.17269053300E+03  0.17641486902E+03  0.00000000000E+00 0. -1.
<mgrwt>
<rscale>  0 0.20203700E+03</rscale>
<asrwt>0</asrwt>
<pdfrwt beam="1">  1        2 0.11245207E+00 0.20660846E+03</pdfrwt>
<pdfrwt beam="2">  1       -2 0.83152190E-02 0.20660846E+03</pdfrwt>
<totfact> 0.35018130E+03</totfact>
</mgrwt>
</event>
<event>
 8    1  0.1244242E-005  0.1506881E+03  0.7546771E-02  0.1206910E+00
          1   -1    0    0  501    0  0.00000000000E+00  0.00000000000E+00  0.66578735712E+03  0.66578735712E+03  0.00000000000E+00 0. -1.
         -1   -1    0    0    0  501 -0.00000000000E+00 -0.00000000000E+00 -0.32890979470E+02  0.32890979470E+02  0.00000000000E+00 0.  1.
         23    2    1    2    0    0  0.78686031787E+02 -0.29839585165E+02  0.22385153688E+03  0.26984517384E+03  0.12500005936E+03 0.  0.
         23    2    1    2    0    0 -0.78686031787E+02  0.29839585165E+02  0.40904484077E+03  0.42883316275E+03  0.97459259556E+02 0.  0.
          5    1    3    3  502    0  0.10407970593E+03 -0.22131521074E+02  0.21746553025E+03  0.24214817005E+03  0.47000000000E+01 0.  1.
         -5    1    3    3    0  502 -0.25393674142E+02 -0.77080640906E+01  0.63860066342E+01  0.27697003794E+02  0.47000000000E+01 0.  1.
        -11    1    4    4    0    0 -0.96132739003E+01  0.12908910250E+02  0.27100297318E+01  0.16321741944E+02  0.00000000000E+00 0.  1.
         11    1    4    4    0    0 -0.69072757887E+02  0.16930674915E+02  0.40633481104E+03  0.41251142081E+03  0.00000000000E+00 0. -1.
<mgrwt>
<rscale>  0 0.14487984E+03</rscale>
<asrwt>0</asrwt>
<pdfrwt beam="1">  1        1 0.10242881E+00 0.15068811E+03</pdfrwt>
<pdfrwt beam="2">  1       -1 0.50601512E-02 0.15068811E+03</pdfrwt>
<totfact> 0.51014042E+03</totfact>
</mgrwt>
</event>
<event>
 8    1  0.9424564E-006  0.1285636E+03  0.7546771E-02  0.1243148E+00
          2   -1    0    0  501    0  0.00000000000E+00  0.00000000000E+00  0.12861469183E+03  0.12861469183E+03  0.00000000000E+00 0. -1.
         -2   -1    0    0    0  501 -0.00000000000E+00 -0.00000000000E+00 -0.19513289792E+03  0.19513289792E+03  0.00000000000E+00 0.  1.
         23    2    1    2    0    0  0.24500842448E+02 -0.17362532207E+02 -0.14846813706E+03  0.19639600307E+03  0.12500741375E+03 0.  0.
         23    2    1    2    0    0 -0.24500842448E+02  0.17362532207E+02  0.81949930984E+02  0.12735158668E+03  0.92740965260E+02 0.  0.
          5    1    3    3  502    0  0.30062510401E+02  0.33597442829E+02 -0.70156391159E+01  0.45867765244E+02  0.47000000000E+01 0.  1.
         -5    1    3    3    0  502 -0.55616679527E+01 -0.50959975037E+02 -0.14145249795E+03  0.15052823782E+03  0.47000000000E+01 0.  1.
        -11    1    4    4    0    0 -0.38333070436E+02  0.35362983084E+01 -0.44624739543E+01  0.38753623941E+02  0.00000000000E+00 0.  1.
         11    1    4    4    0    0  0.13832227988E+02  0.13826233899E+02  0.86412404938E+02  0.88597962743E+02  0.00000000000E+00 0. -1.
<mgrwt>
<rscale>  0 0.11996901E+03</rscale>
<asrwt>0</asrwt>
<pdfrwt beam="1">  1        2 0.19786876E-01 0.12856361E+03</pdfrwt>
<pdfrwt beam="2">  1       -2 0.30020446E-01 0.12856361E+03</pdfrwt>
<totfact> 0.27633743E+03</totfact>
</mgrwt>
</event>
<event>
 8    1  0.9424564E-006  0.1255584E+03  0.7546771E-02  0.1259338E+00
          2   -1    0    0  501    0  0.00000000000E+00  0.00000000000E+00  0.52873695806E+02  0.52873695806E+02  0.00000000000E+00 0. -1.
         -2   -1    0    0    0  501 -0.00000000000E+00 -0.00000000000E+00 -0.23738860190E+03  0.23738860190E+03  0.00000000000E+00 0.  1.
         23    2    1    2    0    0  0.59663191105E+01  0.85428633578E+01 -0.17277421571E+03  0.21357867150E+03  0.12512530451E+03 0.  0.
         23    2    1    2    0    0 -0.59663191105E+01 -0.85428633578E+01 -0.11740690392E+02  0.76683626209E+02  0.75059691177E+02 0.  0.
          5    1    3    3  502    0  0.11198927208E+02  0.66113884884E+02 -0.84891395851E+02  0.10828250475E+03  0.47000000000E+01 0. -1.
         -5    1    3    3    0  502 -0.52326080974E+01 -0.57571021526E+02 -0.87882819855E+02  0.10529616675E+03  0.47000000000E+01 0. -1.
        -11    1    4    4    0    0  0.30371954707E+02 -0.10002224936E+02  0.10971656261E+02  0.33806469462E+02  0.00000000000E+00 0. -1.
         11    1    4    4    0    0 -0.36338273817E+02  0.14593615785E+01 -0.22712346653E+02  0.42877156747E+02  0.00000000000E+00 0.  1.
<mgrwt>
<rscale>  0 0.11066808E+03</rscale>
<asrwt>0</asrwt>
<pdfrwt beam="1">  1        2 0.81344146E-02 0.12555843E+03</pdfrwt>
<pdfrwt beam="2">  1       -2 0.36521324E-01 0.12555843E+03</pdfrwt>
<totfact> 0.55621241E+03</totfact>
</mgrwt>
</event>
<event>
 8    1  0.9424564E-006  0.1495648E+03  0.7546771E-02  0.1210642E+00
          3   -1    0    0  501    0  0.00000000000E+00  0.00000000000E+00  0.19603855549E+03  0.19603855549E+03  0.00000000000E+00 0. -1.
         -3   -1    0    0    0  501 -0.00000000000E+00 -0.00000000000E+00 -0.96490136925E+02  0.96490136925E+02  0.00000000000E+00 0.  1.
         23    2    1    2    0    0  0.64502614964E+02 -0.50834328921E+02  0.30270906495E+02  0.15259738832E+03  0.12499967524E+03 0.  0.
         23    2    1    2    0    0 -0.64502614964E+02  0.50834328921E+02  0.69277512068E+02  0.13993130409E+03  0.89647531206E+02 0.  0.
          5    1    3    3  502    0  0.35606487092E+02 -0.69239158141E+02 -0.29624554334E+02  0.83436126244E+02  0.47000000000E+01 0.  1.
         -5    1    3    3    0  502  0.28896127872E+02  0.18404829220E+02  0.59895460829E+02  0.69161262080E+02  0.47000000000E+01 0.  1.
        -11    1    4    4    0    0 -0.55223058710E+02  0.32748745035E+02 -0.35684268354E+01  0.64302411966E+02  0.00000000000E+00 0.  1.
         11    1    4    4    0    0 -0.92795562546E+01  0.18085583887E+02  0.72845938904E+02  0.75628892122E+02  0.00000000000E+00 0. -1.
<mgrwt>
<rscale>  0 0.14201575E+03</rscale>
<asrwt>0</asrwt>
<pdfrwt beam="1">  1        3 0.30159778E-01 0.14956482E+03</pdfrwt>
<pdfrwt beam="2">  1       -3 0.14844636E-01 0.14956482E+03</pdfrwt>
<totfact> 0.94088972E+02</totfact>
</mgrwt>
</event>
<event>
 8    1  0.9424564E-006  0.1363411E+03  0.7546771E-02  0.1231041E+00
         -1   -1    0    0    0  501 -0.00000000000E+00  0.00000000000E+00  0.77189561758E+03  0.77189561758E+03  0.00000000000E+00 0.  1.
          1   -1    0    0  501    0  0.00000000000E+00 -0.00000000000E+00 -0.20589805562E+02  0.20589805562E+02  0.00000000000E+00 0. -1.
         23    2    1    2    0    0  0.11872825782E+02 -0.53132789674E+02  0.53642617094E+03  0.55348165354E+03  0.12499938643E+03 0.  0.
         23    2    1    2    0    0 -0.11872825782E+02  0.53132789674E+02  0.21487964108E+03  0.23900376960E+03  0.89361537602E+02 0.  0.
          5    1    3    3  502    0  0.28336918035E+02  0.34205305949E+02  0.23428760070E+03  0.23850734521E+03  0.47000000000E+01 0. -1.
         -5    1    3    3    0  502 -0.16464092253E+02 -0.87338095623E+02  0.30213857024E+03  0.31497430833E+03  0.47000000000E+01 0. -1.
        -11    1    4    4    0    0  0.22934280872E+02  0.60342130475E+02  0.16938723400E+03  0.18127103737E+03  0.00000000000E+00 0. -1.
         11    1    4    4    0    0 -0.34807106653E+02 -0.72093408005E+01  0.45492407084E+02  0.57732732230E+02  0.00000000000E+00 0.  1.
<mgrwt>
<rscale>  0 0.12761292E+03</rscale>
<asrwt>0</asrwt>
<pdfrwt beam="2">  1        1 0.31676630E-02 0.13634113E+03</pdfrwt>
<pdfrwt beam="1">  1       -1 0.11875315E+00 0.13634113E+03</pdfrwt>
<totfact> 0.20758963E+03</totfact>
</mgrwt>
</event>
<event>
 8    1  0.9424564E-006  0.1302598E+03  0.7546771E-02  0.1240460E+00
         -2   -1    0    0    0  501 -0.00000000000E+00  0.00000000000E+00  0.13590414591E+03  0.13590414591E+03  0.00000000000E+00 0.  1.
          2   -1    0    0  501    0  0.00000000000E+00 -0.00000000000E+00 -0.16477248733E+03  0.16477248733E+03  0.00000000000E+00 0. -1.
         23    2    1    2    0    0 -0.29098964553E+02 -0.22280468330E+02  0.80540902589E+02  0.15314849071E+03  0.12499781682E+03 0.  0.
         23    2    1    2    0    0  0.29098964553E+02  0.22280468330E+02 -0.10940924401E+03  0.14752814253E+03  0.91929326977E+02 0.  0.
          5    1    3    3  502    0  0.37604269867E+02  0.19912169956E+02  0.55740940750E+02  0.70283128134E+02  0.47000000000E+01 0. -1.
         -5    1    3    3    0  502 -0.66703234420E+02 -0.42192638286E+02  0.24799961840E+02  0.82865362576E+02  0.47000000000E+01 0. -1.
        -11    1    4    4    0    0  0.26571143781E+02 -0.33653441099E+02 -0.50680463529E+02  0.66385910878E+02  0.00000000000E+00 0.  1.
         11    1    4    4    0    0  0.25278207724E+01  0.55933909428E+02 -0.58728780477E+02  0.81142231656E+02  0.00000000000E+00 0. -1.
<mgrwt>
<rscale>  0 0.12161267E+03</rscale>
<asrwt>0</asrwt>
<pdfrwt beam="2">  1        2 0.25349613E-01 0.13025983E+03</pdfrwt>
<pdfrwt beam="1">  1       -2 0.20908330E-01 0.13025983E+03</pdfrwt>
<totfact> 0.39459197E+03</totfact>
</mgrwt>
</event>
<event>
 8    1  0.9424564E-006  0.1446699E+03  0.7546771E-02  0.1218681E+00
          1   -1    0    0  501    0  0.00000000000E+00  0.00000000000E+00  0.42092303922E+03  0.42092303922E+03  0.00000000000E+00 0. -1.
         -1   -1    0    0    0  501 -0.00000000000E+00 -0.00000000000E+00 -0.43196188569E+02  0.43196188569E+02  0.00000000000E+00 0.  1.
         23    2    1    2    0    0 -0.71198075953E+02 -0.15345482147E+02  0.14269602006E+03  0.20320321451E+03  0.12499896961E+03 0.  0.
         23    2    1    2    0    0  0.71198075953E+02  0.15345482147E+02  0.23503083059E+03  0.26091601328E+03  0.86792999822E+02 0.  0.
          5    1    3    3  502    0 -0.67314626156E+02 -0.51185601879E+02  0.14373604982E+03  0.16683335024E+03  0.47000000000E+01 0.  1.
         -5    1    3    3    0  502 -0.38834497970E+01  0.35840119732E+02 -0.10400297603E+01  0.36369864265E+02  0.47000000000E+01 0.  1.
        -11    1    4    4    0    0  0.24269072089E+02  0.44000654156E+02  0.64648500112E+02  0.81880852420E+02  0.00000000000E+00 0.  1.
         11    1    4    4    0    0  0.46929003864E+02 -0.28655172009E+02  0.17038233048E+03  0.17903516086E+03  0.00000000000E+00 0. -1.
<mgrwt>
<rscale>  0 0.13609574E+03</rscale>
<asrwt>0</asrwt>
<pdfrwt beam="1">  1        1 0.64757388E-01 0.14466994E+03</pdfrwt>
<pdfrwt beam="2">  1       -1 0.66455677E-02 0.14466994E+03</pdfrwt>
<totfact> 0.62372966E+03</totfact>
</mgrwt>
</event>
<event>
 8    1  0.9424564E-006  0.1297967E+03  0.7546771E-02  0.1239828E+00
         -1   -1    0    0    0  501 -0.00000000000E+00  0.00000000000E+00  0.46910760204E+03  0.46910760204E+03  0.00000000000E+00 0.  1.
          1   -1    0    0  501    0  0.00000000000E+00 -0.00000000000E+00 -0.28471616931E+02  0.28471616931E+02  0.00000000000E+00 0. -1.
         23    2    1    2    0    0  0.12531654512E+02 -0.32611912937E+02  0.25080942691E+03  0.28240494027E+03  0.12500640956E+03 0.  0.
         23    2    1    2    0    0 -0.12531654512E+02  0.32611912937E+02  0.18982655820E+03  0.21517427870E+03  0.95106617997E+02 0.  0.
          5    1    3    3  502    0  0.56536055299E+02 -0.51581238293E+02  0.11414523895E+03  0.13750700079E+03  0.47000000000E+01 0. -1.
         -5    1    3    3    0  502 -0.44004400786E+02  0.18969325356E+02  0.13666418797E+03  0.14489793948E+03  0.47000000000E+01 0. -1.
        -11    1    4    4    0    0 -0.30536878574E+01 -0.32700562647E+02  0.86977052905E+02  0.92971283410E+02  0.00000000000E+00 0.  1.
         11    1    4    4    0    0 -0.94779666548E+01  0.65312475584E+02  0.10284950529E+03  0.12220299529E+03  0.00000000000E+00 0. -1.
<mgrwt>
<rscale>  0 0.12200344E+03</rscale>
<asrwt>0</asrwt>
<pdfrwt beam="2">  1        1 0.43802491E-02 0.12979669E+03</pdfrwt>
<pdfrwt beam="1">  1       -1 0.72170395E-01 0.12979669E+03</pdfrwt>
<totfact> 0.38603770E+03</totfact>
</mgrwt>
</event>
<event>
 8    1  0.9424564E-006  0.1823425E+03  0.7546771E-02  0.1170993E+00
          2   -1    0    0  501    0  0.00000000000E+00  0.00000000000E+00  0.96170852569E+03  0.96170852569E+03  0.00000000000E+00 0. -1.
         -2   -1    0    0    0  501 -0.00000000000E+00 -0.00000000000E+00 -0.44406460792E+02  0.44406460792E+02  0.00000000000E+00 0.  1.
         23    2    1    2    0    0 -0.86456762845E+02 -0.10074152665E+03  0.19860718102E+03  0.26961748257E+03  0.12500059008E+03 0.  0.
         23    2    1    2    0    0  0.86456762845E+02  0.10074152665E+03  0.71869488388E+03  0.73649750391E+03  0.91008846395E+02 0.  0.
          5    1    3    3  502    0 -0.95829521292E+02 -0.75591740774E+02  0.20764777778E+03  0.24090889988E+03  0.47000000000E+01 0. -1.
         -5    1    3    3    0  502  0.93727584464E+01 -0.25149785876E+02 -0.90405967579E+01  0.28708582693E+02  0.47000000000E+01 0. -1.
        -11    1    4    4    0    0  0.87320727893E+02  0.34970246774E+02  0.46464511289E+03  0.47407057346E+03  0.00000000000E+00 0.  1.
         11    1    4    4    0    0 -0.86396504787E+00  0.65771279876E+02  0.25404977099E+03  0.26242693046E+03  0.00000000000E+00 0. -1.
<mgrwt>
<rscale>  0 0.17674267E+03</rscale>
<asrwt>0</asrwt>
<pdfrwt beam="1">  1        2 0.14795514E+00 0.18234247E+03</pdfrwt>
<pdfrwt beam="2">  1       -2 0.68317640E-02 0.18234247E+03</pdfrwt>
<totfact> 0.33239057E+03</totfact>
</mgrwt>
</event>
<event>
 8    1  0.9424564E-006  0.1305810E+03  0.7546771E-02  0.1239835E+00
          3   -1    0    0  501    0  0.00000000000E+00  0.00000000000E+00  0.44275552050E+02  0.44275552050E+02  0.00000000000E+00 0. -1.
         -3   -1    0    0    0  501 -0.00000000000E+00 -0.00000000000E+00 -0.32477288012E+03  0.32477288012E+03  0.00000000000E+00 0.  1.
         23    2    1    2    0    0 -0.23436651673E+02 -0.29604812911E+02 -0.20934640287E+03  0.24673327698E+03  0.12500268791E+03 0.  0.
         23    2    1    2    0    0  0.23436651673E+02  0.29604812911E+02 -0.71150925197E+02  0.12231515519E+03  0.92047930141E+02 0.  0.
          5    1    3    3  502    0 -0.74640187171E+02 -0.10945471325E+02 -0.11317459688E+03  0.13609386563E+03  0.47000000000E+01 0.  1.
         -5    1    3    3    0  502  0.51203535498E+02 -0.18659341586E+02 -0.96171805994E+02  0.11063941135E+03  0.47000000000E+01 0.  1.
        -11    1    4    4    0    0 -0.22763433312E+02  0.44471147830E+02 -0.44727705735E+02  0.67055384167E+02  0.00000000000E+00 0.  1.
         11    1    4    4    0    0  0.46200084985E+02 -0.14866334919E+02 -0.26423219462E+02  0.55259771021E+02  0.00000000000E+00 0. -1.
<mgrwt>
<rscale>  0 0.12199903E+03</rscale>
<asrwt>0</asrwt>
<pdfrwt beam="1">  1        3 0.68116236E-02 0.13058098E+03</pdfrwt>
<pdfrwt beam="2">  1       -3 0.49965057E-01 0.13058098E+03</pdfrwt>
<totfact> 0.12689741E+03</totfact>
</mgrwt>
</event>
<event>
 8    1  0.9424564E-006  0.1297606E+03  0.7546771E-02  0.1237981E+00
          2   -1    0    0  501    0  0.00000000000E+00  0.00000000000E+00  0.16094002620E+03  0.16094002620E+03  0.00000000000E+00 0. -1.
         -2   -1    0    0    0  501 -0.00000000000E+00 -0.00000000000E+00 -0.86411658484E+02  0.86411658484E+02  0.00000000000E+00 0.  1.
         23    2    1    2    0    0  0.22563862534E+01 -0.35023661024E+02  0.30944550815E+02  0.13339934378E+03  0.12492426340E+03 0.  0.
         23    2    1    2    0    0 -0.22563862534E+01  0.35023661024E+02  0.43583816901E+02  0.11395234090E+03  0.99266503870E+02 0.  0.
          5    1    3    3  502    0  0.86693998847E+01  0.61004467621E+01  0.73075828893E+02  0.73990139299E+02  0.47000000000E+01 0. -1.
         -5    1    3    3    0  502 -0.64130136314E+01 -0.41124107786E+02 -0.42131278078E+02  0.59409204485E+02  0.47000000000E+01 0. -1.
        -11    1    4    4    0    0  0.29808714394E+02 -0.23150500005E+02  0.23891697596E+02  0.44668986090E+02  0.00000000000E+00 0. -1.
         11    1    4    4    0    0 -0.32065100647E+02  0.58174161029E+02  0.19692119305E+02  0.69283354810E+02  0.00000000000E+00 0.  1.
<mgrwt>
<rscale>  0 0.12315500E+03</rscale>
<asrwt>0</asrwt>
<pdfrwt beam="1">  1        2 0.24760004E-01 0.12976062E+03</pdfrwt>
<pdfrwt beam="2">  1       -2 0.13294101E-01 0.12976062E+03</pdfrwt>
<totfact> 0.85593204E+03</totfact>
</mgrwt>
</event>
<event>
 8    1  0.9424564E-006  0.1514275E+03  0.7546771E-02  0.1209163E+00
         -2   -1    0    0    0  501 -0.00000000000E+00  0.00000000000E+00  0.35657784924E+02  0.35657784924E+02  0.00000000000E+00 0.  1.
          2   -1    0    0  501    0  0.00000000000E+00 -0.00000000000E+00 -0.52287219006E+03  0.52287219006E+03  0.00000000000E+00 0. -1.
         23    2    1    2    0    0 -0.71777116369E+02  0.46407018271E+02 -0.25013927420E+03  0.29240375918E+03  0.12499894443E+03 0.  0.
         23    2    1    2    0    0  0.71777116369E+02 -0.46407018271E+02 -0.23707513094E+03  0.26612621580E+03  0.85515959027E+02 0.  0.
          5    1    3    3  502    0  0.14316390386E+02  0.27103958738E+02 -0.44733299284E+01  0.31331841529E+02  0.47000000000E+01 0.  1.
         -5    1    3    3    0  502 -0.86093506755E+02  0.19303059532E+02 -0.24566594427E+03  0.26107191765E+03  0.47000000000E+01 0.  1.
        -11    1    4    4    0    0  0.21343978404E+02 -0.50410767745E+02 -0.56798617772E+02  0.78885321191E+02  0.00000000000E+00 0.  1.
         11    1    4    4    0    0  0.50433137965E+02  0.40037494741E+01 -0.18027651316E+03  0.18724089461E+03  0.00000000000E+00 0. -1.
<mgrwt>
<rscale>  0 0.14314187E+03</rscale>
<asrwt>0</asrwt>
<pdfrwt beam="2">  1        2 0.80441880E-01 0.15142755E+03</pdfrwt>
<pdfrwt beam="1">  1       -2 0.54858128E-02 0.15142755E+03</pdfrwt>
<totfact> 0.96538058E+03</totfact>
</mgrwt>
</event>
<event>
 8    1  0.9424564E-006  0.1415711E+03  0.7546771E-02  0.1222541E+00
          2   -1    0    0  501    0  0.00000000000E+00  0.00000000000E+00  0.14733134448E+03  0.14733134448E+03  0.00000000000E+00 0. -1.
         -2   -1    0    0    0  501 -0.00000000000E+00 -0.00000000000E+00 -0.16184735366E+03  0.16184735366E+03  0.00000000000E+00 0.  1.
         23    2    1    2    0    0 -0.54000425767E+02  0.38736326029E+02 -0.96019396727E+02  0.17106172811E+03  0.12500336532E+03 0.  0.
         23    2    1    2    0    0  0.54000425767E+02 -0.38736326029E+02  0.81503387543E+02  0.13811697003E+03  0.89537401635E+02 0.  0.
          5    1    3    3  502    0 -0.11327789053E+02  0.48240937350E+02 -0.11335145632E+03  0.12379882670E+03  0.47000000000E+01 0. -1.
         -5    1    3    3    0  502 -0.42672636714E+02 -0.95046113207E+01  0.17332059596E+02  0.47262901417E+02  0.47000000000E+01 0. -1.
        -11    1    4    4    0    0  0.18199199464E+02 -0.30800400670E+02 -0.11956504175E+02  0.37720465727E+02  0.00000000000E+00 0.  1.
         11    1    4    4    0    0  0.35801226303E+02 -0.79359253594E+01  0.93459891717E+02  0.10039650430E+03  0.00000000000E+00 0. -1.
<mgrwt>
<rscale>  0 0.13336910E+03</rscale>
<asrwt>0</asrwt>
<pdfrwt beam="1">  1        2 0.22666361E-01 0.14157115E+03</pdfrwt>
<pdfrwt beam="2">  1       -2 0.24899593E-01 0.14157115E+03</pdfrwt>
<totfact> 0.33206519E+03</totfact>
</mgrwt>
</event>
<event>
 8    1  0.9424564E-006  0.1416210E+03  0.7546771E-02  0.1221423E+00
          1   -1    0    0  501    0  0.00000000000E+00  0.00000000000E+00  0.23311272002E+03  0.23311272002E+03  0.00000000000E+00 0. -1.
         -1   -1    0    0    0  501 -0.00000000000E+00 -0.00000000000E+00 -0.10683295816E+03  0.10683295816E+03  0.00000000000E+00 0.  1.
         23    2    1    2    0    0  0.42889249375E+02 -0.50915017849E+02 -0.31689375384E+02  0.14512315238E+03  0.12499874436E+03 0.  0.
         23    2    1    2    0    0 -0.42889249375E+02  0.50915017849E+02  0.15796913725E+03  0.19482252580E+03  0.92572898191E+02 0.  0.
          5    1    3    3  502    0 -0.25724669607E+02  0.21973873400E+02 -0.29106475272E+02  0.44876348351E+02  0.47000000000E+01 0.  1.
         -5    1    3    3    0  502  0.68613918981E+02 -0.72888891248E+02 -0.25829001120E+01  0.10024680403E+03  0.47000000000E+01 0.  1.
        -11    1    4    4    0    0 -0.36559633521E+02  0.62871846909E+01  0.76315222997E+01  0.37873151799E+02  0.00000000000E+00 0.  1.
         11    1    4    4    0    0 -0.63296158530E+01  0.44627833158E+02  0.15033761495E+03  0.15694937400E+03  0.00000000000E+00 0. -1.
<mgrwt>
<rscale>  0 0.13415141E+03</rscale>
<asrwt>0</asrwt>
<pdfrwt beam="1">  1        1 0.35863495E-01 0.14162102E+03</pdfrwt>
<pdfrwt beam="2">  1       -1 0.16435840E-01 0.14162102E+03</pdfrwt>
<totfact> 0.32428215E+03</totfact>
</mgrwt>
</event>
<event>
 8    1  0.9424564E-006  0.1359953E+03  0.7546771E-02  0.1226808E+00
         -1   -1    0    0    0  501 -0.00000000000E+00  0.00000000000E+00  0.32846785567E+02  0.32846785567E+02  0.00000000000E+00 0.  1.
          1   -1    0    0  501    0  0.00000000000E+00 -0.00000000000E+00 -0.48961195627E+03  0.48961195627E+03  0.00000000000E+00 0. -1.
         23    2    1    2    0    0 -0.53509552246E+02 -0.28916197144E+01 -0.21023067092E+03  0.25038302296E+03  0.12499235795E+03 0.  0.
         23    2    1    2    0    0  0.53509552246E+02  0.28916197144E+01 -0.24653449978E+03  0.27207571887E+03  0.10185432525E+03 0.  0.
          5    1    3    3  502    0 -0.31815634947E+01 -0.81070893877E+01 -0.19782882886E+03  0.19807620446E+03  0.47000000000E+01 0. -1.
         -5    1    3    3    0  502 -0.50327988751E+02  0.52154696734E+01 -0.12401842064E+02  0.52306818506E+02  0.47000000000E+01 0. -1.
        -11    1    4    4    0    0 -0.24746525448E+02  0.41725277142E+01 -0.19059968342E+02  0.31513217901E+02  0.00000000000E+00 0.  1.
         11    1    4    4    0    0  0.78256077694E+02 -0.12809079998E+01 -0.22747453144E+03  0.24056250097E+03  0.00000000000E+00 0. -1.
<mgrwt>
<rscale>  0 0.13043774E+03</rscale>
<asrwt>0</asrwt>
<pdfrwt beam="2">  1        1 0.75324914E-01 0.13599531E+03</pdfrwt>
<pdfrwt beam="1">  1       -1 0.50533518E-02 0.13599531E+03</pdfrwt>
<totfact> 0.76945707E+03</totfact>
</mgrwt>
</event>
<event>
 8    1  0.9424564E-006  0.1329972E+03  0.7546771E-02  0.1236019E+00
          3   -1    0    0  501    0  0.00000000000E+00  0.00000000000E+00  0.16521350260E+03  0.16521350260E+03  0.00000000000E+00 0. -1.
         -3   -1    0    0    0  501 -0.00000000000E+00 -0.00000000000E+00 -0.83411283394E+02  0.83411283394E+02  0.00000000000E+00 0.  1.
         23    2    1    2    0    0 -0.32466131050E+02 -0.31781103721E+02  0.45858086546E+02  0.14068128706E+03  0.12499668878E+03 0.  0.
         23    2    1    2    0    0  0.32466131050E+02  0.31781103721E+02  0.35944132663E+02  0.10794349894E+03  0.91080898500E+02 0.  0.
          5    1    3    3  502    0 -0.87890199688E+01 -0.59718046549E+02  0.73012757031E+02  0.94849589587E+02  0.47000000000E+01 0.  1.
         -5    1    3    3    0  502 -0.23677111082E+02  0.27936942829E+02 -0.27154670485E+02  0.45831697469E+02  0.47000000000E+01 0.  1.
        -11    1    4    4    0    0 -0.92676938366E+01  0.41201510025E+02 -0.11786188862E+02  0.43844826665E+02  0.00000000000E+00 0.  1.
         11    1    4    4    0    0  0.41733824887E+02 -0.94204063047E+01  0.47730321524E+02  0.64098672275E+02  0.00000000000E+00 0. -1.
<mgrwt>
<rscale>  0 0.12439443E+03</rscale>
<asrwt>0</asrwt>
<pdfrwt beam="1">  1        3 0.25417462E-01 0.13299722E+03</pdfrwt>
<pdfrwt beam="2">  1       -3 0.12832505E-01 0.13299722E+03</pdfrwt>
<totfact> 0.16179610E+03</totfact>
</mgrwt>
</event>
<event>
 8    1  0.9424564E-006  0.1294768E+03  0.7546771E-02  0.1238389E+00
          3   -1    0    0  501    0  0.00000000000E+00  0.00000000000E+00  0.21601417756E+02  0.21601417756E+02  0.00000000000E+00 0. -1.
         -3   -1    0    0    0  501 -0.00000000000E+00 -0.00000000000E+00 -0.66080817672E+03  0.66080817672E+03  0.00000000000E+00 0.  1.
         23    2    1    2    0    0 -0.32578660418E+02 -0.88889821066E+01 -0.41622197861E+03  0.43589559710E+03  0.12499541183E+03 0.  0.
         23    2    1    2    0    0  0.32578660418E+02  0.88889821066E+01 -0.22298478035E+03  0.24651399737E+03  0.99531680955E+02 0.  0.
          5    1    3    3  502    0  0.34149936342E+02 -0.39731266776E+02 -0.22271659072E+03  0.22884396757E+03  0.47000000000E+01 0. -1.
         -5    1    3    3    0  502 -0.66728596760E+02  0.30842284669E+02 -0.19350538789E+03  0.20705162953E+03  0.47000000000E+01 0. -1.
        -11    1    4    4    0    0  0.58642816549E+02  0.29804108706E+02 -0.18264508270E+03  0.19413008799E+03  0.00000000000E+00 0.  1.
         11    1    4    4    0    0 -0.26064156131E+02 -0.20915126599E+02 -0.40339697659E+02  0.52383909387E+02  0.00000000000E+00 0. -1.
<mgrwt>
<rscale>  0 0.12289923E+03</rscale>
<asrwt>0</asrwt>
<pdfrwt beam="1">  1        3 0.33232947E-02 0.12947678E+03</pdfrwt>
<pdfrwt beam="2">  1       -3 0.10166281E+00 0.12947678E+03</pdfrwt>
<totfact> 0.86825174E+02</totfact>
</mgrwt>
</event>
<event>
 8    1  0.9424564E-006  0.1390483E+03  0.7546771E-02  0.1227923E+00
         -1   -1    0    0    0  501 -0.00000000000E+00  0.00000000000E+00  0.32817564932E+03  0.32817564932E+03  0.00000000000E+00 0.  1.
          1   -1    0    0  501    0  0.00000000000E+00 -0.00000000000E+00 -0.47598243036E+02  0.47598243036E+02  0.00000000000E+00 0. -1.
         23    2    1    2    0    0 -0.19539691900E+00  0.60911902120E+02  0.19838021278E+03  0.24225841413E+03  0.12499652952E+03 0.  0.
         23    2    1    2    0    0  0.19539691900E+00 -0.60911902120E+02  0.82197193506E+02  0.13351547823E+03  0.85788730654E+02 0.  0.
          5    1    3    3  502    0  0.20902682469E+02  0.31103344435E+02  0.20177705165E+03  0.20528129175E+03  0.47000000000E+01 0.  1.
         -5    1    3    3    0  502 -0.21098079388E+02  0.29808557685E+02 -0.33968388688E+01  0.36977122379E+02  0.47000000000E+01 0.  1.
        -11    1    4    4    0    0  0.11857338970E+02 -0.41038789134E+02  0.97095161952E+02  0.10607661936E+03  0.00000000000E+00 0.  1.
         11    1    4    4    0    0 -0.11661942051E+02 -0.19873112986E+02 -0.14897968446E+02  0.27438858868E+02  0.00000000000E+00 0. -1.
<mgrwt>
<rscale>  0 0.12968589E+03</rscale>
<asrwt>0</asrwt>
<pdfrwt beam="2">  1        1 0.73228068E-02 0.13904830E+03</pdfrwt>
<pdfrwt beam="1">  1       -1 0.50488560E-01 0.13904830E+03</pdfrwt>
<totfact> 0.38049374E+03</totfact>
</mgrwt>
</event>
<event>
 8    1  0.9424564E-006  0.1384609E+03  0.7546771E-02  0.1226690E+00
          2   -1    0    0  501    0  0.00000000000E+00  0.00000000000E+00  0.50737641053E+03  0.50737641053E+03  0.00000000000E+00 0. -1.
         -2   -1    0    0    0  501 -0.00000000000E+00 -0.00000000000E+00 -0.31872184912E+02  0.31872184912E+02  0.00000000000E+00 0.  1.
         23    2    1    2    0    0 -0.56138382900E+02  0.19909027685E+02  0.20387944994E+03  0.24645130435E+03  0.12499411143E+03 0.  0.
         23    2    1    2    0    0  0.56138382900E+02 -0.19909027685E+02  0.27162477568E+03  0.29279729109E+03  0.91664319600E+02 0.  0.
          5    1    3    3  502    0 -0.11546596731E+02  0.16856638743E+02  0.20026956070E+03  0.20136399159E+03  0.47000000000E+01 0. -1.
         -5    1    3    3    0  502 -0.44591786169E+02  0.30523889414E+01  0.36098892374E+01  0.45087312764E+02  0.47000000000E+01 0. -1.
        -11    1    4    4    0    0  0.12124852102E+02 -0.48165013087E+02  0.18550596533E+03  0.19203995339E+03  0.00000000000E+00 0. -1.
         11    1    4    4    0    0  0.44013530798E+02  0.28255985403E+02  0.86118810346E+02  0.10075733770E+03  0.00000000000E+00 0.  1.
<mgrwt>
<rscale>  0 0.13051709E+03</rscale>
<asrwt>0</asrwt>
<pdfrwt beam="1">  1        2 0.78057903E-01 0.13846088E+03</pdfrwt>
<pdfrwt beam="2">  1       -2 0.49034134E-02 0.13846088E+03</pdfrwt>
<totfact> 0.11747333E+04</totfact>
</mgrwt>
</event>
<event>
 8    1  0.9424564E-006  0.1275351E+03  0.7546771E-02  0.1245964E+00
          2   -1    0    0  501    0  0.00000000000E+00  0.00000000000E+00  0.54773619821E+03  0.54773619821E+03  0.00000000000E+00 0. -1.
         -2   -1    0    0    0  501 -0.00000000000E+00 -0.00000000000E+00 -0.50971230506E+02  0.50971230506E+02  0.00000000000E+00 0.  1.
         23    2    1    2    0    0  0.25183530811E+02  0.23030589647E+01  0.42021833805E+02  0.13427966818E+03  0.12500272183E+03 0.  0.
         23    2    1    2    0    0 -0.25183530811E+02 -0.23030589647E+01  0.45474313390E+03  0.46442776053E+03  0.90897264104E+02 0.  0.
          5    1    3    3  502    0  0.15961418187E+02 -0.22389313731E+02  0.81746289697E+02  0.86374730790E+02  0.47000000000E+01 0.  1.
         -5    1    3    3    0  502  0.92221126242E+01  0.24692372696E+02 -0.39724455892E+02  0.47904937392E+02  0.47000000000E+01 0.  1.
        -11    1    4    4    0    0 -0.81108556572E+01 -0.45981562701E+02  0.19743787262E+03  0.20288371949E+03  0.00000000000E+00 0.  1.
         11    1    4    4    0    0 -0.17072675154E+02  0.43678503737E+02  0.25730526128E+03  0.26154404105E+03  0.00000000000E+00 0. -1.
<mgrwt>
<rscale>  0 0.11827886E+03</rscale>
<asrwt>0</asrwt>
<pdfrwt beam="1">  1        2 0.84267103E-01 0.12753507E+03</pdfrwt>
<pdfrwt beam="2">  1       -2 0.78417282E-02 0.12753507E+03</pdfrwt>
<totfact> 0.52622333E+03</totfact>
</mgrwt>
</event>
<event>
 8    1  0.9424564E-006  0.2808747E+03  0.7546771E-02  0.1096984E+00
         -1   -1    0    0    0  501 -0.00000000000E+00  0.00000000000E+00  0.35566267258E+03  0.35566267258E+03  0.00000000000E+00 0.  1.
          1   -1    0    0  501    0  0.00000000000E+00 -0.00000000000E+00 -0.23837532479E+03  0.23837532479E+03  0.00000000000E+00 0. -1.
         23    2    1    2    0    0  0.22413385203E+03  0.11415151612E+03  0.15883091897E+03  0.32267303140E+03  0.12499628840E+03 0.  0.
         23    2    1    2    0    0 -0.22413385203E+03 -0.11415151612E+03 -0.41543571173E+02  0.27136496597E+03  0.92986688244E+02 0.  0.
          5    1    3    3  502    0  0.23450148156E+03  0.88161956713E+02  0.13025552707E+03  0.28240408601E+03  0.47000000000E+01 0. -1.
         -5    1    3    3    0  502 -0.10367629530E+02  0.25989559408E+02  0.28575391903E+02  0.40268945388E+02  0.47000000000E+01 0. -1.
        -11    1    4    4    0    0 -0.11342276661E+03 -0.48596998131E+02  0.25918258041E+02  0.12608785949E+03  0.00000000000E+00 0.  1.
         11    1    4    4    0    0 -0.11071108543E+03 -0.65554517990E+02 -0.67461829213E+02  0.14527710648E+03  0.00000000000E+00 0. -1.
<mgrwt>
<rscale>  0 0.27764222E+03</rscale>
<asrwt>0</asrwt>
<pdfrwt beam="2">  1        1 0.36673127E-01 0.28087475E+03</pdfrwt>
<pdfrwt beam="1">  1       -1 0.54717334E-01 0.28087475E+03</pdfrwt>
<totfact> 0.40874592E+02</totfact>
</mgrwt>
</event>
<event>
 8    1  0.9424564E-006  0.1497377E+03  0.7546771E-02  0.1209339E+00
          2   -1    0    0  501    0  0.00000000000E+00  0.00000000000E+00  0.13641389490E+03  0.13641389490E+03  0.00000000000E+00 0. -1.
         -2   -1    0    0    0  501 -0.00000000000E+00 -0.00000000000E+00 -0.13803551442E+03  0.13803551442E+03  0.00000000000E+00 0.  1.
         23    2    1    2    0    0 -0.82148724278E+02  0.68862970596E+01  0.33146354603E+01  0.14977442870E+03  0.12500223477E+03 0.  0.
         23    2    1    2    0    0  0.82148724278E+02 -0.68862970596E+01 -0.49362549814E+01  0.12467498061E+03  0.93400482813E+02 0.  0.
          5    1    3    3  502    0 -0.70571238629E+02 -0.50121160996E+02 -0.16300329439E+02  0.88205562416E+02  0.47000000000E+01 0. -1.
         -5    1    3    3    0  502 -0.11577485649E+02  0.57007458055E+02  0.19614964899E+02  0.61568866287E+02  0.47000000000E+01 0. -1.
        -11    1    4    4    0    0  0.28812653422E+02 -0.30061586177E+02 -0.39191367855E+02  0.57182438520E+02  0.00000000000E+00 0.  1.
         11    1    4    4    0    0  0.53336070856E+02  0.23175289118E+02  0.34255112874E+02  0.67492542092E+02  0.00000000000E+00 0. -1.
<mgrwt>
<rscale>  0 0.14300727E+03</rscale>
<asrwt>0</asrwt>
<pdfrwt beam="1">  1        2 0.20986753E-01 0.14973775E+03</pdfrwt>
<pdfrwt beam="2">  1       -2 0.21236233E-01 0.14973775E+03</pdfrwt>
<totfact> 0.47811968E+03</totfact>
</mgrwt>
</event>
<event>
 8    1  0.9424564E-006  0.1508256E+03  0.7546771E-02  0.1208265E+00
          2   -1    0    0  501    0  0.00000000000E+00  0.00000000000E+00  0.75610623266E+03  0.75610623266E+03  0.00000000000E+00 0. -1.
         -2   -1    0    0    0  501 -0.00000000000E+00 -0.00000000000E+00 -0.25539954387E+02  0.25539954387E+02  0.00000000000E+00 0.  1.
         23    2    1    2    0    0  0.56508636423E+02  0.62727434565E+02  0.34860098829E+03  0.37983025769E+03  0.12498167299E+03 0.  0.
         23    2    1    2    0    0 -0.56508636423E+02 -0.62727434565E+02  0.38196528999E+03  0.40181592936E+03  0.91818305879E+02 0.  0.
          5    1    3    3  502    0 -0.12485631954E+02  0.73967714103E+02  0.12872187866E+03  0.14905879974E+03  0.47000000000E+01 0.  1.
         -5    1    3    3    0  502  0.68994268377E+02 -0.11240279537E+02  0.21987910963E+03  0.23077145795E+03  0.47000000000E+01 0.  1.
        -11    1    4    4    0    0 -0.12543280030E+02  0.24228649158E+02  0.85899426943E+02  0.90128091420E+02  0.00000000000E+00 0. -1.
         11    1    4    4    0    0 -0.43965356393E+02 -0.86956083723E+02  0.29606586304E+03  0.31168783794E+03  0.00000000000E+00 0.  1.
<mgrwt>
<rscale>  0 0.14383102E+03</rscale>
<asrwt>0</asrwt>
<pdfrwt beam="1">  1        2 0.11632402E+00 0.15082565E+03</pdfrwt>
<pdfrwt beam="2">  1       -2 0.39292243E-02 0.15082565E+03</pdfrwt>
<totfact> 0.10381354E+04</totfact>
</mgrwt>
</event>
<event>
 8    1  0.9424564E-006  0.1609066E+03  0.7546771E-02  0.1194897E+00
         -2   -1    0    0    0  501 -0.00000000000E+00  0.00000000000E+00  0.23686705904E+02  0.23686705904E+02  0.00000000000E+00 0.  1.
          2   -1    0    0  501    0  0.00000000000E+00 -0.00000000000E+00 -0.98874571140E+03  0.98874571140E+03  0.00000000000E+00 0. -1.
         23    2    1    2    0    0 -0.11494686914E+02  0.10065698845E+03 -0.40469777104E+03  0.43551261140E+03  0.12500796633E+03 0.  0.
         23    2    1    2    0    0  0.11494686914E+02 -0.10065698845E+03 -0.56036123445E+03  0.57691980591E+03  0.92562369356E+02 0.  0.
          5    1    3    3  502    0  0.23165873183E+02  0.10874949278E+03 -0.21134949492E+03  0.23885939140E+03  0.47000000000E+01 0. -1.
         -5    1    3    3    0  502 -0.34660560097E+02 -0.80925043247E+01 -0.19334827612E+03  0.19665321999E+03  0.47000000000E+01 0. -1.
        -11    1    4    4    0    0  0.11049356002E+02  0.50858717663E+01 -0.80714174344E+01  0.14598018327E+02  0.00000000000E+00 0.  1.
         11    1    4    4    0    0  0.44533091216E+00 -0.10574286022E+03 -0.55228981702E+03  0.56232178758E+03  0.00000000000E+00 0. -1.
<mgrwt>
<rscale>  0 0.15462931E+03</rscale>
<asrwt>0</asrwt>
<pdfrwt beam="2">  1        2 0.15211474E+00 0.16090665E+03</pdfrwt>
<pdfrwt beam="1">  1       -2 0.36441083E-02 0.16090665E+03</pdfrwt>
<totfact> 0.82346661E+03</totfact>
</mgrwt>
</event>
<event>
 8    1  0.9424564E-006  0.1254658E+03  0.7546771E-02  0.1241391E+00
         -1   -1    0    0    0  501 -0.00000000000E+00  0.00000000000E+00  0.10684097919E+03  0.10684097919E+03  0.00000000000E+00 0.  1.
          1   -1    0    0  501    0  0.00000000000E+00 -0.00000000000E+00 -0.21056298452E+03  0.21056298452E+03  0.00000000000E+00 0. -1.
         23    2    1    2    0    0 -0.31318749562E+02 -0.49396092974E+02  0.44924690968E+02  0.13326625443E+03  0.11099922809E+03 0.  0.
         23    2    1    2    0    0  0.31318749562E+02  0.49396092974E+02 -0.14864669630E+03  0.18413770928E+03  0.91597039165E+02 0.  0.
          5    1    3    3  502    0  0.17937099827E+02 -0.51136645880E+01 -0.28427386739E+02  0.34323394828E+02  0.47000000000E+01 0. -1.
         -5    1    3    3    0  502 -0.49255849389E+02 -0.44282428386E+02  0.73352077707E+02  0.98942859605E+02  0.47000000000E+01 0.  1.
        -11    1    4    4    0    0  0.53013840544E+02  0.52641028701E+02 -0.69609548778E+02  0.10211285165E+03  0.00000000000E+00 0. -1.
         11    1    4    4    0    0 -0.21695090982E+02 -0.32449357271E+01 -0.79037147521E+02  0.82024857628E+02  0.00000000000E+00 0.  1.
<mgrwt>
<rscale>  0 0.12104008E+03</rscale>
<asrwt>0</asrwt>
<pdfrwt beam="2">  1        1 0.32394305E-01 0.12546580E+03</pdfrwt>
<pdfrwt beam="1">  1       -1 0.16437074E-01 0.12546580E+03</pdfrwt>
<totfact> 0.36554221E+03</totfact>
</mgrwt>
</event>
<event>
 8    1  0.9424564E-006  0.2281211E+03  0.7546771E-02  0.1130387E+00
         -2   -1    0    0    0  501 -0.00000000000E+00  0.00000000000E+00  0.71933506988E+02  0.71933506988E+02  0.00000000000E+00 0.  1.
          2   -1    0    0  501    0  0.00000000000E+00 -0.00000000000E+00 -0.68313853344E+03  0.68313853344E+03  0.00000000000E+00 0. -1.
         23    2    1    2    0    0  0.18976768381E+03  0.19931575825E+02 -0.30123478043E+03  0.37786457123E+03  0.12502079715E+03 0.  0.
         23    2    1    2    0    0 -0.18976768381E+03 -0.19931575825E+02 -0.30997024602E+03  0.37720746920E+03  0.98969085385E+02 0.  0.
          5    1    3    3  502    0  0.19235407502E+03  0.28518257891E+02 -0.21067011874E+03  0.28673571480E+03  0.47000000000E+01 0. -1.
         -5    1    3    3    0  502 -0.25863912098E+01 -0.85866820654E+01 -0.90564661690E+02  0.91128856436E+02  0.47000000000E+01 0. -1.
        -11    1    4    4    0    0 -0.92394766870E+02 -0.94530707768E+01 -0.64934746460E+02  0.11332552576E+03  0.00000000000E+00 0.  1.
         11    1    4    4    0    0 -0.97372916944E+02 -0.10478505049E+02 -0.24503549956E+03  0.26388194343E+03  0.00000000000E+00 0. -1.
<mgrwt>
<rscale>  0 0.22475479E+03</rscale>
<asrwt>0</asrwt>
<pdfrwt beam="2">  1        2 0.10509824E+00 0.22812111E+03</pdfrwt>
<pdfrwt beam="1">  1       -2 0.11066693E-01 0.22812111E+03</pdfrwt>
<totfact> 0.24232658E+03</totfact>
</mgrwt>
</event>
<event>
 8    1  0.9424564E-006  0.1645229E+03  0.7546771E-02  0.1190829E+00
          2   -1    0    0  501    0  0.00000000000E+00  0.00000000000E+00  0.60654575926E+03  0.60654575926E+03  0.00000000000E+00 0.  1.
         -2   -1    0    0    0  501 -0.00000000000E+00 -0.00000000000E+00 -0.41053580792E+02  0.41053580792E+02  0.00000000000E+00 0. -1.
         23    2    1    2    0    0  0.58497814548E+01 -0.10681359511E+03  0.22032875818E+03  0.27497738225E+03  0.12499774008E+03 0.  0.
         23    2    1    2    0    0 -0.58497814548E+01  0.10681359511E+03  0.34516342029E+03  0.37262195780E+03  0.90917394851E+02 0.  0.
          5    1    3    3  502    0 -0.27710781515E+02 -0.12292261927E+03  0.15700398301E+03  0.20137079833E+03  0.47000000000E+01 0.  1.
         -5    1    3    3    0  502  0.33560562969E+02  0.16109024155E+02  0.63324775165E+02  0.73606583916E+02  0.47000000000E+01 0.  1.
        -11    1    4    4    0    0 -0.46845906186E+02  0.70872229432E+02  0.18902833798E+03  0.20724170524E+03  0.00000000000E+00 0. -1.
         11    1    4    4    0    0  0.40996124731E+02  0.35941365679E+02  0.15613508231E+03  0.16538025256E+03  0.00000000000E+00 0.  1.
<mgrwt>
<rscale>  0 0.15812621E+03</rscale>
<asrwt>0</asrwt>
<pdfrwt beam="1">  1        2 0.93314725E-01 0.16452294E+03</pdfrwt>
<pdfrwt beam="2">  1       -2 0.63159360E-02 0.16452294E+03</pdfrwt>
<totfact> 0.66217887E+03</totfact>
</mgrwt>
</event>
<event>
 8    1  0.9424564E-006  0.1789552E+03  0.7546771E-02  0.1173930E+00
         -2   -1    0    0    0  501 -0.00000000000E+00  0.00000000000E+00  0.64658064570E+02  0.64658064570E+02  0.00000000000E+00 0.  1.
          2   -1    0    0  501    0  0.00000000000E+00 -0.00000000000E+00 -0.47040474507E+03  0.47040474507E+03  0.00000000000E+00 0. -1.
         23    2    1    2    0    0  0.10797877200E+03  0.68849800278E+02 -0.14865386292E+03  0.23264337028E+03  0.12500102629E+03 0.  0.
         23    2    1    2    0    0 -0.10797877200E+03 -0.68849800278E+02 -0.25709281758E+03  0.30241943936E+03  0.94663035288E+02 0.  0.
          5    1    3    3  502    0 -0.20191488558E+02 -0.10420478175E+02 -0.41917233847E+02  0.47910615410E+02  0.47000000000E+01 0.  1.
         -5    1    3    3    0  502  0.12817026056E+03  0.79270278452E+02 -0.10673662908E+03  0.18473275487E+03  0.47000000000E+01 0.  1.
        -11    1    4    4    0    0 -0.58034272477E+02 -0.81453650982E+02 -0.12147925359E+03  0.15735273463E+03  0.00000000000E+00 0.  1.
         11    1    4    4    0    0 -0.49944499522E+02  0.12603850705E+02 -0.13561356399E+03  0.14506670474E+03  0.00000000000E+00 0. -1.
<mgrwt>
<rscale>  0 0.17381155E+03</rscale>
<asrwt>0</asrwt>
<pdfrwt beam="2">  1        2 0.72369962E-01 0.17895521E+03</pdfrwt>
<pdfrwt beam="1">  1       -2 0.99473944E-02 0.17895521E+03</pdfrwt>
<totfact> 0.43668224E+03</totfact>
</mgrwt>
</event>
<event>
 8    1  0.9424564E-006  0.1425291E+03  0.7546771E-02  0.1220128E+00
          1   -1    0    0  501    0  0.00000000000E+00  0.00000000000E+00  0.35536247518E+02  0.35536247518E+02  0.00000000000E+00 0. -1.
         -1   -1    0    0    0  501 -0.00000000000E+00 -0.00000000000E+00 -0.50788607967E+03  0.50788607967E+03  0.00000000000E+00 0.  1.
         23    2    1    2    0    0  0.58592723625E+02  0.35468222060E+02 -0.33671387029E+03  0.36563747654E+03  0.12499372691E+03 0.  0.
         23    2    1    2    0    0 -0.58592723625E+02 -0.35468222060E+02 -0.13563596186E+03  0.17778485064E+03  0.92299712518E+02 0.  0.
          5    1    3    3  502    0  0.29808318712E+02  0.81122230805E+02 -0.17790522765E+03  0.19784264510E+03  0.47000000000E+01 0.  1.
         -5    1    3    3    0  502  0.28784404913E+02 -0.45654008746E+02 -0.15880864264E+03  0.16779483144E+03  0.47000000000E+01 0.  1.
        -11    1    4    4    0    0 -0.59890247303E+02 -0.12500478963E+02 -0.14140084205E+03  0.15406914626E+03  0.00000000000E+00 0.  1.
         11    1    4    4    0    0  0.12975236780E+01 -0.22967743096E+02  0.57648801953E+01  0.23715704381E+02  0.00000000000E+00 0. -1.
<mgrwt>
<rscale>  0 0.13506469E+03</rscale>
<asrwt>0</asrwt>
<pdfrwt beam="1">  1        1 0.54671155E-02 0.14252906E+03</pdfrwt>
<pdfrwt beam="2">  1       -1 0.78136313E-01 0.14252906E+03</pdfrwt>
<totfact> 0.24429858E+03</totfact>
</mgrwt>
</event>
<event>
 8    1  0.9424564E-006  0.1263392E+03  0.7546771E-02  0.1246947E+00
          1   -1    0    0  501    0  0.00000000000E+00  0.00000000000E+00  0.31125884798E+03  0.31125884798E+03  0.00000000000E+00 0. -1.
         -1   -1    0    0    0  501 -0.00000000000E+00 -0.00000000000E+00 -0.39677472499E+02  0.39677472499E+02  0.00000000000E+00 0.  1.
         23    2    1    2    0    0  0.85072073080E+01  0.16260129856E+02  0.14036903625E+03  0.18885195419E+03  0.12499931945E+03 0.  0.
         23    2    1    2    0    0 -0.85072073080E+01 -0.16260129856E+02  0.13121233923E+03  0.16208436629E+03  0.93369692250E+02 0.  0.
          5    1    3    3  502    0  0.45279047901E+02  0.54056021653E+02  0.99141643989E+02  0.12175139107E+03  0.47000000000E+01 0. -1.
         -5    1    3    3    0  502 -0.36771840593E+02 -0.37795891796E+02  0.41227392261E+02  0.67100563111E+02  0.47000000000E+01 0. -1.
        -11    1    4    4    0    0  0.40704244710E+02  0.59829390449E+01  0.55599340773E+02  0.69165871580E+02  0.00000000000E+00 0. -1.
         11    1    4    4    0    0 -0.49211452018E+02 -0.22243068901E+02  0.75612998461E+02  0.92918494715E+02  0.00000000000E+00 0.  1.
<mgrwt>
<rscale>  0 0.11769625E+03</rscale>
<asrwt>0</asrwt>
<pdfrwt beam="1">  1        1 0.47885975E-01 0.12633920E+03</pdfrwt>
<pdfrwt beam="2">  1       -1 0.61042267E-02 0.12633920E+03</pdfrwt>
<totfact> 0.10235273E+04</totfact>
</mgrwt>
</event>
<event>
 8    1  0.9424564E-006  0.1386559E+03  0.7546771E-02  0.1227330E+00
         -1   -1    0    0    0  501 -0.00000000000E+00  0.00000000000E+00  0.16515295501E+02  0.16515295501E+02  0.00000000000E+00 0.  1.
          1   -1    0    0  501    0  0.00000000000E+00 -0.00000000000E+00 -0.96698418080E+03  0.96698418080E+03  0.00000000000E+00 0. -1.
         23    2    1    2    0    0  0.23664891898E+02 -0.55175986488E+02 -0.42106194167E+03  0.44330419718E+03  0.12498414270E+03 0.  0.
         23    2    1    2    0    0 -0.23664891898E+02  0.55175986488E+02 -0.52940694363E+03  0.54019527912E+03  0.89077556221E+02 0.  0.
          5    1    3    3  502    0  0.17071181648E+02 -0.34101682601E+02 -0.23372786965E+02  0.44974739239E+02  0.47000000000E+01 0.  1.
         -5    1    3    3    0  502  0.65937102496E+01 -0.21074303887E+02 -0.39768915470E+03  0.39832945794E+03  0.47000000000E+01 0.  1.
        -11    1    4    4    0    0 -0.56235491851E+02  0.24124523695E+02 -0.34441480954E+03  0.34980849649E+03  0.00000000000E+00 0. -1.
         11    1    4    4    0    0  0.32570599954E+02  0.31051462794E+02 -0.18499213410E+03  0.19038678263E+03  0.00000000000E+00 0.  1.
<mgrwt>
<rscale>  0 0.13008458E+03</rscale>
<asrwt>0</asrwt>
<pdfrwt beam="2">  1        1 0.14876686E+00 0.13865588E+03</pdfrwt>
<pdfrwt beam="1">  1       -1 0.25408137E-02 0.13865588E+03</pdfrwt>
<totfact> 0.79141831E+03</totfact>
</mgrwt>
</event>
<event>
 8    1  0.9424564E-006  0.1290536E+03  0.7546771E-02  0.1243981E+00
          3   -1    0    0  501    0  0.00000000000E+00  0.00000000000E+00  0.12108886559E+03  0.12108886559E+03  0.00000000000E+00 0. -1.
         -3   -1    0    0    0  501 -0.00000000000E+00 -0.00000000000E+00 -0.15349189637E+03  0.15349189637E+03  0.00000000000E+00 0.  1.
         23    2    1    2    0    0 -0.10262235106E+02  0.30387490603E+02 -0.95659266369E+02  0.16064096931E+03  0.12500445082E+03 0.  0.
         23    2    1    2    0    0  0.10262235106E+02 -0.30387490603E+02  0.63256235589E+02  0.11393979265E+03  0.89175175664E+02 0.  0.
          5    1    3    3  502    0  0.47488800259E+01 -0.44235192338E+02 -0.63959383243E+02  0.78052525951E+02  0.47000000000E+01 0.  1.
         -5    1    3    3    0  502 -0.15011115132E+02  0.74622682941E+02 -0.31699883126E+02  0.82588443362E+02  0.47000000000E+01 0.  1.
        -11    1    4    4    0    0  0.28982008269E+02 -0.51381302952E+02  0.19897785848E+02  0.62256862898E+02  0.00000000000E+00 0.  1.
         11    1    4    4    0    0 -0.18719773163E+02  0.20993812349E+02  0.43358449742E+02  0.51682929756E+02  0.00000000000E+00 0. -1.
<mgrwt>
<rscale>  0 0.11946555E+03</rscale>
<asrwt>0</asrwt>
<pdfrwt beam="1">  1        3 0.18629056E-01 0.12905358E+03</pdfrwt>
<pdfrwt beam="2">  1       -3 0.23614138E-01 0.12905358E+03</pdfrwt>
<totfact> 0.97004478E+02</totfact>
</mgrwt>
</event>
<event>
 8    1  0.9424564E-006  0.1292138E+03  0.7546771E-02  0.1241829E+00
          1   -1    0    0  501    0  0.00000000000E+00  0.00000000000E+00  0.75724016357E+03  0.75724016357E+03  0.00000000000E+00 0. -1.
         -1   -1    0    0    0  501 -0.00000000000E+00 -0.00000000000E+00 -0.19867101512E+02  0.19867101512E+02  0.00000000000E+00 0.  1.
         23    2    1    2    0    0  0.52158575398E+01  0.32304098246E+02  0.26847055841E+03  0.29794737966E+03  0.12500176151E+03 0.  0.
         23    2    1    2    0    0 -0.52158575398E+01 -0.32304098246E+02  0.46890250364E+03  0.47915988542E+03  0.93026221756E+02 0.  0.
          5    1    3    3  502    0  0.84308849842E+01  0.20697697539E+02  0.27981632751E+03  0.28074675714E+03  0.47000000000E+01 0. -1.
         -5    1    3    3    0  502 -0.32150274444E+01  0.11606400707E+02 -0.11345769096E+02  0.17200622524E+02  0.47000000000E+01 0. -1.
        -11    1    4    4    0    0 -0.45441367163E+02 -0.30909445137E+02  0.32993894469E+03  0.33448470648E+03  0.00000000000E+00 0.  1.
         11    1    4    4    0    0  0.40225509623E+02 -0.13946531090E+01  0.13896355896E+03  0.14467517893E+03  0.00000000000E+00 0. -1.
<mgrwt>
<rscale>  0 0.12077187E+03</rscale>
<asrwt>0</asrwt>
<pdfrwt beam="1">  1        1 0.11649846E+00 0.12921378E+03</pdfrwt>
<pdfrwt beam="2">  1       -1 0.30564777E-02 0.12921378E+03</pdfrwt>
<totfact> 0.88164948E+03</totfact>
</mgrwt>
</event>
<event>
 8    1  0.9424564E-006  0.1159131E+03  0.7546771E-02  0.1261873E+00
          1   -1    0    0  501    0  0.00000000000E+00  0.00000000000E+00  0.81034747885E+02  0.81034747885E+02  0.00000000000E+00 0. -1.
         -1   -1    0    0    0  501 -0.00000000000E+00 -0.00000000000E+00 -0.15989679727E+03  0.15989679727E+03  0.00000000000E+00 0.  1.
         23    2    1    2    0    0 -0.70063421076E+01 -0.51533104552E+01 -0.92483809610E+02  0.14828722213E+03  0.11558633037E+03 0.  0.
         23    2    1    2    0    0  0.70063421076E+01  0.51533104552E+01  0.13621760226E+02  0.92644323021E+02  0.91223751282E+02 0.  0.
          5    1    3    3  502    0 -0.24382916259E+02  0.51098298309E+02 -0.47267878765E+02  0.73904702546E+02  0.47000000000E+01 0. -1.
         -5    1    3    3    0  502  0.17376574152E+02 -0.56251608765E+02 -0.45215930845E+02  0.74382519587E+02  0.47000000000E+01 0.  1.
        -11    1    4    4    0    0 -0.94190632823E+01  0.31105212321E+02 -0.26627571498E+02  0.42015241883E+02  0.00000000000E+00 0.  1.
         11    1    4    4    0    0  0.16425405390E+02 -0.25951901866E+02  0.40249331724E+02  0.50629081138E+02  0.00000000000E+00 0. -1.
<mgrwt>
<rscale>  0 0.10929935E+03</rscale>
<asrwt>0</asrwt>
<pdfrwt beam="1">  1        1 0.12466884E-01 0.11591309E+03</pdfrwt>
<pdfrwt beam="2">  1       -1 0.24599507E-01 0.11591309E+03</pdfrwt>
<totfact> 0.63950323E+03</totfact>
</mgrwt>
</event>
<event>
 8    1  0.9424564E-006  0.1406391E+03  0.7546771E-02  0.1222998E+00
         -2   -1    0    0    0  501 -0.00000000000E+00  0.00000000000E+00  0.14225083155E+03  0.14225083155E+03  0.00000000000E+00 0.  1.
          2   -1    0    0  501    0  0.00000000000E+00 -0.00000000000E+00 -0.11280392470E+03  0.11280392470E+03  0.00000000000E+00 0. -1.
         23    2    1    2    0    0 -0.64322642428E+02 -0.39736334048E+01  0.13681014420E+02  0.14130292010E+03  0.12500461184E+03 0.  0.
         23    2    1    2    0    0  0.64322642428E+02  0.39736334048E+01  0.15765892431E+02  0.11375183615E+03  0.92399809366E+02 0.  0.
          5    1    3    3  502    0 -0.35691329790E+02 -0.58081853432E+02  0.34401157593E+02  0.76504263698E+02  0.47000000000E+01 0.  1.
         -5    1    3    3    0  502 -0.28631312638E+02  0.54108220027E+02 -0.20720143173E+02  0.64798656398E+02  0.47000000000E+01 0.  1.
        -11    1    4    4    0    0  0.11227346596E+02  0.41170676568E+02  0.23073984536E+02  0.48512747634E+02  0.00000000000E+00 0.  1.
         11    1    4    4    0    0  0.53095295832E+02 -0.37197043163E+02 -0.73080921047E+01  0.65239088511E+02  0.00000000000E+00 0. -1.
<mgrwt>
<rscale>  0 0.13305037E+03</rscale>
<asrwt>0</asrwt>
<pdfrwt beam="2">  1        2 0.17354450E-01 0.14063906E+03</pdfrwt>
<pdfrwt beam="1">  1       -2 0.21884743E-01 0.14063906E+03</pdfrwt>
<totfact> 0.56165417E+03</totfact>
</mgrwt>
</event>
<event>
 8    1  0.9424564E-006  0.3527516E+03  0.7546771E-02  0.1062588E+00
          2   -1    0    0  501    0  0.00000000000E+00  0.00000000000E+00  0.24275818934E+03  0.24275818934E+03  0.00000000000E+00 0. -1.
         -2   -1    0    0    0  501 -0.00000000000E+00 -0.00000000000E+00 -0.50615211302E+03  0.50615211302E+03  0.00000000000E+00 0.  1.
         23    2    1    2    0    0  0.68639715837E+02  0.32264169903E+03 -0.18326417656E+03  0.39751657353E+03  0.12499836512E+03 0.  0.
         23    2    1    2    0    0 -0.68639715837E+02 -0.32264169903E+03 -0.80129747124E+02  0.35139372882E+03  0.90816847237E+02 0.  0.
          5    1    3    3  502    0 -0.15580221272E+02  0.19419527119E+03 -0.71807943238E+02  0.20768489921E+03  0.47000000000E+01 0.  1.
         -5    1    3    3    0  502  0.84219937110E+02  0.12844642784E+03 -0.11145623332E+03  0.18983167433E+03  0.47000000000E+01 0.  1.
        -11    1    4    4    0    0 -0.55610153312E+02 -0.93814532264E+02 -0.14515164510E+01  0.10906769694E+03  0.00000000000E+00 0.  1.
         11    1    4    4    0    0 -0.13029562525E+02 -0.22882716676E+03 -0.78678230673E+02  0.24232603189E+03  0.00000000000E+00 0. -1.
<mgrwt>
<rscale>  0 0.35006709E+03</rscale>
<asrwt>0</asrwt>
<pdfrwt beam="1">  1        2 0.37347414E-01 0.35275157E+03</pdfrwt>
<pdfrwt beam="2">  1       -2 0.77869555E-01 0.35275157E+03</pdfrwt>
<totfact> 0.20882295E+02</totfact>
</mgrwt>
</event>
<event>
 8    1  0.9424564E-006  0.1573000E+03  0.7546771E-02  0.1200389E+00
         -2   -1    0    0    0  501 -0.00000000000E+00  0.00000000000E+00  0.58175091859E+03  0.58175091859E+03  0.00000000000E+00 0.  1.
          2   -1    0    0  501    0  0.00000000000E+00 -0.00000000000E+00 -0.37477701436E+02  0.37477701436E+02  0.00000000000E+00 0. -1.
         23    2    1    2    0    0 -0.94265696877E+02  0.15209722403E+02  0.36633335700E+03  0.39867708437E+03  0.12500372749E+03 0.  0.
         23    2    1    2    0    0  0.94265696877E+02 -0.15209722403E+02  0.17793986015E+03  0.22055153566E+03  0.88673720945E+02 0.  0.
          5    1    3    3  502    0 -0.64241079867E+02  0.14058976727E+01  0.52599501478E+02  0.83172654439E+02  0.47000000000E+01 0.  1.
         -5    1    3    3    0  502 -0.30024617010E+02  0.13803824730E+02  0.31373385552E+03  0.31550442993E+03  0.47000000000E+01 0.  1.
        -11    1    4    4    0    0  0.94033069083E+02 -0.42346941697E+02  0.13855881324E+03  0.17272529137E+03  0.00000000000E+00 0. -1.
         11    1    4    4    0    0  0.23262779432E+00  0.27137219294E+02  0.39381046912E+02  0.47826244287E+02  0.00000000000E+00 0.  1.
<mgrwt>
<rscale>  0 0.15006865E+03</rscale>
<asrwt>0</asrwt>
<pdfrwt beam="2">  1        2 0.57658006E-02 0.15730000E+03</pdfrwt>
<pdfrwt beam="1">  1       -2 0.89500135E-01 0.15730000E+03</pdfrwt>
<totfact> 0.14044834E+03</totfact>
</mgrwt>
</event>
<event>
 8    1  0.9424564E-006  0.1472457E+03  0.7546771E-02  0.1212996E+00
         -4   -1    0    0    0  501 -0.00000000000E+00  0.00000000000E+00  0.20631101325E+03  0.20631101325E+03  0.00000000000E+00 0.  1.
          4   -1    0    0  501    0  0.00000000000E+00 -0.00000000000E+00 -0.11246013945E+03  0.11246013945E+03  0.00000000000E+00 0. -1.
         23    2    1    2    0    0 -0.66838869229E+02  0.39861633468E+02  0.12555168639E+03  0.19350587973E+03  0.12499966109E+03 0.  0.
         23    2    1    2    0    0  0.66838869229E+02 -0.39861633468E+02 -0.31700812591E+02  0.12526527296E+03  0.92898131463E+02 0.  0.
          5    1    3    3  502    0  0.68655359010E+01  0.26349425101E+02 -0.16963437383E+02  0.32423386532E+02  0.47000000000E+01 0. -1.
         -5    1    3    3    0  502 -0.73704405130E+02  0.13512208367E+02  0.14251512377E+03  0.16108249320E+03  0.47000000000E+01 0. -1.
        -11    1    4    4    0    0  0.28658061421E+02  0.96534046776E+01  0.26227272138E+02  0.40029270666E+02  0.00000000000E+00 0.  1.
         11    1    4    4    0    0  0.38180807809E+02 -0.49515038145E+02 -0.57928084729E+02  0.85236002298E+02  0.00000000000E+00 0. -1.
<mgrwt>
<rscale>  0 0.14024797E+03</rscale>
<asrwt>0</asrwt>
<pdfrwt beam="2">  1        4 0.17301560E-01 0.14724571E+03</pdfrwt>
<pdfrwt beam="1">  1       -4 0.31740156E-01 0.14724571E+03</pdfrwt>
<totfact> 0.47103621E+02</totfact>
</mgrwt>
</event>
<event>
 8    1  0.9424564E-006  0.1994971E+03  0.7546771E-02  0.1154128E+00
         -1   -1    0    0    0  501 -0.00000000000E+00  0.00000000000E+00  0.84299742163E+03  0.84299742163E+03  0.00000000000E+00 0.  1.
          1   -1    0    0  501    0  0.00000000000E+00 -0.00000000000E+00 -0.43159502637E+02  0.43159502637E+02  0.00000000000E+00 0. -1.
         23    2    1    2    0    0 -0.12563096231E+03 -0.91904293768E+02  0.43648113846E+03  0.47991132003E+03  0.12477801473E+03 0.  0.
         23    2    1    2    0    0  0.12563096231E+03  0.91904293768E+02  0.36335678053E+03  0.40624560423E+03  0.93689930600E+02 0.  0.
          5    1    3    3  502    0 -0.11341730187E+03 -0.11928728163E+03  0.39926991483E+03  0.43189292054E+03  0.47000000000E+01 0. -1.
         -5    1    3    3    0  502 -0.12213660442E+02  0.27382987866E+02  0.37211223631E+02  0.48018399494E+02  0.47000000000E+01 0. -1.
        -11    1    4    4    0    0  0.91740205204E+02  0.50205665903E+02  0.13031659818E+03  0.16709066371E+03  0.00000000000E+00 0. -1.
         11    1    4    4    0    0  0.33890757110E+02  0.41698627865E+02  0.23304018235E+03  0.23915494052E+03  0.00000000000E+00 0.  1.
<mgrwt>
<rscale>  0 0.19488515E+03</rscale>
<asrwt>0</asrwt>
<pdfrwt beam="2">  1        1 0.66399241E-02 0.19949709E+03</pdfrwt>
<pdfrwt beam="1">  1       -1 0.12969190E+00 0.19949709E+03</pdfrwt>
<totfact> 0.61348555E+02</totfact>
</mgrwt>
</event>
<event>
 8    1  0.9424564E-006  0.2776525E+03  0.7546771E-02  0.1098917E+00
         -2   -1    0    0    0  501 -0.00000000000E+00  0.00000000000E+00  0.41542491327E+02  0.41542491327E+02  0.00000000000E+00 0.  1.
          2   -1    0    0  501    0  0.00000000000E+00 -0.00000000000E+00 -0.19824264833E+04  0.19824264833E+04  0.00000000000E+00 0. -1.
         23    2    1    2    0    0  0.24608545517E+03 -0.29986738824E+02 -0.13269860808E+04  0.13557223130E+04  0.12503469794E+03 0.  0.
         23    2    1    2    0    0 -0.24608545517E+03  0.29986738824E+02 -0.61389791118E+03  0.66824666159E+03  0.90695642823E+02 0.  0.
          5    1    3    3  502    0  0.19934140513E+03 -0.28399758066E+02 -0.74196482042E+03  0.76881560000E+03  0.47000000000E+01 0. -1.
         -5    1    3    3    0  502  0.46744050043E+02 -0.15869807582E+01 -0.58502126033E+03  0.58690671300E+03  0.47000000000E+01 0. -1.
        -11    1    4    4    0    0 -0.83773954514E+02  0.18209449961E+02 -0.33058795759E+03  0.34152314303E+03  0.00000000000E+00 0. -1.
         11    1    4    4    0    0 -0.16231150065E+03  0.11777288863E+02 -0.28330995360E+03  0.32672351857E+03  0.00000000000E+00 0.  1.
<mgrwt>
<rscale>  0 0.27416818E+03</rscale>
<asrwt>0</asrwt>
<pdfrwt beam="2">  1        2 0.30498864E+00 0.27765254E+03</pdfrwt>
<pdfrwt beam="1">  1       -2 0.63911536E-02 0.27765254E+03</pdfrwt>
<totfact> 0.10182356E+03</totfact>
</mgrwt>
</event>
<event>
 8    1  0.9424564E-006  0.1599304E+03  0.7546771E-02  0.1196617E+00
         -1   -1    0    0    0  501 -0.00000000000E+00  0.00000000000E+00  0.47285556076E+03  0.47285556076E+03  0.00000000000E+00 0.  1.
          1   -1    0    0  501    0  0.00000000000E+00 -0.00000000000E+00 -0.62889904637E+02  0.62889904637E+02  0.00000000000E+00 0. -1.
         23    2    1    2    0    0  0.97728612861E+02 -0.20088504949E+02  0.35684589940E+03  0.39104570415E+03  0.12499326787E+03 0.  0.
         23    2    1    2    0    0 -0.97728612861E+02  0.20088504949E+02  0.53119756724E+02  0.14469976125E+03  0.90343137801E+02 0.  0.
          5    1    3    3  502    0  0.59855686254E+02  0.28078074855E+02  0.30032712976E+03  0.30755415187E+03  0.47000000000E+01 0.  1.
         -5    1    3    3    0  502  0.37872926607E+02 -0.48166579804E+02  0.56518769638E+02  0.83491552274E+02  0.47000000000E+01 0.  1.
        -11    1    4    4    0    0 -0.83268730078E+02  0.52244648083E+01 -0.44077182446E+01  0.83548814602E+02  0.00000000000E+00 0. -1.
         11    1    4    4    0    0 -0.14459882784E+02  0.14864040141E+02  0.57527474968E+02  0.61150946646E+02  0.00000000000E+00 0.  1.
<mgrwt>
<rscale>  0 0.15318177E+03</rscale>
<asrwt>0</asrwt>
<pdfrwt beam="2">  1        1 0.96753702E-02 0.15993044E+03</pdfrwt>
<pdfrwt beam="1">  1       -1 0.72747007E-01 0.15993044E+03</pdfrwt>
<totfact> 0.13114540E+03</totfact>
</mgrwt>
</event>
<event>
 8    1  0.9424564E-006  0.1725947E+03  0.7546771E-02  0.1182024E+00
          1   -1    0    0  501    0  0.00000000000E+00  0.00000000000E+00  0.94677220117E+02  0.94677220117E+02  0.00000000000E+00 0. -1.
         -1   -1    0    0    0  501 -0.00000000000E+00 -0.00000000000E+00 -0.30736092997E+03  0.30736092997E+03  0.00000000000E+00 0.  1.
         23    2    1    2    0    0 -0.61906315075E+02 -0.10165185415E+03 -0.18233197339E+03  0.25106551365E+03  0.12499380915E+03 0.  0.
         23    2    1    2    0    0  0.61906315075E+02  0.10165185415E+03 -0.30351736469E+02  0.15097263644E+03  0.87783926482E+02 0.  0.
          5    1    3    3  502    0  0.15562302566E+02  0.19353518277E+02 -0.11422046232E+02  0.27736205057E+02  0.47000000000E+01 0. -1.
         -5    1    3    3    0  502 -0.77468617641E+02 -0.12100537243E+03 -0.17090992716E+03  0.22332930859E+03  0.47000000000E+01 0. -1.
        -11    1    4    4    0    0  0.12288078016E+02  0.20316478384E+02 -0.48485314014E+02  0.53986867203E+02  0.00000000000E+00 0.  1.
         11    1    4    4    0    0  0.49618237058E+02  0.81335375769E+02  0.18133577546E+02  0.96985769239E+02  0.00000000000E+00 0. -1.
<mgrwt>
<rscale>  0 0.16605636E+03</rscale>
<asrwt>0</asrwt>
<pdfrwt beam="1">  1        1 0.14565726E-01 0.17259474E+03</pdfrwt>
<pdfrwt beam="2">  1       -1 0.47286297E-01 0.17259474E+03</pdfrwt>
<totfact> 0.17377982E+03</totfact>
</mgrwt>
</event>
<event>
 8    1  0.9424564E-006  0.1503948E+03  0.7546771E-02  0.1208743E+00
         -1   -1    0    0    0  501 -0.00000000000E+00  0.00000000000E+00  0.37777193069E+02  0.37777193069E+02  0.00000000000E+00 0.  1.
          1   -1    0    0  501    0  0.00000000000E+00 -0.00000000000E+00 -0.52063297380E+03  0.52063297380E+03  0.00000000000E+00 0. -1.
         23    2    1    2    0    0  0.31891587351E+02  0.77266707675E+02 -0.20815851544E+03  0.25680450645E+03  0.12502547550E+03 0.  0.
         23    2    1    2    0    0 -0.31891587351E+02 -0.77266707675E+02 -0.27469726529E+03  0.30160566042E+03  0.92304763575E+02 0.  0.
          5    1    3    3  502    0  0.38066156859E+02  0.43355043527E+02 -0.21385701146E+03  0.22155271032E+03  0.47000000000E+01 0.  1.
         -5    1    3    3    0  502 -0.61745695087E+01  0.33911664148E+02  0.56984960209E+01  0.35251796136E+02  0.47000000000E+01 0.  1.
        -11    1    4    4    0    0  0.19273364151E+01 -0.56959717421E+02 -0.24678872719E+03  0.25328403010E+03  0.00000000000E+00 0. -1.
         11    1    4    4    0    0 -0.33818923766E+02 -0.20306990254E+02 -0.27908538102E+02  0.48321630321E+02  0.00000000000E+00 0.  1.
<mgrwt>
<rscale>  0 0.14346365E+03</rscale>
<asrwt>0</asrwt>
<pdfrwt beam="2">  1        1 0.80097376E-01 0.15039477E+03</pdfrwt>
<pdfrwt beam="1">  1       -1 0.58118762E-02 0.15039477E+03</pdfrwt>
<totfact> 0.58016945E+03</totfact>
</mgrwt>
</event>
<event>
 8    1  0.9424564E-006  0.2175295E+03  0.7546771E-02  0.1138960E+00
         -1   -1    0    0    0  501 -0.00000000000E+00  0.00000000000E+00  0.10375647622E+03  0.10375647622E+03  0.00000000000E+00 0.  1.
          1   -1    0    0  501    0  0.00000000000E+00 -0.00000000000E+00 -0.65522450900E+03  0.65522450900E+03  0.00000000000E+00 0. -1.
         23    2    1    2    0    0  0.14550279556E+03 -0.10258126319E+03 -0.56590817251E+02  0.22477010241E+03  0.12500039706E+03 0.  0.
         23    2    1    2    0    0 -0.14550279556E+03  0.10258126319E+03 -0.49487721553E+03  0.53421088281E+03  0.93722088075E+02 0.  0.
          5    1    3    3  502    0  0.43921556775E+02 -0.94115385786E+02 -0.64622011197E+02  0.12241283970E+03  0.47000000000E+01 0.  1.
         -5    1    3    3    0  502  0.10158123879E+03 -0.84658774079E+01  0.80311939456E+01  0.10235726271E+03  0.47000000000E+01 0.  1.
        -11    1    4    4    0    0 -0.45862995696E+02  0.24432483269E+02 -0.51720292088E+02  0.73316773160E+02  0.00000000000E+00 0.  1.
         11    1    4    4    0    0 -0.99639799867E+02  0.78148779925E+02 -0.44315692344E+03  0.46089410965E+03  0.00000000000E+00 0. -1.
<mgrwt>
<rscale>  0 0.21332450E+03</rscale>
<asrwt>0</asrwt>
<pdfrwt beam="2">  1        1 0.10080377E+00 0.21752949E+03</pdfrwt>
<pdfrwt beam="1">  1       -1 0.15962535E-01 0.21752949E+03</pdfrwt>
<totfact> 0.90536678E+02</totfact>
</mgrwt>
</event>
<event>
 8    1  0.9424564E-006  0.1319764E+03  0.7546771E-02  0.1237472E+00
          2   -1    0    0  501    0  0.00000000000E+00  0.00000000000E+00  0.21543587570E+03  0.21543587570E+03  0.00000000000E+00 0. -1.
         -2   -1    0    0    0  501 -0.00000000000E+00 -0.00000000000E+00 -0.89243564637E+02  0.89243564637E+02  0.00000000000E+00 0.  1.
         23    2    1    2    0    0  0.40889565872E+02 -0.11522590007E+02 -0.13021281933E+02  0.13261724825E+03  0.12495220716E+03 0.  0.
         23    2    1    2    0    0 -0.40889565872E+02  0.11522590007E+02  0.13921359299E+03  0.17206219208E+03  0.91761902727E+02 0.  0.
          5    1    3    3  502    0  0.82949040651E+02 -0.87636867359E+01 -0.27262812002E+02  0.87878873846E+02  0.47000000000E+01 0. -1.
         -5    1    3    3    0  502 -0.42059474779E+02 -0.27589032714E+01  0.14241530069E+02  0.44738374408E+02  0.47000000000E+01 0. -1.
        -11    1    4    4    0    0  0.22870045001E+02  0.11708602518E+02  0.92617529219E+01  0.27311360245E+02  0.00000000000E+00 0.  1.
         11    1    4    4    0    0 -0.63759610873E+02 -0.18601251088E+00  0.12995184007E+03  0.14475083184E+03  0.00000000000E+00 0. -1.
<mgrwt>
<rscale>  0 0.12347530E+03</rscale>
<asrwt>0</asrwt>
<pdfrwt beam="1">  1        2 0.33143981E-01 0.13197644E+03</pdfrwt>
<pdfrwt beam="2">  1       -2 0.13729779E-01 0.13197644E+03</pdfrwt>
<totfact> 0.59248501E+03</totfact>
</mgrwt>
</event>
<event>
 8    1  0.9424564E-006  0.1379254E+03  0.7546771E-02  0.1227787E+00
          1   -1    0    0  501    0  0.00000000000E+00  0.00000000000E+00  0.44615022913E+03  0.44615022913E+03  0.00000000000E+00 0. -1.
         -1   -1    0    0    0  501 -0.00000000000E+00 -0.00000000000E+00 -0.46846862410E+02  0.46846862410E+02  0.00000000000E+00 0.  1.
         23    2    1    2    0    0 -0.23364402824E+02 -0.53407292226E+02  0.88372988718E+02  0.16380844539E+03  0.12500074985E+03 0.  0.
         23    2    1    2    0    0  0.23364402824E+02  0.53407292226E+02  0.31093037801E+03  0.32918864615E+03  0.91045211882E+02 0.  0.
          5    1    3    3  502    0 -0.61801273492E+02 -0.66465275696E+00  0.74516475195E+02  0.96925921425E+02  0.47000000000E+01 0.  1.
         -5    1    3    3    0  502  0.38436870668E+02 -0.52742639469E+02  0.13856513523E+02  0.66882523965E+02  0.47000000000E+01 0.  1.
        -11    1    4    4    0    0 -0.34868306157E+02  0.27212586949E+02  0.13074726362E+03  0.13802597802E+03  0.00000000000E+00 0. -1.
         11    1    4    4    0    0  0.58232708981E+02  0.26194705277E+02  0.18018311438E+03  0.19116266813E+03  0.00000000000E+00 0.  1.
<mgrwt>
<rscale>  0 0.12977716E+03</rscale>
<asrwt>0</asrwt>
<pdfrwt beam="1">  1        1 0.68638494E-01 0.13792542E+03</pdfrwt>
<pdfrwt beam="2">  1       -1 0.72072099E-02 0.13792542E+03</pdfrwt>
<totfact> 0.51139223E+03</totfact>
</mgrwt>
</event>
<event>
 8    1  0.9424564E-006  0.1360795E+03  0.7546771E-02  0.1230267E+00
          2   -1    0    0  501    0  0.00000000000E+00  0.00000000000E+00  0.13994240342E+03  0.13994240342E+03  0.00000000000E+00 0. -1.
         -2   -1    0    0    0  501 -0.00000000000E+00 -0.00000000000E+00 -0.11295567832E+03  0.11295567832E+03  0.00000000000E+00 0.  1.
         23    2    1    2    0    0 -0.46353583567E+02  0.27400705241E+02 -0.17254650747E+02  0.13716910384E+03  0.12497274391E+03 0.  0.
         23    2    1    2    0    0  0.46353583567E+02 -0.27400705241E+02  0.44241375845E+02  0.11572897790E+03  0.92392876517E+02 0.  0.
          5    1    3    3  502    0  0.22245735573E+02  0.10840704815E+02 -0.52438706093E+02  0.58174749925E+02  0.47000000000E+01 0. -1.
         -5    1    3    3    0  502 -0.68599319139E+02  0.16560000425E+02  0.35184055346E+02  0.78994353919E+02  0.47000000000E+01 0. -1.
        -11    1    4    4    0    0  0.26046250491E+02  0.24028938231E+02 -0.11458903387E+02  0.37243838470E+02  0.00000000000E+00 0.  1.
         11    1    4    4    0    0  0.20307333076E+02 -0.51429643471E+02  0.55700279232E+02  0.78485139426E+02  0.00000000000E+00 0. -1.
<mgrwt>
<rscale>  0 0.12812338E+03</rscale>
<asrwt>0</asrwt>
<pdfrwt beam="1">  1        2 0.21529601E-01 0.13607954E+03</pdfrwt>
<pdfrwt beam="2">  1       -2 0.17377797E-01 0.13607954E+03</pdfrwt>
<totfact> 0.64735413E+03</totfact>
</mgrwt>
</event>
<event>
 7    1  0.9424564E-006  0.2785650E+03  0.7546771E-02  0.1099731E+00
         -1   -1    0    0    0  501 -0.00000000000E+00  0.00000000000E+00  0.14647954451E+04  0.14647954451E+04  0.00000000000E+00 0.  1.
          1   -1    0    0  501    0  0.00000000000E+00 -0.00000000000E+00 -0.50580477121E+02  0.50580477121E+02  0.00000000000E+00 0. -1.
         23    2    1    2    0    0 -0.11455413654E+03 -0.20917661230E+03  0.53452434070E+03  0.59263325133E+03  0.92846079391E+02 0.  0.
          5    1    1    2  502    0  0.13875615788E+03  0.20169394732E+03  0.70837507460E+03  0.74950053772E+03  0.47000000000E+01 0. -1.
         -5    1    1    2    0  502 -0.24202021340E+02  0.74826649808E+01  0.17131555266E+03  0.17324213314E+03  0.47000000000E+01 0.  1.
        -11    1    3    3    0    0 -0.28096108017E+02 -0.12056972315E+03  0.34223322451E+03  0.36393684807E+03  0.00000000000E+00 0.  1.
         11    1    3    3    0    0 -0.86458028520E+02 -0.88606889155E+02  0.19229111619E+03  0.22869640326E+03  0.00000000000E+00 0. -1.
<mgrwt>
<rscale>  0 0.27272396E+03</rscale>
<asrwt>0</asrwt>
<pdfrwt beam="2">  1        1 0.77816130E-02 0.27856496E+03</pdfrwt>
<pdfrwt beam="1">  1       -1 0.22535311E+00 0.27856496E+03</pdfrwt>
<totfact> 0.10283439E+02</totfact>
</mgrwt>
</event>
<event>
 8    1  0.1100056E-005  0.2587422E+03  0.7546771E-02  0.1110287E+00
          2   -1    0    0  501    0  0.00000000000E+00  0.00000000000E+00  0.67225479152E+03  0.67225479152E+03  0.00000000000E+00 0. -1.
         -2   -1    0    0    0  501 -0.00000000000E+00 -0.00000000000E+00 -0.11181901917E+03  0.11181901917E+03  0.00000000000E+00 0.  1.
         23    2    1    2    0    0 -0.22651426430E+03  0.36862663092E+01  0.13001945196E+03  0.28957313726E+03  0.12500097378E+03 0.  0.
         23    2    1    2    0    0  0.22651426430E+03 -0.36862663092E+01  0.43041632039E+03  0.49450067343E+03  0.89165052978E+02 0.  0.
          5    1    3    3  502    0 -0.13648864605E+03  0.51331616333E+02  0.11652446217E+03  0.18671937666E+03  0.47000000000E+01 0.  1.
         -5    1    3    3    0  502 -0.90025618257E+02 -0.47645350024E+02  0.13494989786E+02  0.10285376061E+03  0.47000000000E+01 0.  1.
        -11    1    4    4    0    0  0.11011903486E+03 -0.35917172356E+02  0.15270726673E+03  0.19166573617E+03  0.00000000000E+00 0.  1.
         11    1    4    4    0    0  0.11639522944E+03  0.32230906047E+02  0.27770905366E+03  0.30283493727E+03  0.00000000000E+00 0. -1.
<mgrwt>
<rscale>  0 0.25483398E+03</rscale>
<asrwt>0</asrwt>
<pdfrwt beam="1">  1        2 0.10342381E+00 0.25874223E+03</pdfrwt>
<pdfrwt beam="2">  1       -2 0.17202926E-01 0.25874223E+03</pdfrwt>
<totfact> 0.11992218E+03</totfact>
</mgrwt>
</event>
<event>
 8    1  0.9424564E-006  0.1468740E+03  0.7546771E-02  0.1213923E+00
         -1   -1    0    0    0  501 -0.00000000000E+00  0.00000000000E+00  0.25326297037E+03  0.25326297037E+03  0.00000000000E+00 0.  1.
          1   -1    0    0  501    0  0.00000000000E+00 -0.00000000000E+00 -0.84126379020E+02  0.84126379020E+02  0.00000000000E+00 0. -1.
         23    2    1    2    0    0 -0.54695540580E+02 -0.54370082651E+02  0.16018043996E+03  0.21732408432E+03  0.12499710489E+03 0.  0.
         23    2    1    2    0    0  0.54695540580E+02  0.54370082651E+02  0.89561513916E+01  0.12006526508E+03  0.91584644910E+02 0.  0.
          5    1    3    3  502    0  0.34632828429E+02 -0.17020745827E+02  0.88818033273E+02  0.96952935118E+02  0.47000000000E+01 0.  1.
         -5    1    3    3    0  502 -0.89328369009E+02 -0.37349336825E+02  0.71362406687E+02  0.12037114920E+03  0.47000000000E+01 0.  1.
        -11    1    4    4    0    0  0.25779746646E+02  0.77971798848E+02  0.23269063659E+01  0.82156017710E+02  0.00000000000E+00 0. -1.
         11    1    4    4    0    0  0.28915793934E+02 -0.23601716197E+02  0.66292450257E+01  0.37909247366E+02  0.00000000000E+00 0.  1.
<mgrwt>
<rscale>  0 0.13955976E+03</rscale>
<asrwt>0</asrwt>
<pdfrwt beam="2">  1        1 0.12942520E-01 0.14687404E+03</pdfrwt>
<pdfrwt beam="1">  1       -1 0.38963534E-01 0.14687404E+03</pdfrwt>
<totfact> 0.28447308E+03</totfact>
</mgrwt>
</event>
<event>
 8    1  0.9424564E-006  0.1741834E+03  0.7546771E-02  0.1179945E+00
         -2   -1    0    0    0  501 -0.00000000000E+00  0.00000000000E+00  0.93925931651E+02  0.93925931651E+02  0.00000000000E+00 0.  1.
          2   -1    0    0  501    0  0.00000000000E+00 -0.00000000000E+00 -0.30393704358E+03  0.30393704358E+03  0.00000000000E+00 0. -1.
         23    2    1    2    0    0 -0.21832925162E+01  0.12129327065E+03 -0.57521851667E+02  0.18343558782E+03  0.12499210851E+03 0.  0.
         23    2    1    2    0    0  0.21832925162E+01 -0.12129327065E+03 -0.15248926027E+03  0.21442738741E+03  0.89494724453E+02 0.  0.
          5    1    3    3  502    0  0.30252419319E+02  0.70206925415E+02 -0.87041515483E+02  0.11594195388E+03  0.47000000000E+01 0.  1.
         -5    1    3    3    0  502 -0.32435711835E+02  0.51086345234E+02  0.29519663816E+02  0.67493633948E+02  0.47000000000E+01 0.  1.
        -11    1    4    4    0    0  0.27807689121E+01  0.14596848778E+02 -0.15274245185E+02  0.21309698166E+02  0.00000000000E+00 0.  1.
         11    1    4    4    0    0 -0.59747639590E+00 -0.13589011943E+03 -0.13721501508E+03  0.19311768925E+03  0.00000000000E+00 0. -1.
<mgrwt>
<rscale>  0 0.16800443E+03</rscale>
<asrwt>0</asrwt>
<pdfrwt beam="2">  1        2 0.46759546E-01 0.17418338E+03</pdfrwt>
<pdfrwt beam="1">  1       -2 0.14450143E-01 0.17418338E+03</pdfrwt>
<totfact> 0.38322361E+03</totfact>
</mgrwt>
</event>
<event>
 8    1  0.9424564E-006  0.1303620E+03  0.7546771E-02  0.1240639E+00
         -1   -1    0    0    0  501 -0.00000000000E+00  0.00000000000E+00  0.52613479826E+02  0.52613479826E+02  0.00000000000E+00 0. -1.
          1   -1    0    0  501    0  0.00000000000E+00 -0.00000000000E+00 -0.25666665414E+03  0.25666665414E+03  0.00000000000E+00 0.  1.
         23    2    1    2    0    0 -0.99377884530E+01 -0.35520680954E+02 -0.88708501841E+02  0.15768151121E+03  0.12503512412E+03 0.  0.
         23    2    1    2    0    0  0.99377884530E+01  0.35520680954E+02 -0.11534467247E+03  0.15159862275E+03  0.91199070926E+02 0.  0.
          5    1    3    3  502    0 -0.52152707940E+02 -0.52577549724E+02 -0.83350957896E+02  0.11159648678E+03  0.47000000000E+01 0. -1.
         -5    1    3    3    0  502  0.42214919487E+02  0.17056868770E+02 -0.53575439451E+01  0.46085024429E+02  0.47000000000E+01 0. -1.
        -11    1    4    4    0    0  0.23665680308E+02 -0.25582802759E+02 -0.51343411768E+02  0.62053929395E+02  0.00000000000E+00 0.  1.
         11    1    4    4    0    0 -0.13727891855E+02  0.61103483712E+02 -0.64001260701E+02  0.89544693354E+02  0.00000000000E+00 0. -1.
<mgrwt>
<rscale>  0 0.12150248E+03</rscale>
<asrwt>0</asrwt>
<pdfrwt beam="2">  1        1 0.39487177E-01 0.13036204E+03</pdfrwt>
<pdfrwt beam="1">  1       -1 0.80943815E-02 0.13036204E+03</pdfrwt>
<totfact> 0.85306800E+03</totfact>
</mgrwt>
</event>
<event>
 8    1  0.9424564E-006  0.1584111E+03  0.7546771E-02  0.1191922E+00
         -2   -1    0    0    0  501 -0.00000000000E+00  0.00000000000E+00  0.17740960011E+02  0.17740960011E+02  0.00000000000E+00 0.  1.
          2   -1    0    0  501    0  0.00000000000E+00 -0.00000000000E+00 -0.13753578322E+04  0.13753578322E+04  0.00000000000E+00 0. -1.
         23    2    1    2    0    0  0.33518176347E+02 -0.10432277848E+03 -0.65115912028E+03  0.67015092702E+03  0.11439997732E+03 0.  0.
         23    2    1    2    0    0 -0.33518176347E+02  0.10432277848E+03 -0.70645775194E+03  0.72294786522E+03  0.10753766919E+03 0.  0.
          5    1    3    3  502    0  0.55634014966E+02 -0.41663183093E+02 -0.50176921752E+03  0.50658207834E+03  0.47000000000E+01 0. -1.
         -5    1    3    3    0  502 -0.22115838619E+02 -0.62659595390E+02 -0.14938990276E+03  0.16356884868E+03  0.47000000000E+01 0.  1.
        -11    1    4    4    0    0 -0.59850404910E+02  0.17362665537E+02 -0.26370276802E+03  0.27096620266E+03  0.00000000000E+00 0.  1.
         11    1    4    4    0    0  0.26332228563E+02  0.86960112946E+02 -0.44275498392E+03  0.45198166256E+03  0.00000000000E+00 0. -1.
<mgrwt>
<rscale>  0 0.15717611E+03</rscale>
<asrwt>0</asrwt>
<pdfrwt beam="2">  1        2 0.21159345E+00 0.15841106E+03</pdfrwt>
<pdfrwt beam="1">  1       -2 0.27293793E-02 0.15841106E+03</pdfrwt>
<totfact> 0.76395798E+03</totfact>
</mgrwt>
</event>
<event>
 8    1  0.9424564E-006  0.2514171E+03  0.7546771E-02  0.1112986E+00
         -1   -1    0    0    0  501 -0.00000000000E+00  0.00000000000E+00  0.11881437518E+03  0.11881437518E+03  0.00000000000E+00 0.  1.
          1   -1    0    0  501    0  0.00000000000E+00 -0.00000000000E+00 -0.56604223871E+03  0.56604223871E+03  0.00000000000E+00 0. -1.
         23    2    1    2    0    0 -0.12283806847E+03 -0.18773558713E+03 -0.13220178106E+03  0.28405608296E+03  0.11347557274E+03 0.  0.
         23    2    1    2    0    0  0.12283806847E+03  0.18773558713E+03 -0.31502608246E+03  0.40080053093E+03  0.10519406458E+03 0.  0.
          5    1    3    3  502    0 -0.62196895115E+02 -0.32372654980E+02  0.14362577628E+01  0.70289368960E+02  0.47000000000E+01 0. -1.
         -5    1    3    3    0  502 -0.60641173351E+02 -0.15536293215E+03 -0.13363803883E+03  0.21376671400E+03  0.47000000000E+01 0.  1.
        -11    1    4    4    0    0 -0.87445389898E+01  0.61217547715E+02 -0.11078144593E+03  0.12687231326E+03  0.00000000000E+00 0.  1.
         11    1    4    4    0    0  0.13158260746E+03  0.12651803942E+03 -0.20424463653E+03  0.27392821767E+03  0.00000000000E+00 0. -1.
<mgrwt>
<rscale>  0 0.25050523E+03</rscale>
<asrwt>0</asrwt>
<pdfrwt beam="2">  1        1 0.87083423E-01 0.25141708E+03</pdfrwt>
<pdfrwt beam="1">  1       -1 0.18279134E-01 0.25141708E+03</pdfrwt>
<totfact> 0.89315576E+02</totfact>
</mgrwt>
</event>
<event>
 8    1  0.9424564E-006  0.1394227E+03  0.7546771E-02  0.1228134E+00
         -3   -1    0    0    0  501 -0.00000000000E+00  0.00000000000E+00  0.35132778311E+03  0.35132778311E+03  0.00000000000E+00 0.  1.
          3   -1    0    0  501    0  0.00000000000E+00 -0.00000000000E+00 -0.43299214319E+02  0.43299214319E+02  0.00000000000E+00 0. -1.
         23    2    1    2    0    0  0.57365948938E+02  0.22867923537E+02  0.20790920222E+03  0.25032963706E+03  0.12499958721E+03 0.  0.
         23    2    1    2    0    0 -0.57365948938E+02 -0.22867923537E+02  0.10011936657E+03  0.14429736036E+03  0.83570608591E+02 0.  0.
          5    1    3    3  502    0  0.11498348456E+02 -0.50552551696E+02  0.66389917176E+02  0.84365180038E+02  0.47000000000E+01 0.  1.
         -5    1    3    3    0  502  0.45867600482E+02  0.73420475233E+02  0.14151928504E+03  0.16596445703E+03  0.47000000000E+01 0.  1.
        -11    1    4    4    0    0 -0.27213498352E+02 -0.53724075927E+02  0.50953439485E+02  0.78886651736E+02  0.00000000000E+00 0.  1.
         11    1    4    4    0    0 -0.30152450586E+02  0.30856152390E+02  0.49165927087E+02  0.65410708626E+02  0.00000000000E+00 0. -1.
<mgrwt>
<rscale>  0 0.12954398E+03</rscale>
<asrwt>0</asrwt>
<pdfrwt beam="2">  1        3 0.66614178E-02 0.13942271E+03</pdfrwt>
<pdfrwt beam="1">  1       -3 0.54050426E-01 0.13942271E+03</pdfrwt>
<totfact> 0.11352009E+03</totfact>
</mgrwt>
</event>
<event>
 8    1  0.9424564E-006  0.2301174E+03  0.7546771E-02  0.1129314E+00
         -1   -1    0    0    0  501 -0.00000000000E+00  0.00000000000E+00  0.18753311955E+03  0.18753311955E+03  0.00000000000E+00 0.  1.
          1   -1    0    0  501    0  0.00000000000E+00 -0.00000000000E+00 -0.26669243398E+03  0.26669243398E+03  0.00000000000E+00 0. -1.
         23    2    1    2    0    0  0.10340228937E+03 -0.16320730808E+03 -0.18634088355E+02  0.23087064378E+03  0.12500146421E+03 0.  0.
         23    2    1    2    0    0 -0.10340228937E+03  0.16320730808E+03 -0.60525226074E+02  0.22335490974E+03  0.94315713731E+02 0.  0.
          5    1    3    3  502    0  0.10775123658E+03 -0.99292918913E+02 -0.55564601907E+02  0.15677668104E+03  0.47000000000E+01 0. -1.
         -5    1    3    3    0  502 -0.43489472095E+01 -0.63914389165E+02  0.36930513552E+02  0.74093962746E+02  0.47000000000E+01 0. -1.
        -11    1    4    4    0    0 -0.21914187552E+02  0.13672282300E+02  0.22172128192E+02  0.34040654928E+02  0.00000000000E+00 0.  1.
         11    1    4    4    0    0 -0.81488101822E+02  0.14953502578E+03 -0.82697354267E+02  0.18931425481E+03  0.00000000000E+00 0. -1.
<mgrwt>
<rscale>  0 0.22624068E+03</rscale>
<asrwt>0</asrwt>
<pdfrwt beam="2">  1        1 0.41029605E-01 0.23011742E+03</pdfrwt>
<pdfrwt beam="1">  1       -1 0.28851249E-01 0.23011742E+03</pdfrwt>
<totfact> 0.11101168E+03</totfact>
</mgrwt>
</event>
<event>
 8    1  0.9424564E-006  0.1262186E+03  0.7546771E-02  0.1247812E+00
         -1   -1    0    0    0  501 -0.00000000000E+00  0.00000000000E+00  0.54458781909E+02  0.54458781909E+02  0.00000000000E+00 0.  1.
          1   -1    0    0  501    0  0.00000000000E+00 -0.00000000000E+00 -0.22345036460E+03  0.22345036460E+03  0.00000000000E+00 0. -1.
         23    2    1    2    0    0  0.15525794690E+02  0.81531448664E+01 -0.86588053598E+02  0.15306408977E+03  0.12499440179E+03 0.  0.
         23    2    1    2    0    0 -0.15525794690E+02 -0.81531448664E+01 -0.82403529093E+02  0.12484505674E+03  0.92132635445E+02 0.  0.
          5    1    3    3  502    0  0.34187916717E+02 -0.76531311154E+01  0.22014542220E+02  0.41642696052E+02  0.47000000000E+01 0. -1.
         -5    1    3    3    0  502 -0.18662122027E+02  0.15806275982E+02 -0.10860259582E+03  0.11142139371E+03  0.47000000000E+01 0. -1.
        -11    1    4    4    0    0 -0.42255258674E+00 -0.46483894942E+02 -0.65486196687E+02  0.80307988371E+02  0.00000000000E+00 0. -1.
         11    1    4    4    0    0 -0.15103242103E+02  0.38330750076E+02 -0.16917332406E+02  0.44537068371E+02  0.00000000000E+00 0.  1.
<mgrwt>
<rscale>  0 0.11718654E+03</rscale>
<asrwt>0</asrwt>
<pdfrwt beam="2">  1        1 0.34376979E-01 0.12621856E+03</pdfrwt>
<pdfrwt beam="1">  1       -1 0.83782741E-02 0.12621856E+03</pdfrwt>
<totfact> 0.95867150E+03</totfact>
</mgrwt>
</event>
<event>
 8    1  0.9424564E-006  0.1335707E+03  0.7546771E-02  0.1235914E+00
          1   -1    0    0  501    0  0.00000000000E+00  0.00000000000E+00  0.16001967451E+03  0.16001967451E+03  0.00000000000E+00 0. -1.
         -1   -1    0    0    0  501 -0.00000000000E+00 -0.00000000000E+00 -0.91204632864E+02  0.91204632864E+02  0.00000000000E+00 0.  1.
         23    2    1    2    0    0  0.29774470658E+02  0.36450144366E+02  0.84834108893E+01  0.13383980414E+03  0.12500397108E+03 0.  0.
         23    2    1    2    0    0 -0.29774470658E+02 -0.36450144366E+02  0.60331630757E+02  0.11738450323E+03  0.89017323047E+02 0.  0.
          5    1    3    3  502    0  0.44955373966E+02 -0.36795895536E+02 -0.99677327942E+00  0.58292427756E+02  0.47000000000E+01 0. -1.
         -5    1    3    3    0  502 -0.15180903308E+02  0.73246039902E+02  0.94801841687E+01  0.75547376384E+02  0.47000000000E+01 0. -1.
        -11    1    4    4    0    0 -0.72974463871E+01 -0.59906449215E+02  0.16019479797E+02  0.62439243384E+02  0.00000000000E+00 0.  1.
         11    1    4    4    0    0 -0.22477024271E+02  0.23456304850E+02  0.44312150961E+02  0.54945259850E+02  0.00000000000E+00 0. -1.
<mgrwt>
<rscale>  0 0.12446117E+03</rscale>
<asrwt>0</asrwt>
<pdfrwt beam="1">  1        1 0.24618411E-01 0.13357067E+03</pdfrwt>
<pdfrwt beam="2">  1       -1 0.14031482E-01 0.13357067E+03</pdfrwt>
<totfact> 0.66191411E+03</totfact>
</mgrwt>
</event>
<event>
 8    1  0.9424564E-006  0.1970349E+03  0.7546771E-02  0.1159150E+00
         -1   -1    0    0    0  501 -0.00000000000E+00  0.00000000000E+00  0.43664564099E+02  0.43664564099E+02  0.00000000000E+00 0.  1.
          1   -1    0    0  501    0  0.00000000000E+00 -0.00000000000E+00 -0.77755519880E+03  0.77755519880E+03  0.00000000000E+00 0. -1.
         23    2    1    2    0    0  0.13472434813E+02  0.15170726977E+03 -0.45478886599E+03  0.49563663794E+03  0.12500464806E+03 0.  0.
         23    2    1    2    0    0 -0.13472434813E+02 -0.15170726977E+03 -0.27910176871E+03  0.32558312496E+03  0.70071190650E+02 0.  0.
          5    1    3    3  502    0 -0.51591287379E+02  0.10054999589E+03 -0.28701205514E+03  0.30849630857E+03  0.47000000000E+01 0.  1.
         -5    1    3    3    0  502  0.65063722192E+02  0.51157273885E+02 -0.16777681085E+03  0.18714032937E+03  0.47000000000E+01 0.  1.
        -11    1    4    4    0    0  0.93384585599E+01 -0.67331392410E+02 -0.18528072833E+03  0.19735671132E+03  0.00000000000E+00 0.  1.
         11    1    4    4    0    0 -0.22810893373E+02 -0.84375877363E+02 -0.93821040386E+02  0.12822641365E+03  0.00000000000E+00 0. -1.
<mgrwt>
<rscale>  0 0.18923803E+03</rscale>
<asrwt>0</asrwt>
<pdfrwt beam="2">  1        1 0.11962386E+00 0.19703493E+03</pdfrwt>
<pdfrwt beam="1">  1       -1 0.67176263E-02 0.19703493E+03</pdfrwt>
<totfact> 0.26868282E+03</totfact>
</mgrwt>
</event>
<event>
 8    1  0.9424564E-006  0.1346119E+03  0.7546771E-02  0.1233508E+00
          1   -1    0    0  501    0  0.00000000000E+00  0.00000000000E+00  0.17938550966E+03  0.17938550966E+03  0.00000000000E+00 0. -1.
         -1   -1    0    0    0  501 -0.00000000000E+00 -0.00000000000E+00 -0.90253459796E+02  0.90253459796E+02  0.00000000000E+00 0.  1.
         23    2    1    2    0    0 -0.38419994877E+02  0.31922735213E+02  0.22581230734E+01  0.13463085683E+03  0.12500084584E+03 0.  0.
         23    2    1    2    0    0  0.38419994877E+02 -0.31922735213E+02  0.86873926793E+02  0.13500811263E+03  0.90470737202E+02 0.  0.
          5    1    3    3  502    0 -0.33865645676E+02  0.49225127814E+02 -0.50720583684E+02  0.78515366487E+02  0.47000000000E+01 0. -1.
         -5    1    3    3    0  502 -0.45543492007E+01 -0.17302392602E+02  0.52978706758E+02  0.56115490340E+02  0.47000000000E+01 0. -1.
        -11    1    4    4    0    0  0.21046137550E+01 -0.20954145721E+02 -0.15292345697E+02  0.26026168732E+02  0.00000000000E+00 0.  1.
         11    1    4    4    0    0  0.36315381122E+02 -0.10968589491E+02  0.10216627249E+03  0.10898194390E+03  0.00000000000E+00 0. -1.
<mgrwt>
<rscale>  0 0.12600408E+03</rscale>
<asrwt>0</asrwt>
<pdfrwt beam="1">  1        1 0.27597771E-01 0.13461192E+03</pdfrwt>
<pdfrwt beam="2">  1       -1 0.13885148E-01 0.13461192E+03</pdfrwt>
<totfact> 0.58344695E+03</totfact>
</mgrwt>
</event>
<event>
 8    1  0.9424564E-006  0.1473958E+03  0.7546771E-02  0.1212963E+00
          2   -1    0    0  501    0  0.00000000000E+00  0.00000000000E+00  0.18536880878E+03  0.18536880878E+03  0.00000000000E+00 0. -1.
         -2   -1    0    0    0  501 -0.00000000000E+00 -0.00000000000E+00 -0.13812714563E+03  0.13812714563E+03  0.00000000000E+00 0.  1.
         23    2    1    2    0    0  0.20744627115E+02 -0.75296465798E+02 -0.62609048220E+02  0.16014187219E+03  0.12500251595E+03 0.  0.
         23    2    1    2    0    0 -0.20744627115E+02  0.75296465798E+02  0.10985071137E+03  0.16335408222E+03  0.92290194898E+02 0.  0.
          5    1    3    3  502    0  0.62432111858E+01 -0.25806049092E+02 -0.95206764356E+02  0.98951239683E+02  0.47000000000E+01 0. -1.
         -5    1    3    3    0  502  0.14501415929E+02 -0.49490416705E+02  0.32597716136E+02  0.61190632510E+02  0.47000000000E+01 0. -1.
        -11    1    4    4    0    0  0.23375312179E+02  0.53552249392E+02  0.95775476538E+02  0.11219264923E+03  0.00000000000E+00 0. -1.
         11    1    4    4    0    0 -0.44119939294E+02  0.21744216406E+02  0.14075234829E+02  0.51161432993E+02  0.00000000000E+00 0.  1.
<mgrwt>
<rscale>  0 0.14027250E+03</rscale>
<asrwt>0</asrwt>
<pdfrwt beam="1">  1        2 0.28518278E-01 0.14739582E+03</pdfrwt>
<pdfrwt beam="2">  1       -2 0.21250330E-01 0.14739582E+03</pdfrwt>
<totfact> 0.33962713E+03</totfact>
</mgrwt>
</event>
<event>
 8    1  0.9424564E-006  0.1422847E+03  0.7546771E-02  0.1221295E+00
          1   -1    0    0  501    0  0.00000000000E+00  0.00000000000E+00  0.84781838750E+03  0.84781838750E+03  0.00000000000E+00 0. -1.
         -1   -1    0    0    0  501 -0.00000000000E+00 -0.00000000000E+00 -0.19293222710E+02  0.19293222710E+02  0.00000000000E+00 0.  1.
         23    2    1    2    0    0  0.37551616799E+01 -0.67866947378E+02  0.42861030879E+03  0.45161017088E+03  0.12499970342E+03 0.  0.
         23    2    1    2    0    0 -0.37551616799E+01  0.67866947378E+02  0.39991485600E+03  0.41550143933E+03  0.89941815915E+02 0.  0.
          5    1    3    3  502    0  0.15676513192E+02 -0.95410648682E+02  0.39326310047E+03  0.40500234708E+03  0.47000000000E+01 0.  1.
         -5    1    3    3    0  502 -0.11921351512E+02  0.27543701303E+02  0.35347208317E+02  0.46607823798E+02  0.47000000000E+01 0.  1.
        -11    1    4    4    0    0 -0.15857463744E+02  0.86445320058E+02  0.27718358785E+03  0.29078341405E+03  0.00000000000E+00 0. -1.
         11    1    4    4    0    0  0.12102302064E+02 -0.18578372680E+02  0.12273126815E+03  0.12471802527E+03  0.00000000000E+00 0.  1.
<mgrwt>
<rscale>  0 0.13424096E+03</rscale>
<asrwt>0</asrwt>
<pdfrwt beam="1">  1        1 0.13043357E+00 0.14228475E+03</pdfrwt>
<pdfrwt beam="2">  1       -1 0.29681888E-02 0.14228475E+03</pdfrwt>
<totfact> 0.78022806E+03</totfact>
</mgrwt>
</event>
<event>
 8    1  0.9424564E-006  0.2021866E+03  0.7546771E-02  0.1152019E+00
         -1   -1    0    0    0  501 -0.00000000000E+00  0.00000000000E+00  0.46125520930E+02  0.46125520930E+02  0.00000000000E+00 0.  1.
          1   -1    0    0  501    0  0.00000000000E+00 -0.00000000000E+00 -0.85489531433E+03  0.85489531433E+03  0.00000000000E+00 0. -1.
         23    2    1    2    0    0  0.96832196538E+02 -0.12599909013E+03 -0.31521311361E+03  0.37448461614E+03  0.12500870263E+03 0.  0.
         23    2    1    2    0    0 -0.96832196538E+02  0.12599909013E+03 -0.49355667979E+03  0.52653621912E+03  0.91596664122E+02 0.  0.
          5    1    3    3  502    0  0.44769591696E+02 -0.77226700839E+02 -0.55743721507E+02  0.10534577424E+03  0.47000000000E+01 0. -1.
         -5    1    3    3    0  502  0.52062604842E+02 -0.48772389294E+02 -0.25946939210E+03  0.26913884190E+03  0.47000000000E+01 0. -1.
        -11    1    4    4    0    0 -0.40244593554E+02  0.89265524219E+02 -0.17146037026E+03  0.19745029677E+03  0.00000000000E+00 0.  1.
         11    1    4    4    0    0 -0.56587602984E+02  0.36733565914E+02 -0.32209630953E+03  0.32908592235E+03  0.00000000000E+00 0. -1.
<mgrwt>
<rscale>  0 0.19732168E+03</rscale>
<asrwt>0</asrwt>
<pdfrwt beam="2">  1        1 0.13152236E+00 0.20218660E+03</pdfrwt>
<pdfrwt beam="1">  1       -1 0.70962340E-02 0.20218660E+03</pdfrwt>
<totfact> 0.21375531E+03</totfact>
</mgrwt>
</event>
<event>
 8    1  0.9424564E-006  0.1607521E+03  0.7546771E-02  0.1195395E+00
         -2   -1    0    0    0  501 -0.00000000000E+00  0.00000000000E+00  0.19707686278E+03  0.19707686278E+03  0.00000000000E+00 0.  1.
          2   -1    0    0  501    0  0.00000000000E+00 -0.00000000000E+00 -0.11397644194E+03  0.11397644194E+03  0.00000000000E+00 0. -1.
         23    2    1    2    0    0 -0.14479229189E+01 -0.10107272375E+03  0.66296941973E+02  0.17388648554E+03  0.12499373333E+03 0.  0.
         23    2    1    2    0    0  0.14479229189E+01  0.10107272375E+03  0.16803478868E+02  0.13716681917E+03  0.91184359472E+02 0.  0.
          5    1    3    3  502    0 -0.20289295669E+02 -0.26636601047E+02 -0.33689832645E+02  0.47731109957E+02  0.47000000000E+01 0. -1.
         -5    1    3    3    0  502  0.18841372750E+02 -0.74436122706E+02  0.99986774618E+02  0.12615537559E+03  0.47000000000E+01 0. -1.
        -11    1    4    4    0    0 -0.12523696141E+02  0.11509857823E+03  0.18702263960E+02  0.11727872933E+03  0.00000000000E+00 0.  1.
         11    1    4    4    0    0  0.13971619060E+02 -0.14025854475E+02 -0.18987850927E+01  0.19888089847E+02  0.00000000000E+00 0. -1.
<mgrwt>
<rscale>  0 0.15420868E+03</rscale>
<asrwt>0</asrwt>
<pdfrwt beam="2">  1        2 0.17534837E-01 0.16075206E+03</pdfrwt>
<pdfrwt beam="1">  1       -2 0.30319517E-01 0.16075206E+03</pdfrwt>
<totfact> 0.31527313E+03</totfact>
</mgrwt>
</event>
<event>
 8    1  0.9604240E-006  0.3256431E+03  0.7546771E-02  0.1074336E+00
         -1   -1    0    0    0  501 -0.00000000000E+00  0.00000000000E+00  0.14314007415E+03  0.14314007415E+03  0.00000000000E+00 0.  1.
          1   -1    0    0  501    0  0.00000000000E+00 -0.00000000000E+00 -0.71808388358E+03  0.71808388358E+03  0.00000000000E+00 0. -1.
         23    2    1    2    0    0  0.28390044723E+03 -0.99092525990E+02 -0.26992003879E+03  0.42296600767E+03  0.12499849463E+03 0.  0.
         23    2    1    2    0    0 -0.28390044723E+03  0.99092525990E+02 -0.30502377064E+03  0.43825795005E+03  0.92799447654E+02 0.  0.
          5    1    3    3  502    0  0.11599651014E+03 -0.89971580229E+02 -0.17968458424E+03  0.23207480567E+03  0.47000000000E+01 0.  1.
         -5    1    3    3    0  502  0.16790393710E+03 -0.91209457612E+01 -0.90235454545E+02  0.19089120200E+03  0.47000000000E+01 0.  1.
        -11    1    4    4    0    0 -0.71252894617E+02 -0.10260532797E+02 -0.44487234539E+02  0.84624863731E+02  0.00000000000E+00 0.  1.
         11    1    4    4    0    0 -0.21264755262E+03  0.10935305879E+03 -0.26053653610E+03  0.35363308632E+03  0.00000000000E+00 0. -1.
<mgrwt>
<rscale>  0 0.32286988E+03</rscale>
<asrwt>0</asrwt>
<pdfrwt beam="2">  1        1 0.11047444E+00 0.32564308E+03</pdfrwt>
<pdfrwt beam="1">  1       -1 0.22021550E-01 0.32564308E+03</pdfrwt>
<totfact> 0.46793803E+02</totfact>
</mgrwt>
</event>
<event>
 7    1  0.9424564E-006  0.1353678E+03  0.7546771E-02  0.1249615E+00
          1   -1    0    0  501    0  0.00000000000E+00  0.00000000000E+00  0.20708822609E+03  0.20708822609E+03  0.00000000000E+00 0. -1.
         -1   -1    0    0    0  501 -0.00000000000E+00 -0.00000000000E+00 -0.63489083065E+02  0.63489083065E+02  0.00000000000E+00 0.  1.
         23    2    1    2    0    0  0.15889943663E+02 -0.49229429233E+02  0.35486876101E+02  0.13994196549E+03  0.12509359823E+03 0.  0.
          5    1    3    3  502    0 -0.41264372776E+02 -0.31239059171E+02  0.56034540571E+02  0.76423733326E+02  0.47000000000E+01 0.  1.
         -5    1    3    3    0  502  0.57154316439E+02 -0.17990370062E+02 -0.20547664470E+02  0.63518232168E+02  0.47000000000E+01 0.  1.
        -11    1    1    2    0    0 -0.12736369498E+01  0.52420308954E+02  0.57321067695E+02  0.77686651000E+02  0.00000000000E+00 0.  1.
         11    1    1    2    0    0 -0.14616306713E+02 -0.31908797208E+01  0.50791199228E+02  0.52948692660E+02  0.00000000000E+00 0. -1.
<mgrwt>
<rscale>  0 0.11613345E+03</rscale>
<asrwt>0</asrwt>
<pdfrwt beam="1">  1        1 0.31859727E-01 0.13536778E+03</pdfrwt>
<pdfrwt beam="2">  1       -1 0.97675513E-02 0.13536778E+03</pdfrwt>
<totfact> 0.83916647E+03</totfact>
</mgrwt>
</event>
<event>
 7    1  0.9424564E-006  0.1847192E+03  0.7546771E-02  0.1193989E+00
          1   -1    0    0  501    0  0.00000000000E+00  0.00000000000E+00  0.89741231074E+03  0.89741231074E+03  0.00000000000E+00 0. -1.
         -1   -1    0    0    0  501 -0.00000000000E+00 -0.00000000000E+00 -0.22683690218E+02  0.22683690218E+02  0.00000000000E+00 0.  1.
         23    2    1    2    0    0 -0.11090129117E+02 -0.11314996368E+02  0.40310318312E+03  0.41358665483E+03  0.91163176278E+02 0.  0.
          5    1    1    2  502    0 -0.75203834255E+02 -0.37374228559E+02  0.24788961746E+03  0.26177051418E+03  0.47000000000E+01 0. -1.
         -5    1    1    2    0  502  0.86293963372E+02  0.48689224927E+02  0.22373581995E+03  0.24473883195E+03  0.47000000000E+01 0.  1.
        -11    1    3    3    0    0 -0.37387195028E+02 -0.38563944517E+02  0.20660387750E+03  0.21347164301E+03  0.00000000000E+00 0. -1.
         11    1    3    3    0    0  0.26297065911E+02  0.27248948149E+02  0.19649930561E+03  0.20011501182E+03  0.00000000000E+00 0.  1.
<mgrwt>
<rscale>  0 0.15540115E+03</rscale>
<asrwt>0</asrwt>
<pdfrwt beam="1">  1        1 0.13806341E+00 0.18471915E+03</pdfrwt>
<pdfrwt beam="2">  1       -1 0.34897992E-02 0.18471915E+03</pdfrwt>
<totfact> 0.56944495E+03</totfact>
</mgrwt>
</event>
<event>
 8    1  0.9424564E-006  0.1254511E+03  0.7546771E-02  0.1249178E+00
          2   -1    0    0  501    0  0.00000000000E+00  0.00000000000E+00  0.40063617055E+03  0.40063617055E+03  0.00000000000E+00 0. -1.
         -2   -1    0    0    0  501 -0.00000000000E+00 -0.00000000000E+00 -0.46244345327E+02  0.46244345327E+02  0.00000000000E+00 0.  1.
         23    2    1    2    0    0 -0.79844803731E+01  0.70754901802E+01  0.61731355103E+02  0.13981678916E+03  0.12499663932E+03 0.  0.
         23    2    1    2    0    0  0.79844803731E+01 -0.70754901802E+01  0.29266047012E+03  0.30706372671E+03  0.92326415522E+02 0.  0.
          5    1    3    3  502    0 -0.51447595577E+02  0.24447489156E+01 -0.12805828144E+02  0.53281433186E+02  0.47000000000E+01 0.  1.
         -5    1    3    3    0  502  0.43463115204E+02  0.46307412646E+01  0.74537183247E+02  0.86535355978E+02  0.47000000000E+01 0.  1.
        -11    1    4    4    0    0 -0.29873927215E+02  0.28161125635E+02  0.12043994161E+03  0.12724496084E+03  0.00000000000E+00 0.  1.
         11    1    4    4    0    0  0.37858407588E+02 -0.35236615815E+02  0.17222052851E+03  0.17981876587E+03  0.00000000000E+00 0. -1.
<mgrwt>
<rscale>  0 0.11638777E+03</rscale>
<asrwt>0</asrwt>
<pdfrwt beam="1">  1        2 0.61636332E-01 0.12545108E+03</pdfrwt>
<pdfrwt beam="2">  1       -2 0.71145149E-02 0.12545108E+03</pdfrwt>
<totfact> 0.85724087E+03</totfact>
</mgrwt>
</event>
<event>
 8    1  0.9424564E-006  0.3047036E+03  0.7546771E-02  0.1084350E+00
          1   -1    0    0  501    0  0.00000000000E+00  0.00000000000E+00  0.81266491510E+03  0.81266491510E+03  0.00000000000E+00 0. -1.
         -1   -1    0    0    0  501 -0.00000000000E+00 -0.00000000000E+00 -0.13356328845E+03  0.13356328845E+03  0.00000000000E+00 0.  1.
         23    2    1    2    0    0  0.22785779767E+02 -0.27694793971E+03  0.14614150074E+03  0.33793730132E+03  0.12499971327E+03 0.  0.
         23    2    1    2    0    0 -0.22785779767E+02  0.27694793971E+03  0.53296012592E+03  0.60829090224E+03  0.93551979461E+02 0.  0.
          5    1    3    3  502    0  0.36854465089E+02 -0.21807326266E+02  0.47141938833E+02  0.63861283050E+02  0.47000000000E+01 0. -1.
         -5    1    3    3    0  502 -0.14068685322E+02 -0.25514061344E+03  0.98999561904E+02  0.27407601827E+03  0.47000000000E+01 0. -1.
        -11    1    4    4    0    0 -0.17721731827E+01  0.61711945125E+02  0.51154682721E+02  0.80176719397E+02  0.00000000000E+00 0.  1.
         11    1    4    4    0    0 -0.21013606584E+02  0.21523599458E+03  0.48180544320E+03  0.52811418284E+03  0.00000000000E+00 0. -1.
<mgrwt>
<rscale>  0 0.30178829E+03</rscale>
<asrwt>0</asrwt>
<pdfrwt beam="1">  1        1 0.12502537E+00 0.30470360E+03</pdfrwt>
<pdfrwt beam="2">  1       -1 0.20548199E-01 0.30470360E+03</pdfrwt>
<totfact> 0.43504841E+02</totfact>
</mgrwt>
</event>
<event>
 8    1  0.9424564E-006  0.1423557E+03  0.7546771E-02  0.1224821E+00
         -1   -1    0    0    0  501 -0.00000000000E+00  0.00000000000E+00  0.36644156665E+02  0.36644156665E+02  0.00000000000E+00 0.  1.
          1   -1    0    0  501    0  0.00000000000E+00 -0.00000000000E+00 -0.48561081998E+03  0.48561081998E+03  0.00000000000E+00 0. -1.
         23    2    1    2    0    0  0.56924694581E+02  0.37396856104E+02 -0.15603049029E+03  0.21121236510E+03  0.12500481419E+03 0.  0.
         23    2    1    2    0    0 -0.56924694581E+02 -0.37396856104E+02 -0.29293617303E+03  0.31104261155E+03  0.79353380712E+02 0.  0.
          5    1    3    3  502    0  0.57646391065E+01  0.13521066961E+02 -0.15374118403E+03  0.15451372749E+03  0.47000000000E+01 0. -1.
         -5    1    3    3    0  502  0.51160055474E+02  0.23875789143E+02 -0.22893062556E+01  0.56698637607E+02  0.47000000000E+01 0. -1.
        -11    1    4    4    0    0 -0.34448592981E+01 -0.39081123436E+02 -0.57542608280E+02  0.69644475964E+02  0.00000000000E+00 0.  1.
         11    1    4    4    0    0 -0.53479835283E+02  0.16842673323E+01 -0.23539356475E+03  0.24139813559E+03  0.00000000000E+00 0. -1.
<mgrwt>
<rscale>  0 0.13179169E+03</rscale>
<asrwt>0</asrwt>
<pdfrwt beam="2">  1        1 0.74709352E-01 0.14235571E+03</pdfrwt>
<pdfrwt beam="1">  1       -1 0.56375630E-02 0.14235571E+03</pdfrwt>
<totfact> 0.66300012E+03</totfact>
</mgrwt>
</event>
<event>
 8    1  0.9424564E-006  0.2790501E+03  0.7546771E-02  0.1098064E+00
          1   -1    0    0  501    0  0.00000000000E+00  0.00000000000E+00  0.48912511404E+02  0.48912511404E+02  0.00000000000E+00 0. -1.
         -1   -1    0    0    0  501 -0.00000000000E+00 -0.00000000000E+00 -0.15303629221E+04  0.15303629221E+04  0.00000000000E+00 0.  1.
         23    2    1    2    0    0 -0.22287885140E+03 -0.11211502907E+03 -0.68662487548E+03  0.74116304184E+03  0.12499669120E+03 0.  0.
         23    2    1    2    0    0  0.22287885140E+03  0.11211502907E+03 -0.79482553519E+03  0.83811239164E+03  0.91869404526E+02 0.  0.
          5    1    3    3  502    0 -0.19773453859E+03 -0.88178468821E+02 -0.66641755550E+03  0.70072022833E+03  0.47000000000E+01 0.  1.
         -5    1    3    3    0  502 -0.25144312813E+02 -0.23936560248E+02 -0.20207319980E+02  0.40442813505E+02  0.47000000000E+01 0.  1.
        -11    1    4    4    0    0  0.16738861297E+03  0.81268819568E+02 -0.69763295881E+03  0.72202168528E+03  0.00000000000E+00 0.  1.
         11    1    4    4    0    0  0.55490238432E+02  0.30846209501E+02 -0.97192576378E+02  0.11609070637E+03  0.00000000000E+00 0. -1.
<mgrwt>
<rscale>  0 0.27569399E+03</rscale>
<asrwt>0</asrwt>
<pdfrwt beam="1">  1        1 0.75250021E-02 0.27905006E+03</pdfrwt>
<pdfrwt beam="2">  1       -1 0.23544044E+00 0.27905006E+03</pdfrwt>
<totfact> 0.92760568E+01</totfact>
</mgrwt>
</event>
<event>
 8    1  0.9424564E-006  0.1283659E+03  0.7546771E-02  0.1243433E+00
         -1   -1    0    0    0  501 -0.00000000000E+00  0.00000000000E+00  0.78923454181E+02  0.78923454181E+02  0.00000000000E+00 0.  1.
          1   -1    0    0  501    0  0.00000000000E+00 -0.00000000000E+00 -0.16386139630E+03  0.16386139630E+03  0.00000000000E+00 0. -1.
         23    2    1    2    0    0  0.29028484734E+02 -0.43760442212E+01 -0.33514817328E+02  0.13266897017E+03  0.12496403474E+03 0.  0.
         23    2    1    2    0    0 -0.29028484734E+02  0.43760442212E+01 -0.51423124789E+02  0.11011588031E+03  0.92840544179E+02 0.  0.
          5    1    3    3  502    0  0.57514897792E+02 -0.31524032515E+02 -0.56638512538E+02  0.86785593255E+02  0.47000000000E+01 0.  1.
         -5    1    3    3    0  502 -0.28486413058E+02  0.27147988294E+02  0.23123695210E+02  0.45883376919E+02  0.47000000000E+01 0.  1.
        -11    1    4    4    0    0 -0.23077840576E+02 -0.37939347130E+02 -0.50673000230E+02  0.67377546249E+02  0.00000000000E+00 0. -1.
         11    1    4    4    0    0 -0.59506441582E+01  0.42315391351E+02 -0.75012455875E+00  0.42738334056E+02  0.00000000000E+00 0.  1.
<mgrwt>
<rscale>  0 0.11979676E+03</rscale>
<asrwt>0</asrwt>
<pdfrwt beam="2">  1        1 0.25209445E-01 0.12836593E+03</pdfrwt>
<pdfrwt beam="1">  1       -1 0.12142070E-01 0.12836593E+03</pdfrwt>
<totfact> 0.80165136E+03</totfact>
</mgrwt>
</event>
<event>
 8    1  0.9424564E-006  0.1303649E+03  0.7546771E-02  0.1240432E+00
         -1   -1    0    0    0  501 -0.00000000000E+00  0.00000000000E+00  0.78404001282E+02  0.78404001282E+02  0.00000000000E+00 0.  1.
          1   -1    0    0  501    0  0.00000000000E+00 -0.00000000000E+00 -0.17578662979E+03  0.17578662979E+03  0.00000000000E+00 0. -1.
         23    2    1    2    0    0  0.31538503810E+02  0.20376598321E+02 -0.82545366517E+02  0.15430086469E+03  0.12484044348E+03 0.  0.
         23    2    1    2    0    0 -0.31538503810E+02 -0.20376598321E+02 -0.14837261996E+02  0.99889766388E+02  0.91367051521E+02 0.  0.
          5    1    3    3  502    0  0.20155717678E+02 -0.37371879751E+02  0.10601117589E+02  0.44015724979E+02  0.47000000000E+01 0. -1.
         -5    1    3    3    0  502  0.11382786132E+02  0.57748478072E+02 -0.93146484105E+02  0.11028513971E+03  0.47000000000E+01 0. -1.
        -11    1    4    4    0    0 -0.15656609233E+02  0.29502703148E+02 -0.30520424192E+02  0.45244173090E+02  0.00000000000E+00 0. -1.
         11    1    4    4    0    0 -0.15881894577E+02 -0.49879301469E+02  0.15683162196E+02  0.54645593298E+02  0.00000000000E+00 0.  1.
<mgrwt>
<rscale>  0 0.12162973E+03</rscale>
<asrwt>0</asrwt>
<pdfrwt beam="2">  1        1 0.27044097E-01 0.13036495E+03</pdfrwt>
<pdfrwt beam="1">  1       -1 0.12062154E-01 0.13036495E+03</pdfrwt>
<totfact> 0.74260036E+03</totfact>
</mgrwt>
</event>
<event>
 8    1  0.9424564E-006  0.1547979E+03  0.7546771E-02  0.1202545E+00
         -2   -1    0    0    0  501 -0.00000000000E+00  0.00000000000E+00  0.34661891044E+02  0.34661891044E+02  0.00000000000E+00 0.  1.
          2   -1    0    0  501    0  0.00000000000E+00 -0.00000000000E+00 -0.60302859955E+03  0.60302859955E+03  0.00000000000E+00 0. -1.
         23    2    1    2    0    0 -0.84985417167E+02 -0.33393606383E+02 -0.25599715802E+03  0.29916036192E+03  0.12499889260E+03 0.  0.
         23    2    1    2    0    0  0.84985417167E+02  0.33393606383E+02 -0.31236955048E+03  0.33853012867E+03  0.93221552617E+02 0.  0.
          5    1    3    3  502    0 -0.38630142444E+02  0.43026394996E+02 -0.58801258329E+02  0.82602884651E+02  0.47000000000E+01 0.  1.
         -5    1    3    3    0  502 -0.46355274723E+02 -0.76420001379E+02 -0.19719589969E+03  0.21655747727E+03  0.47000000000E+01 0.  1.
        -11    1    4    4    0    0  0.11163278159E+02  0.37389615132E+02 -0.38345030622E+02  0.54707800837E+02  0.00000000000E+00 0.  1.
         11    1    4    4    0    0  0.73822139008E+02 -0.39960087486E+01 -0.27402451986E+03  0.28382232784E+03  0.00000000000E+00 0. -1.
<mgrwt>
<rscale>  0 0.14832655E+03</rscale>
<asrwt>0</asrwt>
<pdfrwt beam="2">  1        2 0.92773623E-01 0.15479786E+03</pdfrwt>
<pdfrwt beam="1">  1       -2 0.53325991E-02 0.15479786E+03</pdfrwt>
<totfact> 0.85919686E+03</totfact>
</mgrwt>
</event>
<event>
 8    1  0.9424564E-006  0.1607011E+03  0.7546771E-02  0.1196441E+00
         -2   -1    0    0    0  501 -0.00000000000E+00  0.00000000000E+00  0.35926607748E+03  0.35926607748E+03  0.00000000000E+00 0.  1.
          2   -1    0    0  501    0  0.00000000000E+00 -0.00000000000E+00 -0.63001006136E+02  0.63001006136E+02  0.00000000000E+00 0. -1.
         23    2    1    2    0    0  0.67571607193E+02 -0.75057012265E+02  0.20649073848E+03  0.26165483504E+03  0.12500140172E+03 0.  0.
         23    2    1    2    0    0 -0.67571607193E+02  0.75057012265E+02  0.89774332860E+02  0.16061224858E+03  0.86818122320E+02 0.  0.
          5    1    3    3  502    0  0.31114489979E+02 -0.68363685652E+02  0.21100079008E+03  0.22402037500E+03  0.47000000000E+01 0. -1.
         -5    1    3    3    0  502  0.36457117215E+02 -0.66933266123E+01 -0.45100515962E+01  0.37634460035E+02  0.47000000000E+01 0. -1.
        -11    1    4    4    0    0 -0.17352694864E+02  0.39555850619E+02  0.89201416257E+02  0.99109404193E+02  0.00000000000E+00 0.  1.
         11    1    4    4    0    0 -0.50218912329E+02  0.35501161645E+02  0.57291660318E+00  0.61502844382E+02  0.00000000000E+00 0. -1.
<mgrwt>
<rscale>  0 0.15332877E+03</rscale>
<asrwt>0</asrwt>
<pdfrwt beam="2">  1        2 0.96924627E-02 0.16070105E+03</pdfrwt>
<pdfrwt beam="1">  1       -2 0.55271703E-01 0.16070105E+03</pdfrwt>
<totfact> 0.20344993E+03</totfact>
</mgrwt>
</event>
<event>
 8    1  0.9424564E-006  0.1395251E+03  0.7546771E-02  0.1225196E+00
          3   -1    0    0  501    0  0.00000000000E+00  0.00000000000E+00  0.68725058039E+02  0.68725058039E+02  0.00000000000E+00 0. -1.
         -3   -1    0    0    0  501 -0.00000000000E+00 -0.00000000000E+00 -0.33093473825E+03  0.33093473825E+03  0.00000000000E+00 0.  1.
         23    2    1    2    0    0 -0.61636534827E+02  0.64994349088E+01 -0.25318563049E+03  0.28908513053E+03  0.12500377646E+03 0.  0.
         23    2    1    2    0    0  0.61636534827E+02 -0.64994349088E+01 -0.90240497270E+01  0.11057466576E+03  0.91126385615E+02 0.  0.
          5    1    3    3  502    0 -0.17230386265E+02  0.33882266277E+02 -0.22757946366E+03  0.23077997412E+03  0.47000000000E+01 0. -1.
         -5    1    3    3    0  502 -0.44406148562E+02 -0.27382831368E+02 -0.25606166834E+02  0.58305156408E+02  0.47000000000E+01 0. -1.
        -11    1    4    4    0    0 -0.27369955344E+00  0.35059633724E+02 -0.81890857278E+01  0.36004360200E+02  0.00000000000E+00 0. -1.
         11    1    4    4    0    0  0.61910234381E+02 -0.41559068633E+02 -0.83496399922E+00  0.74570305562E+02  0.00000000000E+00 0.  1.
<mgrwt>
<rscale>  0 0.13153471E+03</rscale>
<asrwt>0</asrwt>
<pdfrwt beam="1">  1        3 0.10573086E-01 0.13952508E+03</pdfrwt>
<pdfrwt beam="2">  1       -3 0.50913038E-01 0.13952508E+03</pdfrwt>
<totfact> 0.60211056E+02</totfact>
</mgrwt>
</event>
<event>
 7    1  0.9424564E-006  0.1421209E+03  0.7546771E-02  0.1222766E+00
         -2   -1    0    0    0  501 -0.00000000000E+00  0.00000000000E+00  0.17858474619E+03  0.17858474619E+03  0.00000000000E+00 0.  1.
          2   -1    0    0  501    0  0.00000000000E+00 -0.00000000000E+00 -0.90557333999E+02  0.90557333999E+02  0.00000000000E+00 0. -1.
         23    2    1    2    0    0  0.57806257377E+02  0.19068689818E+02  0.19719359772E+02  0.11145779678E+03  0.91262308706E+02 0.  0.
          5    1    1    2  502    0 -0.87172950542E+02  0.23204060899E+02  0.40534948381E+02  0.99008705621E+02  0.47000000000E+01 0. -1.
         -5    1    1    2    0  502  0.29366693165E+02 -0.42272750718E+02  0.27773104036E+02  0.58675577785E+02  0.47000000000E+01 0.  1.
        -11    1    3    3    0    0  0.62866285332E+02 -0.22998985417E+02  0.16620972353E+02  0.68973762284E+02  0.00000000000E+00 0.  1.
         11    1    3    3    0    0 -0.50600279548E+01  0.42067675235E+02  0.30983874194E+01  0.42484034498E+02  0.00000000000E+00 0. -1.
<mgrwt>
<rscale>  0 0.13321238E+03</rscale>
<asrwt>0</asrwt>
<pdfrwt beam="2">  1        2 0.13931898E-01 0.14212088E+03</pdfrwt>
<pdfrwt beam="1">  1       -2 0.27474576E-01 0.14212088E+03</pdfrwt>
<totfact> 0.48853255E+03</totfact>
</mgrwt>
</event>
<event>
 8    1  0.9424564E-006  0.2100371E+03  0.7546771E-02  0.1142438E+00
         -1   -1    0    0    0  501 -0.00000000000E+00  0.00000000000E+00  0.14520017502E+03  0.14520017502E+03  0.00000000000E+00 0.  1.
          1   -1    0    0  501    0  0.00000000000E+00 -0.00000000000E+00 -0.63117154696E+03  0.63117154696E+03  0.00000000000E+00 0. -1.
         23    2    1    2    0    0 -0.12662681813E+03 -0.11161232915E+03  0.38074799293E+02  0.21346021032E+03  0.12499563178E+03 0.  0.
         23    2    1    2    0    0  0.12662681813E+03  0.11161232915E+03 -0.52404617123E+03  0.56291151166E+03  0.11727453811E+03 0.  0.
          5    1    3    3  502    0 -0.77441162510E+02 -0.69778498060E+02 -0.40251645859E+02  0.11184121529E+03  0.47000000000E+01 0. -1.
         -5    1    3    3    0  502 -0.49185655618E+02 -0.41833831087E+02  0.78326445152E+02  0.10161899504E+03  0.47000000000E+01 0. -1.
        -11    1    4    4    0    0  0.75550151591E+02  0.12799121469E+03 -0.33683121721E+03  0.36816415541E+03  0.00000000000E+00 0.  1.
         11    1    4    4    0    0  0.51076666537E+02 -0.16378885539E+02 -0.18721495403E+03  0.19474735625E+03  0.00000000000E+00 0. -1.
<mgrwt>
<rscale>  0 0.20890260E+03</rscale>
<asrwt>0</asrwt>
<pdfrwt beam="2">  1        1 0.97103314E-01 0.21003707E+03</pdfrwt>
<pdfrwt beam="1">  1       -1 0.22338489E-01 0.21003707E+03</pdfrwt>
<totfact> 0.55474141E+02</totfact>
</mgrwt>
</event>
<event>
 8    1  0.9424564E-006  0.1320957E+03  0.7546771E-02  0.1237054E+00
          4   -1    0    0  501    0  0.00000000000E+00  0.00000000000E+00  0.28055325176E+02  0.28055325176E+02  0.00000000000E+00 0.  1.
         -4   -1    0    0    0  501 -0.00000000000E+00 -0.00000000000E+00 -0.50642593155E+03  0.50642593155E+03  0.00000000000E+00 0. -1.
         23    2    1    2    0    0 -0.29425755667E+02  0.30827609491E+02 -0.32085628608E+03  0.34698417815E+03  0.12503218373E+03 0.  0.
         23    2    1    2    0    0  0.29425755667E+02 -0.30827609491E+02 -0.15751432029E+03  0.18749707857E+03  0.92348128145E+02 0.  0.
          5    1    3    3  502    0  0.14322066128E+02  0.68022191509E+02 -0.12834620238E+03  0.14603759031E+03  0.47000000000E+01 0.  1.
         -5    1    3    3    0  502 -0.43747821795E+02 -0.37194582018E+02 -0.19251008369E+03  0.20094658785E+03  0.47000000000E+01 0.  1.
        -11    1    4    4    0    0  0.61115969087E+02 -0.63039733329E+01 -0.10096357767E+03  0.11818860255E+03  0.00000000000E+00 0.  1.
         11    1    4    4    0    0 -0.31690213420E+02 -0.24523636158E+02 -0.56550742625E+02  0.69308476021E+02  0.00000000000E+00 0. -1.
<mgrwt>
<rscale>  0 0.12373841E+03</rscale>
<asrwt>0</asrwt>
<pdfrwt beam="1">  1        4 0.43162039E-02 0.13209566E+03</pdfrwt>
<pdfrwt beam="2">  1       -4 0.77911680E-01 0.13209566E+03</pdfrwt>
<totfact> 0.75171753E+02</totfact>
</mgrwt>
</event>
<event>
 8    1  0.9424564E-006  0.1850365E+03  0.7546771E-02  0.1168318E+00
         -4   -1    0    0    0  501 -0.00000000000E+00  0.00000000000E+00  0.82498528496E+03  0.82498528496E+03  0.00000000000E+00 0.  1.
          4   -1    0    0  501    0  0.00000000000E+00 -0.00000000000E+00 -0.37002715516E+02  0.37002715516E+02  0.00000000000E+00 0. -1.
         23    2    1    2    0    0  0.13625210612E+03  0.64460516751E+01  0.44420906822E+03  0.48120700836E+03  0.12502919900E+03 0.  0.
         23    2    1    2    0    0 -0.13625210612E+03 -0.64460516751E+01  0.34377350123E+03  0.38078099212E+03  0.90596665537E+02 0.  0.
          5    1    3    3  502    0  0.44805302014E+02  0.51856665955E+02  0.27565067718E+03  0.28408100029E+03  0.47000000000E+01 0. -1.
         -5    1    3    3    0  502  0.91446804108E+02 -0.45410614280E+02  0.16855839103E+03  0.19712600807E+03  0.47000000000E+01 0. -1.
        -11    1    4    4    0    0 -0.14876324160E+03 -0.74097195711E+01  0.33051145677E+03  0.36252341862E+03  0.00000000000E+00 0.  1.
         11    1    4    4    0    0  0.12511135475E+02  0.96366789605E+00  0.13262044462E+02  0.18257573497E+02  0.00000000000E+00 0. -1.
<mgrwt>
<rscale>  0 0.17946843E+03</rscale>
<asrwt>0</asrwt>
<pdfrwt beam="2">  1        4 0.56927261E-02 0.18503645E+03</pdfrwt>
<pdfrwt beam="1">  1       -4 0.12692080E+00 0.18503645E+03</pdfrwt>
<totfact> 0.16457629E+02</totfact>
</mgrwt>
</event>
<event>
 8    1  0.9424564E-006  0.2051329E+03  0.7546771E-02  0.1149878E+00
          1   -1    0    0  501    0  0.00000000000E+00  0.00000000000E+00  0.51703164401E+03  0.51703164401E+03  0.00000000000E+00 0. -1.
         -1   -1    0    0    0  501 -0.00000000000E+00 -0.00000000000E+00 -0.80965123846E+02  0.80965123846E+02  0.00000000000E+00 0.  1.
         23    2    1    2    0    0 -0.11792396886E+03 -0.11200040000E+03  0.13770580889E+03  0.24706757012E+03  0.12501736829E+03 0.  0.
         23    2    1    2    0    0  0.11792396886E+03  0.11200040000E+03  0.29836071127E+03  0.35092919773E+03  0.87647223332E+02 0.  0.
          5    1    3    3  502    0  0.91658260730E+01 -0.70658058355E+02  0.48119067438E+02  0.86105216040E+02  0.47000000000E+01 0. -1.
         -5    1    3    3    0  502 -0.12708979493E+03 -0.41342341645E+02  0.89586741450E+02  0.16096235408E+03  0.47000000000E+01 0. -1.
        -11    1    4    4    0    0  0.87240176286E+02  0.11269076507E+03  0.28243076677E+03  0.31634979834E+03  0.00000000000E+00 0. -1.
         11    1    4    4    0    0  0.30683792571E+02 -0.69036506815E+00  0.15929944501E+02  0.34579399392E+02  0.00000000000E+00 0.  1.
<mgrwt>
<rscale>  0 0.19983519E+03</rscale>
<asrwt>0</asrwt>
<pdfrwt beam="1">  1        1 0.79543328E-01 0.20513287E+03</pdfrwt>
<pdfrwt beam="2">  1       -1 0.12456173E-01 0.20513287E+03</pdfrwt>
<totfact> 0.18525382E+03</totfact>
</mgrwt>
</event>
<event>
 8    1  0.9424564E-006  0.1381806E+03  0.7546771E-02  0.1223134E+00
          1   -1    0    0  501    0  0.00000000000E+00  0.00000000000E+00  0.42596477570E+03  0.42596477570E+03  0.00000000000E+00 0. -1.
         -1   -1    0    0    0  501 -0.00000000000E+00 -0.00000000000E+00 -0.38703672667E+02  0.38703672667E+02  0.00000000000E+00 0.  1.
         23    2    1    2    0    0 -0.17415266650E+02  0.78109146217E+02  0.21716409151E+03  0.25739874717E+03  0.11264786801E+03 0.  0.
         23    2    1    2    0    0  0.17415266650E+02 -0.78109146217E+02  0.17009701152E+03  0.20726970120E+03  0.87312115263E+02 0.  0.
          5    1    3    3  502    0 -0.47883520926E+02  0.86027828181E+02  0.12078467089E+03  0.15589947248E+03  0.47000000000E+01 0. -1.
         -5    1    3    3    0  502  0.30468254276E+02 -0.79186819639E+01  0.96379420626E+02  0.10149927469E+03  0.47000000000E+01 0.  1.
        -11    1    4    4    0    0 -0.12062917476E+02 -0.50465019294E+02  0.15610714430E+03  0.16450432411E+03  0.00000000000E+00 0. -1.
         11    1    4    4    0    0  0.29478184126E+02 -0.27644126923E+02  0.13989867225E+02  0.42765377090E+02  0.00000000000E+00 0.  1.
<mgrwt>
<rscale>  0 0.13295623E+03</rscale>
<asrwt>0</asrwt>
<pdfrwt beam="1">  1        1 0.65533039E-01 0.13818058E+03</pdfrwt>
<pdfrwt beam="2">  1       -1 0.59544115E-02 0.13818058E+03</pdfrwt>
<totfact> 0.72190453E+03</totfact>
</mgrwt>
</event>
<event>
 8    1  0.9424564E-006  0.2611137E+03  0.7546771E-02  0.1108155E+00
          1   -1    0    0  501    0  0.00000000000E+00  0.00000000000E+00  0.10384075367E+04  0.10384075367E+04  0.00000000000E+00 0. -1.
         -1   -1    0    0    0  501 -0.00000000000E+00 -0.00000000000E+00 -0.67339418858E+02  0.67339418858E+02  0.00000000000E+00 0.  1.
         23    2    1    2    0    0  0.79646828410E+02  0.21912325288E+03  0.35376189812E+03  0.43969062674E+03  0.11756593661E+03 0.  0.
         23    2    1    2    0    0 -0.79646828410E+02 -0.21912325288E+03  0.61730621974E+03  0.66605632884E+03  0.90583922602E+02 0.  0.
          5    1    3    3  502    0 -0.30189548763E+02  0.62211629265E+02  0.10195129542E+03  0.12327956971E+03  0.47000000000E+01 0. -1.
         -5    1    3    3    0  502  0.10983637717E+03  0.15691162361E+03  0.25181060270E+03  0.31641105702E+03  0.47000000000E+01 0.  1.
        -11    1    4    4    0    0 -0.98907709333E+02 -0.17055056725E+03  0.50753584710E+03  0.54448403746E+03  0.00000000000E+00 0. -1.
         11    1    4    4    0    0  0.19260880923E+02 -0.48572685624E+02  0.10977037263E+03  0.12157229138E+03  0.00000000000E+00 0.  1.
<mgrwt>
<rscale>  0 0.25832288E+03</rscale>
<asrwt>0</asrwt>
<pdfrwt beam="1">  1        1 0.15975499E+00 0.26111370E+03</pdfrwt>
<pdfrwt beam="2">  1       -1 0.10359911E-01 0.26111370E+03</pdfrwt>
<totfact> 0.86562785E+02</totfact>
</mgrwt>
</event>
<event>
 8    1  0.9424564E-006  0.1278303E+03  0.7546771E-02  0.1245619E+00
          1   -1    0    0  501    0  0.00000000000E+00  0.00000000000E+00  0.66813784830E+03  0.66813784830E+03  0.00000000000E+00 0. -1.
         -1   -1    0    0    0  501 -0.00000000000E+00 -0.00000000000E+00 -0.19064064102E+02  0.19064064102E+02  0.00000000000E+00 0.  1.
         23    2    1    2    0    0 -0.90820579152E+01  0.25154811426E+02  0.43187508848E+03  0.45039613485E+03  0.12500135169E+03 0.  0.
         23    2    1    2    0    0  0.90820579152E+01 -0.25154811426E+02  0.21719869572E+03  0.23680577756E+03  0.90479028221E+02 0.  0.
          5    1    3    3  502    0  0.48829220533E+02 -0.21257355735E+02  0.18246683650E+03  0.19013785624E+03  0.47000000000E+01 0. -1.
         -5    1    3    3    0  502 -0.57911278448E+02  0.46412167161E+02  0.24940825198E+03  0.26025827861E+03  0.47000000000E+01 0. -1.
        -11    1    4    4    0    0  0.43394322134E+02  0.77424864943E+01  0.76457802211E+02  0.88254228282E+02  0.00000000000E+00 0.  1.
         11    1    4    4    0    0 -0.34312264219E+02 -0.32897297920E+02  0.14074089351E+03  0.14855154928E+03  0.00000000000E+00 0. -1.
<mgrwt>
<rscale>  0 0.11848394E+03</rscale>
<asrwt>0</asrwt>
<pdfrwt beam="1">  1        1 0.10279042E+00 0.12783030E+03</pdfrwt>
<pdfrwt beam="2">  1       -1 0.29329335E-02 0.12783030E+03</pdfrwt>
<totfact> 0.11195864E+04</totfact>
</mgrwt>
</event>
<event>
 8    1  0.9424564E-006  0.2056839E+03  0.7546771E-02  0.1148984E+00
          2   -1    0    0  501    0  0.00000000000E+00  0.00000000000E+00  0.54877144047E+03  0.54877144047E+03  0.00000000000E+00 0. -1.
         -2   -1    0    0    0  501 -0.00000000000E+00 -0.00000000000E+00 -0.75767195723E+02  0.75767195723E+02  0.00000000000E+00 0.  1.
         23    2    1    2    0    0  0.56340886035E+02 -0.15337294115E+03  0.16317735005E+03  0.26255041283E+03  0.12493325095E+03 0.  0.
         23    2    1    2    0    0 -0.56340886035E+02  0.15337294115E+03  0.30982689470E+03  0.36198822337E+03  0.91352146454E+02 0.  0.
          5    1    3    3  502    0  0.77118704612E+02 -0.64912124707E+02  0.13245264503E+03  0.16651327788E+03  0.47000000000E+01 0. -1.
         -5    1    3    3    0  502 -0.20777818577E+02 -0.88460816439E+02  0.30724705012E+02  0.96037134943E+02  0.47000000000E+01 0. -1.
        -11    1    4    4    0    0 -0.14390642500E+02  0.75475967230E+02  0.61645992327E+02  0.98508581305E+02  0.00000000000E+00 0.  1.
         11    1    4    4    0    0 -0.41950243536E+02  0.77896973917E+02  0.24818090237E+03  0.26347964206E+03  0.00000000000E+00 0. -1.
<mgrwt>
<rscale>  0 0.20089774E+03</rscale>
<asrwt>0</asrwt>
<pdfrwt beam="1">  1        2 0.84426373E-01 0.20568391E+03</pdfrwt>
<pdfrwt beam="2">  1       -2 0.11656492E-01 0.20568391E+03</pdfrwt>
<totfact> 0.28703804E+03</totfact>
</mgrwt>
</event>
<event>
 8    1  0.9424564E-006  0.1499463E+03  0.7546771E-02  0.1209899E+00
          1   -1    0    0  501    0  0.00000000000E+00  0.00000000000E+00  0.58815065192E+02  0.58815065192E+02  0.00000000000E+00 0. -1.
         -1   -1    0    0    0  501 -0.00000000000E+00 -0.00000000000E+00 -0.38967261639E+03  0.38967261639E+03  0.00000000000E+00 0.  1.
         23    2    1    2    0    0 -0.52011124880E+02  0.64464284115E+02 -0.27618959310E+03  0.31426832489E+03  0.12499235038E+03 0.  0.
         23    2    1    2    0    0  0.52011124880E+02 -0.64464284115E+02 -0.54667958104E+02  0.13421935670E+03  0.90362874190E+02 0.  0.
          5    1    3    3  502    0 -0.69693566397E+02  0.49729703160E+02 -0.27778947760E+03  0.29072206734E+03  0.47000000000E+01 0.  1.
         -5    1    3    3    0  502  0.17682441517E+02  0.14734580955E+02  0.15998845041E+01  0.23546257545E+02  0.47000000000E+01 0.  1.
        -11    1    4    4    0    0 -0.18030478493E+02 -0.46640396288E+02 -0.27021089857E+02  0.56838050790E+02  0.00000000000E+00 0.  1.
         11    1    4    4    0    0  0.70041603373E+02 -0.17823887827E+02 -0.27646868248E+02  0.77381305909E+02  0.00000000000E+00 0. -1.
<mgrwt>
<rscale>  0 0.14257984E+03</rscale>
<asrwt>0</asrwt>
<pdfrwt beam="1">  1        1 0.90484720E-02 0.14994629E+03</pdfrwt>
<pdfrwt beam="2">  1       -1 0.59949630E-01 0.14994629E+03</pdfrwt>
<totfact> 0.20869692E+03</totfact>
</mgrwt>
</event>
<event>
 8    1  0.9424564E-006  0.1773870E+03  0.7546771E-02  0.1176689E+00
          1   -1    0    0  501    0  0.00000000000E+00  0.00000000000E+00  0.13056367576E+03  0.13056367576E+03  0.00000000000E+00 0. -1.
         -1   -1    0    0    0  501 -0.00000000000E+00 -0.00000000000E+00 -0.42827673197E+03  0.42827673197E+03  0.00000000000E+00 0.  1.
         23    2    1    2    0    0  0.11054276492E+03  0.60265600743E+02 -0.35342785764E+03  0.39544581611E+03  0.12495798261E+03 0.  0.
         23    2    1    2    0    0 -0.11054276492E+03 -0.60265600743E+02  0.55714801437E+02  0.16339459162E+03  0.87988680877E+02 0.  0.
          5    1    3    3  502    0  0.97306224140E+02  0.10925755204E+02 -0.31885195247E+03  0.33358137085E+03  0.47000000000E+01 0.  1.
         -5    1    3    3    0  502  0.13236540777E+02  0.49339845539E+02 -0.34575905167E+02  0.61864445263E+02  0.47000000000E+01 0.  1.
        -11    1    4    4    0    0 -0.47450177568E+02 -0.47385931681E+02  0.70527090696E+02  0.97319147112E+02  0.00000000000E+00 0. -1.
         11    1    4    4    0    0 -0.63092587350E+02 -0.12879669062E+02 -0.14812289259E+02  0.66075444506E+02  0.00000000000E+00 0.  1.
<mgrwt>
<rscale>  0 0.17111604E+03</rscale>
<asrwt>0</asrwt>
<pdfrwt beam="1">  1        1 0.20086719E-01 0.17738699E+03</pdfrwt>
<pdfrwt beam="2">  1       -1 0.65888728E-01 0.17738699E+03</pdfrwt>
<totfact> 0.61464734E+02</totfact>
</mgrwt>
</event>
<event>
 8    1  0.9424564E-006  0.1272991E+03  0.7546771E-02  0.1247337E+00
         -2   -1    0    0    0  501 -0.00000000000E+00  0.00000000000E+00  0.46700012005E+02  0.46700012005E+02  0.00000000000E+00 0.  1.
          2   -1    0    0  501    0  0.00000000000E+00 -0.00000000000E+00 -0.37083256476E+03  0.37083256476E+03  0.00000000000E+00 0. -1.
         23    2    1    2    0    0 -0.13036866143E+02 -0.20311472781E+02 -0.65989415574E+02  0.14338637792E+03  0.12499013801E+03 0.  0.
         23    2    1    2    0    0  0.13036866143E+02  0.20311472781E+02 -0.25814313719E+03  0.27414619885E+03  0.89082788812E+02 0.  0.
          5    1    3    3  502    0 -0.35422333306E+02 -0.53170304984E+02 -0.78610663370E+02  0.10140783710E+03  0.47000000000E+01 0. -1.
         -5    1    3    3    0  502  0.22385467163E+02  0.32858832203E+02  0.12621247796E+02  0.41978540825E+02  0.47000000000E+01 0. -1.
        -11    1    4    4    0    0  0.32008451251E+02 -0.26310721132E+02 -0.13123851775E+03  0.13762392067E+03  0.00000000000E+00 0. -1.
         11    1    4    4    0    0 -0.18971585109E+02  0.46622193913E+02 -0.12690461943E+03  0.13652227818E+03  0.00000000000E+00 0.  1.
<mgrwt>
<rscale>  0 0.11746615E+03</rscale>
<asrwt>0</asrwt>
<pdfrwt beam="2">  1        2 0.57051163E-01 0.12729906E+03</pdfrwt>
<pdfrwt beam="1">  1       -2 0.71846174E-02 0.12729906E+03</pdfrwt>
<totfact> 0.91778239E+03</totfact>
</mgrwt>
</event>
<event>
 8    1  0.9424564E-006  0.1480936E+03  0.7546771E-02  0.1212037E+00
          3   -1    0    0  501    0  0.00000000000E+00  0.00000000000E+00  0.33465086376E+03  0.33465086376E+03  0.00000000000E+00 0. -1.
         -3   -1    0    0    0  501 -0.00000000000E+00 -0.00000000000E+00 -0.60108963862E+02  0.60108963862E+02  0.00000000000E+00 0.  1.
         23    2    1    2    0    0  0.65992059526E+02  0.44198692591E+02  0.88509775310E+02  0.17252735781E+03  0.12499292989E+03 0.  0.
         23    2    1    2    0    0 -0.65992059526E+02 -0.44198692591E+02  0.18603212459E+03  0.22223246980E+03  0.92037182214E+02 0.  0.
          5    1    3    3  502    0  0.82394507920E+02  0.71511467681E+02  0.88119564059E+02  0.14032067743E+03  0.47000000000E+01 0. -1.
         -5    1    3    3    0  502 -0.16402448394E+02 -0.27312775090E+02  0.39021125119E+00  0.32206680382E+02  0.47000000000E+01 0. -1.
        -11    1    4    4    0    0 -0.73338475899E+02  0.26065526806E+01  0.10029484228E+03  0.12427542618E+03  0.00000000000E+00 0.  1.
         11    1    4    4    0    0  0.73464163727E+01 -0.46805245271E+02  0.85737282310E+02  0.97957043628E+02  0.00000000000E+00 0. -1.
<mgrwt>
<rscale>  0 0.14096425E+03</rscale>
<asrwt>0</asrwt>
<pdfrwt beam="1">  1        3 0.51484747E-01 0.14809358E+03</pdfrwt>
<pdfrwt beam="2">  1       -3 0.92475331E-02 0.14809358E+03</pdfrwt>
<totfact> 0.74156851E+02</totfact>
</mgrwt>
</event>
<event>
 8    1  0.9424564E-006  0.1582783E+03  0.7546771E-02  0.1191013E+00
         -2   -1    0    0    0  501 -0.00000000000E+00  0.00000000000E+00  0.10170220646E+03  0.10170220646E+03  0.00000000000E+00 0.  1.
          2   -1    0    0  501    0  0.00000000000E+00 -0.00000000000E+00 -0.33867973012E+03  0.33867973012E+03  0.00000000000E+00 0. -1.
         23    2    1    2    0    0  0.34548344991E+02  0.90732716030E+02 -0.26456429605E+01  0.15830036754E+03  0.12500397208E+03 0.  0.
         23    2    1    2    0    0 -0.34548344991E+02 -0.90732716030E+02 -0.23433188071E+03  0.28208156904E+03  0.12342028754E+03 0.  0.
          5    1    3    3  502    0 -0.21641914303E+02  0.64614516577E+02 -0.46158846051E+02  0.82438687981E+02  0.47000000000E+01 0.  1.
         -5    1    3    3    0  502  0.56190259294E+02  0.26118199453E+02  0.43513203091E+02  0.75861679559E+02  0.47000000000E+01 0.  1.
        -11    1    4    4    0    0 -0.31223366406E+02  0.88799811608E+01 -0.14385382801E+03  0.14747093446E+03  0.00000000000E+00 0. -1.
         11    1    4    4    0    0 -0.33249785856E+01 -0.99612697191E+02 -0.90478052692E+02  0.13461063458E+03  0.00000000000E+00 0.  1.
<mgrwt>
<rscale>  0 0.15796539E+03</rscale>
<asrwt>0</asrwt>
<pdfrwt beam="2">  1        2 0.52104574E-01 0.15827826E+03</pdfrwt>
<pdfrwt beam="1">  1       -2 0.15646493E-01 0.15827826E+03</pdfrwt>
<totfact> 0.29839031E+03</totfact>
</mgrwt>
</event>
<event>
 8    1  0.9424564E-006  0.1897156E+03  0.7546771E-02  0.1163591E+00
         -2   -1    0    0    0  501 -0.00000000000E+00  0.00000000000E+00  0.81886218524E+02  0.81886218524E+02  0.00000000000E+00 0. -1.
          2   -1    0    0  501    0  0.00000000000E+00 -0.00000000000E+00 -0.57777098029E+03  0.57777098029E+03  0.00000000000E+00 0.  1.
         23    2    1    2    0    0 -0.14271236154E+03 -0.19112439928E+00 -0.71558660791E+02  0.20276256021E+03  0.12500063690E+03 0.  0.
         23    2    1    2    0    0  0.14271236154E+03  0.19112439928E+00 -0.42432610097E+03  0.45689463860E+03  0.91286451094E+02 0.  0.
          5    1    3    3  502    0 -0.12144068001E+03 -0.18915997336E+02  0.28222601111E+01  0.12302726880E+03  0.47000000000E+01 0.  1.
         -5    1    3    3    0  502 -0.21271681523E+02  0.18724872937E+02 -0.74380920902E+02  0.79735291406E+02  0.47000000000E+01 0.  1.
        -11    1    4    4    0    0  0.13237520051E+03  0.31430950447E+02 -0.32780397081E+03  0.35491765473E+03  0.00000000000E+00 0. -1.
         11    1    4    4    0    0  0.10337161022E+02 -0.31239826048E+02 -0.96522130163E+02  0.10197698388E+03  0.00000000000E+00 0.  1.
<mgrwt>
<rscale>  0 0.18442198E+03</rscale>
<asrwt>0</asrwt>
<pdfrwt beam="2">  1        2 0.88887842E-01 0.18971561E+03</pdfrwt>
<pdfrwt beam="1">  1       -2 0.12597880E-01 0.18971561E+03</pdfrwt>
<totfact> 0.23832441E+03</totfact>
</mgrwt>
</event>
<event>
 8    1  0.9424564E-006  0.1292357E+03  0.7546771E-02  0.1242794E+00
          1   -1    0    0  501    0  0.00000000000E+00  0.00000000000E+00  0.43410211335E+03  0.43410211335E+03  0.00000000000E+00 0. -1.
         -1   -1    0    0    0  501 -0.00000000000E+00 -0.00000000000E+00 -0.29505314395E+02  0.29505314395E+02  0.00000000000E+00 0.  1.
         23    2    1    2    0    0 -0.28894754514E+02 -0.15515475896E+02  0.21682209151E+03  0.25241568539E+03  0.12500488804E+03 0.  0.
         23    2    1    2    0    0  0.28894754514E+02  0.15515475896E+02  0.18777470744E+03  0.21119174235E+03  0.90922903891E+02 0.  0.
          5    1    3    3  502    0  0.17451416543E+02 -0.57896293208E+02  0.14330794554E+03  0.15561423445E+03  0.47000000000E+01 0.  1.
         -5    1    3    3    0  502 -0.46346171057E+02  0.42380817312E+02  0.73514145967E+02  0.96801450944E+02  0.47000000000E+01 0.  1.
        -11    1    4    4    0    0  0.23693218425E+01  0.42385383978E+02  0.38815923496E+02  0.57522259846E+02  0.00000000000E+00 0.  1.
         11    1    4    4    0    0  0.26525432671E+02 -0.26869908082E+02  0.14895878395E+03  0.15366948251E+03  0.00000000000E+00 0. -1.
<mgrwt>
<rscale>  0 0.12018364E+03</rscale>
<asrwt>0</asrwt>
<pdfrwt beam="1">  1        1 0.66784936E-01 0.12923567E+03</pdfrwt>
<pdfrwt beam="2">  1       -1 0.45392794E-02 0.12923567E+03</pdfrwt>
<totfact> 0.10485025E+04</totfact>
</mgrwt>
</event>
<event>
 8    1  0.9424564E-006  0.1355970E+03  0.7546771E-02  0.1229946E+00
         -3   -1    0    0    0  501 -0.00000000000E+00  0.00000000000E+00  0.14018233356E+03  0.14018233356E+03  0.00000000000E+00 0.  1.
          3   -1    0    0  501    0  0.00000000000E+00 -0.00000000000E+00 -0.11336581718E+03  0.11336581718E+03  0.00000000000E+00 0. -1.
         23    2    1    2    0    0 -0.12438824477E+02 -0.51057409328E+02  0.45756983547E+02  0.14310919907E+03  0.12499983165E+03 0.  0.
         23    2    1    2    0    0  0.12438824477E+02  0.51057409328E+02 -0.18940467162E+02  0.11043895167E+03  0.95270338233E+02 0.  0.
          5    1    3    3  502    0 -0.49874062167E+02 -0.33971807081E+02 -0.21406954207E+02  0.64201662298E+02  0.47000000000E+01 0.  1.
         -5    1    3    3    0  502  0.37435237689E+02 -0.17085602247E+02  0.67163937754E+02  0.78907536773E+02  0.47000000000E+01 0.  1.
        -11    1    4    4    0    0  0.49017153529E+02  0.10288580423E+02 -0.23796955770E+02  0.55451161675E+02  0.00000000000E+00 0. -1.
         11    1    4    4    0    0 -0.36578329051E+02  0.40768828905E+02  0.48564886078E+01  0.54987789991E+02  0.00000000000E+00 0.  1.
<mgrwt>
<rscale>  0 0.12833568E+03</rscale>
<asrwt>0</asrwt>
<pdfrwt beam="2">  1        3 0.17440895E-01 0.13559698E+03</pdfrwt>
<pdfrwt beam="1">  1       -3 0.21566513E-01 0.13559698E+03</pdfrwt>
<totfact> 0.12892819E+03</totfact>
</mgrwt>
</event>
<event>
 7    1  0.9424564E-006  0.1718912E+03  0.7546771E-02  0.1179557E+00
         -1   -1    0    0    0  501 -0.00000000000E+00  0.00000000000E+00  0.64130695277E+02  0.64130695277E+02  0.00000000000E+00 0. -1.
          1   -1    0    0  501    0  0.00000000000E+00 -0.00000000000E+00 -0.58372445220E+03  0.58372445220E+03  0.00000000000E+00 0.  1.
         23    2    1    2    0    0 -0.34990320255E+02  0.90502444903E+02 -0.83094194066E+02  0.17872996104E+03  0.12499895536E+03 0.  0.
          5    1    3    3  502    0 -0.64439118216E+01  0.39294439481E+02  0.30790677892E+02  0.50554256188E+02  0.47000000000E+01 0. -1.
         -5    1    3    3    0  502 -0.28546408434E+02  0.51208005421E+02 -0.11388487196E+03  0.12817570485E+03  0.47000000000E+01 0. -1.
        -11    1    1    2    0    0  0.23721858359E+02  0.36197481325E+02 -0.13876514436E+03  0.14535731666E+03  0.00000000000E+00 0.  1.
         11    1    1    2    0    0  0.11268461896E+02 -0.12669992623E+03 -0.29773441850E+03  0.32376786978E+03  0.00000000000E+00 0. -1.
<mgrwt>
<rscale>  0 0.16837163E+03</rscale>
<asrwt>0</asrwt>
<pdfrwt beam="2">  1        1 0.89803766E-01 0.17189116E+03</pdfrwt>
<pdfrwt beam="1">  1       -1 0.98662604E-02 0.17189116E+03</pdfrwt>
<totfact> 0.22479554E+03</totfact>
</mgrwt>
</event>
<event>
 8    1  0.9424564E-006  0.1674031E+03  0.7546771E-02  0.1187503E+00
          1   -1    0    0  501    0  0.00000000000E+00  0.00000000000E+00  0.79467361454E+02  0.79467361454E+02  0.00000000000E+00 0. -1.
         -1   -1    0    0    0  501 -0.00000000000E+00 -0.00000000000E+00 -0.33390406255E+03  0.33390406255E+03  0.00000000000E+00 0.  1.
         23    2    1    2    0    0  0.54094123577E+02 -0.97353757382E+02 -0.19785286744E+03  0.25917092474E+03  0.12497952949E+03 0.  0.
         23    2    1    2    0    0 -0.54094123577E+02  0.97353757382E+02 -0.56583833659E+02  0.15420049927E+03  0.90399864282E+02 0.  0.
          5    1    3    3  502    0  0.37811933448E+02  0.15035530044E+02 -0.10398057181E+03  0.11175803679E+03  0.47000000000E+01 0.  1.
         -5    1    3    3    0  502  0.16282190129E+02 -0.11238928743E+03 -0.93872295633E+02  0.14741288794E+03  0.47000000000E+01 0.  1.
        -11    1    4    4    0    0  0.20911540021E+02  0.26118819901E+02  0.49758222578E+01  0.33826676842E+02  0.00000000000E+00 0.  1.
         11    1    4    4    0    0 -0.75005663598E+02  0.71234937481E+02 -0.61559655917E+02  0.12037382243E+03  0.00000000000E+00 0. -1.
<mgrwt>
<rscale>  0 0.16106196E+03</rscale>
<asrwt>0</asrwt>
<pdfrwt beam="1">  1        1 0.12225748E-01 0.16740314E+03</pdfrwt>
<pdfrwt beam="2">  1       -1 0.51369856E-01 0.16740314E+03</pdfrwt>
<totfact> 0.18771296E+03</totfact>
</mgrwt>
</event>
<event>
 8    1  0.9424564E-006  0.1547912E+03  0.7546771E-02  0.1203169E+00
          2   -1    0    0  501    0  0.00000000000E+00  0.00000000000E+00  0.82311364845E+03  0.82311364845E+03  0.00000000000E+00 0. -1.
         -2   -1    0    0    0  501 -0.00000000000E+00 -0.00000000000E+00 -0.24532213278E+02  0.24532213278E+02  0.00000000000E+00 0.  1.
         23    2    1    2    0    0  0.50540469707E+02 -0.76099924289E+02  0.40716505197E+03  0.43559579320E+03  0.12495910515E+03 0.  0.
         23    2    1    2    0    0 -0.50540469707E+02  0.76099924289E+02  0.39141638320E+03  0.41205006852E+03  0.90735529833E+02 0.  0.
          5    1    3    3  502    0 -0.10491301666E+02 -0.54473892091E+02  0.57807834642E+02  0.80257760224E+02  0.47000000000E+01 0. -1.
         -5    1    3    3    0  502  0.61031771374E+02 -0.21626032199E+02  0.34935721732E+03  0.35533803298E+03  0.47000000000E+01 0. -1.
        -11    1    4    4    0    0 -0.55167311160E+02  0.17337817205E+02  0.10736984336E+03  0.12195210285E+03  0.00000000000E+00 0.  1.
         11    1    4    4    0    0  0.46268414526E+01  0.58762107085E+02  0.28404653984E+03  0.29009796567E+03  0.00000000000E+00 0. -1.
<mgrwt>
<rscale>  0 0.14782666E+03</rscale>
<asrwt>0</asrwt>
<pdfrwt beam="1">  1        2 0.12663285E+00 0.15479120E+03</pdfrwt>
<pdfrwt beam="2">  1       -2 0.37741873E-02 0.15479120E+03</pdfrwt>
<totfact> 0.99328723E+03</totfact>
</mgrwt>
</event>
<event>
 8    1  0.9424564E-006  0.3033335E+03  0.7546771E-02  0.1085152E+00
          1   -1    0    0  501    0  0.00000000000E+00  0.00000000000E+00  0.37422342194E+03  0.37422342194E+03  0.00000000000E+00 0. -1.
         -1   -1    0    0    0  501 -0.00000000000E+00 -0.00000000000E+00 -0.37795481263E+03  0.37795481263E+03  0.00000000000E+00 0.  1.
         23    2    1    2    0    0  0.51068719320E+02  0.27162334221E+03 -0.23242385682E+03  0.38214141727E+03  0.12499583772E+03 0.  0.
         23    2    1    2    0    0 -0.51068719320E+02 -0.27162334221E+03  0.22869246612E+03  0.37003681730E+03  0.90773057527E+02 0.  0.
          5    1    3    3  502    0  0.70121943408E+02  0.27256714153E+03 -0.22740541852E+03  0.36186357645E+03  0.47000000000E+01 0. -1.
         -5    1    3    3    0  502 -0.19053224089E+02 -0.94379931949E+00 -0.50184383002E+01  0.20277840819E+02  0.47000000000E+01 0. -1.
        -11    1    4    4    0    0 -0.50971194027E+02 -0.59632885290E+02  0.52615958128E+02  0.94459423449E+02  0.00000000000E+00 0. -1.
         11    1    4    4    0    0 -0.97525292483E-01 -0.21199045692E+03  0.17607650799E+03  0.27557739385E+03  0.00000000000E+00 0.  1.
<mgrwt>
<rscale>  0 0.30017803E+03</rscale>
<asrwt>0</asrwt>
<pdfrwt beam="1">  1        1 0.57572834E-01 0.30333350E+03</pdfrwt>
<pdfrwt beam="2">  1       -1 0.58146894E-01 0.30333350E+03</pdfrwt>
<totfact> 0.20503349E+02</totfact>
</mgrwt>
</event>
<event>
 8    1  0.9424564E-006  0.1949046E+03  0.7546771E-02  0.1158694E+00
         -2   -1    0    0    0  501 -0.00000000000E+00  0.00000000000E+00  0.49787756267E+03  0.49787756267E+03  0.00000000000E+00 0.  1.
          2   -1    0    0  501    0  0.00000000000E+00 -0.00000000000E+00 -0.77558309224E+02  0.77558309224E+02  0.00000000000E+00 0. -1.
         23    2    1    2    0    0  0.12611034000E+03 -0.80360434926E+02  0.31709979507E+03  0.37220974293E+03  0.12500478126E+03 0.  0.
         23    2    1    2    0    0 -0.12611034000E+03  0.80360434926E+02  0.10321945838E+03  0.20322612897E+03  0.91021895997E+02 0.  0.
          5    1    3    3  502    0  0.13968584482E+03 -0.30647342415E+02  0.23728626547E+03  0.27708889661E+03  0.47000000000E+01 0. -1.
         -5    1    3    3    0  502 -0.13575504817E+02 -0.49713092511E+02  0.79813529596E+02  0.95120846320E+02  0.47000000000E+01 0. -1.
        -11    1    4    4    0    0 -0.33709197577E+02  0.38558165865E+02 -0.89660656823E+01  0.51994542886E+02  0.00000000000E+00 0. -1.
         11    1    4    4    0    0 -0.92401142427E+02  0.41802269061E+02  0.11218552406E+03  0.15123158608E+03  0.00000000000E+00 0.  1.
<mgrwt>
<rscale>  0 0.18974240E+03</rscale>
<asrwt>0</asrwt>
<pdfrwt beam="2">  1        2 0.11932048E-01 0.19490462E+03</pdfrwt>
<pdfrwt beam="1">  1       -2 0.76596546E-01 0.19490462E+03</pdfrwt>
<totfact> 0.80019351E+02</totfact>
</mgrwt>
</event>
<event>
 8    1  0.9424564E-006  0.1335531E+03  0.7546771E-02  0.1235639E+00
          4   -1    0    0  501    0  0.00000000000E+00  0.00000000000E+00  0.39246259840E+02  0.39246259840E+02  0.00000000000E+00 0. -1.
         -4   -1    0    0    0  501 -0.00000000000E+00 -0.00000000000E+00 -0.35144184157E+03  0.35144184157E+03  0.00000000000E+00 0.  1.
         23    2    1    2    0    0  0.21927818603E+01  0.47261010498E+02 -0.17434402417E+03  0.21961847626E+03  0.12489205317E+03 0.  0.
         23    2    1    2    0    0 -0.21927818603E+01 -0.47261010498E+02 -0.13785155756E+03  0.17106962515E+03  0.89573173003E+02 0.  0.
          5    1    3    3  502    0  0.61949919440E+02  0.35314718158E+02 -0.10703965038E+03  0.12870314134E+03  0.47000000000E+01 0.  1.
         -5    1    3    3    0  502 -0.59757137580E+02  0.11946292340E+02 -0.67304373787E+02  0.90915334918E+02  0.47000000000E+01 0.  1.
        -11    1    4    4    0    0  0.35327510792E+02 -0.31499153596E+02 -0.11508486901E+03  0.12443776264E+03  0.00000000000E+00 0.  1.
         11    1    4    4    0    0 -0.37520292652E+02 -0.15761856902E+02 -0.22766688553E+02  0.46631862512E+02  0.00000000000E+00 0. -1.
<mgrwt>
<rscale>  0 0.12463594E+03</rscale>
<asrwt>0</asrwt>
<pdfrwt beam="1">  1        4 0.60378862E-02 0.13355312E+03</pdfrwt>
<pdfrwt beam="2">  1       -4 0.54067975E-01 0.13355312E+03</pdfrwt>
<totfact> 0.95545969E+02</totfact>
</mgrwt>
</event>
<event>
 8    1  0.9424564E-006  0.1423201E+03  0.7546771E-02  0.1219929E+00
         -2   -1    0    0    0  501 -0.00000000000E+00  0.00000000000E+00  0.90017258290E+02  0.90017258290E+02  0.00000000000E+00 0.  1.
          2   -1    0    0  501    0  0.00000000000E+00 -0.00000000000E+00 -0.18921126364E+03  0.18921126364E+03  0.00000000000E+00 0. -1.
         23    2    1    2    0    0  0.38477620291E+02  0.56122432259E+02 -0.34385774421E+02  0.14641511917E+03  0.12499900389E+03 0.  0.
         23    2    1    2    0    0 -0.38477620291E+02 -0.56122432259E+02 -0.64808230925E+02  0.13281340275E+03  0.93856478143E+02 0.  0.
          5    1    3    3  502    0 -0.76711043523E+01  0.56883415853E+01  0.42274548612E+02  0.43593927700E+02  0.47000000000E+01 0. -1.
         -5    1    3    3    0  502  0.46148724643E+02  0.50434090674E+02 -0.76660323033E+02  0.10282119147E+03  0.47000000000E+01 0. -1.
        -11    1    4    4    0    0 -0.67552841572E+02 -0.25795819831E+02 -0.30127554537E+02  0.78335689616E+02  0.00000000000E+00 0. -1.
         11    1    4    4    0    0  0.29075221281E+02 -0.30326612428E+02 -0.34680676388E+02  0.54477713137E+02  0.00000000000E+00 0.  1.
<mgrwt>
<rscale>  0 0.13520623E+03</rscale>
<asrwt>0</asrwt>
<pdfrwt beam="2">  1        2 0.29109425E-01 0.14232008E+03</pdfrwt>
<pdfrwt beam="1">  1       -2 0.13848809E-01 0.14232008E+03</pdfrwt>
<totfact> 0.67553736E+03</totfact>
</mgrwt>
</event>
<event>
 8    1  0.9424564E-006  0.1944717E+03  0.7546771E-02  0.1159100E+00
         -2   -1    0    0    0  501 -0.00000000000E+00  0.00000000000E+00  0.21594546172E+03  0.21594546172E+03  0.00000000000E+00 0.  1.
          2   -1    0    0  501    0  0.00000000000E+00 -0.00000000000E+00 -0.47078803572E+03  0.47078803572E+03  0.00000000000E+00 0. -1.
         23    2    1    2    0    0  0.18887750991E+02 -0.14776296911E+03  0.15016740938E+03  0.24570201780E+03  0.12501435331E+03 0.  0.
         23    2    1    2    0    0 -0.18887750991E+02  0.14776296911E+03 -0.40500998337E+03  0.44103147964E+03  0.91022179860E+02 0.  0.
          5    1    3    3  502    0  0.56065367161E+02 -0.53795570379E+02  0.19130991204E+02  0.80158428201E+02  0.47000000000E+01 0.  1.
         -5    1    3    3    0  502 -0.37177616170E+02 -0.93967398731E+02  0.13103641817E+03  0.16554358959E+03  0.47000000000E+01 0.  1.
        -11    1    4    4    0    0 -0.25167026843E+02  0.75340609653E+02 -0.10122790368E+03  0.12867274453E+03  0.00000000000E+00 0.  1.
         11    1    4    4    0    0  0.62792758520E+01  0.72422359456E+02 -0.30378207969E+03  0.31235873511E+03  0.00000000000E+00 0. -1.
<mgrwt>
<rscale>  0 0.18929382E+03</rscale>
<asrwt>0</asrwt>
<pdfrwt beam="2">  1        2 0.72428929E-01 0.19447167E+03</pdfrwt>
<pdfrwt beam="1">  1       -2 0.33222379E-01 0.19447167E+03</pdfrwt>
<totfact> 0.56752032E+02</totfact>
</mgrwt>
</event>
<event>
 8    1  0.9424564E-006  0.1251917E+03  0.7546771E-02  0.1249988E+00
         -2   -1    0    0    0  501 -0.00000000000E+00  0.00000000000E+00  0.53318453289E+02  0.53318453289E+02  0.00000000000E+00 0.  1.
          2   -1    0    0  501    0  0.00000000000E+00 -0.00000000000E+00 -0.36995958222E+03  0.36995958222E+03  0.00000000000E+00 0. -1.
         23    2    1    2    0    0 -0.41733460306E+01 -0.54882151224E+01 -0.39523614772E+02  0.13128245570E+03  0.12500171889E+03 0.  0.
         23    2    1    2    0    0  0.41733460306E+01  0.54882151224E+01 -0.27711751416E+03  0.29199557982E+03  0.91759275574E+02 0.  0.
          5    1    3    3  502    0  0.41947080593E+02  0.91866452574E+00 -0.65370851938E+02  0.77819276518E+02  0.47000000000E+01 0. -1.
         -5    1    3    3    0  502 -0.46120426623E+02 -0.64068796482E+01  0.25847237166E+02  0.53463179178E+02  0.47000000000E+01 0. -1.
        -11    1    4    4    0    0  0.33077197943E+02  0.36418655832E+02 -0.13388592516E+03  0.14263891641E+03  0.00000000000E+00 0.  1.
         11    1    4    4    0    0 -0.28903851912E+02 -0.30930440710E+02 -0.14323158900E+03  0.14935666341E+03  0.00000000000E+00 0. -1.
<mgrwt>
<rscale>  0 0.11591772E+03</rscale>
<asrwt>0</asrwt>
<pdfrwt beam="2">  1        2 0.56916860E-01 0.12519172E+03</pdfrwt>
<pdfrwt beam="1">  1       -2 0.82028387E-02 0.12519172E+03</pdfrwt>
<totfact> 0.74961503E+03</totfact>
</mgrwt>
</event>
<event>
 8    1  0.9424564E-006  0.1713643E+03  0.7546771E-02  0.1183230E+00
         -1   -1    0    0    0  501 -0.00000000000E+00  0.00000000000E+00  0.64885985456E+02  0.64885985456E+02  0.00000000000E+00 0.  1.
          1   -1    0    0  501    0  0.00000000000E+00 -0.00000000000E+00 -0.44996980835E+03  0.44996980835E+03  0.00000000000E+00 0. -1.
         23    2    1    2    0    0  0.98540342081E+01  0.11680457092E+03 -0.11209978884E+03  0.20477325470E+03  0.12500125362E+03 0.  0.
         23    2    1    2    0    0 -0.98540342081E+01 -0.11680457092E+03 -0.27298403405E+03  0.31008253910E+03  0.88828421302E+02 0.  0.
          5    1    3    3  502    0  0.19643782191E+01  0.10395882775E+03 -0.13895824982E+03  0.17361676717E+03  0.47000000000E+01 0.  1.
         -5    1    3    3    0  502  0.78896559890E+01  0.12845743172E+02  0.26858460981E+02  0.31156487535E+02  0.47000000000E+01 0.  1.
        -11    1    4    4    0    0 -0.43767825229E+00 -0.80254516332E+02 -0.79550813927E+02  0.11300137588E+03  0.00000000000E+00 0.  1.
         11    1    4    4    0    0 -0.94163559558E+01 -0.36550054587E+02 -0.19343322013E+03  0.19708116322E+03  0.00000000000E+00 0. -1.
<mgrwt>
<rscale>  0 0.16493947E+03</rscale>
<asrwt>0</asrwt>
<pdfrwt beam="2">  1        1 0.69226124E-01 0.17136430E+03</pdfrwt>
<pdfrwt beam="1">  1       -1 0.99824594E-02 0.17136430E+03</pdfrwt>
<totfact> 0.31152975E+03</totfact>
</mgrwt>
</event>
<event>
 8    1  0.9424564E-006  0.1471322E+03  0.7546771E-02  0.1214229E+00
         -2   -1    0    0    0  501 -0.00000000000E+00  0.00000000000E+00  0.37082036464E+02  0.37082036464E+02  0.00000000000E+00 0.  1.
          2   -1    0    0  501    0  0.00000000000E+00 -0.00000000000E+00 -0.49717416694E+03  0.49717416694E+03  0.00000000000E+00 0. -1.
         23    2    1    2    0    0  0.68613423871E+02 -0.36257243863E+02 -0.19792688971E+03  0.24662304934E+03  0.12500194050E+03 0.  0.
         23    2    1    2    0    0 -0.68613423871E+02  0.36257243863E+02 -0.26216524076E+03  0.28763315406E+03  0.89329884026E+02 0.  0.
          5    1    3    3  502    0  0.21572241134E+02  0.40940504963E+02 -0.28560210122E+02  0.54582617530E+02  0.47000000000E+01 0.  1.
         -5    1    3    3    0  502  0.47041182737E+02 -0.77197748826E+02 -0.16936667959E+03  0.19204043182E+03  0.47000000000E+01 0.  1.
        -11    1    4    4    0    0 -0.52715981688E+02 -0.89226837615E+01 -0.62241530269E+02  0.82052404602E+02  0.00000000000E+00 0.  1.
         11    1    4    4    0    0 -0.15897442183E+02  0.45179927625E+02 -0.19992371049E+03  0.20558074945E+03  0.00000000000E+00 0. -1.
<mgrwt>
<rscale>  0 0.13933343E+03</rscale>
<asrwt>0</asrwt>
<pdfrwt beam="2">  1        2 0.76488334E-01 0.14713217E+03</pdfrwt>
<pdfrwt beam="1">  1       -2 0.57049287E-02 0.14713217E+03</pdfrwt>
<totfact> 0.96012791E+03</totfact>
</mgrwt>
</event>
<event>
 8    1  0.9424564E-006  0.1659038E+03  0.7546771E-02  0.1189187E+00
          2   -1    0    0  501    0  0.00000000000E+00  0.00000000000E+00  0.29006175259E+03  0.29006175259E+03  0.00000000000E+00 0. -1.
         -2   -1    0    0    0  501 -0.00000000000E+00 -0.00000000000E+00 -0.89769881553E+02  0.89769881553E+02  0.00000000000E+00 0.  1.
         23    2    1    2    0    0 -0.37838335343E+02  0.10231342001E+03  0.50426692861E+02  0.17339817643E+03  0.12499720277E+03 0.  0.
         23    2    1    2    0    0  0.37838335343E+02 -0.10231342001E+03  0.14986517817E+03  0.20643345771E+03  0.90859371005E+02 0.  0.
          5    1    3    3  502    0  0.29053101300E+02  0.84997133206E+02  0.52429531755E+02  0.10411311708E+03  0.47000000000E+01 0.  1.
         -5    1    3    3    0  502 -0.66891436643E+02  0.17316286803E+02 -0.20028388935E+01  0.69285059345E+02  0.47000000000E+01 0.  1.
        -11    1    4    4    0    0  0.58635989337E+02 -0.60748937470E+02  0.54916192207E+02  0.10071941628E+03  0.00000000000E+00 0.  1.
         11    1    4    4    0    0 -0.20797653995E+02 -0.41564482539E+02  0.94948985963E+02  0.10571404143E+03  0.00000000000E+00 0. -1.
<mgrwt>
<rscale>  0 0.15956612E+03</rscale>
<asrwt>0</asrwt>
<pdfrwt beam="1">  1        2 0.44624885E-01 0.16590382E+03</pdfrwt>
<pdfrwt beam="2">  1       -2 0.13810751E-01 0.16590382E+03</pdfrwt>
<totfact> 0.43269343E+03</totfact>
</mgrwt>
</event>
<event>
 8    1  0.9424564E-006  0.1438570E+03  0.7546771E-02  0.1218372E+00
         -2   -1    0    0    0  501 -0.00000000000E+00  0.00000000000E+00  0.13413688416E+03  0.13413688416E+03  0.00000000000E+00 0.  1.
          2   -1    0    0  501    0  0.00000000000E+00 -0.00000000000E+00 -0.19984015371E+03  0.19984015371E+03  0.00000000000E+00 0. -1.
         23    2    1    2    0    0  0.60090422268E+02 -0.38218767434E+02  0.66176497745E+02  0.15834819927E+03  0.12499316112E+03 0.  0.
         23    2    1    2    0    0 -0.60090422268E+02  0.38218767434E+02 -0.13187976729E+03  0.17562883860E+03  0.91551531361E+02 0.  0.
          5    1    3    3  502    0  0.96002155741E+02 -0.75768654309E+01  0.44533961607E+02  0.10620351469E+03  0.47000000000E+01 0. -1.
         -5    1    3    3    0  502 -0.35911733473E+02 -0.30641902003E+02  0.21642536137E+02  0.52144684579E+02  0.47000000000E+01 0. -1.
        -11    1    4    4    0    0  0.14395402656E+02  0.14981035315E+01  0.51806993135E+01  0.15372429125E+02  0.00000000000E+00 0.  1.
         11    1    4    4    0    0 -0.74485824924E+02  0.36720663902E+02 -0.13706046660E+03  0.16025640947E+03  0.00000000000E+00 0. -1.
<mgrwt>
<rscale>  0 0.13631744E+03</rscale>
<asrwt>0</asrwt>
<pdfrwt beam="2">  1        2 0.30744639E-01 0.14385695E+03</pdfrwt>
<pdfrwt beam="1">  1       -2 0.20636444E-01 0.14385695E+03</pdfrwt>
<totfact> 0.32863127E+03</totfact>
</mgrwt>
</event>
<event>
 8    1  0.9424564E-006  0.1410208E+03  0.7546771E-02  0.1220512E+00
         -2   -1    0    0    0  501 -0.00000000000E+00  0.00000000000E+00  0.77197524062E+02  0.77197524062E+02  0.00000000000E+00 0.  1.
          2   -1    0    0  501    0  0.00000000000E+00 -0.00000000000E+00 -0.24823791508E+03  0.24823791508E+03  0.00000000000E+00 0. -1.
         23    2    1    2    0    0  0.51093379768E+01  0.65112141355E+02 -0.34538791702E+02  0.14518884555E+03  0.12498470488E+03 0.  0.
         23    2    1    2    0    0 -0.51093379768E+01 -0.65112141355E+02 -0.13650159932E+03  0.18024659359E+03  0.97930851111E+02 0.  0.
          5    1    3    3  502    0 -0.55255957181E+02  0.64407790752E+01 -0.58668819737E+01  0.56135681551E+02  0.47000000000E+01 0.  1.
         -5    1    3    3    0  502  0.60365295158E+02  0.58671362280E+02 -0.28671909729E+02  0.89053164002E+02  0.47000000000E+01 0.  1.
        -11    1    4    4    0    0  0.46131094092E+02 -0.25731692611E+02 -0.67433251150E+02  0.85658865317E+02  0.00000000000E+00 0.  1.
         11    1    4    4    0    0 -0.51240432069E+02 -0.39380448744E+02 -0.69068348169E+02  0.94587728277E+02  0.00000000000E+00 0. -1.
<mgrwt>
<rscale>  0 0.13479313E+03</rscale>
<asrwt>0</asrwt>
<pdfrwt beam="2">  1        2 0.38190448E-01 0.14102082E+03</pdfrwt>
<pdfrwt beam="1">  1       -2 0.11876542E-01 0.14102082E+03</pdfrwt>
<totfact> 0.64537594E+03</totfact>
</mgrwt>
</event>
<event>
 8    1  0.9424564E-006  0.1795194E+03  0.7546771E-02  0.1173998E+00
          2   -1    0    0  501    0  0.00000000000E+00  0.00000000000E+00  0.88908362623E+02  0.88908362623E+02  0.00000000000E+00 0.  1.
         -2   -1    0    0    0  501 -0.00000000000E+00 -0.00000000000E+00 -0.31973830993E+03  0.31973830993E+03  0.00000000000E+00 0. -1.
         23    2    1    2    0    0  0.59478640375E+02  0.11430353987E+03 -0.12959091767E+03  0.22140691135E+03  0.12499682622E+03 0.  0.
         23    2    1    2    0    0 -0.59478640375E+02 -0.11430353987E+03 -0.10123902963E+03  0.18723976120E+03  0.90589067580E+02 0.  0.
          5    1    3    3  502    0  0.28658320727E+01 -0.26823212235E+02 -0.19114934981E+02  0.33394137920E+02  0.47000000000E+01 0. -1.
         -5    1    3    3    0  502  0.56612808302E+02  0.14112675210E+03 -0.11047598269E+03  0.18801277343E+03  0.47000000000E+01 0. -1.
        -11    1    4    4    0    0 -0.61913344385E+02 -0.84399569488E+02 -0.28391507195E+02  0.10845564634E+03  0.00000000000E+00 0.  1.
         11    1    4    4    0    0  0.24347040100E+01 -0.29903970379E+02 -0.72847522439E+02  0.78784114856E+02  0.00000000000E+00 0. -1.
<mgrwt>
<rscale>  0 0.17374429E+03</rscale>
<asrwt>0</asrwt>
<pdfrwt beam="1">  1        2 0.13678210E-01 0.17951940E+03</pdfrwt>
<pdfrwt beam="2">  1       -2 0.49190510E-01 0.17951940E+03</pdfrwt>
<totfact> 0.16988811E+03</totfact>
</mgrwt>
</event>
<event>
 8    1  0.9424564E-006  0.2029734E+03  0.7546771E-02  0.1151219E+00
         -1   -1    0    0    0  501 -0.00000000000E+00  0.00000000000E+00  0.31981013061E+03  0.31981013061E+03  0.00000000000E+00 0.  1.
          1   -1    0    0  501    0  0.00000000000E+00 -0.00000000000E+00 -0.12999440944E+03  0.12999440944E+03  0.00000000000E+00 0. -1.
         23    2    1    2    0    0 -0.79903878246E+02  0.13852735087E+03  0.16855557783E+03  0.26383552220E+03  0.12499497292E+03 0.  0.
         23    2    1    2    0    0  0.79903878246E+02 -0.13852735087E+03  0.21260143334E+02  0.18596901786E+03  0.92509595230E+02 0.  0.
          5    1    3    3  502    0 -0.18844737916E+02 -0.28635055019E+00  0.91744507376E+02  0.93778199905E+02  0.47000000000E+01 0.  1.
         -5    1    3    3    0  502 -0.61059140330E+02  0.13881370142E+03  0.76811070456E+02  0.17005732229E+03  0.47000000000E+01 0.  1.
        -11    1    4    4    0    0  0.48931048790E+02 -0.10080425397E+03 -0.29169744752E+02  0.11578695593E+03  0.00000000000E+00 0. -1.
         11    1    4    4    0    0  0.30972829456E+02 -0.37723096905E+02  0.50429888086E+02  0.70182061931E+02  0.00000000000E+00 0.  1.
<mgrwt>
<rscale>  0 0.19825554E+03</rscale>
<asrwt>0</asrwt>
<pdfrwt beam="2">  1        1 0.19999140E-01 0.20297340E+03</pdfrwt>
<pdfrwt beam="1">  1       -1 0.49201558E-01 0.20297340E+03</pdfrwt>
<totfact> 0.10761730E+03</totfact>
</mgrwt>
</event>
<event>
 8    1  0.9424564E-006  0.1563811E+03  0.7546771E-02  0.1201046E+00
          3   -1    0    0  501    0  0.00000000000E+00  0.00000000000E+00  0.21352122007E+03  0.21352122007E+03  0.00000000000E+00 0. -1.
         -3   -1    0    0    0  501 -0.00000000000E+00 -0.00000000000E+00 -0.10598910330E+03  0.10598910330E+03  0.00000000000E+00 0.  1.
         23    2    1    2    0    0  0.79431754182E+02  0.50196561897E+02  0.10571397051E+02  0.15673796650E+03  0.12500374918E+03 0.  0.
         23    2    1    2    0    0 -0.79431754182E+02 -0.50196561897E+02  0.96960719720E+02  0.16277235687E+03  0.90908528721E+02 0.  0.
          5    1    3    3  502    0 -0.11001557038E+01  0.53679313716E+02  0.43774838685E+02  0.69433461425E+02  0.47000000000E+01 0.  1.
         -5    1    3    3    0  502  0.80531909886E+02 -0.34827518186E+01 -0.33203441634E+02  0.87304505075E+02  0.47000000000E+01 0.  1.
        -11    1    4    4    0    0 -0.37085626506E+02 -0.34419923434E+02 -0.53959434915E+01  0.50884094064E+02  0.00000000000E+00 0.  1.
         11    1    4    4    0    0 -0.42346127676E+02 -0.15776638463E+02  0.10235666321E+03  0.11188826281E+03  0.00000000000E+00 0. -1.
<mgrwt>
<rscale>  0 0.14953466E+03</rscale>
<asrwt>0</asrwt>
<pdfrwt beam="1">  1        3 0.32849418E-01 0.15638106E+03</pdfrwt>
<pdfrwt beam="2">  1       -3 0.16306016E-01 0.15638106E+03</pdfrwt>
<totfact> 0.68710201E+02</totfact>
</mgrwt>
</event>
<event>
 8    1  0.9424564E-006  0.1363120E+03  0.7546771E-02  0.1230029E+00
         -3   -1    0    0    0  501 -0.00000000000E+00  0.00000000000E+00  0.25877993101E+03  0.25877993101E+03  0.00000000000E+00 0.  1.
          3   -1    0    0  501    0  0.00000000000E+00 -0.00000000000E+00 -0.59394398601E+02  0.59394398601E+02  0.00000000000E+00 0. -1.
         23    2    1    2    0    0  0.52927958664E+02 -0.12506041247E+02  0.14196848052E+03  0.19681466070E+03  0.12499276511E+03 0.  0.
         23    2    1    2    0    0 -0.52927958664E+02  0.12506041247E+02  0.57417051892E+02  0.12135966891E+03  0.92052601884E+02 0.  0.
          5    1    3    3  502    0  0.23028529108E+02  0.46744905732E+02  0.11245113063E+03  0.12402719921E+03  0.47000000000E+01 0.  1.
         -5    1    3    3    0  502  0.29899429555E+02 -0.59250946979E+02  0.29517349887E+02  0.72787461489E+02  0.47000000000E+01 0.  1.
        -11    1    4    4    0    0 -0.15029703142E+02 -0.11418384435E+02  0.71839862489E+02  0.74278107960E+02  0.00000000000E+00 0.  1.
         11    1    4    4    0    0 -0.37898255522E+02  0.23924425682E+02 -0.14422810598E+02  0.47081560948E+02  0.00000000000E+00 0. -1.
<mgrwt>
<rscale>  0 0.12828127E+03</rscale>
<asrwt>0</asrwt>
<pdfrwt beam="2">  1        3 0.91375999E-02 0.13631200E+03</pdfrwt>
<pdfrwt beam="1">  1       -3 0.39812296E-01 0.13631200E+03</pdfrwt>
<totfact> 0.12373116E+03</totfact>
</mgrwt>
</event>
<event>
 8    1  0.9424564E-006  0.1318877E+03  0.7546771E-02  0.1238242E+00
         -4   -1    0    0    0  501 -0.00000000000E+00  0.00000000000E+00  0.99046954367E+03  0.99046954367E+03  0.00000000000E+00 0.  1.
          4   -1    0    0  501    0  0.00000000000E+00 -0.00000000000E+00 -0.18702772411E+02  0.18702772411E+02  0.00000000000E+00 0. -1.
         23    2    1    2    0    0 -0.12407587981E+02  0.39776801856E+02  0.79789804074E+03  0.80872470904E+03  0.12513284694E+03 0.  0.
         23    2    1    2    0    0  0.12407587981E+02 -0.39776801856E+02  0.17386873052E+03  0.20044760704E+03  0.90624309717E+02 0.  0.
          5    1    3    3  502    0  0.79591752697E+01  0.98390953991E+01  0.41301882280E+01  0.14117532506E+02  0.47000000000E+01 0. -1.
         -5    1    3    3    0  502 -0.20366763251E+02  0.29937706457E+02  0.79376785252E+03  0.79460717654E+03  0.47000000000E+01 0. -1.
        -11    1    4    4    0    0  0.42166305884E+02  0.86663218767E+00  0.43054355085E+02  0.60269610046E+02  0.00000000000E+00 0. -1.
         11    1    4    4    0    0 -0.29758717903E+02 -0.40643434044E+02  0.13081437543E+03  0.14017799699E+03  0.00000000000E+00 0.  1.
<mgrwt>
<rscale>  0 0.12299153E+03</rscale>
<asrwt>0</asrwt>
<pdfrwt beam="2">  1        4 0.28773504E-02 0.13188772E+03</pdfrwt>
<pdfrwt beam="1">  1       -4 0.15237989E+00 0.13188772E+03</pdfrwt>
<totfact> 0.29278799E+02</totfact>
</mgrwt>
</event>
<event>
 8    1  0.9424564E-006  0.1276842E+03  0.7546771E-02  0.1245174E+00
          1   -1    0    0  501    0  0.00000000000E+00  0.00000000000E+00  0.17381709115E+03  0.17381709115E+03  0.00000000000E+00 0. -1.
         -1   -1    0    0    0  501 -0.00000000000E+00 -0.00000000000E+00 -0.76734934013E+02  0.76734934013E+02  0.00000000000E+00 0.  1.
         23    2    1    2    0    0 -0.19825977588E+02  0.16932106257E+02  0.23165656346E+02  0.12976869644E+03  0.12499400518E+03 0.  0.
         23    2    1    2    0    0  0.19825977588E+02 -0.16932106257E+02  0.73916500787E+02  0.12078332872E+03  0.91897757313E+02 0.  0.
          5    1    3    3  502    0 -0.14506651856E+02  0.30734236722E+01 -0.51344385215E+02  0.53649089221E+02  0.47000000000E+01 0. -1.
         -5    1    3    3    0  502 -0.53193257312E+01  0.13858682584E+02  0.74510041562E+02  0.76119607216E+02  0.47000000000E+01 0. -1.
        -11    1    4    4    0    0 -0.92554367220E+01 -0.48098421375E+02  0.22237690074E+02  0.53792528361E+02  0.00000000000E+00 0.  1.
         11    1    4    4    0    0  0.29081414310E+02  0.31166315119E+02  0.51678810713E+02  0.66990800361E+02  0.00000000000E+00 0. -1.
<mgrwt>
<rscale>  0 0.11874953E+03</rscale>
<asrwt>0</asrwt>
<pdfrwt beam="1">  1        1 0.26741091E-01 0.12768425E+03</pdfrwt>
<pdfrwt beam="2">  1       -1 0.11805374E-01 0.12768425E+03</pdfrwt>
<totfact> 0.77729684E+03</totfact>
</mgrwt>
</event>
<event>
 8    1  0.9424564E-006  0.1306331E+03  0.7546771E-02  0.1239660E+00
         -2   -1    0    0    0  501 -0.00000000000E+00  0.00000000000E+00  0.19646999039E+03  0.19646999039E+03  0.00000000000E+00 0. -1.
          2   -1    0    0  501    0  0.00000000000E+00 -0.00000000000E+00 -0.67566086798E+02  0.67566086798E+02  0.00000000000E+00 0.  1.
         23    2    1    2    0    0  0.35448327361E+02  0.13406950026E+02  0.76361102090E+02  0.15131435921E+03  0.12501474780E+03 0.  0.
         23    2    1    2    0    0 -0.35448327361E+02 -0.13406950026E+02  0.52542801497E+02  0.11272171798E+03  0.92244834503E+02 0.  0.
          5    1    3    3  502    0 -0.10731358632E+02  0.61814847326E+02  0.44512720219E+02  0.77069511931E+02  0.47000000000E+01 0.  1.
         -5    1    3    3    0  502  0.46179685993E+02 -0.48407897300E+02  0.31848381872E+02  0.74244847278E+02  0.47000000000E+01 0.  1.
        -11    1    4    4    0    0 -0.57570477972E+02  0.16634345226E+02  0.19882328434E+02  0.63137693646E+02  0.00000000000E+00 0.  1.
         11    1    4    4    0    0  0.22122150611E+02 -0.30041295251E+02  0.32660473064E+02  0.49584024330E+02  0.00000000000E+00 0. -1.
<mgrwt>
<rscale>  0 0.12210769E+03</rscale>
<asrwt>0</asrwt>
<pdfrwt beam="2">  1        2 0.10394783E-01 0.13063314E+03</pdfrwt>
<pdfrwt beam="1">  1       -2 0.30226152E-01 0.13063314E+03</pdfrwt>
<totfact> 0.58231219E+03</totfact>
</mgrwt>
</event>
<event>
 8    1  0.9424564E-006  0.1475726E+03  0.7546771E-02  0.1213340E+00
         -1   -1    0    0    0  501 -0.00000000000E+00  0.00000000000E+00  0.29225449345E+02  0.29225449345E+02  0.00000000000E+00 0.  1.
          1   -1    0    0  501    0  0.00000000000E+00 -0.00000000000E+00 -0.65066585832E+03  0.65066585832E+03  0.00000000000E+00 0. -1.
         23    2    1    2    0    0 -0.28862612943E+02 -0.72943447291E+02 -0.25698565036E+03  0.29634322363E+03  0.12499553901E+03 0.  0.
         23    2    1    2    0    0  0.28862612943E+02  0.72943447291E+02 -0.36445475862E+03  0.38354808403E+03  0.90155780508E+02 0.  0.
          5    1    3    3  502    0 -0.48527498836E+02 -0.15446725265E+02 -0.21817049837E+03  0.22408475143E+03  0.47000000000E+01 0. -1.
         -5    1    3    3    0  502  0.19664885893E+02 -0.57496722026E+02 -0.38815151988E+02  0.72258472201E+02  0.47000000000E+01 0. -1.
        -11    1    4    4    0    0  0.52294612789E+02  0.28869252865E+02 -0.27197198992E+03  0.27845452696E+03  0.00000000000E+00 0. -1.
         11    1    4    4    0    0 -0.23431999846E+02  0.44074194426E+02 -0.92482768701E+02  0.10509355707E+03  0.00000000000E+00 0.  1.
<mgrwt>
<rscale>  0 0.13999176E+03</rscale>
<asrwt>0</asrwt>
<pdfrwt beam="2">  1        1 0.10010243E+00 0.14757263E+03</pdfrwt>
<pdfrwt beam="1">  1       -1 0.44962233E-02 0.14757263E+03</pdfrwt>
<totfact> 0.62695131E+03</totfact>
</mgrwt>
</event>
<event>
 8    1  0.9424564E-006  0.1449379E+03  0.7546771E-02  0.1216194E+00
          2   -1    0    0  501    0  0.00000000000E+00  0.00000000000E+00  0.13547924981E+03  0.13547924981E+03  0.00000000000E+00 0. -1.
         -2   -1    0    0    0  501 -0.00000000000E+00 -0.00000000000E+00 -0.13175659024E+03  0.13175659024E+03  0.00000000000E+00 0.  1.
         23    2    1    2    0    0 -0.18224761444E+02  0.71052281244E+02 -0.19498947474E+02  0.14624369310E+03  0.12500576074E+03 0.  0.
         23    2    1    2    0    0  0.18224761444E+02 -0.71052281244E+02  0.23221607049E+02  0.12099214695E+03  0.93377127765E+02 0.  0.
          5    1    3    3  502    0 -0.45893604478E+02  0.92456536992E+02  0.47243622255E+01  0.10343521529E+03  0.47000000000E+01 0.  1.
         -5    1    3    3    0  502  0.27668843034E+02 -0.21404255748E+02 -0.24223309700E+02  0.42808477803E+02  0.47000000000E+01 0.  1.
        -11    1    4    4    0    0  0.30966271098E+00 -0.90605489266E+02  0.94147212398E+01  0.91093839266E+02  0.00000000000E+00 0.  1.
         11    1    4    4    0    0  0.17915098733E+02  0.19553208022E+02  0.13806885809E+02  0.29898307683E+02  0.00000000000E+00 0. -1.
<mgrwt>
<rscale>  0 0.13789179E+03</rscale>
<asrwt>0</asrwt>
<pdfrwt beam="1">  1        2 0.20842962E-01 0.14493795E+03</pdfrwt>
<pdfrwt beam="2">  1       -2 0.20270245E-01 0.14493795E+03</pdfrwt>
<totfact> 0.52055932E+03</totfact>
</mgrwt>
</event>
<event>
 8    1  0.9424564E-006  0.1424824E+03  0.7546771E-02  0.1219416E+00
         -1   -1    0    0    0  501 -0.00000000000E+00  0.00000000000E+00  0.56750869825E+02  0.56750869825E+02  0.00000000000E+00 0.  1.
          1   -1    0    0  501    0  0.00000000000E+00 -0.00000000000E+00 -0.31014983813E+03  0.31014983813E+03  0.00000000000E+00 0. -1.
         23    2    1    2    0    0 -0.54760379018E+02  0.40959287468E+02 -0.99845735678E+02  0.17398389479E+03  0.12499944949E+03 0.  0.
         23    2    1    2    0    0  0.54760379018E+02 -0.40959287468E+02 -0.15355323263E+03  0.19291681317E+03  0.94667519312E+02 0.  0.
          5    1    3    3  502    0  0.10147263755E+02  0.19316851119E+02  0.23776869618E+02  0.32611918492E+02  0.47000000000E+01 0. -1.
         -5    1    3    3    0  502 -0.64907642773E+02  0.21642436349E+02 -0.12362260530E+03  0.14137197630E+03  0.47000000000E+01 0. -1.
        -11    1    4    4    0    0 -0.15736562353E+02  0.18119396052E+02 -0.23198068877E+02  0.33378171124E+02  0.00000000000E+00 0.  1.
         11    1    4    4    0    0  0.70496941370E+02 -0.59078683520E+02 -0.13035516375E+03  0.15953864204E+03  0.00000000000E+00 0. -1.
<mgrwt>
<rscale>  0 0.13557071E+03</rscale>
<asrwt>0</asrwt>
<pdfrwt beam="2">  1        1 0.47715359E-01 0.14248237E+03</pdfrwt>
<pdfrwt beam="1">  1       -1 0.87309031E-02 0.14248237E+03</pdfrwt>
<totfact> 0.60560472E+03</totfact>
</mgrwt>
</event>
<event>
 8    1  0.9424564E-006  0.1445028E+03  0.7546771E-02  0.1215929E+00
         -1   -1    0    0    0  501 -0.00000000000E+00  0.00000000000E+00  0.10178197834E+03  0.10178197834E+03  0.00000000000E+00 0.  1.
          1   -1    0    0  501    0  0.00000000000E+00 -0.00000000000E+00 -0.17317332829E+03  0.17317332829E+03  0.00000000000E+00 0. -1.
         23    2    1    2    0    0  0.68883800305E+02 -0.22628162142E+02 -0.30277328933E+02  0.14764069819E+03  0.12499618973E+03 0.  0.
         23    2    1    2    0    0 -0.68883800305E+02  0.22628162142E+02 -0.41114021018E+02  0.12731460843E+03  0.96237389460E+02 0.  0.
          5    1    3    3  502    0  0.89322216877E+02 -0.28214800554E+02 -0.59625980802E+02  0.11113901648E+03  0.47000000000E+01 0.  1.
         -5    1    3    3    0  502 -0.20438416573E+02  0.55866384124E+01  0.29348651869E+02  0.36501681705E+02  0.47000000000E+01 0.  1.
        -11    1    4    4    0    0 -0.41253321214E+02  0.40082455418E+02 -0.65029234411E+02  0.86817285558E+02  0.00000000000E+00 0. -1.
         11    1    4    4    0    0 -0.27630479090E+02 -0.17454293276E+02  0.23915213393E+02  0.40497322876E+02  0.00000000000E+00 0.  1.
<mgrwt>
<rscale>  0 0.13808546E+03</rscale>
<asrwt>0</asrwt>
<pdfrwt beam="2">  1        1 0.26642050E-01 0.14450280E+03</pdfrwt>
<pdfrwt beam="1">  1       -1 0.15658766E-01 0.14450280E+03</pdfrwt>
<totfact> 0.50731334E+03</totfact>
</mgrwt>
</event>
<event>
 8    1  0.9424564E-006  0.1274365E+03  0.7546771E-02  0.1237542E+00
         -2   -1    0    0    0  501 -0.00000000000E+00  0.00000000000E+00  0.36078387232E+03  0.36078387232E+03  0.00000000000E+00 0.  1.
          2   -1    0    0  501    0  0.00000000000E+00 -0.00000000000E+00 -0.11694137578E+03  0.11694137578E+03  0.00000000000E+00 0. -1.
         23    2    1    2    0    0 -0.52500817104E+02 -0.11979700141E+02  0.31846366659E+03  0.34301484079E+03  0.11549989200E+03 0.  0.
         23    2    1    2    0    0  0.52500817104E+02  0.11979700141E+02 -0.74621170041E+02  0.13471040731E+03  0.98380515385E+02 0.  0.
          5    1    3    3  502    0 -0.50244625724E+02 -0.48152651440E+02  0.10250845355E+03  0.12398900477E+03  0.47000000000E+01 0. -1.
         -5    1    3    3    0  502 -0.22561913803E+01  0.36172951298E+02  0.21595521303E+03  0.21902583601E+03  0.47000000000E+01 0.  1.
        -11    1    4    4    0    0  0.55496622712E+02  0.45935476568E+02 -0.69753233457E+02  0.10027690022E+03  0.00000000000E+00 0.  1.
         11    1    4    4    0    0 -0.29958056079E+01 -0.33955776427E+02 -0.48679365840E+01  0.34433507091E+02  0.00000000000E+00 0. -1.
<mgrwt>
<rscale>  0 0.12343105E+03</rscale>
<asrwt>0</asrwt>
<pdfrwt beam="2">  1        2 0.17990981E-01 0.12743655E+03</pdfrwt>
<pdfrwt beam="1">  1       -2 0.55505211E-01 0.12743655E+03</pdfrwt>
<totfact> 0.95697697E+02</totfact>
</mgrwt>
</event>
<event>
 8    1  0.9424564E-006  0.1714708E+03  0.7546771E-02  0.1183753E+00
         -1   -1    0    0    0  501 -0.00000000000E+00  0.00000000000E+00  0.75487079051E+02  0.75487079051E+02  0.00000000000E+00 0.  1.
          1   -1    0    0  501    0  0.00000000000E+00 -0.00000000000E+00 -0.35993869972E+03  0.35993869972E+03  0.00000000000E+00 0. -1.
         23    2    1    2    0    0 -0.68254879667E+02  0.95584272875E+02 -0.92577903442E+02  0.19486639978E+03  0.12492863458E+03 0.  0.
         23    2    1    2    0    0  0.68254879667E+02 -0.95584272875E+02 -0.19187371723E+03  0.24055937899E+03  0.85195126851E+02 0.  0.
          5    1    3    3  502    0 -0.58586501261E+01  0.11756469785E+02  0.30381014500E+02  0.33431039546E+02  0.47000000000E+01 0. -1.
         -5    1    3    3    0  502 -0.62396229541E+02  0.83827803090E+02 -0.12295891794E+03  0.16143536023E+03  0.47000000000E+01 0. -1.
        -11    1    4    4    0    0 -0.18461168260E+02 -0.27138599484E+02 -0.61191471238E+02  0.69438566141E+02  0.00000000000E+00 0. -1.
         11    1    4    4    0    0  0.86716047927E+02 -0.68445673391E+02 -0.13068224599E+03  0.17112081285E+03  0.00000000000E+00 0.  1.
<mgrwt>
<rscale>  0 0.16445902E+03</rscale>
<asrwt>0</asrwt>
<pdfrwt beam="2">  1        1 0.55375184E-01 0.17147083E+03</pdfrwt>
<pdfrwt beam="1">  1       -1 0.11613397E-01 0.17147083E+03</pdfrwt>
<totfact> 0.32777567E+03</totfact>
</mgrwt>
</event>
<event>
 8    1  0.9424564E-006  0.1326414E+03  0.7546771E-02  0.1237770E+00
          3   -1    0    0  501    0  0.00000000000E+00  0.00000000000E+00  0.17450109663E+03  0.17450109663E+03  0.00000000000E+00 0. -1.
         -3   -1    0    0    0  501 -0.00000000000E+00 -0.00000000000E+00 -0.89249186822E+02  0.89249186822E+02  0.00000000000E+00 0.  1.
         23    2    1    2    0    0 -0.31106999395E+02  0.31653304726E+02 -0.69949730020E+00  0.13264326281E+03  0.12499667500E+03 0.  0.
         23    2    1    2    0    0  0.31106999395E+02 -0.31653304726E+02  0.85951407113E+02  0.13110702065E+03  0.88497623509E+02 0.  0.
          5    1    3    3  502    0 -0.65227994086E+02  0.52473353394E+02 -0.22579311719E+02  0.86833515111E+02  0.47000000000E+01 0. -1.
         -5    1    3    3    0  502  0.34120994691E+02 -0.20820048668E+02  0.21879814419E+02  0.45809747699E+02  0.47000000000E+01 0. -1.
        -11    1    4    4    0    0 -0.11784849874E+02 -0.50675404693E+02  0.47347053709E+02  0.70346448541E+02  0.00000000000E+00 0.  1.
         11    1    4    4    0    0  0.42891849269E+02  0.19022099968E+02  0.38604353404E+02  0.60760572106E+02  0.00000000000E+00 0. -1.
<mgrwt>
<rscale>  0 0.12328789E+03</rscale>
<asrwt>0</asrwt>
<pdfrwt beam="1">  1        3 0.26846323E-01 0.13264142E+03</pdfrwt>
<pdfrwt beam="2">  1       -3 0.13730644E-01 0.13264142E+03</pdfrwt>
<totfact> 0.13061607E+03</totfact>
</mgrwt>
</event>
<event>
 8    1  0.9424564E-006  0.1527776E+03  0.7546771E-02  0.1205620E+00
         -2   -1    0    0    0  501 -0.00000000000E+00  0.00000000000E+00  0.34550207137E+02  0.34550207137E+02  0.00000000000E+00 0.  1.
          2   -1    0    0  501    0  0.00000000000E+00 -0.00000000000E+00 -0.60750969652E+03  0.60750969652E+03  0.00000000000E+00 0. -1.
         23    2    1    2    0    0  0.67016324285E+02  0.56776708766E+02 -0.22797479028E+03  0.27443303503E+03  0.12500481324E+03 0.  0.
         23    2    1    2    0    0 -0.67016324285E+02 -0.56776708766E+02 -0.34498469910E+03  0.36762686863E+03  0.91762135680E+02 0.  0.
          5    1    3    3  502    0 -0.19470355203E+02  0.38490838734E+02 -0.15104240371E+03  0.15715131917E+03  0.47000000000E+01 0.  1.
         -5    1    3    3    0  502  0.86486679487E+02  0.18285870032E+02 -0.76932386572E+02  0.11728171586E+03  0.47000000000E+01 0.  1.
        -11    1    4    4    0    0  0.21179499420E+02 -0.17081384972E+02 -0.46637194307E+02  0.53994192291E+02  0.00000000000E+00 0.  1.
         11    1    4    4    0    0 -0.88195823705E+02 -0.39695323794E+02 -0.29834750480E+03  0.31363267634E+03  0.00000000000E+00 0. -1.
<mgrwt>
<rscale>  0 0.14588682E+03</rscale>
<asrwt>0</asrwt>
<pdfrwt beam="2">  1        2 0.93463019E-01 0.15277757E+03</pdfrwt>
<pdfrwt beam="1">  1       -2 0.53154171E-02 0.15277757E+03</pdfrwt>
<totfact> 0.85543045E+03</totfact>
</mgrwt>
</event>
<event>
 8    1  0.9424564E-006  0.1261091E+03  0.7546771E-02  0.1249617E+00
          1   -1    0    0  501    0  0.00000000000E+00  0.00000000000E+00  0.50155534030E+03  0.50155534030E+03  0.00000000000E+00 0. -1.
         -1   -1    0    0    0  501 -0.00000000000E+00 -0.00000000000E+00 -0.23452924508E+02  0.23452924508E+02  0.00000000000E+00 0.  1.
         23    2    1    2    0    0 -0.32849026587E+01 -0.16357140778E+02  0.26975011406E+03  0.29777278397E+03  0.12500064079E+03 0.  0.
         23    2    1    2    0    0  0.32849026587E+01  0.16357140778E+02  0.20835230173E+03  0.22723548084E+03  0.89145585845E+02 0.  0.
          5    1    3    3  502    0  0.20533618719E+02  0.13484031919E+02 -0.28382863479E+00  0.25012380398E+02  0.47000000000E+01 0. -1.
         -5    1    3    3    0  502 -0.23818521377E+02 -0.29841172697E+02  0.27003394270E+03  0.27276040357E+03  0.47000000000E+01 0. -1.
        -11    1    4    4    0    0  0.16680049012E+02  0.43626874882E+02  0.61239792609E+02  0.77018442245E+02  0.00000000000E+00 0.  1.
         11    1    4    4    0    0 -0.13395146353E+02 -0.27269734104E+02  0.14711250912E+03  0.15021703860E+03  0.00000000000E+00 0. -1.
<mgrwt>
<rscale>  0 0.11613248E+03</rscale>
<asrwt>0</asrwt>
<pdfrwt beam="1">  1        1 0.77162352E-01 0.12610911E+03</pdfrwt>
<pdfrwt beam="2">  1       -1 0.36081426E-02 0.12610911E+03</pdfrwt>
<totfact> 0.12171195E+04</totfact>
</mgrwt>
</event>
<event>
 8    1  0.9424564E-006  0.1435980E+03  0.7546771E-02  0.1218767E+00
          4   -1    0    0  501    0  0.00000000000E+00  0.00000000000E+00  0.51981277810E+02  0.51981277810E+02  0.00000000000E+00 0. -1.
         -4   -1    0    0    0  501 -0.00000000000E+00 -0.00000000000E+00 -0.32992223840E+03  0.32992223840E+03  0.00000000000E+00 0.  1.
         23    2    1    2    0    0 -0.66069968510E+02 -0.25095248894E+02 -0.18066534990E+03  0.23078205845E+03  0.12500151034E+03 0.  0.
         23    2    1    2    0    0  0.66069968510E+02  0.25095248894E+02 -0.97275610688E+02  0.15112145777E+03  0.91543095351E+02 0.  0.
          5    1    3    3  502    0 -0.77469102486E+02 -0.62807116247E+02 -0.10230581845E+03  0.14295022273E+03  0.47000000000E+01 0.  1.
         -5    1    3    3    0  502  0.11399133976E+02  0.37711867353E+02 -0.78359531453E+02  0.87831835710E+02  0.47000000000E+01 0.  1.
        -11    1    4    4    0    0  0.24484453937E+02  0.56941562074E+02 -0.63845528331E+02  0.88983602219E+02  0.00000000000E+00 0.  1.
         11    1    4    4    0    0  0.41585514573E+02 -0.31846313181E+02 -0.33430082357E+02  0.62137855546E+02  0.00000000000E+00 0. -1.
<mgrwt>
<rscale>  0 0.13603437E+03</rscale>
<asrwt>0</asrwt>
<pdfrwt beam="1">  1        4 0.79971197E-02 0.14359801E+03</pdfrwt>
<pdfrwt beam="2">  1       -4 0.50757267E-01 0.14359801E+03</pdfrwt>
<totfact> 0.69586926E+02</totfact>
</mgrwt>
</event>
<event>
 8    1  0.9424564E-006  0.1306967E+03  0.7546771E-02  0.1239360E+00
         -1   -1    0    0    0  501 -0.00000000000E+00  0.00000000000E+00  0.13213102382E+02  0.13213102382E+02  0.00000000000E+00 0.  1.
          1   -1    0    0  501    0  0.00000000000E+00 -0.00000000000E+00 -0.10090230933E+04  0.10090230933E+04  0.00000000000E+00 0. -1.
         23    2    1    2    0    0 -0.31860228905E+02 -0.21001668742E+02 -0.55372934753E+03  0.56894447682E+03  0.12500193244E+03 0.  0.
         23    2    1    2    0    0  0.31860228905E+02  0.21001668742E+02 -0.44208064336E+03  0.45329171884E+03  0.92638776184E+02 0.  0.
          5    1    3    3  502    0 -0.99421627136E+01  0.44229083297E+02 -0.36817215178E+03  0.37098232000E+03  0.47000000000E+01 0. -1.
         -5    1    3    3    0  502 -0.21918066191E+02 -0.65230752040E+02 -0.18555719575E+03  0.19796215682E+03  0.47000000000E+01 0. -1.
        -11    1    4    4    0    0 -0.30547803695E+02 -0.73379568949E+01 -0.15365209664E+03  0.15683105791E+03  0.00000000000E+00 0.  1.
         11    1    4    4    0    0  0.62408032600E+02  0.28339625637E+02 -0.28842854672E+03  0.29646066093E+03  0.00000000000E+00 0. -1.
<mgrwt>
<rscale>  0 0.12229391E+03</rscale>
<asrwt>0</asrwt>
<pdfrwt beam="2">  1        1 0.15523434E+00 0.13069670E+03</pdfrwt>
<pdfrwt beam="1">  1       -1 0.20327848E-02 0.13069670E+03</pdfrwt>
<totfact> 0.10143283E+04</totfact>
</mgrwt>
</event>
<event>
 8    1  0.9424564E-006  0.1307157E+03  0.7546771E-02  0.1249761E+00
          2   -1    0    0  501    0  0.00000000000E+00  0.00000000000E+00  0.23226629619E+03  0.23226629619E+03  0.00000000000E+00 0.  1.
         -2   -1    0    0    0  501 -0.00000000000E+00 -0.00000000000E+00 -0.48417225269E+02  0.48417225269E+02  0.00000000000E+00 0. -1.
         23    2    1    2    0    0 -0.38359113997E+02 -0.44471372341E+01  0.11883881072E+03  0.17666139692E+03  0.12488149410E+03 0.  0.
         23    2    1    2    0    0  0.38359113997E+02  0.44471372341E+01  0.65010260201E+02  0.10402212455E+03  0.71435774004E+02 0.  0.
          5    1    3    3  502    0  0.11644254551E+02  0.18204286438E+01  0.12502878345E+03  0.12567095653E+03  0.47000000000E+01 0.  1.
         -5    1    3    3    0  502 -0.50003368548E+02 -0.62675658779E+01 -0.61899727276E+01  0.50990440384E+02  0.47000000000E+01 0.  1.
        -11    1    4    4    0    0  0.48425591603E+02 -0.28719064439E+01  0.74130378605E+02  0.88592317956E+02  0.00000000000E+00 0.  1.
         11    1    4    4    0    0 -0.10066477605E+02  0.73190436780E+01 -0.91201184034E+01  0.15429806591E+02  0.00000000000E+00 0. -1.
<mgrwt>
<rscale>  0 0.11604904E+03</rscale>
<asrwt>0</asrwt>
<pdfrwt beam="1">  1        2 0.35733276E-01 0.13071567E+03</pdfrwt>
<pdfrwt beam="2">  1       -2 0.74488040E-02 0.13071567E+03</pdfrwt>
<totfact> 0.14292395E+04</totfact>
</mgrwt>
</event>
<event>
 8    1  0.9424564E-006  0.1623307E+03  0.7546771E-02  0.1193161E+00
         -1   -1    0    0    0  501 -0.00000000000E+00  0.00000000000E+00  0.14419669422E+03  0.14419669422E+03  0.00000000000E+00 0.  1.
          1   -1    0    0  501    0  0.00000000000E+00 -0.00000000000E+00 -0.16078287001E+03  0.16078287001E+03  0.00000000000E+00 0. -1.
         23    2    1    2    0    0 -0.10229285203E+03 -0.16194589555E+02 -0.31447781732E+02  0.16534880378E+03  0.12500068651E+03 0.  0.
         23    2    1    2    0    0  0.10229285203E+03  0.16194589555E+02  0.14861605946E+02  0.13963076044E+03  0.92465072446E+02 0.  0.
          5    1    3    3  502    0 -0.51968620759E+02 -0.39783874029E+02  0.38350197049E+02  0.76002117011E+02  0.47000000000E+01 0.  1.
         -5    1    3    3    0  502 -0.50324231273E+02  0.23589284474E+02 -0.69797978781E+02  0.89346686772E+02  0.47000000000E+01 0.  1.
        -11    1    4    4    0    0  0.29304746327E+01 -0.23797252251E+02 -0.15193268030E+02  0.28385423895E+02  0.00000000000E+00 0.  1.
         11    1    4    4    0    0  0.99362377400E+02  0.39991841807E+02  0.30054873975E+02  0.11124533655E+03  0.00000000000E+00 0. -1.
<mgrwt>
<rscale>  0 0.15610878E+03</rscale>
<asrwt>0</asrwt>
<pdfrwt beam="2">  1        1 0.24735826E-01 0.16233072E+03</pdfrwt>
<pdfrwt beam="1">  1       -1 0.22184107E-01 0.16233072E+03</pdfrwt>
<totfact> 0.32091465E+03</totfact>
</mgrwt>
</event>
<event>
 8    1  0.9424564E-006  0.1307370E+03  0.7546771E-02  0.1240351E+00
          4   -1    0    0  501    0  0.00000000000E+00  0.00000000000E+00  0.79603672978E+02  0.79603672978E+02  0.00000000000E+00 0. -1.
         -4   -1    0    0    0  501 -0.00000000000E+00 -0.00000000000E+00 -0.16469121813E+03  0.16469121813E+03  0.00000000000E+00 0.  1.
         23    2    1    2    0    0 -0.15197096882E+02 -0.35152681930E+02 -0.44101788596E+02  0.13797507475E+03  0.12500196277E+03 0.  0.
         23    2    1    2    0    0  0.15197096882E+02  0.35152681930E+02 -0.40985756557E+02  0.10631981636E+03  0.90318371934E+02 0.  0.
          5    1    3    3  502    0  0.15218664893E+02  0.15787144295E+02  0.33417029202E+02  0.40244621092E+02  0.47000000000E+01 0. -1.
         -5    1    3    3    0  502 -0.30415761775E+02 -0.50939826224E+02 -0.77518817797E+02  0.97730453661E+02  0.47000000000E+01 0. -1.
        -11    1    4    4    0    0  0.50995507042E+02  0.87172899938E+01 -0.11684469260E+02  0.53038285277E+02  0.00000000000E+00 0.  1.
         11    1    4    4    0    0 -0.35798410160E+02  0.26435391936E+02 -0.29301287297E+02  0.53281531078E+02  0.00000000000E+00 0. -1.
<mgrwt>
<rscale>  0 0.12167984E+03</rscale>
<asrwt>0</asrwt>
<pdfrwt beam="1">  1        4 0.12246719E-01 0.13073696E+03</pdfrwt>
<pdfrwt beam="2">  1       -4 0.25337110E-01 0.13073696E+03</pdfrwt>
<totfact> 0.12817460E+03</totfact>
</mgrwt>
</event>
<event>
 8    1  0.9424564E-006  0.2166044E+03  0.7546771E-02  0.1140382E+00
         -1   -1    0    0    0  501 -0.00000000000E+00  0.00000000000E+00  0.42275823283E+03  0.42275823283E+03  0.00000000000E+00 0.  1.
          1   -1    0    0  501    0  0.00000000000E+00 -0.00000000000E+00 -0.14386657372E+03  0.14386657372E+03  0.00000000000E+00 0. -1.
         23    2    1    2    0    0 -0.50243890452E+01 -0.17682575959E+03  0.29843022967E+03  0.36875204474E+03  0.12499949910E+03 0.  0.
         23    2    1    2    0    0  0.50243890452E+01  0.17682575959E+03 -0.19538570566E+02  0.19787276181E+03  0.86482832908E+02 0.  0.
          5    1    3    3  502    0  0.85166277062E+01 -0.12438772570E+03  0.28735617090E+03  0.31327383901E+03  0.47000000000E+01 0.  1.
         -5    1    3    3    0  502 -0.13541016751E+02 -0.52438033893E+02  0.11074058771E+02  0.55478205729E+02  0.47000000000E+01 0.  1.
        -11    1    4    4    0    0  0.22606918870E+02  0.83633965505E+02  0.28969908976E+02  0.91350799630E+02  0.00000000000E+00 0. -1.
         11    1    4    4    0    0 -0.17582529825E+02  0.93191794085E+02 -0.48508479543E+02  0.10652196218E+03  0.00000000000E+00 0.  1.
<mgrwt>
<rscale>  0 0.21150228E+03</rscale>
<asrwt>0</asrwt>
<pdfrwt beam="2">  1        1 0.22133319E-01 0.21660441E+03</pdfrwt>
<pdfrwt beam="1">  1       -1 0.65039728E-01 0.21660441E+03</pdfrwt>
<totfact> 0.55717911E+02</totfact>
</mgrwt>
</event>
<event>
 8    1  0.9424564E-006  0.1280128E+03  0.7546771E-02  0.1245276E+00
         -1   -1    0    0    0  501 -0.00000000000E+00  0.00000000000E+00  0.11017764521E+03  0.11017764521E+03  0.00000000000E+00 0.  1.
          1   -1    0    0  501    0  0.00000000000E+00 -0.00000000000E+00 -0.12872221025E+03  0.12872221025E+03  0.00000000000E+00 0. -1.
         23    2    1    2    0    0 -0.62401851848E+00  0.27618281109E+02  0.31570674574E+02  0.13184838019E+03  0.12499651602E+03 0.  0.
         23    2    1    2    0    0  0.62401851848E+00 -0.27618281109E+02 -0.50115239613E+02  0.10705147526E+03  0.90472770835E+02 0.  0.
          5    1    3    3  502    0 -0.47390526297E+02  0.53815716523E+02  0.55450265149E+01  0.72075173580E+02  0.47000000000E+01 0. -1.
         -5    1    3    3    0  502  0.46766507779E+02 -0.26197435414E+02  0.26025648059E+02  0.59773206614E+02  0.47000000000E+01 0. -1.
        -11    1    4    4    0    0  0.34440394671E+01 -0.55441755606E+02 -0.74619954241E+01  0.56047578433E+02  0.00000000000E+00 0.  1.
         11    1    4    4    0    0 -0.28200209486E+01  0.27823474497E+02 -0.42653244189E+02  0.51003896823E+02  0.00000000000E+00 0. -1.
<mgrwt>
<rscale>  0 0.11868855E+03</rscale>
<asrwt>0</asrwt>
<pdfrwt beam="2">  1        1 0.19803417E-01 0.12801284E+03</pdfrwt>
<pdfrwt beam="1">  1       -1 0.16950407E-01 0.12801284E+03</pdfrwt>
<totfact> 0.64570680E+03</totfact>
</mgrwt>
</event>
<event>
 8    1  0.9424564E-006  0.1663732E+03  0.7546771E-02  0.1188293E+00
          1   -1    0    0  501    0  0.00000000000E+00  0.00000000000E+00  0.22067382421E+03  0.22067382421E+03  0.00000000000E+00 0. -1.
         -1   -1    0    0    0  501 -0.00000000000E+00 -0.00000000000E+00 -0.14677805907E+03  0.14677805907E+03  0.00000000000E+00 0.  1.
         23    2    1    2    0    0  0.73107082854E+02 -0.81921836669E+02 -0.54254750773E+02  0.17499604539E+03  0.12499682009E+03 0.  0.
         23    2    1    2    0    0 -0.73107082854E+02  0.81921836669E+02  0.12815051591E+03  0.19245583789E+03  0.92524925968E+02 0.  0.
          5    1    3    3  502    0  0.94102923969E+02 -0.98392570985E+02 -0.57178192109E+02  0.14774266133E+03  0.47000000000E+01 0. -1.
         -5    1    3    3    0  502 -0.20995841116E+02  0.16470734316E+02  0.29234413364E+01  0.27253384053E+02  0.47000000000E+01 0. -1.
        -11    1    4    4    0    0 -0.55619642395E+02  0.49143224928E+02  0.13558272681E+03  0.15456803352E+03  0.00000000000E+00 0. -1.
         11    1    4    4    0    0 -0.17487440459E+02  0.32778611741E+02 -0.74322109023E+01  0.37887804375E+02  0.00000000000E+00 0.  1.
<mgrwt>
<rscale>  0 0.16035772E+03</rscale>
<asrwt>0</asrwt>
<pdfrwt beam="1">  1        1 0.33949819E-01 0.16637319E+03</pdfrwt>
<pdfrwt beam="2">  1       -1 0.22581240E-01 0.16637319E+03</pdfrwt>
<totfact> 0.20983749E+03</totfact>
</mgrwt>
</event>
<event>
 8    1  0.9424564E-006  0.2339819E+03  0.7546771E-02  0.1126771E+00
         -1   -1    0    0    0  501 -0.00000000000E+00  0.00000000000E+00  0.58657986764E+02  0.58657986764E+02  0.00000000000E+00 0.  1.
          1   -1    0    0  501    0  0.00000000000E+00 -0.00000000000E+00 -0.92251006442E+03  0.92251006442E+03  0.00000000000E+00 0. -1.
         23    2    1    2    0    0 -0.17901199624E+03  0.84624582435E+02 -0.32926737525E+03  0.40393631353E+03  0.12466325135E+03 0.  0.
         23    2    1    2    0    0  0.17901199624E+03 -0.84624582435E+02 -0.53458470240E+03  0.57723173765E+03  0.90603863918E+02 0.  0.
          5    1    3    3  502    0 -0.11164411807E+03  0.87002475062E+02 -0.12538979568E+03  0.18915213619E+03  0.47000000000E+01 0.  1.
         -5    1    3    3    0  502 -0.67367878167E+02 -0.23778926264E+01 -0.20387757958E+03  0.21478417734E+03  0.47000000000E+01 0.  1.
        -11    1    4    4    0    0  0.42884616816E+02 -0.66633736405E+02 -0.22555699812E+03  0.23907133786E+03  0.00000000000E+00 0.  1.
         11    1    4    4    0    0  0.13612737942E+03 -0.17990846031E+02 -0.30902770428E+03  0.33816039978E+03  0.00000000000E+00 0. -1.
<mgrwt>
<rscale>  0 0.22981426E+03</rscale>
<asrwt>0</asrwt>
<pdfrwt beam="2">  1        1 0.14192463E+00 0.23398192E+03</pdfrwt>
<pdfrwt beam="1">  1       -1 0.90243054E-02 0.23398192E+03</pdfrwt>
<totfact> 0.13117368E+03</totfact>
</mgrwt>
</event>
<event>
 8    1  0.9424564E-006  0.1320666E+03  0.7546771E-02  0.1236866E+00
          1   -1    0    0  501    0  0.00000000000E+00  0.00000000000E+00  0.52760330052E+02  0.52760330052E+02  0.00000000000E+00 0. -1.
         -1   -1    0    0    0  501 -0.00000000000E+00 -0.00000000000E+00 -0.26320120464E+03  0.26320120464E+03  0.00000000000E+00 0.  1.
         23    2    1    2    0    0  0.33111450936E+02  0.26835468046E+02 -0.13584426559E+03  0.18946039611E+03  0.12500026668E+03 0.  0.
         23    2    1    2    0    0 -0.33111450936E+02 -0.26835468046E+02 -0.74596608988E+02  0.12650113858E+03  0.92851351420E+02 0.  0.
          5    1    3    3  502    0  0.52369874171E+02 -0.37597408797E+02 -0.65133147575E+02  0.91763749825E+02  0.47000000000E+01 0.  1.
         -5    1    3    3    0  502 -0.19258423234E+02  0.64432876843E+02 -0.70711118019E+02  0.97696646285E+02  0.47000000000E+01 0.  1.
        -11    1    4    4    0    0  0.90528443395E+01 -0.36246056048E+02 -0.74451495223E+02  0.83299193938E+02  0.00000000000E+00 0.  1.
         11    1    4    4    0    0 -0.42164295276E+02  0.94105880020E+01 -0.14511376512E+00  0.43201944640E+02  0.00000000000E+00 0. -1.
<mgrwt>
<rscale>  0 0.12385719E+03</rscale>
<asrwt>0</asrwt>
<pdfrwt beam="1">  1        1 0.81169738E-02 0.13206656E+03</pdfrwt>
<pdfrwt beam="2">  1       -1 0.40492493E-01 0.13206656E+03</pdfrwt>
<totfact> 0.49038933E+03</totfact>
</mgrwt>
</event>
<event>
 8    1  0.9424564E-006  0.1676590E+03  0.7546771E-02  0.1186943E+00
          1   -1    0    0  501    0  0.00000000000E+00  0.00000000000E+00  0.27632332350E+03  0.27632332350E+03  0.00000000000E+00 0. -1.
         -1   -1    0    0    0  501 -0.00000000000E+00 -0.00000000000E+00 -0.10069941197E+03  0.10069941197E+03  0.00000000000E+00 0.  1.
         23    2    1    2    0    0  0.40079752765E+02 -0.10428838689E+03  0.27250372640E+02  0.16985916270E+03  0.12500839221E+03 0.  0.
         23    2    1    2    0    0 -0.40079752765E+02  0.10428838689E+03  0.14837353889E+03  0.20716357276E+03  0.91758294525E+02 0.  0.
          5    1    3    3  502    0  0.69566618536E+01  0.25655701480E+02 -0.12733530696E+02  0.29846992589E+02  0.47000000000E+01 0. -1.
         -5    1    3    3    0  502  0.33123090911E+02 -0.12994408837E+03  0.39983903336E+02  0.14001217012E+03  0.47000000000E+01 0. -1.
        -11    1    4    4    0    0 -0.35480963882E+02  0.54422598786E+02  0.14266603701E+03  0.15676197298E+03  0.00000000000E+00 0. -1.
         11    1    4    4    0    0 -0.45987888825E+01  0.49865788106E+02  0.57075018792E+01  0.50401599780E+02  0.00000000000E+00 0.  1.
<mgrwt>
<rscale>  0 0.16156371E+03</rscale>
<asrwt>0</asrwt>
<pdfrwt beam="1">  1        1 0.42511280E-01 0.16765904E+03</pdfrwt>
<pdfrwt beam="2">  1       -1 0.15492217E-01 0.16765904E+03</pdfrwt>
<totfact> 0.29041611E+03</totfact>
</mgrwt>
</event>
<event>
 8    1  0.9424564E-006  0.1445414E+03  0.7546771E-02  0.1220023E+00
         -2   -1    0    0    0  501 -0.00000000000E+00  0.00000000000E+00  0.74535747054E+02  0.74535747054E+02  0.00000000000E+00 0.  1.
          2   -1    0    0  501    0  0.00000000000E+00 -0.00000000000E+00 -0.24730443068E+03  0.24730443068E+03  0.00000000000E+00 0. -1.
         23    2    1    2    0    0  0.54522526715E+02 -0.47895035895E+02 -0.41688898107E+02  0.15043334815E+03  0.12500235048E+03 0.  0.
         23    2    1    2    0    0 -0.54522526715E+02  0.47895035895E+02 -0.13107978552E+03  0.17140682959E+03  0.83257135876E+02 0.  0.
          5    1    3    3  502    0 -0.26869380662E+02  0.21972181792E+02  0.61271491272E+00  0.35031497391E+02  0.47000000000E+01 0. -1.
         -5    1    3    3    0  502  0.81391907378E+02 -0.69867217687E+02 -0.42301613019E+02  0.11540185076E+03  0.47000000000E+01 0. -1.
        -11    1    4    4    0    0 -0.35870801288E+02  0.14445376283E+02 -0.12715817916E+03  0.13290818564E+03  0.00000000000E+00 0. -1.
         11    1    4    4    0    0 -0.18651725428E+02  0.33449659612E+02 -0.39216063566E+01  0.38498643950E+02  0.00000000000E+00 0.  1.
<mgrwt>
<rscale>  0 0.13513944E+03</rscale>
<asrwt>0</asrwt>
<pdfrwt beam="2">  1        2 0.38046835E-01 0.14454144E+03</pdfrwt>
<pdfrwt beam="1">  1       -2 0.11467038E-01 0.14454144E+03</pdfrwt>
<totfact> 0.68635501E+03</totfact>
</mgrwt>
</event>
<event>
 8    1  0.9424564E-006  0.1822050E+03  0.7546771E-02  0.1171299E+00
          2   -1    0    0  501    0  0.00000000000E+00  0.00000000000E+00  0.78834534871E+03  0.78834534871E+03  0.00000000000E+00 0. -1.
         -2   -1    0    0    0  501 -0.00000000000E+00 -0.00000000000E+00 -0.37435501505E+02  0.37435501505E+02  0.00000000000E+00 0.  1.
         23    2    1    2    0    0  0.78314481314E+02  0.10695000575E+03  0.36528279492E+03  0.40820358638E+03  0.12500874349E+03 0.  0.
         23    2    1    2    0    0 -0.78314481314E+02 -0.10695000575E+03  0.38562705229E+03  0.41757726384E+03  0.89950464752E+02 0.  0.
          5    1    3    3  502    0  0.16462706172E+02 -0.25402284458E+02  0.10842022080E+03  0.11266468403E+03  0.47000000000E+01 0.  1.
         -5    1    3    3    0  502  0.61851775142E+02  0.13235229021E+03  0.25686257413E+03  0.29553890235E+03  0.47000000000E+01 0.  1.
        -11    1    4    4    0    0 -0.62913615759E+02 -0.12262578318E+02  0.14522176075E+03  0.15873831822E+03  0.00000000000E+00 0.  1.
         11    1    4    4    0    0 -0.15400865555E+02 -0.94687427435E+02  0.24040529154E+03  0.25883894563E+03  0.00000000000E+00 0. -1.
<mgrwt>
<rscale>  0 0.17643414E+03</rscale>
<asrwt>0</asrwt>
<pdfrwt beam="1">  1        2 0.12128389E+00 0.18220496E+03</pdfrwt>
<pdfrwt beam="2">  1       -2 0.57593085E-02 0.18220496E+03</pdfrwt>
<totfact> 0.55962664E+03</totfact>
</mgrwt>
</event>
<event>
 8    1  0.9424564E-006  0.1469362E+03  0.7546771E-02  0.1213917E+00
         -2   -1    0    0    0  501 -0.00000000000E+00  0.00000000000E+00  0.42733671897E+03  0.42733671897E+03  0.00000000000E+00 0. -1.
          2   -1    0    0  501    0  0.00000000000E+00 -0.00000000000E+00 -0.42016626530E+02  0.42016626530E+02  0.00000000000E+00 0.  1.
         23    2    1    2    0    0  0.14590966792E+02 -0.75871340708E+02  0.23658925047E+03  0.27850444545E+03  0.12498358311E+03 0.  0.
         23    2    1    2    0    0 -0.14590966792E+02  0.75871340708E+02  0.14873084197E+03  0.19084890005E+03  0.91285719821E+02 0.  0.
          5    1    3    3  502    0  0.60088552308E+02 -0.35816778191E+02  0.18808707669E+03  0.20072945508E+03  0.47000000000E+01 0. -1.
         -5    1    3    3    0  502 -0.45497585516E+02 -0.40054562517E+02  0.48502173775E+02  0.77774990371E+02  0.47000000000E+01 0. -1.
        -11    1    4    4    0    0  0.98767380708E+01  0.90828350815E+01 -0.10115741335E+02  0.16804049238E+02  0.00000000000E+00 0.  1.
         11    1    4    4    0    0 -0.24467704863E+02  0.66788505627E+02  0.15884658331E+03  0.17404485081E+03  0.00000000000E+00 0. -1.
<mgrwt>
<rscale>  0 0.13956384E+03</rscale>
<asrwt>0</asrwt>
<pdfrwt beam="2">  1        2 0.64640967E-02 0.14693622E+03</pdfrwt>
<pdfrwt beam="1">  1       -2 0.65744108E-01 0.14693622E+03</pdfrwt>
<totfact> 0.23594414E+03</totfact>
</mgrwt>
</event>
<event>
 8    1  0.9424564E-006  0.1504822E+03  0.7546771E-02  0.1209207E+00
          1   -1    0    0  501    0  0.00000000000E+00  0.00000000000E+00  0.75159395690E+03  0.75159395690E+03  0.00000000000E+00 0. -1.
         -1   -1    0    0    0  501 -0.00000000000E+00 -0.00000000000E+00 -0.26187753878E+02  0.26187753878E+02  0.00000000000E+00 0.  1.
         23    2    1    2    0    0  0.10443958277E+02 -0.83131951500E+02  0.31118101420E+03  0.34565665775E+03  0.12499961529E+03 0.  0.
         23    2    1    2    0    0 -0.10443958277E+02  0.83131951500E+02  0.41422518882E+03  0.43212505303E+03  0.90164054790E+02 0.  0.
          5    1    3    3  502    0  0.57038250282E+02 -0.54544303290E+02  0.25563552925E+03  0.26758186940E+03  0.47000000000E+01 0. -1.
         -5    1    3    3    0  502 -0.46594292005E+02 -0.28587648210E+02  0.55545484955E+02  0.78074788354E+02  0.47000000000E+01 0. -1.
        -11    1    4    4    0    0 -0.47652862378E+02  0.24726429412E+02  0.19140413594E+03  0.19879068102E+03  0.00000000000E+00 0. -1.
         11    1    4    4    0    0  0.37208904101E+02  0.58405522088E+02  0.22282105288E+03  0.23333437201E+03  0.00000000000E+00 0.  1.
<mgrwt>
<rscale>  0 0.14310799E+03</rscale>
<asrwt>0</asrwt>
<pdfrwt beam="1">  1        1 0.11562982E+00 0.15048223E+03</pdfrwt>
<pdfrwt beam="2">  1       -1 0.40288858E-02 0.15048223E+03</pdfrwt>
<totfact> 0.59993889E+03</totfact>
</mgrwt>
</event>
<event>
 8    1  0.9424564E-006  0.1561971E+03  0.7546771E-02  0.1205047E+00
         -1   -1    0    0    0  501 -0.00000000000E+00  0.00000000000E+00  0.71508085983E+02  0.71508085983E+02  0.00000000000E+00 0.  1.
          1   -1    0    0  501    0  0.00000000000E+00 -0.00000000000E+00 -0.26867565237E+03  0.26867565237E+03  0.00000000000E+00 0. -1.
         23    2    1    2    0    0 -0.38288721858E+02 -0.85483144752E+02 -0.99469444477E+02  0.18518018172E+03  0.12499654019E+03 0.  0.
         23    2    1    2    0    0  0.38288721858E+02  0.85483144752E+02 -0.97698121910E+02  0.15500355663E+03  0.75549886065E+02 0.  0.
          5    1    3    3  502    0 -0.40748122252E+02  0.17869719648E+02 -0.59031736235E+02  0.74071399543E+02  0.47000000000E+01 0. -1.
         -5    1    3    3    0  502  0.24594003939E+01 -0.10335286440E+03 -0.40437708242E+02  0.11110878218E+03  0.47000000000E+01 0. -1.
        -11    1    4    4    0    0  0.38364191525E+01 -0.12563613396E+02 -0.24791365059E+02  0.28056626222E+02  0.00000000000E+00 0. -1.
         11    1    4    4    0    0  0.34452302706E+02  0.98046758148E+02 -0.72906756851E+02  0.12694693041E+03  0.00000000000E+00 0.  1.
<mgrwt>
<rscale>  0 0.14633735E+03</rscale>
<asrwt>0</asrwt>
<pdfrwt beam="2">  1        1 0.41334715E-01 0.15619708E+03</pdfrwt>
<pdfrwt beam="1">  1       -1 0.11001244E-01 0.15619708E+03</pdfrwt>
<totfact> 0.51103914E+03</totfact>
</mgrwt>
</event>
<event>
 6    1  0.9424564E-006  0.1647061E+03  0.7546771E-02  0.1222048E+00
          4   -1    0    0  501    0  0.00000000000E+00  0.00000000000E+00  0.19757000250E+03  0.19757000250E+03  0.00000000000E+00 0. -1.
         -4   -1    0    0    0  501 -0.00000000000E+00 -0.00000000000E+00 -0.10508212449E+03  0.10508212449E+03  0.00000000000E+00 0.  1.
          5    1    1    2  502    0 -0.37749901631E+00  0.63147254113E+02  0.55620904708E+02  0.84282223797E+02  0.47000000000E+01 0. -1.
         -5    1    1    2    0  502 -0.21136594631E+02  0.31754640665E+01 -0.79121133763E+02  0.82091918071E+02  0.47000000000E+01 0.  1.
        -11    1    1    2    0    0  0.18006059161E+02 -0.35891778531E+02  0.75421359868E+02  0.85444832828E+02  0.00000000000E+00 0. -1.
         11    1    1    2    0    0  0.35080344860E+01 -0.30430939649E+02  0.40566747196E+02  0.50833152291E+02  0.00000000000E+00 0.  1.
<mgrwt>
<rscale>  0 0.13371327E+03</rscale>
<asrwt>0</asrwt>
<pdfrwt beam="1">  1        4 0.30395385E-01 0.16470608E+03</pdfrwt>
<pdfrwt beam="2">  1       -4 0.16166481E-01 0.16470608E+03</pdfrwt>
<totfact> 0.58894904E+02</totfact>
</mgrwt>
</event>
<event>
 8    1  0.9424564E-006  0.1321346E+03  0.7546771E-02  0.1237809E+00
         -1   -1    0    0    0  501 -0.00000000000E+00  0.00000000000E+00  0.14617707666E+03  0.14617707666E+03  0.00000000000E+00 0.  1.
          1   -1    0    0  501    0  0.00000000000E+00 -0.00000000000E+00 -0.18875185377E+03  0.18875185377E+03  0.00000000000E+00 0. -1.
         23    2    1    2    0    0  0.96975215233E+01  0.41774696573E+02  0.96482233092E+02  0.16361042397E+03  0.12498152796E+03 0.  0.
         23    2    1    2    0    0 -0.96975215233E+01 -0.41774696573E+02 -0.13905701020E+03  0.17131850645E+03  0.90410239296E+02 0.  0.
          5    1    3    3  502    0 -0.74606794986E+01 -0.21834485687E+01  0.11302251977E+03  0.11338698850E+03  0.47000000000E+01 0.  1.
         -5    1    3    3    0  502  0.17158201022E+02  0.43958145142E+02 -0.16540286680E+02  0.50223435467E+02  0.47000000000E+01 0.  1.
        -11    1    4    4    0    0  0.11439611524E+02 -0.14606213999E+02  0.80600914765E+01  0.20227982445E+02  0.00000000000E+00 0.  1.
         11    1    4    4    0    0 -0.21137133047E+02 -0.27168482575E+02 -0.14711710168E+03  0.15109052401E+03  0.00000000000E+00 0. -1.
<mgrwt>
<rscale>  0 0.12326333E+03</rscale>
<asrwt>0</asrwt>
<pdfrwt beam="2">  1        1 0.29038747E-01 0.13213459E+03</pdfrwt>
<pdfrwt beam="1">  1       -1 0.22488781E-01 0.13213459E+03</pdfrwt>
<totfact> 0.25435351E+03</totfact>
</mgrwt>
</event>
<event>
 8    1  0.9424564E-006  0.1926478E+03  0.7546771E-02  0.1160993E+00
          1   -1    0    0  501    0  0.00000000000E+00  0.00000000000E+00  0.35464302623E+03  0.35464302623E+03  0.00000000000E+00 0. -1.
         -1   -1    0    0    0  501 -0.00000000000E+00 -0.00000000000E+00 -0.10360989658E+03  0.10360989658E+03  0.00000000000E+00 0.  1.
         23    2    1    2    0    0  0.85167119676E+02  0.11930592199E+03  0.61057187398E+02  0.20209193890E+03  0.12500332131E+03 0.  0.
         23    2    1    2    0    0 -0.85167119676E+02 -0.11930592199E+03  0.18997594224E+03  0.25616098391E+03  0.89667439748E+02 0.  0.
          5    1    3    3  502    0  0.88982831741E+02  0.30884689919E+02 -0.28152602430E+00  0.94307887650E+02  0.47000000000E+01 0. -1.
         -5    1    3    3    0  502 -0.38157120655E+01  0.88421232071E+02  0.61338713423E+02  0.10778405125E+03  0.47000000000E+01 0. -1.
        -11    1    4    4    0    0  0.23240792575E+01 -0.27617900980E+02  0.91673617649E+02  0.95771613602E+02  0.00000000000E+00 0.  1.
         11    1    4    4    0    0 -0.87491198933E+02 -0.91688021010E+02  0.98302324594E+02  0.16038937031E+03  0.00000000000E+00 0. -1.
<mgrwt>
<rscale>  0 0.18721969E+03</rscale>
<asrwt>0</asrwt>
<pdfrwt beam="1">  1        1 0.54560465E-01 0.19264779E+03</pdfrwt>
<pdfrwt beam="2">  1       -1 0.15939984E-01 0.19264779E+03</pdfrwt>
<totfact> 0.20408921E+03</totfact>
</mgrwt>
</event>
<event>
 8    1  0.9424564E-006  0.1390448E+03  0.7546771E-02  0.1223606E+00
          2   -1    0    0  501    0  0.00000000000E+00  0.00000000000E+00  0.10817165853E+03  0.10817165853E+03  0.00000000000E+00 0. -1.
         -2   -1    0    0    0  501 -0.00000000000E+00 -0.00000000000E+00 -0.16751763259E+03  0.16751763259E+03  0.00000000000E+00 0.  1.
         23    2    1    2    0    0  0.55700553368E+02 -0.24912914311E+02 -0.77463673360E+02  0.15916678554E+03  0.12494094599E+03 0.  0.
         23    2    1    2    0    0 -0.55700553368E+02  0.24912914311E+02  0.18117699298E+02  0.11652250558E+03  0.97601425877E+02 0.  0.
          5    1    3    3  502    0 -0.39303897231E+02  0.25377700830E+01 -0.16950251627E+02  0.43135109189E+02  0.47000000000E+01 0.  1.
         -5    1    3    3    0  502  0.95004450599E+02 -0.27450684394E+02 -0.60513421733E+02  0.11603167635E+03  0.47000000000E+01 0.  1.
        -11    1    4    4    0    0 -0.19494125072E+02  0.12399142050E+01 -0.39739895995E+02  0.44281120505E+02  0.00000000000E+00 0.  1.
         11    1    4    4    0    0 -0.36206428296E+02  0.23673000106E+02  0.57857595293E+02  0.72241385072E+02  0.00000000000E+00 0. -1.
<mgrwt>
<rscale>  0 0.13262941E+03</rscale>
<asrwt>0</asrwt>
<pdfrwt beam="1">  1        2 0.16641794E-01 0.13904476E+03</pdfrwt>
<pdfrwt beam="2">  1       -2 0.25771943E-01 0.13904476E+03</pdfrwt>
<totfact> 0.44363227E+03</totfact>
</mgrwt>
</event>
<event>
 8    1  0.9424564E-006  0.1387987E+03  0.7546771E-02  0.1226425E+00
         -1   -1    0    0    0  501 -0.00000000000E+00  0.00000000000E+00  0.24055365607E+02  0.24055365607E+02  0.00000000000E+00 0.  1.
          1   -1    0    0  501    0  0.00000000000E+00 -0.00000000000E+00 -0.68592084687E+03  0.68592084687E+03  0.00000000000E+00 0. -1.
         23    2    1    2    0    0 -0.19819070846E+02 -0.57052857329E+02 -0.27538433167E+03  0.30838549132E+03  0.12496902429E+03 0.  0.
         23    2    1    2    0    0  0.19819070846E+02  0.57052857329E+02 -0.38648114960E+03  0.40159072116E+03  0.90882364770E+02 0.  0.
          5    1    3    3  502    0 -0.49816480032E+02 -0.55375773423E+02 -0.75361097380E+02  0.10606386266E+03  0.47000000000E+01 0.  1.
         -5    1    3    3    0  502  0.29997409186E+02 -0.16770839056E+01 -0.20002323428E+03  0.20232162866E+03  0.47000000000E+01 0.  1.
        -11    1    4    4    0    0  0.62809909708E+01  0.78789746073E+02 -0.23436786671E+03  0.24733696019E+03  0.00000000000E+00 0.  1.
         11    1    4    4    0    0  0.13538079875E+02 -0.21736888744E+02 -0.15211328289E+03  0.15425376096E+03  0.00000000000E+00 0. -1.
<mgrwt>
<rscale>  0 0.13069721E+03</rscale>
<asrwt>0</asrwt>
<pdfrwt beam="2">  1        1 0.10552630E+00 0.13879871E+03</pdfrwt>
<pdfrwt beam="1">  1       -1 0.37008251E-02 0.13879871E+03</pdfrwt>
<totfact> 0.77242818E+03</totfact>
</mgrwt>
</event>
<event>
 8    1  0.9424564E-006  0.1522591E+03  0.7546771E-02  0.1206690E+00
          1   -1    0    0  501    0  0.00000000000E+00  0.00000000000E+00  0.23494567004E+03  0.23494567004E+03  0.00000000000E+00 0. -1.
         -1   -1    0    0    0  501 -0.00000000000E+00 -0.00000000000E+00 -0.82473317696E+02  0.82473317696E+02  0.00000000000E+00 0.  1.
         23    2    1    2    0    0 -0.47447618952E+01  0.86804804284E+02  0.72112585266E+02  0.16847273577E+03  0.12500100373E+03 0.  0.
         23    2    1    2    0    0  0.47447618952E+01 -0.86804804284E+02  0.80359767074E+02  0.14894625196E+03  0.90386431483E+02 0.  0.
          5    1    3    3  502    0  0.20972816809E+02 -0.16645151216E+02  0.53706362507E+02  0.60194546910E+02  0.47000000000E+01 0.  1.
         -5    1    3    3    0  502 -0.25717578704E+02  0.10344995550E+03  0.18406222759E+02  0.10827818886E+03  0.47000000000E+01 0.  1.
        -11    1    4    4    0    0  0.18688314101E+02 -0.55007543571E+02  0.94927486635E+02  0.11129380330E+03  0.00000000000E+00 0. -1.
         11    1    4    4    0    0 -0.13943552205E+02 -0.31797260713E+02 -0.14567719561E+02  0.37652448661E+02  0.00000000000E+00 0.  1.
<mgrwt>
<rscale>  0 0.14505050E+03</rscale>
<asrwt>0</asrwt>
<pdfrwt beam="1">  1        1 0.36145487E-01 0.15225911E+03</pdfrwt>
<pdfrwt beam="2">  1       -1 0.12688203E-01 0.15225911E+03</pdfrwt>
<totfact> 0.48343146E+03</totfact>
</mgrwt>
</event>
<event>
 8    1  0.9424564E-006  0.1318983E+03  0.7546771E-02  0.1234979E+00
          2   -1    0    0  501    0  0.00000000000E+00  0.00000000000E+00  0.34798363641E+03  0.34798363641E+03  0.00000000000E+00 0. -1.
         -2   -1    0    0    0  501 -0.00000000000E+00 -0.00000000000E+00 -0.47307011801E+02  0.47307011801E+02  0.00000000000E+00 0.  1.
         23    2    1    2    0    0  0.17002399506E+02  0.48976931449E+02  0.91523636912E+02  0.16054202053E+03  0.12128207963E+03 0.  0.
         23    2    1    2    0    0 -0.17002399506E+02 -0.48976931449E+02  0.20915298770E+03  0.23474862768E+03  0.93134980171E+02 0.  0.
          5    1    3    3  502    0  0.67672530106E+02  0.31962158270E+02  0.70464980737E+02  0.10290070166E+03  0.47000000000E+01 0. -1.
         -5    1    3    3    0  502 -0.50670130600E+02  0.17014773180E+02  0.21058656175E+02  0.57641318872E+02  0.47000000000E+01 0.  1.
        -11    1    4    4    0    0  0.36453484713E+02 -0.36485375805E+02  0.10690776351E+03  0.11869839550E+03  0.00000000000E+00 0. -1.
         11    1    4    4    0    0 -0.53455884218E+02 -0.12491555644E+02  0.10224522419E+03  0.11605023218E+03  0.00000000000E+00 0.  1.
<mgrwt>
<rscale>  0 0.12505787E+03</rscale>
<asrwt>0</asrwt>
<pdfrwt beam="1">  1        2 0.53535943E-01 0.13189831E+03</pdfrwt>
<pdfrwt beam="2">  1       -2 0.72780020E-02 0.13189831E+03</pdfrwt>
<totfact> 0.96520017E+03</totfact>
</mgrwt>
</event>
<event>
 8    1  0.9424564E-006  0.1548164E+03  0.7546771E-02  0.1203146E+00
         -1   -1    0    0    0  501 -0.00000000000E+00  0.00000000000E+00  0.25289414804E+02  0.25289414804E+02  0.00000000000E+00 0.  1.
          1   -1    0    0  501    0  0.00000000000E+00 -0.00000000000E+00 -0.79535893925E+03  0.79535893925E+03  0.00000000000E+00 0. -1.
         23    2    1    2    0    0 -0.92926349679E+00  0.91338157267E+02 -0.42968817526E+03  0.45672754213E+03  0.12499838910E+03 0.  0.
         23    2    1    2    0    0  0.92926349679E+00 -0.91338157267E+02 -0.34038134919E+03  0.36392081193E+03  0.90748950267E+02 0.  0.
          5    1    3    3  502    0  0.52290518923E+01  0.71512512858E+02 -0.84662810176E+02  0.11104622419E+03  0.47000000000E+01 0. -1.
         -5    1    3    3    0  502 -0.61583153891E+01  0.19825644409E+02 -0.34502536508E+03  0.34568131794E+03  0.47000000000E+01 0. -1.
        -11    1    4    4    0    0 -0.69800201239E+01 -0.65667622461E+02 -0.32757086128E+03  0.33416107865E+03  0.00000000000E+00 0. -1.
         11    1    4    4    0    0  0.79092836207E+01 -0.25670534805E+02 -0.12810487907E+02  0.29759733282E+02  0.00000000000E+00 0.  1.
<mgrwt>
<rscale>  0 0.14784518E+03</rscale>
<asrwt>0</asrwt>
<pdfrwt beam="2">  1        1 0.12236288E+00 0.15481641E+03</pdfrwt>
<pdfrwt beam="1">  1       -1 0.38906802E-02 0.15481641E+03</pdfrwt>
<totfact> 0.58121718E+03</totfact>
</mgrwt>
</event>
<event>
 8    1  0.9424564E-006  0.1321458E+03  0.7546771E-02  0.1237626E+00
         -2   -1    0    0    0  501 -0.00000000000E+00  0.00000000000E+00  0.40160345637E+03  0.40160345637E+03  0.00000000000E+00 0.  1.
          2   -1    0    0  501    0  0.00000000000E+00 -0.00000000000E+00 -0.53061396489E+02  0.53061396489E+02  0.00000000000E+00 0. -1.
         23    2    1    2    0    0 -0.40984511945E+02 -0.12619044411E+02  0.32598182231E+03  0.35174800230E+03  0.12499415245E+03 0.  0.
         23    2    1    2    0    0  0.40984511945E+02  0.12619044411E+02  0.22560237576E+02  0.10291685056E+03  0.90796163514E+02 0.  0.
          5    1    3    3  502    0  0.62452603471E+01 -0.44865608617E+02  0.26148236820E+03  0.26541862217E+03  0.47000000000E+01 0.  1.
         -5    1    3    3    0  502 -0.47229772292E+02  0.32246564205E+02  0.64499454103E+02  0.86329380129E+02  0.47000000000E+01 0.  1.
        -11    1    4    4    0    0  0.28703733371E+02 -0.16740175136E+02  0.50577967270E+02  0.60516679901E+02  0.00000000000E+00 0.  1.
         11    1    4    4    0    0  0.12280778574E+02  0.29359219548E+02 -0.28017729694E+02  0.42400170661E+02  0.00000000000E+00 0. -1.
<mgrwt>
<rscale>  0 0.12337815E+03</rscale>
<asrwt>0</asrwt>
<pdfrwt beam="2">  1        2 0.81632920E-02 0.13214579E+03</pdfrwt>
<pdfrwt beam="1">  1       -2 0.61785145E-01 0.13214579E+03</pdfrwt>
<totfact> 0.19855874E+03</totfact>
</mgrwt>
</event>
<event>
 6    1  0.9424564E-006  0.2548228E+03  0.7546771E-02  0.1140352E+00
          2   -1    0    0  501    0  0.00000000000E+00  0.00000000000E+00  0.14347867900E+04  0.14347867900E+04  0.00000000000E+00 0. -1.
         -2   -1    0    0    0  501 -0.00000000000E+00 -0.00000000000E+00 -0.25092569617E+02  0.25092569617E+02  0.00000000000E+00 0.  1.
          5    1    1    2  502    0 -0.70487660034E+02  0.64064831814E+02  0.21801177590E+03  0.23795805791E+03  0.47000000000E+01 0. -1.
         -5    1    1    2    0  502  0.14647184646E+03  0.26951196184E+02  0.63854031974E+03  0.65569520260E+03  0.47000000000E+01 0.  1.
        -11    1    1    2    0    0 -0.24739603118E+02 -0.14789513963E+02  0.11467675706E+03  0.11824354652E+03  0.00000000000E+00 0. -1.
         11    1    1    2    0    0 -0.51244583307E+02 -0.76226514035E+02  0.43846536773E+03  0.44798255263E+03  0.00000000000E+00 0.  1.
<mgrwt>
<rscale>  0 0.21154014E+03</rscale>
<asrwt>0</asrwt>
<pdfrwt beam="1">  1        2 0.22073636E+00 0.25482280E+03</pdfrwt>
<pdfrwt beam="2">  1       -2 0.38603965E-02 0.25482280E+03</pdfrwt>
<totfact> 0.42849600E+03</totfact>
</mgrwt>
</event>
<event>
 8    1  0.9424564E-006  0.1308931E+03  0.7546771E-02  0.1240301E+00
          2   -1    0    0  501    0  0.00000000000E+00  0.00000000000E+00  0.20727684363E+03  0.20727684363E+03  0.00000000000E+00 0. -1.
         -2   -1    0    0    0  501 -0.00000000000E+00 -0.00000000000E+00 -0.67386433449E+02  0.67386433449E+02  0.00000000000E+00 0.  1.
         23    2    1    2    0    0 -0.23996931529E+02  0.30515921773E+02  0.45147137012E+02  0.13846038853E+03  0.12500376397E+03 0.  0.
         23    2    1    2    0    0  0.23996931529E+02 -0.30515921773E+02  0.94743273172E+02  0.13620288855E+03  0.89821293878E+02 0.  0.
          5    1    3    3  502    0 -0.42361195162E+02 -0.90166148459E+01  0.74073996033E+02  0.85934958470E+02  0.47000000000E+01 0.  1.
         -5    1    3    3    0  502  0.18364263633E+02  0.39532536619E+02 -0.28926859021E+02  0.52525430061E+02  0.47000000000E+01 0.  1.
        -11    1    4    4    0    0 -0.20215587090E+02 -0.46545563262E+02  0.46472163946E+02  0.68810038821E+02  0.00000000000E+00 0. -1.
         11    1    4    4    0    0  0.44212518619E+02  0.16029641488E+02  0.48271109226E+02  0.67392849730E+02  0.00000000000E+00 0.  1.
<mgrwt>
<rscale>  0 0.12171096E+03</rscale>
<asrwt>0</asrwt>
<pdfrwt beam="1">  1        2 0.31888745E-01 0.13089314E+03</pdfrwt>
<pdfrwt beam="2">  1       -2 0.10367144E-01 0.13089314E+03</pdfrwt>
<totfact> 0.96616136E+03</totfact>
</mgrwt>
</event>
<event>
 8    1  0.9424564E-006  0.1594252E+03  0.7546771E-02  0.1196541E+00
          2   -1    0    0  501    0  0.00000000000E+00  0.00000000000E+00  0.26225270502E+03  0.26225270502E+03  0.00000000000E+00 0. -1.
         -2   -1    0    0    0  501 -0.00000000000E+00 -0.00000000000E+00 -0.11941543225E+03  0.11941543225E+03  0.00000000000E+00 0.  1.
         23    2    1    2    0    0  0.12381249449E+02  0.98176016130E+02 -0.29432572921E+02  0.16211929257E+03  0.12499825277E+03 0.  0.
         23    2    1    2    0    0 -0.12381249449E+02 -0.98176016130E+02  0.17226984569E+03  0.21954884470E+03  0.93450361118E+02 0.  0.
          5    1    3    3  502    0 -0.43431441179E+02  0.92043629150E+02 -0.28385666014E+02  0.10576462445E+03  0.47000000000E+01 0. -1.
         -5    1    3    3    0  502  0.55812690627E+02  0.61323869794E+01 -0.10469069068E+01  0.56354668123E+02  0.47000000000E+01 0. -1.
        -11    1    4    4    0    0  0.21070378596E+02  0.23284980017E+01  0.66745796870E+02  0.70031308405E+02  0.00000000000E+00 0. -1.
         11    1    4    4    0    0 -0.33451628045E+02 -0.10050451413E+03  0.10552404882E+03  0.14951753629E+03  0.00000000000E+00 0.  1.
<mgrwt>
<rscale>  0 0.15324520E+03</rscale>
<asrwt>0</asrwt>
<pdfrwt beam="1">  1        2 0.40346570E-01 0.15942518E+03</pdfrwt>
<pdfrwt beam="2">  1       -2 0.18371605E-01 0.15942518E+03</pdfrwt>
<totfact> 0.30013425E+03</totfact>
</mgrwt>
</event>
<event>
 8    1  0.9424564E-006  0.1606884E+03  0.7546771E-02  0.1198436E+00
          1   -1    0    0  501    0  0.00000000000E+00  0.00000000000E+00  0.56921150045E+03  0.56921150045E+03  0.00000000000E+00 0. -1.
         -1   -1    0    0    0  501 -0.00000000000E+00 -0.00000000000E+00 -0.44364465937E+02  0.44364465937E+02  0.00000000000E+00 0.  1.
         23    2    1    2    0    0  0.43363961761E+01  0.10088088403E+03  0.15867412218E+03  0.22582791744E+03  0.12500005661E+03 0.  0.
         23    2    1    2    0    0 -0.43363961761E+01 -0.10088088403E+03  0.36617291233E+03  0.38774804894E+03  0.77911428188E+02 0.  0.
          5    1    3    3  502    0 -0.27867292084E+02  0.62221293269E+02  0.10333006536E+02  0.69115384164E+02  0.47000000000E+01 0.  1.
         -5    1    3    3    0  502  0.32203688260E+02  0.38659590757E+02  0.14834111565E+03  0.15671253328E+03  0.47000000000E+01 0.  1.
        -11    1    4    4    0    0  0.25417004770E+02 -0.83493900732E+02  0.20284622666E+03  0.22082537730E+03  0.00000000000E+00 0.  1.
         11    1    4    4    0    0 -0.29753400946E+02 -0.17386983294E+02  0.16332668567E+03  0.16692267164E+03  0.00000000000E+00 0. -1.
<mgrwt>
<rscale>  0 0.15166954E+03</rscale>
<asrwt>0</asrwt>
<pdfrwt beam="1">  1        1 0.87570995E-01 0.16068843E+03</pdfrwt>
<pdfrwt beam="2">  1       -1 0.68253029E-02 0.16068843E+03</pdfrwt>
<totfact> 0.40613293E+03</totfact>
</mgrwt>
</event>
<event>
 8    1  0.9424564E-006  0.1308635E+03  0.7546771E-02  0.1240701E+00
         -1   -1    0    0    0  501 -0.00000000000E+00  0.00000000000E+00  0.33054902007E+02  0.33054902007E+02  0.00000000000E+00 0.  1.
          1   -1    0    0  501    0  0.00000000000E+00 -0.00000000000E+00 -0.48380245749E+03  0.48380245749E+03  0.00000000000E+00 0. -1.
         23    2    1    2    0    0 -0.35413984983E+02 -0.15803215742E+02 -0.14159496996E+03  0.19280664279E+03  0.12498549526E+03 0.  0.
         23    2    1    2    0    0  0.35413984983E+02  0.15803215742E+02 -0.30915258552E+03  0.32405071670E+03  0.89048604154E+02 0.  0.
          5    1    3    3  502    0  0.32446643571E+02  0.33122968539E+02 -0.58559796804E+02  0.74841536099E+02  0.47000000000E+01 0. -1.
         -5    1    3    3    0  502 -0.67860628554E+02 -0.48926184281E+02 -0.83035173159E+02  0.11796510670E+03  0.47000000000E+01 0. -1.
        -11    1    4    4    0    0 -0.21268349951E+02 -0.20712890154E+02 -0.96896352043E+02  0.10134233847E+03  0.00000000000E+00 0. -1.
         11    1    4    4    0    0  0.56682334934E+02  0.36516105896E+02 -0.21225623347E+03  0.22270837823E+03  0.00000000000E+00 0.  1.
<mgrwt>
<rscale>  0 0.12146422E+03</rscale>
<asrwt>0</asrwt>
<pdfrwt beam="2">  1        1 0.74431141E-01 0.13086354E+03</pdfrwt>
<pdfrwt beam="1">  1       -1 0.50853699E-02 0.13086354E+03</pdfrwt>
<totfact> 0.77229746E+03</totfact>
</mgrwt>
</event>
<event>
 8    1  0.9424564E-006  0.2519748E+03  0.7546771E-02  0.1114459E+00
          1   -1    0    0  501    0  0.00000000000E+00  0.00000000000E+00  0.96668306107E+02  0.96668306107E+02  0.00000000000E+00 0. -1.
         -1   -1    0    0    0  501 -0.00000000000E+00 -0.00000000000E+00 -0.86384160105E+03  0.86384160105E+03  0.00000000000E+00 0.  1.
         23    2    1    2    0    0  0.40182408311E+02  0.21505278185E+03 -0.64767220938E+03  0.69496083993E+03  0.12501581224E+03 0.  0.
         23    2    1    2    0    0 -0.40182408311E+02 -0.21505278185E+03 -0.11950108556E+03  0.26554906723E+03  0.91506681386E+02 0.  0.
          5    1    3    3  502    0  0.81269042952E+02  0.17481859100E+03 -0.52778621926E+03  0.56191332102E+03  0.47000000000E+01 0. -1.
         -5    1    3    3    0  502 -0.41086634641E+02  0.40234190840E+02 -0.11988599013E+03  0.13304751891E+03  0.47000000000E+01 0. -1.
        -11    1    4    4    0    0 -0.52874084600E+01 -0.74392771404E+02 -0.91329888598E+02  0.11791263578E+03  0.00000000000E+00 0.  1.
         11    1    4    4    0    0 -0.34894999851E+02 -0.14066001044E+03 -0.28171196960E+02  0.14763643145E+03  0.00000000000E+00 0. -1.
<mgrwt>
<rscale>  0 0.24818149E+03</rscale>
<asrwt>0</asrwt>
<pdfrwt beam="1">  1        1 0.14872048E-01 0.25197476E+03</pdfrwt>
<pdfrwt beam="2">  1       -1 0.13289870E+00 0.25197476E+03</pdfrwt>
<totfact> 0.19520130E+02</totfact>
</mgrwt>
</event>
<event>
 8    1  0.9424564E-006  0.1419217E+03  0.7546771E-02  0.1222300E+00
         -2   -1    0    0    0  501 -0.00000000000E+00  0.00000000000E+00  0.36426378361E+02  0.36426378361E+02  0.00000000000E+00 0.  1.
          2   -1    0    0  501    0  0.00000000000E+00 -0.00000000000E+00 -0.44189018177E+03  0.44189018177E+03  0.00000000000E+00 0. -1.
         23    2    1    2    0    0 -0.25859023923E+02  0.62027296986E+02 -0.24325961746E+03  0.28163277839E+03  0.12500282272E+03 0.  0.
         23    2    1    2    0    0  0.25859023923E+02 -0.62027296986E+02 -0.16220418596E+03  0.19668378175E+03  0.88646699719E+02 0.  0.
          5    1    3    3  502    0 -0.60579086051E+01  0.88498666650E+02 -0.96657869921E+02  0.13127660139E+03  0.47000000000E+01 0.  1.
         -5    1    3    3    0  502 -0.19801115318E+02 -0.26471369665E+02 -0.14660174753E+03  0.15035617699E+03  0.47000000000E+01 0.  1.
        -11    1    4    4    0    0 -0.21316938648E+02 -0.16848710585E+02 -0.66526071381E+01  0.27974061261E+02  0.00000000000E+00 0.  1.
         11    1    4    4    0    0  0.47175962571E+02 -0.45178586401E+02 -0.15555157882E+03  0.16870972049E+03  0.00000000000E+00 0. -1.
<mgrwt>
<rscale>  0 0.13353707E+03</rscale>
<asrwt>0</asrwt>
<pdfrwt beam="2">  1        2 0.67983101E-01 0.14192174E+03</pdfrwt>
<pdfrwt beam="1">  1       -2 0.56040585E-02 0.14192174E+03</pdfrwt>
<totfact> 0.11189016E+04</totfact>
</mgrwt>
</event>
<event>
 8    1  0.9424564E-006  0.2862817E+03  0.7546771E-02  0.1094105E+00
         -2   -1    0    0    0  501 -0.00000000000E+00  0.00000000000E+00  0.46678263002E+03  0.46678263002E+03  0.00000000000E+00 0.  1.
          2   -1    0    0  501    0  0.00000000000E+00 -0.00000000000E+00 -0.22609744152E+03  0.22609744152E+03  0.00000000000E+00 0. -1.
         23    2    1    2    0    0 -0.10282151799E+03  0.23613057738E+03  0.29868187402E+03  0.41372466860E+03  0.12500930127E+03 0.  0.
         23    2    1    2    0    0  0.10282151799E+03 -0.23613057738E+03 -0.57996685522E+02  0.27915540293E+03  0.90742544161E+02 0.  0.
          5    1    3    3  502    0 -0.99726702451E+02  0.77119975766E+02  0.11490573588E+03  0.17064092119E+03  0.47000000000E+01 0.  1.
         -5    1    3    3    0  502 -0.30948155436E+01  0.15901060161E+03  0.18377613814E+03  0.24308374741E+03  0.47000000000E+01 0.  1.
        -11    1    4    4    0    0  0.67506259900E+02 -0.61901346490E+02  0.17622858214E+01  0.91607736978E+02  0.00000000000E+00 0.  1.
         11    1    4    4    0    0  0.35315258095E+02 -0.17422923089E+03 -0.59758971343E+02  0.18754766596E+03  0.00000000000E+00 0. -1.
<mgrwt>
<rscale>  0 0.28291859E+03</rscale>
<asrwt>0</asrwt>
<pdfrwt beam="2">  1        2 0.34784222E-01 0.28628175E+03</pdfrwt>
<pdfrwt beam="1">  1       -2 0.71812712E-01 0.28628175E+03</pdfrwt>
<totfact> 0.27015757E+02</totfact>
</mgrwt>
</event>
<event>
 7    1  0.9424564E-006  0.1424263E+03  0.7546771E-02  0.1223858E+00
         -1   -1    0    0    0  501 -0.00000000000E+00  0.00000000000E+00  0.10461719865E+04  0.10461719865E+04  0.00000000000E+00 0.  1.
          1   -1    0    0  501    0  0.00000000000E+00 -0.00000000000E+00 -0.33039919418E+02  0.33039919418E+02  0.00000000000E+00 0. -1.
         23    2    1    2    0    0 -0.12704247591E+02 -0.55805474746E+02  0.74900311264E+02  0.13023135560E+03  0.89858224076E+02 0.  0.
          5    1    1    2  502    0 -0.52345258288E+02  0.30406013861E+01  0.23868189613E+03  0.24441851170E+03  0.47000000000E+01 0. -1.
         -5    1    1    2    0  502  0.65049505879E+02  0.52764873360E+02  0.69954985964E+03  0.70456203858E+03  0.47000000000E+01 0.  1.
        -11    1    3    3    0    0 -0.34895718837E+01 -0.65029618516E+02  0.89481821984E+02  0.11067079498E+03  0.00000000000E+00 0.  1.
         11    1    3    3    0    0 -0.92146757077E+01  0.92241437691E+01 -0.14581510720E+02  0.19560560614E+02  0.00000000000E+00 0. -1.
<mgrwt>
<rscale>  0 0.13245486E+03</rscale>
<asrwt>0</asrwt>
<pdfrwt beam="2">  1        1 0.50830653E-02 0.14242632E+03</pdfrwt>
<pdfrwt beam="1">  1       -1 0.16094951E+00 0.14242632E+03</pdfrwt>
<totfact> 0.50673074E+02</totfact>
</mgrwt>
</event>
<event>
 8    1  0.9424564E-006  0.1742732E+03  0.7546771E-02  0.1180718E+00
         -1   -1    0    0    0  501 -0.00000000000E+00  0.00000000000E+00  0.85310603544E+02  0.85310603544E+02  0.00000000000E+00 0.  1.
          1   -1    0    0  501    0  0.00000000000E+00 -0.00000000000E+00 -0.31210270979E+03  0.31210270979E+03  0.00000000000E+00 0. -1.
         23    2    1    2    0    0  0.11419110960E+03  0.41318189159E+02 -0.90956202317E+02  0.19658121443E+03  0.12499736341E+03 0.  0.
         23    2    1    2    0    0 -0.11419110960E+03 -0.41318189159E+02 -0.13583590393E+03  0.20083209890E+03  0.84470923328E+02 0.  0.
          5    1    3    3  502    0  0.11121819197E+03 -0.12555178967E+02 -0.87798033982E+02  0.14232955952E+03  0.47000000000E+01 0. -1.
         -5    1    3    3    0  502  0.29729176292E+01  0.53873368126E+02 -0.31581683346E+01  0.54251654903E+02  0.47000000000E+01 0. -1.
        -11    1    4    4    0    0 -0.89562018345E+02 -0.17356427518E+01 -0.48581921875E+02  0.10190471392E+03  0.00000000000E+00 0.  1.
         11    1    4    4    0    0 -0.24629091251E+02 -0.39582546408E+02 -0.87253982051E+02  0.98927384984E+02  0.00000000000E+00 0. -1.
<mgrwt>
<rscale>  0 0.16727620E+03</rscale>
<asrwt>0</asrwt>
<pdfrwt beam="2">  1        1 0.48015801E-01 0.17427319E+03</pdfrwt>
<pdfrwt beam="1">  1       -1 0.13124708E-01 0.17427319E+03</pdfrwt>
<totfact> 0.32426213E+03</totfact>
</mgrwt>
</event>
<event>
 7    1  0.9424564E-006  0.1255835E+03  0.7546771E-02  0.1280816E+00
          4   -1    0    0  501    0  0.00000000000E+00  0.00000000000E+00  0.65384719922E+02  0.65384719922E+02  0.00000000000E+00 0. -1.
         -4   -1    0    0    0  501 -0.00000000000E+00 -0.00000000000E+00 -0.14504266157E+03  0.14504266157E+03  0.00000000000E+00 0.  1.
         23    2    1    2    0    0 -0.27569013444E+01  0.11747115161E+02 -0.95734963966E+02  0.15791266797E+03  0.12500252862E+03 0.  0.
          5    1    3    3  502    0  0.34541527869E+02 -0.41809919247E+02 -0.20412127658E+02  0.58137177868E+02  0.47000000000E+01 0. -1.
         -5    1    3    3    0  502 -0.37298429213E+02  0.53557034408E+02 -0.75322836308E+02  0.99775490106E+02  0.47000000000E+01 0. -1.
        -11    1    1    2    0    0 -0.10873556274E+02  0.15845484581E+02  0.61419389571E+01  0.20175158533E+02  0.00000000000E+00 0.  1.
         11    1    1    2    0    0  0.13630457618E+02 -0.27592599743E+02  0.99350833580E+01  0.32339554987E+02  0.00000000000E+00 0. -1.
<mgrwt>
<rscale>  0 0.99753327E+02</rscale>
<asrwt>0</asrwt>
<pdfrwt beam="1">  1        4 0.10059188E-01 0.12558355E+03</pdfrwt>
<pdfrwt beam="2">  1       -4 0.22314255E-01 0.12558355E+03</pdfrwt>
<totfact> 0.22385766E+03</totfact>
</mgrwt>
</event>
<event>
 8    1  0.9424564E-006  0.1281745E+03  0.7546771E-02  0.1245251E+00
         -2   -1    0    0    0  501 -0.00000000000E+00  0.00000000000E+00  0.52144814122E+02  0.52144814122E+02  0.00000000000E+00 0.  1.
          2   -1    0    0  501    0  0.00000000000E+00 -0.00000000000E+00 -0.25429448984E+03  0.25429448984E+03  0.00000000000E+00 0. -1.
         23    2    1    2    0    0  0.24199359464E+02  0.13024006351E+02 -0.76224277816E+02  0.14912691202E+03  0.12519369640E+03 0.  0.
         23    2    1    2    0    0 -0.24199359464E+02 -0.13024006351E+02 -0.12592539790E+03  0.15731239194E+03  0.90192843856E+02 0.  0.
          5    1    3    3  502    0  0.25991600143E+02  0.10427362692E+02 -0.11065160089E+03  0.11423729667E+03  0.47000000000E+01 0.  1.
         -5    1    3    3    0  502 -0.17922406791E+01  0.25966436591E+01  0.34427323075E+02  0.34889615347E+02  0.47000000000E+01 0.  1.
        -11    1    4    4    0    0 -0.28535381414E+02 -0.49364213282E+02 -0.67361460894E+02  0.88253384973E+02  0.00000000000E+00 0.  1.
         11    1    4    4    0    0  0.43360219504E+01  0.36340206931E+02 -0.58563937004E+02  0.69059006969E+02  0.00000000000E+00 0. -1.
<mgrwt>
<rscale>  0 0.11870357E+03</rscale>
<asrwt>0</asrwt>
<pdfrwt beam="2">  1        2 0.39122229E-01 0.12817447E+03</pdfrwt>
<pdfrwt beam="1">  1       -2 0.80222792E-02 0.12817447E+03</pdfrwt>
<totfact> 0.11557785E+04</totfact>
</mgrwt>
</event>
<event>
 8    1  0.9424564E-006  0.1363126E+03  0.7546771E-02  0.1229663E+00
          2   -1    0    0  501    0  0.00000000000E+00  0.00000000000E+00  0.25615065709E+03  0.25615065709E+03  0.00000000000E+00 0. -1.
         -2   -1    0    0    0  501 -0.00000000000E+00 -0.00000000000E+00 -0.58789792411E+02  0.58789792411E+02  0.00000000000E+00 0.  1.
         23    2    1    2    0    0 -0.54054991288E+02 -0.59912861106E+01  0.93478392375E+02  0.16528560808E+03  0.12499313903E+03 0.  0.
         23    2    1    2    0    0  0.54054991288E+02  0.59912861106E+01  0.10388247230E+03  0.14965484142E+03  0.92990138815E+02 0.  0.
          5    1    3    3  502    0 -0.89277711912E+02 -0.28682417068E+02  0.69171723129E+02  0.11661907294E+03  0.47000000000E+01 0.  1.
         -5    1    3    3    0  502  0.35222720624E+02  0.22691130957E+02  0.24306669247E+02  0.48666535136E+02  0.47000000000E+01 0.  1.
        -11    1    4    4    0    0  0.54560234420E+02  0.19292778938E+02  0.11727256463E+03  0.13077417526E+03  0.00000000000E+00 0. -1.
         11    1    4    4    0    0 -0.50524313224E+00 -0.13301492827E+02 -0.13390092332E+02  0.18880666161E+02  0.00000000000E+00 0.  1.
<mgrwt>
<rscale>  0 0.12852353E+03</rscale>
<asrwt>0</asrwt>
<pdfrwt beam="1">  1        2 0.39407793E-01 0.13631259E+03</pdfrwt>
<pdfrwt beam="2">  1       -2 0.90445836E-02 0.13631259E+03</pdfrwt>
<totfact> 0.95684773E+03</totfact>
</mgrwt>
</event>
<event>
 8    1  0.9424564E-006  0.1366175E+03  0.7546771E-02  0.1230178E+00
         -2   -1    0    0    0  501 -0.00000000000E+00  0.00000000000E+00  0.57885013296E+02  0.57885013296E+02  0.00000000000E+00 0.  1.
          2   -1    0    0  501    0  0.00000000000E+00 -0.00000000000E+00 -0.27228656282E+03  0.27228656282E+03  0.00000000000E+00 0. -1.
         23    2    1    2    0    0 -0.25440112236E+01 -0.55060812171E+02 -0.77372140026E+02  0.15700566152E+03  0.12500465858E+03 0.  0.
         23    2    1    2    0    0  0.25440112236E+01  0.55060812171E+02 -0.13702940950E+03  0.17316591460E+03  0.90394744766E+02 0.  0.
          5    1    3    3  502    0 -0.60761562327E+01 -0.77195989258E+02 -0.98816835030E+02  0.12563039965E+03  0.47000000000E+01 0.  1.
         -5    1    3    3    0  502  0.35321450090E+01  0.22135177087E+02  0.21444695004E+02  0.31375261861E+02  0.47000000000E+01 0.  1.
        -11    1    4    4    0    0  0.79954630224E+01 -0.16337975276E+02  0.40705324240E+00  0.18194025321E+02  0.00000000000E+00 0.  1.
         11    1    4    4    0    0 -0.54514517987E+01  0.71398787446E+02 -0.13743646274E+03  0.15497188927E+03  0.00000000000E+00 0. -1.
<mgrwt>
<rscale>  0 0.12818208E+03</rscale>
<asrwt>0</asrwt>
<pdfrwt beam="2">  1        2 0.41890242E-01 0.13661746E+03</pdfrwt>
<pdfrwt beam="1">  1       -2 0.89053864E-02 0.13661746E+03</pdfrwt>
<totfact> 0.91882797E+03</totfact>
</mgrwt>
</event>
<event>
 8    1  0.9424564E-006  0.1788377E+03  0.7546771E-02  0.1174442E+00
          1   -1    0    0  501    0  0.00000000000E+00  0.00000000000E+00  0.45068490276E+02  0.45068490276E+02  0.00000000000E+00 0. -1.
         -1   -1    0    0    0  501 -0.00000000000E+00 -0.00000000000E+00 -0.63276440082E+03  0.63276440082E+03  0.00000000000E+00 0.  1.
         23    2    1    2    0    0 -0.94112804944E+01 -0.12755420785E+03 -0.34046420371E+03  0.38457610970E+03  0.12499704799E+03 0.  0.
         23    2    1    2    0    0  0.94112804944E+01  0.12755420785E+03 -0.24723170684E+03  0.29325678140E+03  0.92289624717E+02 0.  0.
          5    1    3    3  502    0  0.24608503828E+02 -0.65949589052E+02 -0.52071069699E+02  0.87683596278E+02  0.47000000000E+01 0.  1.
         -5    1    3    3    0  502 -0.34019784322E+02 -0.61604618793E+02 -0.28839313401E+03  0.29689251343E+03  0.47000000000E+01 0.  1.
        -11    1    4    4    0    0 -0.26981700275E+02  0.78178950012E+02 -0.79730096619E+02  0.11487753776E+03  0.00000000000E+00 0.  1.
         11    1    4    4    0    0  0.36392980770E+02  0.49375257833E+02 -0.16750161022E+03  0.17837924364E+03  0.00000000000E+00 0. -1.
<mgrwt>
<rscale>  0 0.17330730E+03</rscale>
<asrwt>0</asrwt>
<pdfrwt beam="1">  1        1 0.69336141E-02 0.17883766E+03</pdfrwt>
<pdfrwt beam="2">  1       -1 0.97348366E-01 0.17883766E+03</pdfrwt>
<totfact> 0.11208211E+03</totfact>
</mgrwt>
</event>
<event>
 8    1  0.9424564E-006  0.1476966E+03  0.7546771E-02  0.1212960E+00
          1   -1    0    0  501    0  0.00000000000E+00  0.00000000000E+00  0.38674779570E+03  0.38674779570E+03  0.00000000000E+00 0. -1.
         -1   -1    0    0    0  501 -0.00000000000E+00 -0.00000000000E+00 -0.49456843458E+02  0.49456843458E+02  0.00000000000E+00 0.  1.
         23    2    1    2    0    0  0.67521094691E+02 -0.40364418420E+02  0.13078920330E+03  0.19728179868E+03  0.12500363150E+03 0.  0.
         23    2    1    2    0    0 -0.67521094691E+02  0.40364418420E+02  0.20650174894E+03  0.23892284048E+03  0.90844740540E+02 0.  0.
          5    1    3    3  502    0  0.69655321917E+02 -0.17881947186E+02  0.15054827668E+03  0.16690866220E+03  0.47000000000E+01 0. -1.
         -5    1    3    3    0  502 -0.21342272267E+01 -0.22482471234E+02 -0.19759073380E+02  0.30373136478E+02  0.47000000000E+01 0. -1.
        -11    1    4    4    0    0 -0.39018554886E+02 -0.26699831929E+02  0.83514870756E+02  0.95969069433E+02  0.00000000000E+00 0.  1.
         11    1    4    4    0    0 -0.28502539805E+02  0.67064250350E+02  0.12298687819E+03  0.14295377105E+03  0.00000000000E+00 0. -1.
<mgrwt>
<rscale>  0 0.14027431E+03</rscale>
<asrwt>0</asrwt>
<pdfrwt beam="1">  1        1 0.59499659E-01 0.14769662E+03</pdfrwt>
<pdfrwt beam="2">  1       -1 0.76087454E-02 0.14769662E+03</pdfrwt>
<totfact> 0.56712707E+03</totfact>
</mgrwt>
</event>
<event>
 8    1  0.9424564E-006  0.1310969E+03  0.7546771E-02  0.1238536E+00
         -1   -1    0    0    0  501 -0.00000000000E+00  0.00000000000E+00  0.10869521240E+03  0.10869521240E+03  0.00000000000E+00 0.  1.
          1   -1    0    0  501    0  0.00000000000E+00 -0.00000000000E+00 -0.12503574433E+03  0.12503574433E+03  0.00000000000E+00 0. -1.
         23    2    1    2    0    0 -0.34092463695E+02 -0.19952451729E+02  0.20666390883E+01  0.13111319699E+03  0.12500401200E+03 0.  0.
         23    2    1    2    0    0  0.34092463695E+02  0.19952451729E+02 -0.18407171016E+02  0.10261775974E+03  0.92904167068E+02 0.  0.
          5    1    3    3  502    0 -0.69379542618E+02 -0.27326632047E+02  0.34590304818E+02  0.82333741202E+02  0.47000000000E+01 0. -1.
         -5    1    3    3    0  502  0.35287078923E+02  0.73741803186E+01 -0.32523665730E+02  0.48779455787E+02  0.47000000000E+01 0. -1.
        -11    1    4    4    0    0 -0.21543669148E+02 -0.21267091280E+02 -0.13665058629E+02  0.33213742325E+02  0.00000000000E+00 0. -1.
         11    1    4    4    0    0  0.55636132843E+02  0.41219543009E+02 -0.47421123866E+01  0.69404017416E+02  0.00000000000E+00 0.  1.
<mgrwt>
<rscale>  0 0.12280740E+03</rscale>
<asrwt>0</asrwt>
<pdfrwt beam="2">  1        1 0.19236268E-01 0.13109691E+03</pdfrwt>
<pdfrwt beam="1">  1       -1 0.16722340E-01 0.13109691E+03</pdfrwt>
<totfact> 0.68567669E+03</totfact>
</mgrwt>
</event>
<event>
 8    1  0.9424564E-006  0.1511843E+03  0.7546771E-02  0.1207053E+00
         -4   -1    0    0    0  501 -0.00000000000E+00  0.00000000000E+00  0.98769103119E+02  0.98769103119E+02  0.00000000000E+00 0.  1.
          4   -1    0    0  501    0  0.00000000000E+00 -0.00000000000E+00 -0.26363694690E+03  0.26363694690E+03  0.00000000000E+00 0. -1.
         23    2    1    2    0    0  0.78347431647E+02  0.33051959774E+02  0.37680660935E+01  0.15123125845E+03  0.12500377242E+03 0.  0.
         23    2    1    2    0    0 -0.78347431647E+02 -0.33051959774E+02 -0.16863590987E+03  0.21117479157E+03  0.94477353929E+02 0.  0.
          5    1    3    3  502    0 -0.30516708103E+01  0.63758788170E+02 -0.40953524221E+00  0.64005886313E+02  0.47000000000E+01 0.  1.
         -5    1    3    3    0  502  0.81399102457E+02 -0.30706828395E+02  0.41776013358E+01  0.87225372134E+02  0.47000000000E+01 0.  1.
        -11    1    4    4    0    0 -0.18649408208E+02 -0.21446513299E+02  0.34773822193E+01  0.28632945121E+02  0.00000000000E+00 0.  1.
         11    1    4    4    0    0 -0.59698023439E+02 -0.11605446476E+02 -0.17211329209E+03  0.18254184645E+03  0.00000000000E+00 0. -1.
<mgrwt>
<rscale>  0 0.14476854E+03</rscale>
<asrwt>0</asrwt>
<pdfrwt beam="2">  1        4 0.40559530E-01 0.15118431E+03</pdfrwt>
<pdfrwt beam="1">  1       -4 0.15195247E-01 0.15118431E+03</pdfrwt>
<totfact> 0.36972394E+02</totfact>
</mgrwt>
</event>
<event>
 8    1  0.9424564E-006  0.1159317E+03  0.7546771E-02  0.1262792E+00
         -3   -1    0    0    0  501 -0.00000000000E+00  0.00000000000E+00  0.88865957406E+02  0.88865957406E+02  0.00000000000E+00 0.  1.
          3   -1    0    0  501    0  0.00000000000E+00 -0.00000000000E+00 -0.12861143923E+03  0.12861143923E+03  0.00000000000E+00 0. -1.
         23    2    1    2    0    0 -0.24116726286E+02 -0.19872391591E+02  0.69137589485E+01  0.11613767406E+03  0.11164063257E+03 0.  0.
         23    2    1    2    0    0  0.24116726286E+02  0.19872391591E+02 -0.46659240770E+02  0.10133972257E+03  0.84357134771E+02 0.  0.
          5    1    3    3  502    0  0.17019312783E+01  0.38403841340E+02 -0.23560730415E+02  0.45331552118E+02  0.47000000000E+01 0. -1.
         -5    1    3    3    0  502 -0.25818657564E+02 -0.58276232931E+02  0.30474489363E+02  0.70806121946E+02  0.47000000000E+01 0.  1.
        -11    1    4    4    0    0  0.20154002022E+02 -0.13952385961E+02 -0.59961131548E+02  0.64778006823E+02  0.00000000000E+00 0. -1.
         11    1    4    4    0    0  0.39627242636E+01  0.33824777552E+02  0.13301890778E+02  0.36561715746E+02  0.00000000000E+00 0.  1.
<mgrwt>
<rscale>  0 0.10880855E+03</rscale>
<asrwt>0</asrwt>
<pdfrwt beam="2">  1        3 0.19786375E-01 0.11593170E+03</pdfrwt>
<pdfrwt beam="1">  1       -3 0.13671686E-01 0.11593170E+03</pdfrwt>
<totfact> 0.22155021E+03</totfact>
</mgrwt>
</event>
<event>
 8    1  0.9424564E-006  0.1591767E+03  0.7546771E-02  0.1196604E+00
         -1   -1    0    0    0  501 -0.00000000000E+00  0.00000000000E+00  0.30155947041E+03  0.30155947041E+03  0.00000000000E+00 0.  1.
          1   -1    0    0  501    0  0.00000000000E+00 -0.00000000000E+00 -0.72539731618E+02  0.72539731618E+02  0.00000000000E+00 0. -1.
         23    2    1    2    0    0  0.52861522293E+02  0.83173441600E+02  0.11920073886E+03  0.19886184384E+03  0.12500021945E+03 0.  0.
         23    2    1    2    0    0 -0.52861522293E+02 -0.83173441600E+02  0.10981899993E+03  0.17523735819E+03  0.94529133249E+02 0.  0.
          5    1    3    3  502    0 -0.69173195584E+00  0.20359233814E+02  0.11412938152E+03  0.11602836989E+03  0.47000000000E+01 0.  1.
         -5    1    3    3    0  502  0.53553254248E+02  0.62814207786E+02  0.50713573419E+01  0.82833473944E+02  0.47000000000E+01 0.  1.
        -11    1    4    4    0    0 -0.27294945992E+02 -0.46709973827E+02  0.11813550061E+03  0.12993395336E+03  0.00000000000E+00 0.  1.
         11    1    4    4    0    0 -0.25566576301E+02 -0.36463467773E+02 -0.83165006761E+01  0.45303404831E+02  0.00000000000E+00 0. -1.
<mgrwt>
<rscale>  0 0.15319281E+03</rscale>
<asrwt>0</asrwt>
<pdfrwt beam="2">  1        1 0.11159959E-01 0.15917668E+03</pdfrwt>
<pdfrwt beam="1">  1       -1 0.46393764E-01 0.15917668E+03</pdfrwt>
<totfact> 0.25452427E+03</totfact>
</mgrwt>
</event>
<event>
 8    1  0.9424564E-006  0.1267368E+03  0.7546771E-02  0.1242245E+00
         -1   -1    0    0    0  501 -0.00000000000E+00  0.00000000000E+00  0.21002095626E+03  0.21002095626E+03  0.00000000000E+00 0.  1.
          1   -1    0    0  501    0  0.00000000000E+00 -0.00000000000E+00 -0.52637775699E+03  0.52637775699E+03  0.00000000000E+00 0. -1.
         23    2    1    2    0    0  0.32514394321E+02  0.19347917810E+02  0.18510816660E+03  0.22433735342E+03  0.12095737693E+03 0.  0.
         23    2    1    2    0    0 -0.32514394321E+02 -0.19347917810E+02 -0.50146496733E+03  0.51206135984E+03  0.96478987460E+02 0.  0.
          5    1    3    3  502    0 -0.41964979461E+02 -0.15259233576E+01  0.10352879038E+03  0.11181989260E+03  0.47000000000E+01 0. -1.
         -5    1    3    3    0  502  0.74479373781E+02  0.20873841167E+02  0.81579376223E+02  0.11251746082E+03  0.47000000000E+01 0.  1.
        -11    1    4    4    0    0 -0.44491371365E+02  0.29375188462E+02 -0.27185434900E+03  0.27703279751E+03  0.00000000000E+00 0. -1.
         11    1    4    4    0    0  0.11976977044E+02 -0.48723106272E+02 -0.22961061832E+03  0.23502856233E+03  0.00000000000E+00 0.  1.
<mgrwt>
<rscale>  0 0.12051779E+03</rscale>
<asrwt>0</asrwt>
<pdfrwt beam="2">  1        1 0.80981193E-01 0.12673679E+03</pdfrwt>
<pdfrwt beam="1">  1       -1 0.32310916E-01 0.12673679E+03</pdfrwt>
<totfact> 0.38633189E+02</totfact>
</mgrwt>
</event>
<event>
 8    1  0.9424564E-006  0.1524142E+03  0.7546771E-02  0.1205794E+00
         -3   -1    0    0    0  501 -0.00000000000E+00  0.00000000000E+00  0.22669541539E+03  0.22669541539E+03  0.00000000000E+00 0.  1.
          3   -1    0    0  501    0  0.00000000000E+00 -0.00000000000E+00 -0.10903607862E+03  0.10903607862E+03  0.00000000000E+00 0. -1.
         23    2    1    2    0    0 -0.79387114125E+02 -0.36072318088E+02  0.13926319197E+03  0.20645660468E+03  0.12500626767E+03 0.  0.
         23    2    1    2    0    0  0.79387114125E+02  0.36072318088E+02 -0.21603855192E+02  0.12927488933E+03  0.92960983381E+02 0.  0.
          5    1    3    3  502    0 -0.24271041071E+02  0.42735555288E+02  0.20224639468E+02  0.53352948954E+02  0.47000000000E+01 0.  1.
         -5    1    3    3    0  502 -0.55116073054E+02 -0.78807873376E+02  0.11903855250E+03  0.15310365572E+03  0.47000000000E+01 0.  1.
        -11    1    4    4    0    0 -0.18047313623E+02  0.22527280801E+02 -0.81077475763E+01  0.29981985926E+02  0.00000000000E+00 0. -1.
         11    1    4    4    0    0  0.97434427748E+02  0.13545037287E+02 -0.13496107616E+02  0.99292903405E+02  0.00000000000E+00 0.  1.
<mgrwt>
<rscale>  0 0.14575047E+03</rscale>
<asrwt>0</asrwt>
<pdfrwt beam="2">  1        3 0.16774781E-01 0.15241422E+03</pdfrwt>
<pdfrwt beam="1">  1       -3 0.34876218E-01 0.15241422E+03</pdfrwt>
<totfact> 0.58213348E+02</totfact>
</mgrwt>
</event>
<event>
 7    1  0.9424564E-006  0.9656506E+03  0.7546771E-02  0.9347042E-01
         -2   -1    0    0    0  501 -0.00000000000E+00  0.00000000000E+00  0.20342324078E+03  0.20342324078E+03  0.00000000000E+00 0.  1.
          2   -1    0    0  501    0  0.00000000000E+00 -0.00000000000E+00 -0.11459864587E+04  0.11459864587E+04  0.00000000000E+00 0. -1.
         23    2    1    2    0    0  0.25025976174E+02  0.18634689237E+03 -0.36764156012E+03  0.42322900876E+03  0.92795545970E+02 0.  0.
          5    1    1    2  502    0  0.79977068991E+02  0.10307863812E+03 -0.60301160632E+03  0.61698186728E+03  0.47000000000E+01 0. -1.
         -5    1    1    2    0  502 -0.10500304516E+03 -0.28942553050E+03  0.28089948524E+02  0.30919882342E+03  0.47000000000E+01 0.  1.
        -11    1    3    3    0    0 -0.21500496628E+02  0.46877911321E+01 -0.33996250129E+02  0.40496811773E+02  0.00000000000E+00 0. -1.
         11    1    3    3    0    0  0.46526472801E+02  0.18165910124E+03 -0.33364530999E+03  0.38273219699E+03  0.00000000000E+00 0.  1.
<mgrwt>
<rscale>  0 0.96565062E+03</rscale>
<asrwt>0</asrwt>
<pdfrwt beam="2">  1        2 0.17630561E+00 0.96565062E+03</pdfrwt>
<pdfrwt beam="1">  1       -2 0.31295884E-01 0.96565062E+03</pdfrwt>
<totfact> 0.19311978E+02</totfact>
</mgrwt>
</event>
<event>
 8    1  0.9424564E-006  0.1340674E+03  0.7546771E-02  0.1234522E+00
          1   -1    0    0  501    0  0.00000000000E+00  0.00000000000E+00  0.17727241366E+02  0.17727241366E+02  0.00000000000E+00 0. -1.
         -1   -1    0    0    0  501 -0.00000000000E+00 -0.00000000000E+00 -0.80181932115E+03  0.80181932115E+03  0.00000000000E+00 0.  1.
         23    2    1    2    0    0 -0.34799605568E+02 -0.33733303752E+02 -0.49505681233E+03  0.51288918731E+03  0.12500049077E+03 0.  0.
         23    2    1    2    0    0  0.34799605568E+02  0.33733303752E+02 -0.28903526745E+03  0.30665737520E+03  0.90268552706E+02 0.  0.
          5    1    3    3  502    0 -0.44005833884E+02 -0.58622815465E+02 -0.47121775164E+03  0.47690817499E+03  0.47000000000E+01 0. -1.
         -5    1    3    3    0  502  0.92062283156E+01  0.24889511713E+02 -0.23839060695E+02  0.35981012325E+02  0.47000000000E+01 0. -1.
        -11    1    4    4    0    0  0.29678431387E+02 -0.25986101535E+02 -0.15298514240E+03  0.15798905202E+03  0.00000000000E+00 0.  1.
         11    1    4    4    0    0  0.51211741811E+01  0.59719405287E+02 -0.13605012505E+03  0.14866832318E+03  0.00000000000E+00 0. -1.
<mgrwt>
<rscale>  0 0.12535089E+03</rscale>
<asrwt>0</asrwt>
<pdfrwt beam="1">  1        1 0.27272684E-02 0.13406741E+03</pdfrwt>
<pdfrwt beam="2">  1       -1 0.12335679E+00 0.13406741E+03</pdfrwt>
<totfact> 0.23329597E+03</totfact>
</mgrwt>
</event>
<event>
 8    1  0.9424564E-006  0.2626830E+03  0.7546771E-02  0.1107728E+00
          1   -1    0    0  501    0  0.00000000000E+00  0.00000000000E+00  0.88207193346E+03  0.88207193346E+03  0.00000000000E+00 0. -1.
         -1   -1    0    0    0  501 -0.00000000000E+00 -0.00000000000E+00 -0.11700873343E+03  0.11700873343E+03  0.00000000000E+00 0.  1.
         23    2    1    2    0    0  0.71765246402E+02  0.21958368256E+03  0.86608431799E+02  0.27659244120E+03  0.12504044877E+03 0.  0.
         23    2    1    2    0    0 -0.71765246402E+02 -0.21958368256E+03  0.67845476823E+03  0.72248822570E+03  0.91220170478E+02 0.  0.
          5    1    3    3  502    0  0.37719979715E+02  0.22095917862E+03  0.90897951944E+02  0.24193032706E+03  0.47000000000E+01 0. -1.
         -5    1    3    3    0  502  0.34045266687E+02 -0.13754960538E+01 -0.42895201453E+01  0.34662114134E+02  0.47000000000E+01 0. -1.
        -11    1    4    4    0    0  0.13470347680E+02 -0.18431255597E+02  0.26890944478E+02  0.35274414870E+02  0.00000000000E+00 0.  1.
         11    1    4    4    0    0 -0.85235594082E+02 -0.20115242697E+03  0.65156382375E+03  0.68721381083E+03  0.00000000000E+00 0. -1.
<mgrwt>
<rscale>  0 0.25902959E+03</rscale>
<asrwt>0</asrwt>
<pdfrwt beam="1">  1        1 0.13570337E+00 0.26268300E+03</pdfrwt>
<pdfrwt beam="2">  1       -1 0.18001344E-01 0.26268300E+03</pdfrwt>
<totfact> 0.47548026E+02</totfact>
</mgrwt>
</event>
<event>
 8    1  0.9424564E-006  0.1307481E+03  0.7546771E-02  0.1240215E+00
          2   -1    0    0  501    0  0.00000000000E+00  0.00000000000E+00  0.32814880596E+03  0.32814880596E+03  0.00000000000E+00 0. -1.
         -2   -1    0    0    0  501 -0.00000000000E+00 -0.00000000000E+00 -0.65400927662E+02  0.65400927662E+02  0.00000000000E+00 0.  1.
         23    2    1    2    0    0 -0.36113464254E+02 -0.12939112234E+02  0.20820312533E+02  0.13239541747E+03  0.12499383276E+03 0.  0.
         23    2    1    2    0    0  0.36113464254E+02  0.12939112234E+02  0.24192756577E+03  0.26115431615E+03  0.90559520989E+02 0.  0.
          5    1    3    3  502    0 -0.91015518814E+01 -0.68228973040E+02  0.12619605393E+02  0.70138259524E+02  0.47000000000E+01 0. -1.
         -5    1    3    3    0  502 -0.27011912373E+02  0.55289860806E+02  0.82007071393E+01  0.62257157947E+02  0.47000000000E+01 0. -1.
        -11    1    4    4    0    0  0.20473108325E+02 -0.38557843181E+02  0.91300325135E+02  0.10120081425E+03  0.00000000000E+00 0. -1.
         11    1    4    4    0    0  0.15640355930E+02  0.51496955415E+02  0.15062724063E+03  0.15995350190E+03  0.00000000000E+00 0.  1.
<mgrwt>
<rscale>  0 0.12176419E+03</rscale>
<asrwt>0</asrwt>
<pdfrwt beam="1">  1        2 0.50484431E-01 0.13074808E+03</pdfrwt>
<pdfrwt beam="2">  1       -2 0.10061681E-01 0.13074808E+03</pdfrwt>
<totfact> 0.62115391E+03</totfact>
</mgrwt>
</event>
<event>
 8    1  0.9424564E-006  0.1505914E+03  0.7546771E-02  0.1211039E+00
         -4   -1    0    0    0  501 -0.00000000000E+00  0.00000000000E+00  0.81555055448E+02  0.81555055448E+02  0.00000000000E+00 0.  1.
          4   -1    0    0  501    0  0.00000000000E+00 -0.00000000000E+00 -0.26331891196E+03  0.26331891196E+03  0.00000000000E+00 0. -1.
         23    2    1    2    0    0  0.54240687442E+02  0.64113966666E+02 -0.31672374291E+02  0.15388605755E+03  0.12500050608E+03 0.  0.
         23    2    1    2    0    0 -0.54240687442E+02 -0.64113966666E+02 -0.15009148222E+03  0.19098790986E+03  0.83043818437E+02 0.  0.
          5    1    3    3  502    0 -0.22990020730E+02 -0.19068818624E+02  0.11506901649E+02  0.32352120216E+02  0.47000000000E+01 0. -1.
         -5    1    3    3    0  502  0.77230708172E+02  0.83182785290E+02 -0.43179275941E+02  0.12153393734E+03  0.47000000000E+01 0. -1.
        -11    1    4    4    0    0 -0.29184222051E+02 -0.30458909929E+01 -0.26709211634E+01  0.29464047389E+02  0.00000000000E+00 0.  1.
         11    1    4    4    0    0 -0.25056465391E+02 -0.61068075673E+02 -0.14742056106E+03  0.16152386247E+03  0.00000000000E+00 0. -1.
<mgrwt>
<rscale>  0 0.14171565E+03</rscale>
<asrwt>0</asrwt>
<pdfrwt beam="2">  1        4 0.40510603E-01 0.15059143E+03</pdfrwt>
<pdfrwt beam="1">  1       -4 0.12546931E-01 0.15059143E+03</pdfrwt>
<totfact> 0.51643193E+02</totfact>
</mgrwt>
</event>
<event>
 8    1  0.9424564E-006  0.1181384E+03  0.7546771E-02  0.1254550E+00
         -2   -1    0    0    0  501 -0.00000000000E+00  0.00000000000E+00  0.41965487845E+02  0.41965487845E+02  0.00000000000E+00 0.  1.
          2   -1    0    0  501    0  0.00000000000E+00 -0.00000000000E+00 -0.39219512427E+03  0.39219512427E+03  0.00000000000E+00 0. -1.
         23    2    1    2    0    0 -0.36263492060E+02  0.30811702759E+01 -0.71627307763E+02  0.13815625940E+03  0.11239282151E+03 0.  0.
         23    2    1    2    0    0  0.36263492060E+02 -0.30811702759E+01 -0.27860232866E+03  0.29600435271E+03  0.93138524912E+02 0.  0.
          5    1    3    3  502    0  0.24964355477E+01 -0.44553080539E+02 -0.60889715703E+02  0.75636344797E+02  0.47000000000E+01 0. -1.
         -5    1    3    3    0  502 -0.38759927608E+02  0.47634250814E+02 -0.10737592060E+02  0.62519914604E+02  0.47000000000E+01 0.  1.
        -11    1    4    4    0    0 -0.13692125788E+02  0.23787025586E+02 -0.28565254197E+02  0.39614020777E+02  0.00000000000E+00 0.  1.
         11    1    4    4    0    0  0.49955617848E+02 -0.26868195862E+02 -0.25003707446E+03  0.25639033193E+03  0.00000000000E+00 0. -1.
<mgrwt>
<rscale>  0 0.11331558E+03</rscale>
<asrwt>0</asrwt>
<pdfrwt beam="2">  1        2 0.60337712E-01 0.11813840E+03</pdfrwt>
<pdfrwt beam="1">  1       -2 0.64562288E-02 0.11813840E+03</pdfrwt>
<totfact> 0.10122029E+04</totfact>
</mgrwt>
</event>
<event>
 7    1  0.9424564E-006  0.8122758E+03  0.7546771E-02  0.1012862E+00
         -1   -1    0    0    0  501 -0.00000000000E+00  0.00000000000E+00  0.84353208498E+03  0.84353208498E+03  0.00000000000E+00 0.  1.
          1   -1    0    0  501    0  0.00000000000E+00 -0.00000000000E+00 -0.32727792258E+03  0.32727792258E+03  0.00000000000E+00 0. -1.
         23    2    1    2    0    0  0.69309815068E+02 -0.33852440979E+02 -0.96000682432E+02  0.15363351406E+03  0.91854708043E+02 0.  0.
          5    1    1    2  502    0 -0.30951061356E+03 -0.93215121115E+02 -0.25144444052E+02  0.32425331421E+03  0.47000000000E+01 0. -1.
         -5    1    1    2    0  502  0.24020079849E+03  0.12706756209E+03  0.63739928888E+03  0.69292317929E+03  0.47000000000E+01 0.  1.
        -11    1    3    3    0    0  0.60664772488E+01  0.25337168326E+02 -0.24957977756E+01  0.26172566774E+02  0.00000000000E+00 0. -1.
         11    1    3    3    0    0  0.63243337820E+02 -0.59189609305E+02 -0.93504884656E+02  0.12746094728E+03  0.00000000000E+00 0.  1.
<mgrwt>
<rscale>  0 0.50352890E+03</rscale>
<asrwt>0</asrwt>
<pdfrwt beam="2">  1        1 0.50350450E-01 0.81227583E+03</pdfrwt>
<pdfrwt beam="1">  1       -1 0.12977417E+00 0.81227583E+03</pdfrwt>
<totfact> 0.40495431E+01</totfact>
</mgrwt>
</event>
<event>
 8    1  0.9424564E-006  0.1376031E+03  0.7546771E-02  0.1221704E+00
         -1   -1    0    0    0  501 -0.00000000000E+00  0.00000000000E+00  0.19654065838E+02  0.19654065838E+02  0.00000000000E+00 0.  1.
          1   -1    0    0  501    0  0.00000000000E+00 -0.00000000000E+00 -0.87186318245E+03  0.87186318245E+03  0.00000000000E+00 0. -1.
         23    2    1    2    0    0  0.67310415728E+01 -0.82174020228E+02 -0.41809833409E+03  0.44015999309E+03  0.11016680999E+03 0.  0.
         23    2    1    2    0    0 -0.67310415728E+01  0.82174020228E+02 -0.43411078252E+03  0.45135725520E+03  0.92050658884E+02 0.  0.
          5    1    3    3  502    0  0.30131694744E+02 -0.82933399843E+02 -0.40142468283E+03  0.41103495450E+03  0.47000000000E+01 0. -1.
         -5    1    3    3    0  502 -0.23400653171E+02  0.75937961481E+00 -0.16673651264E+02  0.29125038588E+02  0.47000000000E+01 0.  1.
        -11    1    4    4    0    0 -0.22280786535E+02  0.98472737880E+02 -0.36131454035E+03  0.37515531533E+03  0.00000000000E+00 0. -1.
         11    1    4    4    0    0  0.15549744963E+02 -0.16298717652E+02 -0.72796242167E+02  0.76201939865E+02  0.00000000000E+00 0.  1.
<mgrwt>
<rscale>  0 0.13395386E+03</rscale>
<asrwt>0</asrwt>
<pdfrwt beam="2">  1        1 0.13413278E+00 0.13760306E+03</pdfrwt>
<pdfrwt beam="1">  1       -1 0.30237028E-02 0.13760306E+03</pdfrwt>
<totfact> 0.72577198E+03</totfact>
</mgrwt>
</event>
<event>
 8    1  0.9424564E-006  0.1536001E+03  0.7546771E-02  0.1204904E+00
          2   -1    0    0  501    0  0.00000000000E+00  0.00000000000E+00  0.73041809575E+03  0.73041809575E+03  0.00000000000E+00 0. -1.
         -2   -1    0    0    0  501 -0.00000000000E+00 -0.00000000000E+00 -0.30738125092E+02  0.30738125092E+02  0.00000000000E+00 0.  1.
         23    2    1    2    0    0  0.83303965751E+02 -0.32024962102E+02  0.24567686431E+03  0.28974143182E+03  0.12501130647E+03 0.  0.
         23    2    1    2    0    0 -0.83303965751E+02  0.32024962102E+02  0.45400310634E+03  0.47141478902E+03  0.90265906261E+02 0.  0.
          5    1    3    3  502    0  0.10029903114E+03 -0.62530456610E+02  0.18536541403E+03  0.21989174693E+03  0.47000000000E+01 0.  1.
         -5    1    3    3    0  502 -0.16995065390E+02  0.30505494508E+02  0.60311450285E+02  0.69849684883E+02  0.47000000000E+01 0.  1.
        -11    1    4    4    0    0 -0.13972559545E+01  0.26583025703E+02  0.32583701619E+02  0.42075018609E+02  0.00000000000E+00 0.  1.
         11    1    4    4    0    0 -0.81906709796E+02  0.54419363988E+01  0.42141940472E+03  0.42933977041E+03  0.00000000000E+00 0. -1.
<mgrwt>
<rscale>  0 0.14645050E+03</rscale>
<asrwt>0</asrwt>
<pdfrwt beam="1">  1        2 0.11237200E+00 0.15360005E+03</pdfrwt>
<pdfrwt beam="2">  1       -2 0.47289429E-02 0.15360005E+03</pdfrwt>
<totfact> 0.82160729E+03</totfact>
</mgrwt>
</event>
<event>
 8    1  0.9424564E-006  0.1284477E+03  0.7546771E-02  0.1244514E+00
          2   -1    0    0  501    0  0.00000000000E+00  0.00000000000E+00  0.11620200661E+03  0.11620200661E+03  0.00000000000E+00 0. -1.
         -2   -1    0    0    0  501 -0.00000000000E+00 -0.00000000000E+00 -0.11962899542E+03  0.11962899542E+03  0.00000000000E+00 0.  1.
         23    2    1    2    0    0 -0.22414285163E+02 -0.19346037189E+02 -0.39105876348E+02  0.13426869883E+03  0.12498857783E+03 0.  0.
         23    2    1    2    0    0  0.22414285163E+02  0.19346037189E+02  0.35678887542E+02  0.10156230319E+03  0.90361767796E+02 0.  0.
          5    1    3    3  502    0 -0.62583477553E+02 -0.36839533018E+02  0.36578253074E+01  0.72865029621E+02  0.47000000000E+01 0.  1.
         -5    1    3    3    0  502  0.40169192391E+02  0.17493495829E+02 -0.42763701655E+02  0.61403669213E+02  0.47000000000E+01 0.  1.
        -11    1    4    4    0    0  0.67798125764E+00  0.45325958466E+02  0.47524588720E+02  0.65677155103E+02  0.00000000000E+00 0. -1.
         11    1    4    4    0    0  0.21736303905E+02 -0.25979921277E+02 -0.11845701178E+02  0.35885148090E+02  0.00000000000E+00 0.  1.
<mgrwt>
<rscale>  0 0.11914542E+03</rscale>
<asrwt>0</asrwt>
<pdfrwt beam="1">  1        2 0.17877232E-01 0.12844771E+03</pdfrwt>
<pdfrwt beam="2">  1       -2 0.18404461E-01 0.12844771E+03</pdfrwt>
<totfact> 0.72312312E+03</totfact>
</mgrwt>
</event>
<event>
 8    1  0.9424564E-006  0.1605960E+03  0.7546771E-02  0.1195613E+00
          2   -1    0    0  501    0  0.00000000000E+00  0.00000000000E+00  0.67219164000E+03  0.67219164000E+03  0.00000000000E+00 0. -1.
         -2   -1    0    0    0  501 -0.00000000000E+00 -0.00000000000E+00 -0.35909708905E+02  0.35909708905E+02  0.00000000000E+00 0.  1.
         23    2    1    2    0    0 -0.90681645865E+02  0.44085258677E+02  0.23662476279E+03  0.28597616943E+03  0.12499768072E+03 0.  0.
         23    2    1    2    0    0  0.90681645865E+02 -0.44085258677E+02  0.39965716830E+03  0.42212517947E+03  0.91088660331E+02 0.  0.
          5    1    3    3  502    0 -0.63167100753E+02  0.84893847344E+02  0.12467052143E+03  0.16359057689E+03  0.47000000000E+01 0. -1.
         -5    1    3    3    0  502 -0.27514545112E+02 -0.40808588666E+02  0.11195424136E+03  0.12238559254E+03  0.47000000000E+01 0. -1.
        -11    1    4    4    0    0  0.96041581713E+02 -0.34209015154E+02  0.39789743044E+03  0.41075127180E+03  0.00000000000E+00 0. -1.
         11    1    4    4    0    0 -0.53599358477E+01 -0.98762435231E+01  0.17597378635E+01  0.11373907674E+02  0.00000000000E+00 0.  1.
<mgrwt>
<rscale>  0 0.15402504E+03</rscale>
<asrwt>0</asrwt>
<pdfrwt beam="1">  1        2 0.10341409E+00 0.16059605E+03</pdfrwt>
<pdfrwt beam="2">  1       -2 0.55245711E-02 0.16059605E+03</pdfrwt>
<totfact> 0.71933511E+03</totfact>
</mgrwt>
</event>
<event>
 8    1  0.9424564E-006  0.1370365E+03  0.7546771E-02  0.1228379E+00
         -2   -1    0    0    0  501 -0.00000000000E+00  0.00000000000E+00  0.39327347104E+02  0.39327347104E+02  0.00000000000E+00 0. -1.
          2   -1    0    0  501    0  0.00000000000E+00 -0.00000000000E+00 -0.40633375347E+03  0.40633375347E+03  0.00000000000E+00 0.  1.
         23    2    1    2    0    0  0.37782985823E+02 -0.41526762397E+02 -0.15197604408E+03  0.20463559725E+03  0.12500793445E+03 0.  0.
         23    2    1    2    0    0 -0.37782985823E+02  0.41526762397E+02 -0.21503036228E+03  0.24102550332E+03  0.93290999218E+02 0.  0.
          5    1    3    3  502    0  0.13595118503E+02  0.44242361290E+02 -0.39285357470E+02  0.60890418714E+02  0.47000000000E+01 0. -1.
         -5    1    3    3    0  502  0.24187867320E+02 -0.85769123687E+02 -0.11269068661E+03  0.14374517854E+03  0.47000000000E+01 0. -1.
        -11    1    4    4    0    0 -0.36325849351E+02 -0.22982676858E+02 -0.10519466833E+03  0.11363841345E+03  0.00000000000E+00 0.  1.
         11    1    4    4    0    0 -0.14571364727E+01  0.64509439255E+02 -0.10983569395E+03  0.12738708987E+03  0.00000000000E+00 0. -1.
<mgrwt>
<rscale>  0 0.12937967E+03</rscale>
<asrwt>0</asrwt>
<pdfrwt beam="2">  1        2 0.62512882E-01 0.13703653E+03</pdfrwt>
<pdfrwt beam="1">  1       -2 0.60503614E-02 0.13703653E+03</pdfrwt>
<totfact> 0.10876268E+04</totfact>
</mgrwt>
</event>
<event>
 8    1  0.9424564E-006  0.1259693E+03  0.7546771E-02  0.1241866E+00
          2   -1    0    0  501    0  0.00000000000E+00  0.00000000000E+00  0.48614175274E+02  0.48614175274E+02  0.00000000000E+00 0.  1.
         -2   -1    0    0    0  501 -0.00000000000E+00 -0.00000000000E+00 -0.29815833760E+03  0.29815833760E+03  0.00000000000E+00 0. -1.
         23    2    1    2    0    0 -0.78156011928E+01 -0.13525951850E+02 -0.18000133876E+03  0.21970148040E+03  0.12499689412E+03 0.  0.
         23    2    1    2    0    0  0.78156011928E+01  0.13525951850E+02 -0.69542823575E+02  0.12707103248E+03  0.10519889728E+03 0.  0.
          5    1    3    3  502    0  0.20427886211E+02  0.35962239262E+02 -0.13661326337E+02  0.43809850777E+02  0.47000000000E+01 0.  1.
         -5    1    3    3    0  502 -0.28243487404E+02 -0.49488191112E+02 -0.16634001242E+03  0.17589162962E+03  0.47000000000E+01 0.  1.
        -11    1    4    4    0    0  0.26315727983E+02  0.43905678271E+02 -0.75287377578E+02  0.91040734544E+02  0.00000000000E+00 0. -1.
         11    1    4    4    0    0 -0.18500126790E+02 -0.30379726420E+02  0.57445540033E+01  0.36030297935E+02  0.00000000000E+00 0.  1.
<mgrwt>
<rscale>  0 0.12074950E+03</rscale>
<asrwt>0</asrwt>
<pdfrwt beam="1">  1        2 0.74791037E-02 0.12596928E+03</pdfrwt>
<pdfrwt beam="2">  1       -2 0.45870515E-01 0.12596928E+03</pdfrwt>
<totfact> 0.40109755E+03</totfact>
</mgrwt>
</event>
<event>
 8    1  0.9424564E-006  0.1400437E+03  0.7546771E-02  0.1225389E+00
         -3   -1    0    0    0  501 -0.00000000000E+00  0.00000000000E+00  0.24570057591E+03  0.24570057591E+03  0.00000000000E+00 0.  1.
          3   -1    0    0  501    0  0.00000000000E+00 -0.00000000000E+00 -0.77063516424E+02  0.77063516424E+02  0.00000000000E+00 0. -1.
         23    2    1    2    0    0 -0.53315414535E+02  0.33764814399E+02  0.16181389447E+03  0.21399996632E+03  0.12501861071E+03 0.  0.
         23    2    1    2    0    0  0.53315414535E+02 -0.33764814399E+02  0.68231650138E+01  0.10876412601E+03  0.88320345377E+02 0.  0.
          5    1    3    3  502    0  0.35697915714E+01 -0.42180069524E+02  0.32680037144E+02  0.53684043296E+02  0.47000000000E+01 0. -1.
         -5    1    3    3    0  502 -0.56885206106E+02  0.75944883923E+02  0.12913385733E+03  0.16031592303E+03  0.47000000000E+01 0. -1.
        -11    1    4    4    0    0  0.46427504568E+02 -0.56583194984E+02 -0.16917909859E+02  0.75122478720E+02  0.00000000000E+00 0. -1.
         11    1    4    4    0    0  0.68879099666E+01  0.22818380585E+02  0.23741074873E+02  0.33641647290E+02  0.00000000000E+00 0.  1.
<mgrwt>
<rscale>  0 0.13140295E+03</rscale>
<asrwt>0</asrwt>
<pdfrwt beam="2">  1        3 0.11855926E-01 0.14004374E+03</pdfrwt>
<pdfrwt beam="1">  1       -3 0.37800088E-01 0.14004374E+03</pdfrwt>
<totfact> 0.89109143E+02</totfact>
</mgrwt>
</event>
<event>
 8    1  0.9424564E-006  0.1512323E+03  0.7546771E-02  0.1206093E+00
         -1   -1    0    0    0  501 -0.00000000000E+00  0.00000000000E+00  0.37900917438E+02  0.37900917438E+02  0.00000000000E+00 0.  1.
          1   -1    0    0  501    0  0.00000000000E+00 -0.00000000000E+00 -0.56121049608E+03  0.56121049608E+03  0.00000000000E+00 0. -1.
         23    2    1    2    0    0 -0.35300843156E+02  0.77450755185E+02 -0.19969060464E+03  0.25049460598E+03  0.12500576403E+03 0.  0.
         23    2    1    2    0    0  0.35300843156E+02 -0.77450755185E+02 -0.32361897401E+03  0.34861680754E+03  0.97773560603E+02 0.  0.
          5    1    3    3  502    0 -0.55474983908E+02 -0.13977129067E+02 -0.71770252569E+02  0.91901540414E+02  0.47000000000E+01 0. -1.
         -5    1    3    3    0  502  0.20174140752E+02  0.91427884252E+02 -0.12792035207E+03  0.15859306557E+03  0.47000000000E+01 0. -1.
        -11    1    4    4    0    0 -0.13209962197E+02 -0.20074967555E+02 -0.98405771417E+01  0.25968141676E+02  0.00000000000E+00 0.  1.
         11    1    4    4    0    0  0.48510805354E+02 -0.57375787630E+02 -0.31377839687E+03  0.32264866586E+03  0.00000000000E+00 0. -1.
<mgrwt>
<rscale>  0 0.14551623E+03</rscale>
<asrwt>0</asrwt>
<pdfrwt beam="2">  1        1 0.86340076E-01 0.15123230E+03</pdfrwt>
<pdfrwt beam="1">  1       -1 0.58309104E-02 0.15123230E+03</pdfrwt>
<totfact> 0.52260864E+03</totfact>
</mgrwt>
</event>
<event>
 8    1  0.9424564E-006  0.1311636E+03  0.7546771E-02  0.1238581E+00
         -2   -1    0    0    0  501 -0.00000000000E+00  0.00000000000E+00  0.27824258289E+02  0.27824258289E+02  0.00000000000E+00 0. -1.
          2   -1    0    0  501    0  0.00000000000E+00 -0.00000000000E+00 -0.50486331334E+03  0.50486331334E+03  0.00000000000E+00 0.  1.
         23    2    1    2    0    0  0.25066933837E+02 -0.30982197920E+02 -0.21361472100E+03  0.25066938382E+03  0.12496256720E+03 0.  0.
         23    2    1    2    0    0 -0.25066933837E+02  0.30982197920E+02 -0.26342433405E+03  0.28201818780E+03  0.92485840648E+02 0.  0.
          5    1    3    3  502    0 -0.21445498500E+02  0.19401858139E+02 -0.33903763857E+01  0.29494510628E+02  0.47000000000E+01 0. -1.
         -5    1    3    3    0  502  0.46512432337E+02 -0.50384056059E+02 -0.21022434461E+03  0.22117487320E+03  0.47000000000E+01 0. -1.
        -11    1    4    4    0    0  0.24158640491E+02  0.39693195107E+02 -0.16780288398E+03  0.17411776911E+03  0.00000000000E+00 0.  1.
         11    1    4    4    0    0 -0.49225574327E+02 -0.87109971870E+01 -0.95621450078E+02  0.10790041870E+03  0.00000000000E+00 0. -1.
<mgrwt>
<rscale>  0 0.12277920E+03</rscale>
<asrwt>0</asrwt>
<pdfrwt beam="2">  1        2 0.77671272E-01 0.13116360E+03</pdfrwt>
<pdfrwt beam="1">  1       -2 0.42806555E-02 0.13116360E+03</pdfrwt>
<totfact> 0.14412383E+04</totfact>
</mgrwt>
</event>
<event>
 8    1  0.9424564E-006  0.1347488E+03  0.7546771E-02  0.1230994E+00
          1   -1    0    0  501    0  0.00000000000E+00  0.00000000000E+00  0.67680699039E+02  0.67680699039E+02  0.00000000000E+00 0. -1.
         -1   -1    0    0    0  501 -0.00000000000E+00 -0.00000000000E+00 -0.24137248177E+03  0.24137248177E+03  0.00000000000E+00 0.  1.
         23    2    1    2    0    0  0.36520503201E+01 -0.50177377255E+02 -0.14258289676E+03  0.19618133774E+03  0.12500451259E+03 0.  0.
         23    2    1    2    0    0 -0.36520503201E+01  0.50177377255E+02 -0.31108885968E+02  0.11287184307E+03  0.96131074641E+02 0.  0.
          5    1    3    3  502    0 -0.19796787360E+01 -0.56086232810E+02 -0.31234578765E+01  0.56404172078E+02  0.47000000000E+01 0.  1.
         -5    1    3    3    0  502  0.56317290561E+01  0.59088555549E+01 -0.13945943888E+03  0.13977716566E+03  0.47000000000E+01 0.  1.
        -11    1    4    4    0    0 -0.28983322009E+02  0.21798506809E+01  0.22371142990E+02  0.36677687255E+02  0.00000000000E+00 0. -1.
         11    1    4    4    0    0  0.25331271689E+02  0.47997526574E+02 -0.53480028959E+02  0.76194155813E+02  0.00000000000E+00 0.  1.
<mgrwt>
<rscale>  0 0.12764425E+03</rscale>
<asrwt>0</asrwt>
<pdfrwt beam="1">  1        1 0.10412415E-01 0.13474878E+03</pdfrwt>
<pdfrwt beam="2">  1       -1 0.37134227E-01 0.13474878E+03</pdfrwt>
<totfact> 0.40989150E+03</totfact>
</mgrwt>
</event>
<event>
 8    1  0.9424564E-006  0.1566213E+03  0.7546771E-02  0.1200454E+00
         -1   -1    0    0    0  501 -0.00000000000E+00  0.00000000000E+00  0.37574260285E+03  0.37574260285E+03  0.00000000000E+00 0.  1.
          1   -1    0    0  501    0  0.00000000000E+00 -0.00000000000E+00 -0.56562195134E+02  0.56562195134E+02  0.00000000000E+00 0. -1.
         23    2    1    2    0    0 -0.49206446014E+02  0.80611549662E+02  0.20445865607E+03  0.25755304366E+03  0.12494291492E+03 0.  0.
         23    2    1    2    0    0  0.49206446014E+02 -0.80611549662E+02  0.11472175165E+03  0.17475175433E+03  0.91965205761E+02 0.  0.
          5    1    3    3  502    0  0.12715443322E+02  0.24315526214E+02  0.16051872573E+03  0.16291494291E+03  0.47000000000E+01 0.  1.
         -5    1    3    3    0  502 -0.61921889336E+02  0.56296023448E+02  0.43939930340E+02  0.94638100749E+02  0.47000000000E+01 0.  1.
        -11    1    4    4    0    0 -0.15920242813E+01 -0.73679596681E+02  0.94018827529E+02  0.11946027557E+03  0.00000000000E+00 0.  1.
         11    1    4    4    0    0  0.50798470295E+02 -0.69319529813E+01  0.20702924119E+02  0.55291478761E+02  0.00000000000E+00 0. -1.
<mgrwt>
<rscale>  0 0.15001519E+03</rscale>
<asrwt>0</asrwt>
<pdfrwt beam="2">  1        1 0.87018764E-02 0.15662129E+03</pdfrwt>
<pdfrwt beam="1">  1       -1 0.57806553E-01 0.15662129E+03</pdfrwt>
<totfact> 0.23607617E+03</totfact>
</mgrwt>
</event>
<event>
 7    1  0.9424564E-006  0.1968712E+03  0.7546771E-02  0.1169006E+00
          2   -1    0    0  501    0  0.00000000000E+00  0.00000000000E+00  0.70747972125E+03  0.70747972125E+03  0.00000000000E+00 0. -1.
         -2   -1    0    0    0  501 -0.00000000000E+00 -0.00000000000E+00 -0.39577589843E+02  0.39577589843E+02  0.00000000000E+00 0.  1.
         23    2    1    2    0    0  0.98265830110E+02  0.79098365265E+00  0.32808490189E+03  0.35433089548E+03  0.90850875721E+02 0.  0.
          5    1    1    2  502    0 -0.12951464503E+03 -0.43519661735E+02  0.28650017848E+03  0.31744676169E+03  0.47000000000E+01 0. -1.
         -5    1    1    2    0  502  0.31248814920E+02  0.42728678082E+02  0.53317051036E+02  0.75279653929E+02  0.47000000000E+01 0.  1.
        -11    1    3    3    0    0 -0.14017660379E+02 -0.14603235755E+02  0.42304586568E+02  0.46898052643E+02  0.00000000000E+00 0. -1.
         11    1    3    3    0    0  0.11228349049E+03  0.15394219408E+02  0.28578031533E+03  0.30743284284E+03  0.00000000000E+00 0.  1.
<mgrwt>
<rscale>  0 0.17876222E+03</rscale>
<asrwt>0</asrwt>
<pdfrwt beam="1">  1        2 0.10884302E+00 0.19687125E+03</pdfrwt>
<pdfrwt beam="2">  1       -2 0.60888605E-02 0.19687125E+03</pdfrwt>
<totfact> 0.58909639E+03</totfact>
</mgrwt>
</event>
<event>
 8    1  0.9424564E-006  0.1314120E+03  0.7546771E-02  0.1237818E+00
          2   -1    0    0  501    0  0.00000000000E+00  0.00000000000E+00  0.58496674413E+03  0.58496674413E+03  0.00000000000E+00 0. -1.
         -2   -1    0    0    0  501 -0.00000000000E+00 -0.00000000000E+00 -0.25042789973E+02  0.25042789973E+02  0.00000000000E+00 0.  1.
         23    2    1    2    0    0  0.37293544124E+02 -0.15765509272E+02  0.23149821905E+03  0.26619642022E+03  0.12501899455E+03 0.  0.
         23    2    1    2    0    0 -0.37293544124E+02  0.15765509272E+02  0.32842573511E+03  0.34381311388E+03  0.93298628502E+02 0.  0.
          5    1    3    3  502    0 -0.31413685180E+02  0.15805296270E+02  0.18263286159E+02  0.39903190701E+02  0.47000000000E+01 0.  1.
         -5    1    3    3    0  502  0.68707229305E+02 -0.31570805543E+02  0.21323493289E+03  0.22629322952E+03  0.47000000000E+01 0.  1.
        -11    1    4    4    0    0 -0.53108808576E+02 -0.23743044312E+02  0.21264635720E+03  0.22046031600E+03  0.00000000000E+00 0.  1.
         11    1    4    4    0    0  0.15815264452E+02  0.39508553584E+02  0.11577937791E+03  0.12335279788E+03  0.00000000000E+00 0. -1.
<mgrwt>
<rscale>  0 0.12325719E+03</rscale>
<asrwt>0</asrwt>
<pdfrwt beam="1">  1        2 0.89994873E-01 0.13141198E+03</pdfrwt>
<pdfrwt beam="2">  1       -2 0.38527374E-02 0.13141198E+03</pdfrwt>
<totfact> 0.14307781E+04</totfact>
</mgrwt>
</event>
<event>
 8    1  0.9424564E-006  0.1264961E+03  0.7546771E-02  0.1248552E+00
         -2   -1    0    0    0  501 -0.00000000000E+00  0.00000000000E+00  0.35752584532E+02  0.35752584532E+02  0.00000000000E+00 0.  1.
          2   -1    0    0  501    0  0.00000000000E+00 -0.00000000000E+00 -0.35537419331E+03  0.35537419331E+03  0.00000000000E+00 0. -1.
         23    2    1    2    0    0  0.77735657991E+01 -0.17825000343E+02 -0.13537415533E+03  0.18527663176E+03  0.12499243731E+03 0.  0.
         23    2    1    2    0    0 -0.77735657991E+01  0.17825000343E+02 -0.18424745345E+03  0.20585014608E+03  0.89716216902E+02 0.  0.
          5    1    3    3  502    0  0.50083464421E+01  0.94751036890E+01  0.22289034215E+02  0.25174434854E+02  0.47000000000E+01 0.  1.
         -5    1    3    3    0  502  0.27652193570E+01 -0.27300104032E+02 -0.15766318954E+03  0.16010219691E+03  0.47000000000E+01 0.  1.
        -11    1    4    4    0    0 -0.43902775872E+02  0.30205401953E+02 -0.98779294426E+02  0.11223711081E+03  0.00000000000E+00 0. -1.
         11    1    4    4    0    0  0.36129210073E+02 -0.12380401610E+02 -0.85468159021E+02  0.93613035262E+02  0.00000000000E+00 0.  1.
<mgrwt>
<rscale>  0 0.11675300E+03</rscale>
<asrwt>0</asrwt>
<pdfrwt beam="2">  1        2 0.54672949E-01 0.12649612E+03</pdfrwt>
<pdfrwt beam="1">  1       -2 0.55003980E-02 0.12649612E+03</pdfrwt>
<totfact> 0.14396511E+04</totfact>
</mgrwt>
</event>
<event>
 8    1  0.9424564E-006  0.1534605E+03  0.7546771E-02  0.1203928E+00
         -3   -1    0    0    0  501 -0.00000000000E+00  0.00000000000E+00  0.21184615867E+03  0.21184615867E+03  0.00000000000E+00 0.  1.
          3   -1    0    0  501    0  0.00000000000E+00 -0.00000000000E+00 -0.96816696064E+02  0.96816696064E+02  0.00000000000E+00 0. -1.
         23    2    1    2    0    0 -0.46959195738E+02 -0.75634266976E+02  0.84299314249E+02  0.17508999705E+03  0.12499769709E+03 0.  0.
         23    2    1    2    0    0  0.46959195738E+02  0.75634266976E+02  0.30730148355E+02  0.13357285768E+03  0.94718835965E+02 0.  0.
          5    1    3    3  502    0 -0.11255031031E+02 -0.24096825957E+02  0.10537329348E+03  0.10877938097E+03  0.47000000000E+01 0. -1.
         -5    1    3    3    0  502 -0.35704164707E+02 -0.51537441019E+02 -0.21073979231E+02  0.66310616080E+02  0.47000000000E+01 0. -1.
        -11    1    4    4    0    0 -0.27743296668E+02  0.19246592013E+02 -0.34284920430E+01  0.33939304233E+02  0.00000000000E+00 0. -1.
         11    1    4    4    0    0  0.74702492406E+02  0.56387674963E+02  0.34158640398E+02  0.99633553451E+02  0.00000000000E+00 0.  1.
<mgrwt>
<rscale>  0 0.14722274E+03</rscale>
<asrwt>0</asrwt>
<pdfrwt beam="2">  1        3 0.14894876E-01 0.15346052E+03</pdfrwt>
<pdfrwt beam="1">  1       -3 0.32591717E-01 0.15346052E+03</pdfrwt>
<totfact> 0.81251604E+02</totfact>
</mgrwt>
</event>
<event>
 8    1  0.9424564E-006  0.1886432E+03  0.7546771E-02  0.1164647E+00
         -2   -1    0    0    0  501 -0.00000000000E+00  0.00000000000E+00  0.33215960595E+03  0.33215960595E+03  0.00000000000E+00 0.  1.
          2   -1    0    0  501    0  0.00000000000E+00 -0.00000000000E+00 -0.10302387631E+03  0.10302387631E+03  0.00000000000E+00 0. -1.
         23    2    1    2    0    0 -0.12281935275E+03 -0.69855479924E+02  0.17813693846E+03  0.25945909898E+03  0.12498749424E+03 0.  0.
         23    2    1    2    0    0  0.12281935275E+03  0.69855479924E+02  0.50998791177E+02  0.17572438328E+03  0.91180045462E+02 0.  0.
          5    1    3    3  502    0 -0.10978992558E+03 -0.88838475266E+02  0.18696281988E+03  0.23435718138E+03  0.47000000000E+01 0. -1.
         -5    1    3    3    0  502 -0.13029427172E+02  0.18982995342E+02 -0.88258814205E+01  0.25101917605E+02  0.47000000000E+01 0. -1.
        -11    1    4    4    0    0  0.17753524467E+02  0.19101989979E+02  0.52952526090E+02  0.59025788191E+02  0.00000000000E+00 0.  1.
         11    1    4    4    0    0  0.10506582829E+03  0.50753489944E+02 -0.19537349133E+01  0.11669859509E+03  0.00000000000E+00 0. -1.
<mgrwt>
<rscale>  0 0.18329993E+03</rscale>
<asrwt>0</asrwt>
<pdfrwt beam="2">  1        2 0.15849827E-01 0.18864320E+03</pdfrwt>
<pdfrwt beam="1">  1       -2 0.51101477E-01 0.18864320E+03</pdfrwt>
<totfact> 0.13252264E+03</totfact>
</mgrwt>
</event>
<event>
 7    1  0.9424564E-006  0.1392789E+03  0.7546771E-02  0.1233722E+00
         -1   -1    0    0    0  501 -0.00000000000E+00  0.00000000000E+00  0.58062956653E+02  0.58062956653E+02  0.00000000000E+00 0.  1.
          1   -1    0    0  501    0  0.00000000000E+00 -0.00000000000E+00 -0.30820067079E+03  0.30820067079E+03  0.00000000000E+00 0. -1.
         23    2    1    2    0    0  0.33267901393E+01 -0.51686850341E+01 -0.19587884922E+03  0.21678913462E+03  0.92688847652E+02 0.  0.
          5    1    1    2  502    0 -0.21513770347E+02  0.38206524753E+02 -0.88142411819E+02  0.98558386805E+02  0.47000000000E+01 0. -1.
         -5    1    1    2    0  502  0.18186980208E+02 -0.33037839719E+02  0.33883546898E+02  0.50916106025E+02  0.47000000000E+01 0.  1.
        -11    1    3    3    0    0 -0.40331426793E+02 -0.96176468163E+00 -0.14031883948E+03  0.14600317014E+03  0.00000000000E+00 0.  1.
         11    1    3    3    0    0  0.43658216932E+02 -0.42069203525E+01 -0.55560009739E+02  0.70785964476E+02  0.00000000000E+00 0. -1.
<mgrwt>
<rscale>  0 0.12586616E+03</rscale>
<asrwt>0</asrwt>
<pdfrwt beam="2">  1        1 0.47415486E-01 0.13927886E+03</pdfrwt>
<pdfrwt beam="1">  1       -1 0.89327628E-02 0.13927886E+03</pdfrwt>
<totfact> 0.58874719E+03</totfact>
</mgrwt>
</event>
<event>
 7    1  0.9424564E-006  0.1914776E+03  0.7546771E-02  0.1162047E+00
         -1   -1    0    0    0  501 -0.00000000000E+00  0.00000000000E+00  0.15855264489E+03  0.15855264489E+03  0.00000000000E+00 0.  1.
          1   -1    0    0  501    0  0.00000000000E+00 -0.00000000000E+00 -0.21466922165E+03  0.21466922165E+03  0.00000000000E+00 0. -1.
         23    2    1    2    0    0  0.14190230486E+03 -0.94981416771E+01 -0.61925988473E+02  0.18165612877E+03  0.94539104341E+02 0.  0.
          5    1    1    2  502    0 -0.10660923542E+03  0.58699239024E+01 -0.55612676309E+02  0.12047756990E+03  0.47000000000E+01 0. -1.
         -5    1    1    2    0  502 -0.35293069442E+02  0.36282177747E+01  0.61422088024E+02  0.71088167877E+02  0.47000000000E+01 0.  1.
        -11    1    3    3    0    0  0.63072136592E+02  0.38329114571E+02 -0.48903231510E+02  0.88536667489E+02  0.00000000000E+00 0. -1.
         11    1    3    3    0    0  0.78830168268E+02 -0.47827256248E+02 -0.13022756963E+02  0.93119461276E+02  0.00000000000E+00 0.  1.
<mgrwt>
<rscale>  0 0.18607783E+03</rscale>
<asrwt>0</asrwt>
<pdfrwt beam="2">  1        1 0.33026034E-01 0.19147763E+03</pdfrwt>
<pdfrwt beam="1">  1       -1 0.24392715E-01 0.19147763E+03</pdfrwt>
<totfact> 0.19219720E+03</totfact>
</mgrwt>
</event>
<event>
 8    1  0.9424564E-006  0.1263118E+03  0.7546771E-02  0.1247784E+00
         -1   -1    0    0    0  501 -0.00000000000E+00  0.00000000000E+00  0.17471658944E+03  0.17471658944E+03  0.00000000000E+00 0.  1.
          1   -1    0    0  501    0  0.00000000000E+00 -0.00000000000E+00 -0.10388533106E+03  0.10388533106E+03  0.00000000000E+00 0. -1.
         23    2    1    2    0    0 -0.45069417068E+01 -0.17629080522E+02  0.11879709863E+03  0.17339958551E+03  0.12499427431E+03 0.  0.
         23    2    1    2    0    0  0.45069417068E+01  0.17629080522E+02 -0.47965840251E+02  0.10520233498E+03  0.91846134655E+02 0.  0.
          5    1    3    3  502    0  0.38240989197E+02  0.26184033998E+02  0.98122735243E+02  0.10861923431E+03  0.47000000000E+01 0. -1.
         -5    1    3    3    0  502 -0.42747930904E+02 -0.43813114519E+02  0.20674363386E+02  0.64780351202E+02  0.47000000000E+01 0. -1.
        -11    1    4    4    0    0 -0.31057478442E+02 -0.19347045907E+02 -0.38349447451E+02  0.53005238159E+02  0.00000000000E+00 0. -1.
         11    1    4    4    0    0  0.35564420149E+02  0.36976126429E+02 -0.96163928005E+01  0.52197096823E+02  0.00000000000E+00 0.  1.
<mgrwt>
<rscale>  0 0.11720283E+03</rscale>
<asrwt>0</asrwt>
<pdfrwt beam="2">  1        1 0.15982359E-01 0.12631178E+03</pdfrwt>
<pdfrwt beam="1">  1       -1 0.26879475E-01 0.12631178E+03</pdfrwt>
<totfact> 0.40311536E+03</totfact>
</mgrwt>
</event>
<event>
 8    1  0.9424564E-006  0.1425953E+03  0.7546771E-02  0.1219757E+00
         -2   -1    0    0    0  501 -0.00000000000E+00  0.00000000000E+00  0.64693435714E+02  0.64693435714E+02  0.00000000000E+00 0.  1.
          2   -1    0    0  501    0  0.00000000000E+00 -0.00000000000E+00 -0.26249164144E+03  0.26249164144E+03  0.00000000000E+00 0. -1.
         23    2    1    2    0    0 -0.23206680978E+02  0.64574076341E+02 -0.13085411452E+03  0.19353609695E+03  0.12500024063E+03 0.  0.
         23    2    1    2    0    0  0.23206680978E+02 -0.64574076341E+02 -0.66944091201E+02  0.13364898021E+03  0.93124525160E+02 0.  0.
          5    1    3    3  502    0  0.39164201232E+02 -0.11766570347E+02 -0.56813905479E+02  0.70158368650E+02  0.47000000000E+01 0. -1.
         -5    1    3    3    0  502 -0.62370882210E+02  0.76340646687E+02 -0.74040209043E+02  0.12337772830E+03  0.47000000000E+01 0. -1.
        -11    1    4    4    0    0  0.20285467665E+02 -0.20290741887E+02  0.20720217091E+02  0.35391267299E+02  0.00000000000E+00 0.  1.
         11    1    4    4    0    0  0.29212133124E+01 -0.44283334454E+02 -0.87664308292E+02  0.98257712908E+02  0.00000000000E+00 0. -1.
<mgrwt>
<rscale>  0 0.13532814E+03</rscale>
<asrwt>0</asrwt>
<pdfrwt beam="2">  1        2 0.40383328E-01 0.14259531E+03</pdfrwt>
<pdfrwt beam="1">  1       -2 0.99528365E-02 0.14259531E+03</pdfrwt>
<totfact> 0.80514627E+03</totfact>
</mgrwt>
</event>
<event>
 8    1  0.9424564E-006  0.1342492E+03  0.7546771E-02  0.1228013E+00
         -2   -1    0    0    0  501 -0.00000000000E+00  0.00000000000E+00  0.16095588562E+03  0.16095588562E+03  0.00000000000E+00 0.  1.
          2   -1    0    0  501    0  0.00000000000E+00 -0.00000000000E+00 -0.19333743499E+03  0.19333743499E+03  0.00000000000E+00 0. -1.
         23    2    1    2    0    0  0.26484733835E+02  0.65753230248E+02  0.10760502223E+03  0.17205139181E+03  0.11400838654E+03 0.  0.
         23    2    1    2    0    0 -0.26484733835E+02 -0.65753230248E+02 -0.13998657160E+03  0.18224192880E+03  0.92687388396E+02 0.  0.
          5    1    3    3  502    0  0.34277397966E+02  0.12217098886E+02 -0.13684141665E+02  0.39160480713E+02  0.47000000000E+01 0. -1.
         -5    1    3    3    0  502 -0.77926641315E+01  0.53536131362E+02  0.12128916389E+03  0.13289091110E+03  0.47000000000E+01 0.  1.
        -11    1    4    4    0    0 -0.48065841916E+02 -0.35578921057E+01 -0.40544580181E+02  0.62982908295E+02  0.00000000000E+00 0.  1.
         11    1    4    4    0    0  0.21581108081E+02 -0.62195338142E+02 -0.99441991422E+02  0.11925902050E+03  0.00000000000E+00 0. -1.
<mgrwt>
<rscale>  0 0.12962520E+03</rscale>
<asrwt>0</asrwt>
<pdfrwt beam="2">  1        2 0.29744221E-01 0.13424917E+03</pdfrwt>
<pdfrwt beam="1">  1       -2 0.24762444E-01 0.13424917E+03</pdfrwt>
<totfact> 0.24805826E+03</totfact>
</mgrwt>
</event>
<event>
 8    1  0.9424564E-006  0.1378496E+03  0.7546771E-02  0.1230859E+00
         -2   -1    0    0    0  501 -0.00000000000E+00  0.00000000000E+00  0.30631418732E+02  0.30631418732E+02  0.00000000000E+00 0.  1.
          2   -1    0    0  501    0  0.00000000000E+00 -0.00000000000E+00 -0.47220956767E+03  0.47220956767E+03  0.00000000000E+00 0. -1.
         23    2    1    2    0    0 -0.39707123998E+01  0.57995642603E+02 -0.23053923077E+03  0.26860910045E+03  0.12499300300E+03 0.  0.
         23    2    1    2    0    0  0.39707123998E+01 -0.57995642603E+02 -0.21103891817E+03  0.23423188596E+03  0.83354005903E+02 0.  0.
          5    1    3    3  502    0  0.83965428016E+01  0.94117897942E+02 -0.19258397644E+03  0.21456784155E+03  0.47000000000E+01 0. -1.
         -5    1    3    3    0  502 -0.12367255201E+02 -0.36122255339E+02 -0.37955254327E+02  0.54041258895E+02  0.47000000000E+01 0. -1.
        -11    1    4    4    0    0 -0.26266042444E+02 -0.57584229139E+02 -0.18041213379E+03  0.19119201461E+03  0.00000000000E+00 0. -1.
         11    1    4    4    0    0  0.30236754844E+02 -0.41141346384E+00 -0.30626784381E+02  0.43039871352E+02  0.00000000000E+00 0.  1.
<mgrwt>
<rscale>  0 0.12773258E+03</rscale>
<asrwt>0</asrwt>
<pdfrwt beam="2">  1        2 0.72647628E-01 0.13784960E+03</pdfrwt>
<pdfrwt beam="1">  1       -2 0.47125258E-02 0.13784960E+03</pdfrwt>
<totfact> 0.13484000E+04</totfact>
</mgrwt>
</event>
<event>
 8    1  0.9424564E-006  0.2144234E+03  0.7546771E-02  0.1141666E+00
          1   -1    0    0  501    0  0.00000000000E+00  0.00000000000E+00  0.10899328513E+04  0.10899328513E+04  0.00000000000E+00 0. -1.
         -1   -1    0    0    0  501 -0.00000000000E+00 -0.00000000000E+00 -0.41302157785E+02  0.41302157785E+02  0.00000000000E+00 0.  1.
         23    2    1    2    0    0  0.17399165511E+03 -0.94024157751E+01  0.40596462155E+03  0.45911293541E+03  0.12496364288E+03 0.  0.
         23    2    1    2    0    0 -0.17399165511E+03  0.94024157751E+01  0.64266607197E+03  0.67212207368E+03  0.91470762509E+02 0.  0.
          5    1    3    3  502    0  0.66402967444E+02 -0.25460526818E+02  0.50508229001E+02  0.87354242645E+02  0.47000000000E+01 0.  1.
         -5    1    3    3    0  502  0.10758868767E+03  0.16058111043E+02  0.35545639255E+03  0.37175869277E+03  0.47000000000E+01 0.  1.
        -11    1    4    4    0    0 -0.95070331943E+02 -0.40588283783E+02  0.33886001507E+03  0.35427656797E+03  0.00000000000E+00 0. -1.
         11    1    4    4    0    0 -0.78921323169E+02  0.49990699558E+02  0.30380605690E+03  0.31784550571E+03  0.00000000000E+00 0.  1.
<mgrwt>
<rscale>  0 0.20987364E+03</rscale>
<asrwt>0</asrwt>
<pdfrwt beam="1">  1        1 0.16768196E+00 0.21442344E+03</pdfrwt>
<pdfrwt beam="2">  1       -1 0.63541789E-02 0.21442344E+03</pdfrwt>
<totfact> 0.16795505E+03</totfact>
</mgrwt>
</event>
<event>
 8    1  0.9424564E-006  0.1402207E+03  0.7546771E-02  0.1222942E+00
          1   -1    0    0  501    0  0.00000000000E+00  0.00000000000E+00  0.16860071524E+03  0.16860071524E+03  0.00000000000E+00 0. -1.
         -1   -1    0    0    0  501 -0.00000000000E+00 -0.00000000000E+00 -0.96036761646E+02  0.96036761646E+02  0.00000000000E+00 0.  1.
         23    2    1    2    0    0  0.34325089511E+02  0.53469474222E+02  0.48068222675E+02  0.14823092352E+03  0.12499862485E+03 0.  0.
         23    2    1    2    0    0 -0.34325089511E+02 -0.53469474222E+02  0.24495730923E+02  0.11640655337E+03  0.94410001534E+02 0.  0.
          5    1    3    3  502    0  0.22585701948E+02  0.54008402075E+02  0.88304510692E+02  0.10605092190E+03  0.47000000000E+01 0. -1.
         -5    1    3    3    0  502  0.11739387563E+02 -0.53892785236E+00 -0.40236288018E+02  0.42180001624E+02  0.47000000000E+01 0. -1.
        -11    1    4    4    0    0 -0.33650362169E+01 -0.75094581633E+02  0.94767733585E+01  0.75764958211E+02  0.00000000000E+00 0.  1.
         11    1    4    4    0    0 -0.30960053294E+02  0.21625107411E+02  0.15018957565E+02  0.40641595156E+02  0.00000000000E+00 0. -1.
<mgrwt>
<rscale>  0 0.13308979E+03</rscale>
<asrwt>0</asrwt>
<pdfrwt beam="1">  1        1 0.25938572E-01 0.14022073E+03</pdfrwt>
<pdfrwt beam="2">  1       -1 0.14774886E-01 0.14022073E+03</pdfrwt>
<totfact> 0.57368758E+03</totfact>
</mgrwt>
</event>
<event>
 8    1  0.9424564E-006  0.1337826E+03  0.7546771E-02  0.1234521E+00
          3   -1    0    0  501    0  0.00000000000E+00  0.00000000000E+00  0.65559670384E+02  0.65559670384E+02  0.00000000000E+00 0. -1.
         -3   -1    0    0    0  501 -0.00000000000E+00 -0.00000000000E+00 -0.22533753576E+03  0.22533753576E+03  0.00000000000E+00 0.  1.
         23    2    1    2    0    0  0.11654893152E+02 -0.46225356538E+02 -0.12206780746E+03  0.18110309441E+03  0.12500064426E+03 0.  0.
         23    2    1    2    0    0 -0.11654893152E+02  0.46225356538E+02 -0.37710057914E+02  0.10979411174E+03  0.91433464237E+02 0.  0.
          5    1    3    3  502    0  0.19790845586E+01  0.18638394471E+02 -0.11310684042E+03  0.11474560503E+03  0.47000000000E+01 0. -1.
         -5    1    3    3    0  502  0.96758085931E+01 -0.64863751010E+02 -0.89609670483E+01  0.66357489384E+02  0.47000000000E+01 0. -1.
        -11    1    4    4    0    0  0.32939957581E+02  0.11908261038E+02  0.95558473724E+01  0.36306496738E+02  0.00000000000E+00 0. -1.
         11    1    4    4    0    0 -0.44594850733E+02  0.34317095501E+02 -0.47265905287E+02  0.73487614998E+02  0.00000000000E+00 0.  1.
<mgrwt>
<rscale>  0 0.12535167E+03</rscale>
<asrwt>0</asrwt>
<pdfrwt beam="1">  1        3 0.10086103E-01 0.13378259E+03</pdfrwt>
<pdfrwt beam="2">  1       -3 0.34667314E-01 0.13378259E+03</pdfrwt>
<totfact> 0.13645701E+03</totfact>
</mgrwt>
</event>
<event>
 8    1  0.9424564E-006  0.1418793E+03  0.7546771E-02  0.1221428E+00
         -1   -1    0    0    0  501 -0.00000000000E+00  0.00000000000E+00  0.34068905617E+02  0.34068905617E+02  0.00000000000E+00 0.  1.
          1   -1    0    0  501    0  0.00000000000E+00 -0.00000000000E+00 -0.48708041389E+03  0.48708041389E+03  0.00000000000E+00 0. -1.
         23    2    1    2    0    0 -0.47537825677E+02 -0.47185989035E+02 -0.21628837141E+03  0.25867041390E+03  0.12507342239E+03 0.  0.
         23    2    1    2    0    0  0.47537825677E+02  0.47185989035E+02 -0.23672313686E+03  0.26247890561E+03  0.91493004818E+02 0.  0.
          5    1    3    3  502    0 -0.40971759385E+02  0.17783474169E+02 -0.17635389744E+03  0.18198275788E+03  0.47000000000E+01 0.  1.
         -5    1    3    3    0  502 -0.65660662921E+01 -0.64969463204E+02 -0.39934473965E+02  0.76687656024E+02  0.47000000000E+01 0.  1.
        -11    1    4    4    0    0  0.36854748205E+02  0.56072810939E+02 -0.23913881309E+03  0.24837432339E+03  0.00000000000E+00 0. -1.
         11    1    4    4    0    0  0.10683077472E+02 -0.88868219042E+01  0.24156762305E+01  0.14104582216E+02  0.00000000000E+00 0.  1.
<mgrwt>
<rscale>  0 0.13414764E+03</rscale>
<asrwt>0</asrwt>
<pdfrwt beam="2">  1        1 0.74935443E-01 0.14187926E+03</pdfrwt>
<pdfrwt beam="1">  1       -1 0.52413705E-02 0.14187926E+03</pdfrwt>
<totfact> 0.73575840E+03</totfact>
</mgrwt>
</event>
<event>
 8    1  0.9424564E-006  0.1472305E+03  0.7546771E-02  0.1213626E+00
         -1   -1    0    0    0  501 -0.00000000000E+00  0.00000000000E+00  0.70439043304E+02  0.70439043304E+02  0.00000000000E+00 0.  1.
          1   -1    0    0  501    0  0.00000000000E+00 -0.00000000000E+00 -0.34449667979E+03  0.34449667979E+03  0.00000000000E+00 0. -1.
         23    2    1    2    0    0  0.22010154036E+02  0.74618980368E+02 -0.40771218232E+02  0.15277139963E+03  0.12499747676E+03 0.  0.
         23    2    1    2    0    0 -0.22010154036E+02 -0.74618980368E+02 -0.23328641825E+03  0.26216432346E+03  0.90857803434E+02 0.  0.
          5    1    3    3  502    0 -0.36460746397E+02  0.62636491076E+02 -0.55155056828E+02  0.91196964511E+02  0.47000000000E+01 0. -1.
         -5    1    3    3    0  502  0.58470900434E+02  0.11982489292E+02  0.14383838597E+02  0.61574435117E+02  0.47000000000E+01 0. -1.
        -11    1    4    4    0    0 -0.46919105894E+02 -0.40142711774E+02 -0.69603905542E+02  0.93045921314E+02  0.00000000000E+00 0.  1.
         11    1    4    4    0    0  0.24908951858E+02 -0.34476268594E+02 -0.16368251271E+03  0.16911840215E+03  0.00000000000E+00 0. -1.
<mgrwt>
<rscale>  0 0.13977967E+03</rscale>
<asrwt>0</asrwt>
<pdfrwt beam="2">  1        1 0.52999489E-01 0.14723046E+03</pdfrwt>
<pdfrwt beam="1">  1       -1 0.10836776E-01 0.14723046E+03</pdfrwt>
<totfact> 0.38275577E+03</totfact>
</mgrwt>
</event>
<event>
 8    1  0.9424564E-006  0.1684881E+03  0.7546771E-02  0.1186209E+00
          2   -1    0    0  501    0  0.00000000000E+00  0.00000000000E+00  0.13864415421E+03  0.13864415421E+03  0.00000000000E+00 0.  1.
         -2   -1    0    0    0  501 -0.00000000000E+00 -0.00000000000E+00 -0.18604465609E+03  0.18604465609E+03  0.00000000000E+00 0. -1.
         23    2    1    2    0    0  0.11202789870E+03 -0.14241653428E+02 -0.61153515264E+02  0.17924282025E+03  0.12504063900E+03 0.  0.
         23    2    1    2    0    0 -0.11202789870E+03  0.14241653428E+02  0.13753013383E+02  0.14544599005E+03  0.90621828848E+02 0.  0.
          5    1    3    3  502    0  0.11955247678E+03 -0.32925810525E+02 -0.10508275281E+02  0.12453681204E+03  0.47000000000E+01 0.  1.
         -5    1    3    3    0  502 -0.75245780753E+01  0.18684157098E+02 -0.50645239983E+02  0.54706008213E+02  0.47000000000E+01 0.  1.
        -11    1    4    4    0    0 -0.35034266120E+02  0.46224399383E+02 -0.97723042899E+01  0.58818303546E+02  0.00000000000E+00 0. -1.
         11    1    4    4    0    0 -0.76993632583E+02 -0.31982745955E+02  0.23525317673E+02  0.86627686503E+02  0.00000000000E+00 0.  1.
<mgrwt>
<rscale>  0 0.16222388E+03</rscale>
<asrwt>0</asrwt>
<pdfrwt beam="1">  1        2 0.21329870E-01 0.16848809E+03</pdfrwt>
<pdfrwt beam="2">  1       -2 0.28622255E-01 0.16848809E+03</pdfrwt>
<totfact> 0.28026055E+03</totfact>
</mgrwt>
</event>
<event>
 8    1  0.9424564E-006  0.1985747E+03  0.7546771E-02  0.1156048E+00
          4   -1    0    0  501    0  0.00000000000E+00  0.00000000000E+00  0.57398378210E+03  0.57398378210E+03  0.00000000000E+00 0. -1.
         -4   -1    0    0    0  501 -0.00000000000E+00 -0.00000000000E+00 -0.64516738896E+02  0.64516738896E+02  0.00000000000E+00 0.  1.
         23    2    1    2    0    0  0.69349357609E+02 -0.13781675221E+03  0.19633674114E+03  0.27924903746E+03  0.12501647254E+03 0.  0.
         23    2    1    2    0    0 -0.69349357609E+02  0.13781675221E+03  0.31313030206E+03  0.35925148354E+03  0.84901423818E+02 0.  0.
          5    1    3    3  502    0  0.72608151836E+01 -0.24373287959E+02 -0.16126097485E+02  0.30478149930E+02  0.47000000000E+01 0.  1.
         -5    1    3    3    0  502  0.62088542426E+02 -0.11344346425E+03  0.21246283863E+03  0.24877088753E+03  0.47000000000E+01 0.  1.
        -11    1    4    4    0    0 -0.41676379965E+02  0.21417812339E+02  0.14864413895E+03  0.15585481505E+03  0.00000000000E+00 0. -1.
         11    1    4    4    0    0 -0.27672977644E+02  0.11639893987E+03  0.16448616311E+03  0.20339666848E+03  0.00000000000E+00 0.  1.
<mgrwt>
<rscale>  0 0.19270034E+03</rscale>
<asrwt>0</asrwt>
<pdfrwt beam="1">  1        4 0.88305194E-01 0.19857469E+03</pdfrwt>
<pdfrwt beam="2">  1       -4 0.99256525E-02 0.19857469E+03</pdfrwt>
<totfact> 0.15537198E+02</totfact>
</mgrwt>
</event>
<event>
 8    1  0.9424564E-006  0.1492711E+03  0.7546771E-02  0.1211157E+00
          2   -1    0    0  501    0  0.00000000000E+00  0.00000000000E+00  0.24154181429E+03  0.24154181429E+03  0.00000000000E+00 0. -1.
         -2   -1    0    0    0  501 -0.00000000000E+00 -0.00000000000E+00 -0.89144564230E+02  0.89144564230E+02  0.00000000000E+00 0.  1.
         23    2    1    2    0    0 -0.14322961249E+02 -0.80322974310E+02  0.18778362656E+02  0.15044763411E+03  0.12499974514E+03 0.  0.
         23    2    1    2    0    0  0.14322961249E+02  0.80322974310E+02  0.13361888740E+03  0.18023874440E+03  0.89303250182E+02 0.  0.
          5    1    3    3  502    0 -0.12510004680E+02  0.13516773623E+02  0.48331946233E+02  0.51935252121E+02  0.47000000000E+01 0. -1.
         -5    1    3    3    0  502 -0.18129565689E+01 -0.93839747933E+02 -0.29553583577E+02  0.98512381992E+02  0.47000000000E+01 0. -1.
        -11    1    4    4    0    0 -0.27292877270E+02  0.64828808420E+02  0.52541187285E+02  0.87796650917E+02  0.00000000000E+00 0.  1.
         11    1    4    4    0    0  0.41615838519E+02  0.15494165890E+02  0.81077700116E+02  0.92442093487E+02  0.00000000000E+00 0. -1.
<mgrwt>
<rscale>  0 0.14162658E+03</rscale>
<asrwt>0</asrwt>
<pdfrwt beam="1">  1        2 0.37160279E-01 0.14927111E+03</pdfrwt>
<pdfrwt beam="2">  1       -2 0.13714548E-01 0.14927111E+03</pdfrwt>
<totfact> 0.52902549E+03</totfact>
</mgrwt>
</event>
<event>
 8    1  0.9424564E-006  0.2157713E+03  0.7546771E-02  0.1140615E+00
         -1   -1    0    0    0  501 -0.00000000000E+00  0.00000000000E+00  0.46567377086E+03  0.46567377086E+03  0.00000000000E+00 0.  1.
          1   -1    0    0  501    0  0.00000000000E+00 -0.00000000000E+00 -0.97101305219E+02  0.97101305219E+02  0.00000000000E+00 0. -1.
         23    2    1    2    0    0 -0.10603990207E+03  0.14030808544E+03  0.25651519353E+03  0.33519740082E+03  0.12500573320E+03 0.  0.
         23    2    1    2    0    0  0.10603990207E+03 -0.14030808544E+03  0.11205727211E+03  0.22757767526E+03  0.91125991744E+02 0.  0.
          5    1    3    3  502    0 -0.11341150988E+01  0.47256663561E+02  0.57513541860E+01  0.47850251232E+02  0.47000000000E+01 0.  1.
         -5    1    3    3    0  502 -0.10490578697E+03  0.93051421881E+02  0.25076383935E+03  0.28734714959E+03  0.47000000000E+01 0.  1.
        -11    1    4    4    0    0  0.73857353226E+02 -0.76004190823E+02  0.11398920683E+03  0.15564409697E+03  0.00000000000E+00 0.  1.
         11    1    4    4    0    0  0.32182548845E+02 -0.64303894619E+02 -0.19319347198E+01  0.71933578287E+02  0.00000000000E+00 0. -1.
<mgrwt>
<rscale>  0 0.21120497E+03</rscale>
<asrwt>0</asrwt>
<pdfrwt beam="2">  1        1 0.14938663E-01 0.21577130E+03</pdfrwt>
<pdfrwt beam="1">  1       -1 0.71642117E-01 0.21577130E+03</pdfrwt>
<totfact> 0.76551961E+02</totfact>
</mgrwt>
</event>
<event>
 8    1  0.9424564E-006  0.1253023E+03  0.7546771E-02  0.1253247E+00
         -1   -1    0    0    0  501 -0.00000000000E+00  0.00000000000E+00  0.24091255820E+02  0.24091255820E+02  0.00000000000E+00 0.  1.
          1   -1    0    0  501    0  0.00000000000E+00 -0.00000000000E+00 -0.50508577145E+03  0.50508577145E+03  0.00000000000E+00 0. -1.
         23    2    1    2    0    0  0.41792046222E+01 -0.75510700616E+01 -0.20668442139E+03  0.24170048000E+03  0.12500475021E+03 0.  0.
         23    2    1    2    0    0 -0.41792046222E+01  0.75510700616E+01 -0.27431009424E+03  0.28747654727E+03  0.85570164301E+02 0.  0.
          5    1    3    3  502    0  0.11828407224E+02  0.52101532603E+02 -0.48148170731E+02  0.72075080727E+02  0.47000000000E+01 0. -1.
         -5    1    3    3    0  502 -0.76492026020E+01 -0.59652602665E+02 -0.15853625066E+03  0.16962539927E+03  0.47000000000E+01 0. -1.
        -11    1    4    4    0    0  0.10412922052E+02  0.43733253319E+02 -0.17741277197E+03  0.18301999357E+03  0.00000000000E+00 0. -1.
         11    1    4    4    0    0 -0.14592126674E+02 -0.36182183257E+02 -0.96897322274E+02  0.10445655370E+03  0.00000000000E+00 0.  1.
<mgrwt>
<rscale>  0 0.11405107E+03</rscale>
<asrwt>0</asrwt>
<pdfrwt beam="2">  1        1 0.77705493E-01 0.12530232E+03</pdfrwt>
<pdfrwt beam="1">  1       -1 0.37063475E-02 0.12530232E+03</pdfrwt>
<totfact> 0.11590705E+04</totfact>
</mgrwt>
</event>
<event>
 8    1  0.9424564E-006  0.1355833E+03  0.7546771E-02  0.1229632E+00
         -2   -1    0    0    0  501 -0.00000000000E+00  0.00000000000E+00  0.21310519786E+03  0.21310519786E+03  0.00000000000E+00 0.  1.
          2   -1    0    0  501    0  0.00000000000E+00 -0.00000000000E+00 -0.74423228797E+02  0.74423228797E+02  0.00000000000E+00 0. -1.
         23    2    1    2    0    0  0.48776705036E+02 -0.19419007606E+02  0.10918952066E+03  0.17408384324E+03  0.12500627282E+03 0.  0.
         23    2    1    2    0    0 -0.48776705036E+02  0.19419007606E+02  0.29492448408E+02  0.11344458343E+03  0.96143664299E+02 0.  0.
          5    1    3    3  502    0  0.66362178634E+02 -0.27519320357E+02  0.12788765825E+03  0.14676033142E+03  0.47000000000E+01 0.  1.
         -5    1    3    3    0  502 -0.17585473598E+02  0.81003127510E+01 -0.18698137594E+02  0.27323511814E+02  0.47000000000E+01 0.  1.
        -11    1    4    4    0    0 -0.84270415107E+01  0.13526765709E+02  0.60279070865E+02  0.62350259049E+02  0.00000000000E+00 0.  1.
         11    1    4    4    0    0 -0.40349663525E+02  0.58922418966E+01 -0.30786622457E+02  0.51094324376E+02  0.00000000000E+00 0. -1.
<mgrwt>
<rscale>  0 0.12854398E+03</rscale>
<asrwt>0</asrwt>
<pdfrwt beam="2">  1        2 0.11449728E-01 0.13558331E+03</pdfrwt>
<pdfrwt beam="1">  1       -2 0.32785415E-01 0.13558331E+03</pdfrwt>
<totfact> 0.44806952E+03</totfact>
</mgrwt>
</event>
<event>
 8    1  0.9424564E-006  0.1523031E+03  0.7546771E-02  0.1206101E+00
         -2   -1    0    0    0  501 -0.00000000000E+00  0.00000000000E+00  0.10928770775E+03  0.10928770775E+03  0.00000000000E+00 0. -1.
          2   -1    0    0  501    0  0.00000000000E+00 -0.00000000000E+00 -0.20515263574E+03  0.20515263574E+03  0.00000000000E+00 0.  1.
         23    2    1    2    0    0 -0.79794203981E+02 -0.34705718923E+02  0.49310363411E+01  0.15238292585E+03  0.12499855621E+03 0.  0.
         23    2    1    2    0    0  0.79794203981E+02  0.34705718923E+02 -0.10079596433E+03  0.16205741764E+03  0.92364377729E+02 0.  0.
          5    1    3    3  502    0 -0.70875976623E+02 -0.40131957302E+02  0.56706770850E+02  0.99356559519E+02  0.47000000000E+01 0.  1.
         -5    1    3    3    0  502 -0.89182273584E+01  0.54262383796E+01 -0.51775734509E+02  0.53026366329E+02  0.47000000000E+01 0.  1.
        -11    1    4    4    0    0  0.42819126561E+02  0.21158129419E+02 -0.11145844175E+03  0.12126058006E+03  0.00000000000E+00 0.  1.
         11    1    4    4    0    0  0.36975077421E+02  0.13547589503E+02  0.10662477423E+02  0.40796837579E+02  0.00000000000E+00 0. -1.
<mgrwt>
<rscale>  0 0.14551046E+03</rscale>
<asrwt>0</asrwt>
<pdfrwt beam="2">  1        2 0.31561944E-01 0.15230312E+03</pdfrwt>
<pdfrwt beam="1">  1       -2 0.16813493E-01 0.15230312E+03</pdfrwt>
<totfact> 0.45203403E+03</totfact>
</mgrwt>
</event>
<event>
 8    1  0.9424564E-006  0.1452018E+03  0.7546771E-02  0.1215877E+00
          1   -1    0    0  501    0  0.00000000000E+00  0.00000000000E+00  0.79046585025E+02  0.79046585025E+02  0.00000000000E+00 0. -1.
         -1   -1    0    0    0  501 -0.00000000000E+00 -0.00000000000E+00 -0.26148343222E+03  0.26148343222E+03  0.00000000000E+00 0.  1.
         23    2    1    2    0    0 -0.46326741117E+02  0.57557377143E+02 -0.16594012473E+03  0.22049872427E+03  0.12499817521E+03 0.  0.
         23    2    1    2    0    0  0.46326741117E+02 -0.57557377143E+02 -0.16496722465E+02  0.12003129297E+03  0.93146931422E+02 0.  0.
          5    1    3    3  502    0 -0.86820283290E+02  0.55923655182E+02 -0.10668196599E+03  0.14855419438E+03  0.47000000000E+01 0.  1.
         -5    1    3    3    0  502  0.40493542174E+02  0.16337219614E+01 -0.59258158732E+02  0.71944529893E+02  0.47000000000E+01 0.  1.
        -11    1    4    4    0    0  0.44150301148E+02 -0.26627753093E+02  0.33295071827E+02  0.61374653842E+02  0.00000000000E+00 0. -1.
         11    1    4    4    0    0  0.21764399688E+01 -0.30929624050E+02 -0.49791794292E+02  0.58656639126E+02  0.00000000000E+00 0.  1.
<mgrwt>
<rscale>  0 0.13812344E+03</rscale>
<asrwt>0</asrwt>
<pdfrwt beam="1">  1        1 0.12161013E-01 0.14520180E+03</pdfrwt>
<pdfrwt beam="2">  1       -1 0.40228219E-01 0.14520180E+03</pdfrwt>
<totfact> 0.29171054E+03</totfact>
</mgrwt>
</event>
<event>
 8    1  0.9424564E-006  0.1440748E+03  0.7546771E-02  0.1217838E+00
         -2   -1    0    0    0  501 -0.00000000000E+00  0.00000000000E+00  0.67441179120E+02  0.67441179120E+02  0.00000000000E+00 0. -1.
          2   -1    0    0  501    0  0.00000000000E+00 -0.00000000000E+00 -0.37497231707E+03  0.37497231707E+03  0.00000000000E+00 0.  1.
         23    2    1    2    0    0  0.65153437343E+02 -0.29785787187E+02 -0.38493882901E+02  0.14912859282E+03  0.12500157862E+03 0.  0.
         23    2    1    2    0    0 -0.65153437343E+02  0.29785787187E+02 -0.26903725505E+03  0.29328490337E+03  0.92210771753E+02 0.  0.
          5    1    3    3  502    0  0.86120848719E+02 -0.60076260322E+02 -0.17775031031E+02  0.10660206080E+03  0.47000000000E+01 0. -1.
         -5    1    3    3    0  502 -0.20967411376E+02  0.30290473135E+02 -0.20718851870E+02  0.42526532017E+02  0.47000000000E+01 0. -1.
        -11    1    4    4    0    0  0.50502941517E+01  0.44125483132E+02 -0.11894111813E+03  0.12696280288E+03  0.00000000000E+00 0.  1.
         11    1    4    4    0    0 -0.70203731495E+02 -0.14339695945E+02 -0.15009613691E+03  0.16632210049E+03  0.00000000000E+00 0. -1.
<mgrwt>
<rscale>  0 0.13670140E+03</rscale>
<asrwt>0</asrwt>
<pdfrwt beam="2">  1        2 0.57688049E-01 0.14407484E+03</pdfrwt>
<pdfrwt beam="1">  1       -2 0.10375566E-01 0.14407484E+03</pdfrwt>
<totfact> 0.51649228E+03</totfact>
</mgrwt>
</event>
<event>
 8    1  0.9424564E-006  0.1443551E+03  0.7546771E-02  0.1217846E+00
          2   -1    0    0  501    0  0.00000000000E+00  0.00000000000E+00  0.42702006928E+03  0.42702006928E+03  0.00000000000E+00 0. -1.
         -2   -1    0    0    0  501 -0.00000000000E+00 -0.00000000000E+00 -0.53041595031E+02  0.53041595031E+02  0.00000000000E+00 0.  1.
         23    2    1    2    0    0 -0.69920267548E+02 -0.17891887703E+02  0.82369886681E+02  0.16620225091E+03  0.12501770481E+03 0.  0.
         23    2    1    2    0    0  0.69920267548E+02  0.17891887703E+02  0.29160858757E+03  0.31385941340E+03  0.90902142855E+02 0.  0.
          5    1    3    3  502    0 -0.88943382843E+02 -0.96177737340E+01  0.10304296593E+03  0.13654072561E+03  0.47000000000E+01 0.  1.
         -5    1    3    3    0  502  0.19023115295E+02 -0.82741139686E+01 -0.20673079249E+02  0.29661525300E+02  0.47000000000E+01 0.  1.
        -11    1    4    4    0    0 -0.19288528708E+02 -0.21266283939E+01  0.95962683439E+02  0.97905089249E+02  0.00000000000E+00 0. -1.
         11    1    4    4    0    0  0.89208796256E+02  0.20018516096E+02  0.19564590413E+03  0.21595432415E+03  0.00000000000E+00 0.  1.
<mgrwt>
<rscale>  0 0.13669535E+03</rscale>
<asrwt>0</asrwt>
<pdfrwt beam="1">  1        2 0.65695393E-01 0.14435508E+03</pdfrwt>
<pdfrwt beam="2">  1       -2 0.81602457E-02 0.14435508E+03</pdfrwt>
<totfact> 0.65416233E+03</totfact>
</mgrwt>
</event>
<event>
 8    1  0.9424564E-006  0.1263668E+03  0.7546771E-02  0.1247656E+00
         -2   -1    0    0    0  501 -0.00000000000E+00  0.00000000000E+00  0.36568320103E+03  0.36568320103E+03  0.00000000000E+00 0.  1.
          2   -1    0    0  501    0  0.00000000000E+00 -0.00000000000E+00 -0.35002714016E+02  0.35002714016E+02  0.00000000000E+00 0. -1.
         23    2    1    2    0    0  0.16874502965E+01 -0.18449437582E+02  0.23445396865E+03  0.26634042295E+03  0.12500131297E+03 0.  0.
         23    2    1    2    0    0 -0.16874502965E+01  0.18449437582E+02  0.96226518367E+02  0.13434549210E+03  0.91901790928E+02 0.  0.
          5    1    3    3  502    0  0.63083359392E+00 -0.34376089834E+02  0.36003272623E+01  0.34887904203E+02  0.47000000000E+01 0. -1.
         -5    1    3    3    0  502  0.10566167026E+01  0.15926652252E+02  0.23085364139E+03  0.23145251874E+03  0.47000000000E+01 0. -1.
        -11    1    4    4    0    0  0.25001767028E+02 -0.13964181095E+02  0.86677603846E+02  0.91285780473E+02  0.00000000000E+00 0.  1.
         11    1    4    4    0    0 -0.26689217324E+02  0.32413618677E+02  0.95489145216E+01  0.43059711630E+02  0.00000000000E+00 0. -1.
<mgrwt>
<rscale>  0 0.11727842E+03</rscale>
<asrwt>0</asrwt>
<pdfrwt beam="2">  1        2 0.53850332E-02 0.12636676E+03</pdfrwt>
<pdfrwt beam="1">  1       -2 0.56258951E-01 0.12636676E+03</pdfrwt>
<totfact> 0.40746068E+03</totfact>
</mgrwt>
</event>
<event>
 8    1  0.9424564E-006  0.1471823E+03  0.7546771E-02  0.1214248E+00
          2   -1    0    0  501    0  0.00000000000E+00  0.00000000000E+00  0.45468201858E+03  0.45468201858E+03  0.00000000000E+00 0. -1.
         -2   -1    0    0    0  501 -0.00000000000E+00 -0.00000000000E+00 -0.44159419198E+02  0.44159419198E+02  0.00000000000E+00 0.  1.
         23    2    1    2    0    0  0.61218741887E+02 -0.47850355035E+02  0.13780228770E+03  0.20162367971E+03  0.12500098755E+03 0.  0.
         23    2    1    2    0    0 -0.61218741887E+02  0.47850355035E+02  0.27272031168E+03  0.29721775807E+03  0.89020427285E+02 0.  0.
          5    1    3    3  502    0  0.98902304078E+02 -0.26101439570E+02  0.10704387061E+03  0.14813315340E+03  0.47000000000E+01 0.  1.
         -5    1    3    3    0  502 -0.37683562191E+02 -0.21748915465E+02  0.30758417090E+02  0.53490526312E+02  0.47000000000E+01 0.  1.
        -11    1    4    4    0    0 -0.99059764684E+01  0.43387997649E+02  0.43322353204E+02  0.62108558162E+02  0.00000000000E+00 0.  1.
         11    1    4    4    0    0 -0.51312765419E+02  0.44623573856E+01  0.22939795848E+03  0.23510919991E+03  0.00000000000E+00 0. -1.
<mgrwt>
<rscale>  0 0.13931899E+03</rscale>
<asrwt>0</asrwt>
<pdfrwt beam="1">  1        2 0.69951077E-01 0.14718233E+03</pdfrwt>
<pdfrwt beam="2">  1       -2 0.67937571E-02 0.14718233E+03</pdfrwt>
<totfact> 0.81141583E+03</totfact>
</mgrwt>
</event>
<event>
 8    1  0.1729452E-005  0.1311473E+03  0.7546771E-02  0.1236851E+00
         -2   -1    0    0    0  501 -0.00000000000E+00  0.00000000000E+00  0.13990746833E+03  0.13990746833E+03  0.00000000000E+00 0.  1.
          2   -1    0    0  501    0  0.00000000000E+00 -0.00000000000E+00 -0.10521673262E+03  0.10521673262E+03  0.00000000000E+00 0. -1.
         23    2    1    2    0    0 -0.38754938577E+02  0.84791808043E+01  0.48551828669E+02  0.13984601142E+03  0.12500314024E+03 0.  0.
         23    2    1    2    0    0  0.38754938577E+02 -0.84791808043E+01 -0.13861092959E+02  0.10527818953E+03  0.96527330444E+02 0.  0.
          5    1    3    3  502    0  0.14824797125E+02  0.43005244582E+02  0.59456207935E+02  0.75009041678E+02  0.47000000000E+01 0.  1.
         -5    1    3    3    0  502 -0.53579735701E+02 -0.34526063778E+02 -0.10904379266E+02  0.64836969739E+02  0.47000000000E+01 0.  1.
        -11    1    4    4    0    0  0.33060762630E+02  0.11805573262E+02  0.36527594337E+02  0.50662123266E+02  0.00000000000E+00 0.  1.
         11    1    4    4    0    0  0.56941759466E+01 -0.20284754066E+02 -0.50388687297E+02  0.54616066269E+02  0.00000000000E+00 0. -1.
<mgrwt>
<rscale>  0 0.12386680E+03</rscale>
<asrwt>0</asrwt>
<pdfrwt beam="2">  1        2 0.16187190E-01 0.13114735E+03</pdfrwt>
<pdfrwt beam="1">  1       -2 0.21524226E-01 0.13114735E+03</pdfrwt>
<totfact> 0.62325434E+03</totfact>
</mgrwt>
</event>
<event>
 8    1  0.9424564E-006  0.1252833E+03  0.7546771E-02  0.1247353E+00
          1   -1    0    0  501    0  0.00000000000E+00  0.00000000000E+00  0.37102744544E+03  0.37102744544E+03  0.00000000000E+00 0. -1.
         -1   -1    0    0    0  501 -0.00000000000E+00 -0.00000000000E+00 -0.43573814582E+02  0.43573814582E+02  0.00000000000E+00 0.  1.
         23    2    1    2    0    0  0.23919845496E+01  0.80481522491E+01  0.79380180292E+02  0.14831421606E+03  0.12500159726E+03 0.  0.
         23    2    1    2    0    0 -0.23919845496E+01 -0.80481522491E+01  0.24807345057E+03  0.26628704397E+03  0.96425404133E+02 0.  0.
          5    1    3    3  502    0  0.39353794730E+02 -0.45302756386E+02  0.36925050997E+02  0.70615935078E+02  0.47000000000E+01 0. -1.
         -5    1    3    3    0  502 -0.36961810180E+02  0.53350908635E+02  0.42455129295E+02  0.77698280981E+02  0.47000000000E+01 0. -1.
        -11    1    4    4    0    0 -0.45381119395E+02 -0.22823664275E+02  0.11687724743E+03  0.12743883480E+03  0.00000000000E+00 0.  1.
         11    1    4    4    0    0  0.42989134845E+02  0.14775512026E+02  0.13119620314E+03  0.13884820916E+03  0.00000000000E+00 0. -1.
<mgrwt>
<rscale>  0 0.11745667E+03</rscale>
<asrwt>0</asrwt>
<pdfrwt beam="1">  1        1 0.57081143E-01 0.12528325E+03</pdfrwt>
<pdfrwt beam="2">  1       -1 0.67036640E-02 0.12528325E+03</pdfrwt>
<totfact> 0.71520184E+03</totfact>
</mgrwt>
</event>
<event>
 8    1  0.9424564E-006  0.1691859E+03  0.7546771E-02  0.1185367E+00
         -1   -1    0    0    0  501 -0.00000000000E+00  0.00000000000E+00  0.24655785251E+03  0.24655785251E+03  0.00000000000E+00 0. -1.
          1   -1    0    0  501    0  0.00000000000E+00 -0.00000000000E+00 -0.10089184232E+03  0.10089184232E+03  0.00000000000E+00 0.  1.
         23    2    1    2    0    0  0.30563496258E+02  0.10984229982E+03  0.88369370902E+02  0.19087430841E+03  0.12499759104E+03 0.  0.
         23    2    1    2    0    0 -0.30563496258E+02 -0.10984229982E+03  0.57296639289E+02  0.15657538642E+03  0.90738572980E+02 0.  0.
          5    1    3    3  502    0 -0.15534870100E+02  0.21447741829E+02  0.86998516034E+02  0.91061350806E+02  0.47000000000E+01 0. -1.
         -5    1    3    3    0  502  0.46098366358E+02  0.88394557988E+02  0.13708548681E+01  0.99812957605E+02  0.47000000000E+01 0. -1.
        -11    1    4    4    0    0  0.20502039577E+02 -0.26996477714E+01 -0.66928624011E+01  0.21735135887E+02  0.00000000000E+00 0.  1.
         11    1    4    4    0    0 -0.51065535835E+02 -0.10714265205E+03  0.63989501690E+02  0.13484025053E+03  0.00000000000E+00 0. -1.
<mgrwt>
<rscale>  0 0.16298564E+03</rscale>
<asrwt>0</asrwt>
<pdfrwt beam="2">  1        1 0.15521822E-01 0.16918586E+03</pdfrwt>
<pdfrwt beam="1">  1       -1 0.37931977E-01 0.16918586E+03</pdfrwt>
<totfact> 0.23669254E+03</totfact>
</mgrwt>
</event>
<event>
 8    1  0.9424564E-006  0.1384479E+03  0.7546771E-02  0.1227081E+00
         -2   -1    0    0    0  501 -0.00000000000E+00  0.00000000000E+00  0.40196915781E+02  0.40196915781E+02  0.00000000000E+00 0.  1.
          2   -1    0    0  501    0  0.00000000000E+00 -0.00000000000E+00 -0.41101918415E+03  0.41101918415E+03  0.00000000000E+00 0. -1.
         23    2    1    2    0    0  0.48863781426E+02 -0.34001000806E+02 -0.14380732573E+03  0.19962058459E+03  0.12499637462E+03 0.  0.
         23    2    1    2    0    0 -0.48863781426E+02  0.34001000806E+02 -0.22701494264E+03  0.25159551534E+03  0.90668527980E+02 0.  0.
          5    1    3    3  502    0  0.30494033366E+02 -0.24395243781E+01  0.16545231383E+02  0.35095185305E+02  0.47000000000E+01 0. -1.
         -5    1    3    3    0  502  0.18369748060E+02 -0.31561476428E+02 -0.16035255711E+03  0.16452539928E+03  0.47000000000E+01 0. -1.
        -11    1    4    4    0    0 -0.23740229076E+02 -0.30573569275E+02 -0.70463367419E+02  0.80395446157E+02  0.00000000000E+00 0.  1.
         11    1    4    4    0    0 -0.25123552351E+02  0.64574570081E+02 -0.15655157522E+03  0.17120006918E+03  0.00000000000E+00 0. -1.
<mgrwt>
<rscale>  0 0.13025267E+03</rscale>
<asrwt>0</asrwt>
<pdfrwt beam="2">  1        2 0.63233724E-01 0.13844794E+03</pdfrwt>
<pdfrwt beam="1">  1       -2 0.61841405E-02 0.13844794E+03</pdfrwt>
<totfact> 0.10400213E+04</totfact>
</mgrwt>
</event>
<event>
 8    1  0.9424564E-006  0.1275622E+03  0.7546771E-02  0.1245317E+00
         -2   -1    0    0    0  501 -0.00000000000E+00  0.00000000000E+00  0.54306543516E+02  0.54306543516E+02  0.00000000000E+00 0.  1.
          2   -1    0    0  501    0  0.00000000000E+00 -0.00000000000E+00 -0.24418815005E+03  0.24418815005E+03  0.00000000000E+00 0. -1.
         23    2    1    2    0    0  0.69314463611E+01 -0.24523145410E+02 -0.70999798714E+02  0.14599003541E+03  0.12499075731E+03 0.  0.
         23    2    1    2    0    0 -0.69314463611E+01  0.24523145410E+02 -0.11888180782E+03  0.15250465815E+03  0.92061701689E+02 0.  0.
          5    1    3    3  502    0  0.53227556336E+02 -0.50774010110E+02 -0.46995103757E+02  0.87417404636E+02  0.47000000000E+01 0. -1.
         -5    1    3    3    0  502 -0.46296109975E+02  0.26250864699E+02 -0.24004694957E+02  0.58572630778E+02  0.47000000000E+01 0. -1.
        -11    1    4    4    0    0 -0.16473011426E+02 -0.32615799536E+02 -0.57286098388E+02  0.67947388128E+02  0.00000000000E+00 0. -1.
         11    1    4    4    0    0  0.95415650649E+01  0.57138944946E+02 -0.61595709427E+02  0.84557270020E+02  0.00000000000E+00 0.  1.
<mgrwt>
<rscale>  0 0.11866411E+03</rscale>
<asrwt>0</asrwt>
<pdfrwt beam="2">  1        2 0.37567409E-01 0.12756222E+03</pdfrwt>
<pdfrwt beam="1">  1       -2 0.83548525E-02 0.12756222E+03</pdfrwt>
<totfact> 0.11329132E+04</totfact>
</mgrwt>
</event>
<event>
 8    1  0.9424564E-006  0.1454017E+03  0.7546771E-02  0.1216090E+00
          2   -1    0    0  501    0  0.00000000000E+00  0.00000000000E+00  0.10156493578E+03  0.10156493578E+03  0.00000000000E+00 0. -1.
         -2   -1    0    0    0  501 -0.00000000000E+00 -0.00000000000E+00 -0.17166374838E+03  0.17166374838E+03  0.00000000000E+00 0.  1.
         23    2    1    2    0    0 -0.43591473760E+02  0.60141468473E+02 -0.49343339396E+02  0.15354616835E+03  0.12499779141E+03 0.  0.
         23    2    1    2    0    0  0.43591473760E+02 -0.60141468473E+02 -0.20755473203E+02  0.11968251580E+03  0.91519954689E+02 0.  0.
          5    1    3    3  502    0  0.28833475456E+02 -0.21075253010E+02 -0.70679977985E+01  0.36709429159E+02  0.47000000000E+01 0.  1.
         -5    1    3    3    0  502 -0.72424949216E+02  0.81216721483E+02 -0.42275341598E+02  0.11683673919E+03  0.47000000000E+01 0.  1.
        -11    1    4    4    0    0  0.56881447860E+02 -0.49560213458E+02 -0.46658500897E+02  0.88705859866E+02  0.00000000000E+00 0.  1.
         11    1    4    4    0    0 -0.13289974100E+02 -0.10581255015E+02  0.25903027694E+02  0.30976655936E+02  0.00000000000E+00 0. -1.
<mgrwt>
<rscale>  0 0.13796760E+03</rscale>
<asrwt>0</asrwt>
<pdfrwt beam="1">  1        2 0.15625375E-01 0.14540172E+03</pdfrwt>
<pdfrwt beam="2">  1       -2 0.26409807E-01 0.14540172E+03</pdfrwt>
<totfact> 0.45851645E+03</totfact>
</mgrwt>
</event>
<event>
 8    1  0.9424564E-006  0.1339087E+03  0.7546771E-02  0.1235661E+00
         -2   -1    0    0    0  501 -0.00000000000E+00  0.00000000000E+00  0.13053848298E+03  0.13053848298E+03  0.00000000000E+00 0.  1.
          2   -1    0    0  501    0  0.00000000000E+00 -0.00000000000E+00 -0.13163604358E+03  0.13163604358E+03  0.00000000000E+00 0. -1.
         23    2    1    2    0    0  0.92915681505E+01  0.47116510313E+02  0.57667241244E+02  0.14579801001E+03  0.12500100091E+03 0.  0.
         23    2    1    2    0    0 -0.92915681505E+01 -0.47116510313E+02 -0.58764801843E+02  0.11637651654E+03  0.88226372954E+02 0.  0.
          5    1    3    3  502    0 -0.29133630738E+01 -0.10858067199E+02  0.81028788845E+02  0.81939855561E+02  0.47000000000E+01 0.  1.
         -5    1    3    3    0  502  0.12204931224E+02  0.57974577512E+02 -0.23361547601E+02  0.63858154454E+02  0.47000000000E+01 0.  1.
        -11    1    4    4    0    0  0.24338460730E+02 -0.26394904295E+02 -0.67011310352E+02  0.76023465842E+02  0.00000000000E+00 0. -1.
         11    1    4    4    0    0 -0.33630028880E+02 -0.20721606018E+02  0.82465085089E+01  0.40353050703E+02  0.00000000000E+00 0.  1.
<mgrwt>
<rscale>  0 0.12462182E+03</rscale>
<asrwt>0</asrwt>
<pdfrwt beam="2">  1        2 0.20251699E-01 0.13390873E+03</pdfrwt>
<pdfrwt beam="1">  1       -2 0.20082844E-01 0.13390873E+03</pdfrwt>
<totfact> 0.54350910E+03</totfact>
</mgrwt>
</event>
<event>
 8    1  0.9424564E-006  0.1554241E+03  0.7546771E-02  0.1202021E+00
         -1   -1    0    0    0  501 -0.00000000000E+00  0.00000000000E+00  0.15761796007E+03  0.15761796007E+03  0.00000000000E+00 0.  1.
          1   -1    0    0  501    0  0.00000000000E+00 -0.00000000000E+00 -0.14594686990E+03  0.14594686990E+03  0.00000000000E+00 0. -1.
         23    2    1    2    0    0 -0.84385781486E+02  0.37709073157E+02  0.56962811835E+02  0.16553367801E+03  0.12495480107E+03 0.  0.
         23    2    1    2    0    0  0.84385781486E+02 -0.37709073157E+02 -0.45291721672E+02  0.13803115196E+03  0.91969149954E+02 0.  0.
          5    1    3    3  502    0 -0.10492911841E+03  0.85250364116E+01  0.92785480212E+01  0.10578741697E+03  0.47000000000E+01 0. -1.
         -5    1    3    3    0  502  0.20543336926E+02  0.29184036745E+02  0.47684263813E+02  0.59746261040E+02  0.47000000000E+01 0. -1.
        -11    1    4    4    0    0  0.83766693941E+01 -0.50241183221E+02 -0.52327092154E+01  0.51202796089E+02  0.00000000000E+00 0.  1.
         11    1    4    4    0    0  0.76009112092E+02  0.12532110065E+02 -0.40059012457E+02  0.86828355868E+02  0.00000000000E+00 0. -1.
<mgrwt>
<rscale>  0 0.14874720E+03</rscale>
<asrwt>0</asrwt>
<pdfrwt beam="2">  1        1 0.22453365E-01 0.15542405E+03</pdfrwt>
<pdfrwt beam="1">  1       -1 0.24248917E-01 0.15542405E+03</pdfrwt>
<totfact> 0.31293472E+03</totfact>
</mgrwt>
</event>
<event>
 7    1  0.9424564E-006  0.2342534E+03  0.7546771E-02  0.1133558E+00
         -2   -1    0    0    0  501 -0.00000000000E+00  0.00000000000E+00  0.33348513556E+02  0.33348513556E+02  0.00000000000E+00 0.  1.
          2   -1    0    0  501    0  0.00000000000E+00 -0.00000000000E+00 -0.13245619473E+04  0.13245619473E+04  0.00000000000E+00 0. -1.
         23    2    1    2    0    0  0.98426328276E+02 -0.12514099452E+03 -0.64034364151E+03  0.66616908005E+03  0.91614700730E+02 0.  0.
          5    1    1    2  502    0 -0.85682926678E+02  0.10810293889E+03 -0.65515408305E+03  0.66953474283E+03  0.47000000000E+01 0. -1.
         -5    1    1    2    0  502 -0.12743401597E+02  0.17038055634E+02  0.42842907808E+01  0.22206638007E+02  0.47000000000E+01 0.  1.
        -11    1    3    3    0    0  0.37037464589E+02 -0.10848061317E+03 -0.48382377796E+03  0.49721752316E+03  0.00000000000E+00 0.  1.
         11    1    3    3    0    0  0.61388863687E+02 -0.16660381355E+02 -0.15651986355E+03  0.16895155689E+03  0.00000000000E+00 0. -1.
<mgrwt>
<rscale>  0 0.22043705E+03</rscale>
<asrwt>0</asrwt>
<pdfrwt beam="2">  1        2 0.20377877E+00 0.23425339E+03</pdfrwt>
<pdfrwt beam="1">  1       -2 0.51305404E-02 0.23425339E+03</pdfrwt>
<totfact> 0.31948978E+03</totfact>
</mgrwt>
</event>
<event>
 8    1  0.9424564E-006  0.1944419E+03  0.7546771E-02  0.1159995E+00
          1   -1    0    0  501    0  0.00000000000E+00  0.00000000000E+00  0.45148897931E+03  0.45148897931E+03  0.00000000000E+00 0. -1.
         -1   -1    0    0    0  501 -0.00000000000E+00 -0.00000000000E+00 -0.74066893479E+02  0.74066893479E+02  0.00000000000E+00 0.  1.
         23    2    1    2    0    0 -0.12837053065E+03 -0.75517707210E+02  0.21035312074E+03  0.28645433391E+03  0.12500293104E+03 0.  0.
         23    2    1    2    0    0  0.12837053065E+03  0.75517707210E+02  0.16706896509E+03  0.23910153887E+03  0.84116523667E+02 0.  0.
          5    1    3    3  502    0 -0.20096310543E+02 -0.81965491106E+02  0.75541167682E+02  0.11336119902E+03  0.47000000000E+01 0. -1.
         -5    1    3    3    0  502 -0.10827422011E+03  0.64477838962E+01  0.13481195306E+03  0.17309313489E+03  0.47000000000E+01 0. -1.
        -11    1    4    4    0    0  0.51658439373E+02  0.59221377866E+01  0.10799869465E+03  0.11986402346E+03  0.00000000000E+00 0. -1.
         11    1    4    4    0    0  0.76712091280E+02  0.69595569423E+02  0.59070270437E+02  0.11923751541E+03  0.00000000000E+00 0.  1.
<mgrwt>
<rscale>  0 0.18830942E+03</rscale>
<asrwt>0</asrwt>
<pdfrwt beam="1">  1        1 0.69459841E-01 0.19444189E+03</pdfrwt>
<pdfrwt beam="2">  1       -1 0.11394907E-01 0.19444189E+03</pdfrwt>
<totfact> 0.25395016E+03</totfact>
</mgrwt>
</event>
<event>
 8    1  0.9424564E-006  0.1416004E+03  0.7546771E-02  0.1222002E+00
         -2   -1    0    0    0  501 -0.00000000000E+00  0.00000000000E+00  0.73850089634E+02  0.73850089634E+02  0.00000000000E+00 0.  1.
          2   -1    0    0  501    0  0.00000000000E+00 -0.00000000000E+00 -0.22015577037E+03  0.22015577037E+03  0.00000000000E+00 0. -1.
         23    2    1    2    0    0  0.53728208812E+02 -0.39214293474E+02 -0.70468066090E+02  0.15816578679E+03  0.12500474605E+03 0.  0.
         23    2    1    2    0    0 -0.53728208812E+02  0.39214293474E+02 -0.75837614644E+02  0.13584007322E+03  0.90976373095E+02 0.  0.
          5    1    3    3  502    0  0.47660249647E+02  0.35960888272E+02 -0.86005468275E+01  0.60504084882E+02  0.47000000000E+01 0.  1.
         -5    1    3    3    0  502  0.60679591649E+01 -0.75175181745E+02 -0.61867519262E+02  0.97661701903E+02  0.47000000000E+01 0.  1.
        -11    1    4    4    0    0 -0.22921692617E+02 -0.12582271846E+02  0.12437257297E+02  0.28955188245E+02  0.00000000000E+00 0.  1.
         11    1    4    4    0    0 -0.30806516195E+02  0.51796565319E+02 -0.88274871940E+02  0.10688488497E+03  0.00000000000E+00 0. -1.
<mgrwt>
<rscale>  0 0.13374539E+03</rscale>
<asrwt>0</asrwt>
<pdfrwt beam="2">  1        2 0.33870118E-01 0.14160038E+03</pdfrwt>
<pdfrwt beam="1">  1       -2 0.11361553E-01 0.14160038E+03</pdfrwt>
<totfact> 0.78784727E+03</totfact>
</mgrwt>
</event>
<event>
 8    1  0.9424564E-006  0.1337111E+03  0.7546771E-02  0.1233913E+00
          1   -1    0    0  501    0  0.00000000000E+00  0.00000000000E+00  0.38126026723E+02  0.38126026723E+02  0.00000000000E+00 0. -1.
         -1   -1    0    0    0  501 -0.00000000000E+00 -0.00000000000E+00 -0.37251252877E+03  0.37251252877E+03  0.00000000000E+00 0.  1.
         23    2    1    2    0    0  0.99910811022E+01 -0.46373861873E+02 -0.18300862611E+03  0.22665131927E+03  0.12501322541E+03 0.  0.
         23    2    1    2    0    0 -0.99910811022E+01  0.46373861873E+02 -0.15137787594E+03  0.18398723623E+03  0.93197022515E+02 0.  0.
          5    1    3    3  502    0 -0.19204328473E+02 -0.80172734817E+02 -0.14887777032E+03  0.17024439532E+03  0.47000000000E+01 0.  1.
         -5    1    3    3    0  502  0.29195409575E+02  0.33798872944E+02 -0.34130855789E+02  0.56406923949E+02  0.47000000000E+01 0.  1.
        -11    1    4    4    0    0  0.27944864029E+02  0.90531614222E+01 -0.11700340341E+03  0.12063445432E+03  0.00000000000E+00 0.  1.
         11    1    4    4    0    0 -0.37935945132E+02  0.37320700451E+02 -0.34374472525E+02  0.63352781916E+02  0.00000000000E+00 0. -1.
<mgrwt>
<rscale>  0 0.12574281E+03</rscale>
<asrwt>0</asrwt>
<pdfrwt beam="1">  1        1 0.58655428E-02 0.13371112E+03</pdfrwt>
<pdfrwt beam="2">  1       -1 0.57309618E-01 0.13371112E+03</pdfrwt>
<totfact> 0.40525554E+03</totfact>
</mgrwt>
</event>
<event>
 8    1  0.9424564E-006  0.1535716E+03  0.7546771E-02  0.1205437E+00
          1   -1    0    0  501    0  0.00000000000E+00  0.00000000000E+00  0.61416613667E+03  0.61416613667E+03  0.00000000000E+00 0. -1.
         -1   -1    0    0    0  501 -0.00000000000E+00 -0.00000000000E+00 -0.33036003625E+02  0.33036003625E+02  0.00000000000E+00 0.  1.
         23    2    1    2    0    0  0.26137597198E+02  0.85292303475E+02  0.25416694311E+03  0.29695971125E+03  0.12500513637E+03 0.  0.
         23    2    1    2    0    0 -0.26137597198E+02 -0.85292303475E+02  0.32696318993E+03  0.35024242904E+03  0.88356553277E+02 0.  0.
          5    1    3    3  502    0  0.48154049297E+02  0.92966705524E+02  0.25218192028E+03  0.27309235016E+03  0.47000000000E+01 0. -1.
         -5    1    3    3    0  502 -0.22016452100E+02 -0.76744020489E+01  0.19850228258E+01  0.23867361092E+02  0.47000000000E+01 0. -1.
        -11    1    4    4    0    0 -0.53120849193E+02 -0.69520744239E+02  0.18186588075E+03  0.20181713773E+03  0.00000000000E+00 0.  1.
         11    1    4    4    0    0  0.26983251995E+02 -0.15771559237E+02  0.14509730918E+03  0.14842529131E+03  0.00000000000E+00 0. -1.
<mgrwt>
<rscale>  0 0.14603076E+03</rscale>
<asrwt>0</asrwt>
<pdfrwt beam="1">  1        1 0.94487090E-01 0.15357160E+03</pdfrwt>
<pdfrwt beam="2">  1       -1 0.50824625E-02 0.15357160E+03</pdfrwt>
<totfact> 0.56764696E+03</totfact>
</mgrwt>
</event>
<event>
 8    1  0.9424564E-006  0.2163434E+03  0.7546771E-02  0.1140130E+00
          1   -1    0    0  501    0  0.00000000000E+00  0.00000000000E+00  0.38849683250E+03  0.38849683250E+03  0.00000000000E+00 0. -1.
         -1   -1    0    0    0  501 -0.00000000000E+00 -0.00000000000E+00 -0.11796844271E+03  0.11796844271E+03  0.00000000000E+00 0.  1.
         23    2    1    2    0    0 -0.19928796778E+02 -0.17535211092E+03  0.78771977726E+02  0.23023788884E+03  0.12513569132E+03 0.  0.
         23    2    1    2    0    0  0.19928796778E+02  0.17535211092E+03  0.19175641206E+03  0.27622738637E+03  0.91572526819E+02 0.  0.
          5    1    3    3  502    0  0.10783406493E+00 -0.89464302968E+02 -0.25925949298E+02  0.93263701303E+02  0.47000000000E+01 0.  1.
         -5    1    3    3    0  502 -0.20036630843E+02 -0.85887807948E+02  0.10469792702E+03  0.13697418754E+03  0.47000000000E+01 0.  1.
        -11    1    4    4    0    0 -0.81753438241E+01  0.64348157546E+02  0.16587428491E+02  0.66952702785E+02  0.00000000000E+00 0.  1.
         11    1    4    4    0    0  0.28104140603E+02  0.11100395337E+03  0.17516898357E+03  0.20927468358E+03  0.00000000000E+00 0. -1.
<mgrwt>
<rscale>  0 0.21182392E+03</rscale>
<asrwt>0</asrwt>
<pdfrwt beam="1">  1        1 0.59768743E-01 0.21634339E+03</pdfrwt>
<pdfrwt beam="2">  1       -1 0.18148991E-01 0.21634339E+03</pdfrwt>
<totfact> 0.14809475E+03</totfact>
</mgrwt>
</event>
<event>
 8    1  0.9424564E-006  0.1648476E+03  0.7546771E-02  0.1190420E+00
         -2   -1    0    0    0  501 -0.00000000000E+00  0.00000000000E+00  0.43162024063E+02  0.43162024063E+02  0.00000000000E+00 0.  1.
          2   -1    0    0  501    0  0.00000000000E+00 -0.00000000000E+00 -0.61998986453E+03  0.61998986453E+03  0.00000000000E+00 0. -1.
         23    2    1    2    0    0  0.91691875559E+02 -0.56059296470E+02 -0.19031458213E+03  0.25178237660E+03  0.12499872093E+03 0.  0.
         23    2    1    2    0    0 -0.91691875559E+02  0.56059296470E+02 -0.38651325834E+03  0.41136951199E+03  0.91007317062E+02 0.  0.
          5    1    3    3  502    0  0.95789599284E+02 -0.64586184072E+02 -0.20400312355E+03  0.23449176302E+03  0.47000000000E+01 0. -1.
         -5    1    3    3    0  502 -0.40977237255E+01  0.85268876020E+01  0.13688541423E+02  0.17290613586E+02  0.47000000000E+01 0. -1.
        -11    1    4    4    0    0 -0.49093269653E+02  0.77026243059E+02 -0.21970657419E+03  0.23793732366E+03  0.00000000000E+00 0. -1.
         11    1    4    4    0    0 -0.42598605905E+02 -0.20966946589E+02 -0.16680668415E+03  0.17343218833E+03  0.00000000000E+00 0.  1.
<mgrwt>
<rscale>  0 0.15848340E+03</rscale>
<asrwt>0</asrwt>
<pdfrwt beam="2">  1        2 0.95383050E-01 0.16484758E+03</pdfrwt>
<pdfrwt beam="1">  1       -2 0.66403118E-02 0.16484758E+03</pdfrwt>
<totfact> 0.59806974E+03</totfact>
</mgrwt>
</event>
<event>
 8    1  0.9424564E-006  0.2525993E+03  0.7546771E-02  0.1114079E+00
          1   -1    0    0  501    0  0.00000000000E+00  0.00000000000E+00  0.12643152642E+03  0.12643152642E+03  0.00000000000E+00 0. -1.
         -1   -1    0    0    0  501 -0.00000000000E+00 -0.00000000000E+00 -0.47800217119E+03  0.47800217119E+03  0.00000000000E+00 0.  1.
         23    2    1    2    0    0 -0.21947483431E+03 -0.34487260775E+01 -0.20397664588E+03  0.32467349843E+03  0.12500124764E+03 0.  0.
         23    2    1    2    0    0  0.21947483431E+03  0.34487260775E+01 -0.14759399888E+03  0.27976019918E+03  0.91108089298E+02 0.  0.
          5    1    3    3  502    0 -0.14178481639E+03 -0.26702364337E+02 -0.19547398992E+03  0.24299819167E+03  0.47000000000E+01 0. -1.
         -5    1    3    3    0  502 -0.77690017920E+02  0.23253638259E+02 -0.85026559667E+01  0.81675306765E+02  0.47000000000E+01 0. -1.
        -11    1    4    4    0    0  0.56923787184E+02  0.76728340078E+01  0.38308809426E+01  0.57566184326E+02  0.00000000000E+00 0. -1.
         11    1    4    4    0    0  0.16255104712E+03 -0.42241079302E+01 -0.15142487982E+03  0.22219401485E+03  0.00000000000E+00 0.  1.
<mgrwt>
<rscale>  0 0.24877839E+03</rscale>
<asrwt>0</asrwt>
<pdfrwt beam="1">  1        1 0.19451005E-01 0.25259930E+03</pdfrwt>
<pdfrwt beam="2">  1       -1 0.73538794E-01 0.25259930E+03</pdfrwt>
<totfact> 0.51514027E+02</totfact>
</mgrwt>
</event>
<event>
 8    1  0.9424564E-006  0.1364601E+03  0.7546771E-02  0.1229221E+00
          2   -1    0    0  501    0  0.00000000000E+00  0.00000000000E+00  0.10020465798E+04  0.10020465798E+04  0.00000000000E+00 0. -1.
         -2   -1    0    0    0  501 -0.00000000000E+00 -0.00000000000E+00 -0.15625199657E+02  0.15625199657E+02  0.00000000000E+00 0.  1.
         23    2    1    2    0    0  0.54628528966E+02 -0.34560599196E+01  0.44259386780E+03  0.46315300276E+03  0.12500060647E+03 0.  0.
         23    2    1    2    0    0 -0.54628528966E+02  0.34560599196E+01  0.54382751235E+03  0.55451877671E+03  0.93522671101E+02 0.  0.
          5    1    3    3  502    0 -0.14416386399E+02 -0.24244982844E+02  0.31675412033E+03  0.31804231501E+03  0.47000000000E+01 0. -1.
         -5    1    3    3    0  502  0.69044915365E+02  0.20788922924E+02  0.12583974747E+03  0.14511068775E+03  0.47000000000E+01 0. -1.
        -11    1    4    4    0    0  0.25246003769E+02  0.65803974109E+01  0.89997787076E+02  0.93703062997E+02  0.00000000000E+00 0.  1.
         11    1    4    4    0    0 -0.79874532735E+02 -0.31243374913E+01  0.45382972527E+03  0.46081571372E+03  0.00000000000E+00 0. -1.
<mgrwt>
<rscale>  0 0.12881767E+03</rscale>
<asrwt>0</asrwt>
<pdfrwt beam="1">  1        2 0.15416096E+00 0.13646015E+03</pdfrwt>
<pdfrwt beam="2">  1       -2 0.24038777E-02 0.13646015E+03</pdfrwt>
<totfact> 0.14781369E+04</totfact>
</mgrwt>
</event>
<event>
 8    1  0.9424564E-006  0.1514166E+03  0.7546771E-02  0.1206586E+00
          1   -1    0    0  501    0  0.00000000000E+00  0.00000000000E+00  0.22081898980E+03  0.22081898980E+03  0.00000000000E+00 0. -1.
         -1   -1    0    0    0  501 -0.00000000000E+00 -0.00000000000E+00 -0.90338317588E+02  0.90338317588E+02  0.00000000000E+00 0.  1.
         23    2    1    2    0    0 -0.54256203156E+01  0.85280247241E+02  0.47138035483E+02  0.15858433475E+03  0.12499935565E+03 0.  0.
         23    2    1    2    0    0  0.54256203156E+01 -0.85280247241E+02  0.83342636724E+02  0.15257297263E+03  0.95028200848E+02 0.  0.
          5    1    3    3  502    0  0.29266475255E+02 -0.21333551492E+02  0.24862461338E+02  0.44180074433E+02  0.47000000000E+01 0. -1.
         -5    1    3    3    0  502 -0.34692095571E+02  0.10661379873E+03  0.22275574145E+02  0.11440426032E+03  0.47000000000E+01 0. -1.
        -11    1    4    4    0    0  0.37469751609E+02 -0.50999655242E+02  0.79671578248E+01  0.63784188670E+02  0.00000000000E+00 0.  1.
         11    1    4    4    0    0 -0.32044131294E+02 -0.34280591999E+02  0.75375478899E+02  0.88788783962E+02  0.00000000000E+00 0. -1.
<mgrwt>
<rscale>  0 0.14513155E+03</rscale>
<asrwt>0</asrwt>
<pdfrwt beam="1">  1        1 0.33972152E-01 0.15141663E+03</pdfrwt>
<pdfrwt beam="2">  1       -1 0.13898203E-01 0.15141663E+03</pdfrwt>
<totfact> 0.45293750E+03</totfact>
</mgrwt>
</event>
<event>
 8    1  0.9424564E-006  0.2937489E+03  0.7546771E-02  0.1089996E+00
          1   -1    0    0  501    0  0.00000000000E+00  0.00000000000E+00  0.43999485259E+03  0.43999485259E+03  0.00000000000E+00 0. -1.
         -1   -1    0    0    0  501 -0.00000000000E+00 -0.00000000000E+00 -0.23625215826E+03  0.23625215826E+03  0.00000000000E+00 0.  1.
         23    2    1    2    0    0  0.20678086650E+03 -0.16705100729E+03 -0.49014474773E+02  0.29781005538E+03  0.12499617817E+03 0.  0.
         23    2    1    2    0    0 -0.20678086650E+03  0.16705100729E+03  0.25275716910E+03  0.37843695547E+03  0.93080486382E+02 0.  0.
          5    1    3    3  502    0  0.15656978180E+03 -0.10603682946E+03  0.23310062472E+02  0.19058686940E+03  0.47000000000E+01 0. -1.
         -5    1    3    3    0  502  0.50211084703E+02 -0.61014177829E+02 -0.72324537245E+02  0.10722318598E+03  0.47000000000E+01 0. -1.
        -11    1    4    4    0    0 -0.14433054667E+03  0.65606489576E+02  0.17521897947E+03  0.23629898210E+03  0.00000000000E+00 0. -1.
         11    1    4    4    0    0 -0.62450319838E+02  0.10144451772E+03  0.77538189628E+02  0.14213797337E+03  0.00000000000E+00 0.  1.
<mgrwt>
<rscale>  0 0.29067704E+03</rscale>
<asrwt>0</asrwt>
<pdfrwt beam="1">  1        1 0.67691516E-01 0.29374889E+03</pdfrwt>
<pdfrwt beam="2">  1       -1 0.36346486E-01 0.29374889E+03</pdfrwt>
<totfact> 0.39360382E+02</totfact>
</mgrwt>
</event>
<event>
 8    1  0.9424564E-006  0.1705180E+03  0.7546771E-02  0.1184204E+00
         -2   -1    0    0    0  501 -0.00000000000E+00  0.00000000000E+00  0.70973666032E+02  0.70973666032E+02  0.00000000000E+00 0.  1.
          2   -1    0    0  501    0  0.00000000000E+00 -0.00000000000E+00 -0.37554462870E+03  0.37554462870E+03  0.00000000000E+00 0. -1.
         23    2    1    2    0    0 -0.36400744879E+02 -0.11013227734E+03 -0.10883488039E+03  0.20229045100E+03  0.12498905006E+03 0.  0.
         23    2    1    2    0    0  0.36400744879E+02  0.11013227734E+03 -0.19573608228E+03  0.24422784374E+03  0.88772140946E+02 0.  0.
          5    1    3    3  502    0  0.36907831111E+02 -0.36437404010E+02 -0.50051270044E+00  0.52078910523E+02  0.47000000000E+01 0.  1.
         -5    1    3    3    0  502 -0.73308575990E+02 -0.73694873334E+02 -0.10833436769E+03  0.15021154048E+03  0.47000000000E+01 0.  1.
        -11    1    4    4    0    0  0.27907336626E+02 -0.95062234704E+00 -0.14437296979E+02  0.31434991084E+02  0.00000000000E+00 0.  1.
         11    1    4    4    0    0  0.84934082530E+01  0.11108289969E+03 -0.18129878530E+03  0.21279285265E+03  0.00000000000E+00 0. -1.
<mgrwt>
<rscale>  0 0.16404513E+03</rscale>
<asrwt>0</asrwt>
<pdfrwt beam="2">  1        2 0.57776096E-01 0.17051802E+03</pdfrwt>
<pdfrwt beam="1">  1       -2 0.10919026E-01 0.17051802E+03</pdfrwt>
<totfact> 0.47975623E+03</totfact>
</mgrwt>
</event>
<event>
 8    1  0.9424564E-006  0.1427168E+03  0.7546771E-02  0.1219529E+00
         -2   -1    0    0    0  501 -0.00000000000E+00  0.00000000000E+00  0.30706019953E+02  0.30706019953E+02  0.00000000000E+00 0.  1.
          2   -1    0    0  501    0  0.00000000000E+00 -0.00000000000E+00 -0.54481558445E+03  0.54481558445E+03  0.00000000000E+00 0. -1.
         23    2    1    2    0    0  0.54716296979E+02 -0.41939385007E+02 -0.27914856900E+03  0.31351556120E+03  0.12496118744E+03 0.  0.
         23    2    1    2    0    0 -0.54716296979E+02  0.41939385007E+02 -0.23496099549E+03  0.26200604321E+03  0.93207897221E+02 0.  0.
          5    1    3    3  502    0  0.29909619170E+02 -0.54002282027E+02 -0.42210544960E+02  0.74930980834E+02  0.47000000000E+01 0. -1.
         -5    1    3    3    0  502  0.24806677808E+02  0.12062897019E+02 -0.23693802404E+03  0.23858458036E+03  0.47000000000E+01 0. -1.
        -11    1    4    4    0    0 -0.22148327749E+02 -0.11792930070E+02 -0.77415663640E+01  0.26259350172E+02  0.00000000000E+00 0.  1.
         11    1    4    4    0    0 -0.32567969230E+02  0.53732315077E+02 -0.22721942913E+03  0.23574669303E+03  0.00000000000E+00 0. -1.
<mgrwt>
<rscale>  0 0.13549031E+03</rscale>
<asrwt>0</asrwt>
<pdfrwt beam="2">  1        2 0.83817778E-01 0.14271679E+03</pdfrwt>
<pdfrwt beam="1">  1       -2 0.47240033E-02 0.14271679E+03</pdfrwt>
<totfact> 0.11504249E+04</totfact>
</mgrwt>
</event>
<event>
 8    1  0.9424564E-006  0.1351391E+03  0.7546771E-02  0.1232001E+00
          1   -1    0    0  501    0  0.00000000000E+00  0.00000000000E+00  0.28445581664E+03  0.28445581664E+03  0.00000000000E+00 0. -1.
         -1   -1    0    0    0  501 -0.00000000000E+00 -0.00000000000E+00 -0.97833896983E+02  0.97833896983E+02  0.00000000000E+00 0.  1.
         23    2    1    2    0    0  0.37953610968E+02 -0.34600379902E+02 -0.32644378531E+02  0.13902598133E+03  0.12499962064E+03 0.  0.
         23    2    1    2    0    0 -0.37953610968E+02  0.34600379902E+02  0.21926629819E+03  0.24326373230E+03  0.91988428914E+02 0.  0.
          5    1    3    3  502    0  0.53104670238E+02 -0.71994240317E+02 -0.39369361234E+02  0.97853529542E+02  0.47000000000E+01 0. -1.
         -5    1    3    3    0  502 -0.15151059270E+02  0.37393860415E+02  0.67249827031E+01  0.41172451787E+02  0.47000000000E+01 0. -1.
        -11    1    4    4    0    0  0.20643190355E+02  0.25209595662E+02  0.27864341152E+02  0.42872911369E+02  0.00000000000E+00 0.  1.
         11    1    4    4    0    0 -0.58596801323E+02  0.93907842398E+01  0.19140195704E+03  0.20039082093E+03  0.00000000000E+00 0. -1.
<mgrwt>
<rscale>  0 0.12698394E+03</rscale>
<asrwt>0</asrwt>
<pdfrwt beam="1">  1        1 0.43762433E-01 0.13513907E+03</pdfrwt>
<pdfrwt beam="2">  1       -1 0.15051369E-01 0.13513907E+03</pdfrwt>
<totfact> 0.29054228E+03</totfact>
</mgrwt>
</event>
<event>
 8    1  0.9424564E-006  0.1369638E+03  0.7546771E-02  0.1230010E+00
         -1   -1    0    0    0  501 -0.00000000000E+00  0.00000000000E+00  0.95787809251E+03  0.95787809251E+03  0.00000000000E+00 0.  1.
          1   -1    0    0  501    0  0.00000000000E+00 -0.00000000000E+00 -0.15422297215E+02  0.15422297215E+02  0.00000000000E+00 0. -1.
         23    2    1    2    0    0 -0.33468280019E+02 -0.44643942674E+02  0.56831015294E+03  0.58458147549E+03  0.12508342885E+03 0.  0.
         23    2    1    2    0    0  0.33468280019E+02  0.44643942674E+02  0.37414564236E+03  0.38871891424E+03  0.89466335578E+02 0.  0.
          5    1    3    3  502    0  0.28232451591E+02 -0.13862349408E+02  0.36972147782E+02  0.48767466261E+02  0.47000000000E+01 0. -1.
         -5    1    3    3    0  502 -0.61700731610E+02 -0.30781593266E+02  0.53133800516E+03  0.53581400923E+03  0.47000000000E+01 0.  1.
        -11    1    4    4    0    0  0.34487741520E+02  0.68464957173E+02  0.32726122416E+03  0.33612016232E+03  0.00000000000E+00 0. -1.
         11    1    4    4    0    0 -0.10194615016E+01 -0.23821014499E+02  0.46884418199E+02  0.52598751919E+02  0.00000000000E+00 0.  1.
<mgrwt>
<rscale>  0 0.12829355E+03</rscale>
<asrwt>0</asrwt>
<pdfrwt beam="2">  1        1 0.23726619E-02 0.13696376E+03</pdfrwt>
<pdfrwt beam="1">  1       -1 0.14736581E+00 0.13696376E+03</pdfrwt>
<totfact> 0.18272315E+03</totfact>
</mgrwt>
</event>
<event>
 8    1  0.9424564E-006  0.1774335E+03  0.7546771E-02  0.1175889E+00
         -1   -1    0    0    0  501 -0.00000000000E+00  0.00000000000E+00  0.32825681696E+03  0.32825681696E+03  0.00000000000E+00 0.  1.
          1   -1    0    0  501    0  0.00000000000E+00 -0.00000000000E+00 -0.88220761147E+02  0.88220761147E+02  0.00000000000E+00 0. -1.
         23    2    1    2    0    0  0.71996222873E+02  0.10331721094E+03  0.16815681106E+03  0.24445729675E+03  0.12499901857E+03 0.  0.
         23    2    1    2    0    0 -0.71996222873E+02 -0.10331721094E+03  0.71879244749E+02  0.17202028135E+03  0.92555114324E+02 0.  0.
          5    1    3    3  502    0  0.15164808820E+02 -0.28523877970E+02  0.42627697851E+02  0.53691653589E+02  0.47000000000E+01 0.  1.
         -5    1    3    3    0  502  0.56831414053E+02  0.13184108891E+03  0.12552911321E+03  0.19076564316E+03  0.47000000000E+01 0.  1.
        -11    1    4    4    0    0 -0.82450533759E+02 -0.95580026110E+02  0.86063222321E+02  0.15277601299E+03  0.00000000000E+00 0.  1.
         11    1    4    4    0    0  0.10454310886E+02 -0.77371848268E+01 -0.14183977572E+02  0.19244268365E+02  0.00000000000E+00 0. -1.
<mgrwt>
<rscale>  0 0.17189160E+03</rscale>
<asrwt>0</asrwt>
<pdfrwt beam="2">  1        1 0.13572425E-01 0.17743353E+03</pdfrwt>
<pdfrwt beam="1">  1       -1 0.50501048E-01 0.17743353E+03</pdfrwt>
<totfact> 0.16916195E+03</totfact>
</mgrwt>
</event>
<event>
 8    1  0.9424564E-006  0.1421720E+03  0.7546771E-02  0.1221916E+00
         -1   -1    0    0    0  501 -0.00000000000E+00  0.00000000000E+00  0.54067371419E+02  0.54067371419E+02  0.00000000000E+00 0.  1.
          1   -1    0    0  501    0  0.00000000000E+00 -0.00000000000E+00 -0.29820680179E+03  0.29820680179E+03  0.00000000000E+00 0. -1.
         23    2    1    2    0    0  0.36814308925E+02 -0.56858471894E+02 -0.14431695495E+03  0.20258397167E+03  0.12499881169E+03 0.  0.
         23    2    1    2    0    0 -0.36814308925E+02  0.56858471894E+02 -0.99822475421E+02  0.14969020154E+03  0.88625338759E+02 0.  0.
          5    1    3    3  502    0 -0.68625243756E+01 -0.35121025591E+02  0.12570297209E+02  0.38218883439E+02  0.47000000000E+01 0. -1.
         -5    1    3    3    0  502  0.43676833300E+02 -0.21737446303E+02 -0.15688725216E+03  0.16436508823E+03  0.47000000000E+01 0. -1.
        -11    1    4    4    0    0 -0.10448475127E+02  0.41237245561E+02 -0.10956429504E+03  0.11753304132E+03  0.00000000000E+00 0. -1.
         11    1    4    4    0    0 -0.26365833798E+02  0.15621226333E+02  0.97418196191E+01  0.32157160221E+02  0.00000000000E+00 0.  1.
<mgrwt>
<rscale>  0 0.13380570E+03</rscale>
<asrwt>0</asrwt>
<pdfrwt beam="2">  1        1 0.45877970E-01 0.14217202E+03</pdfrwt>
<pdfrwt beam="1">  1       -1 0.83180570E-02 0.14217202E+03</pdfrwt>
<totfact> 0.68415353E+03</totfact>
</mgrwt>
</event>
<event>
 8    1  0.9424564E-006  0.1729903E+03  0.7546771E-02  0.1178645E+00
         -1   -1    0    0    0  501 -0.00000000000E+00  0.00000000000E+00  0.12291675028E+03  0.12291675028E+03  0.00000000000E+00 0.  1.
          1   -1    0    0  501    0  0.00000000000E+00 -0.00000000000E+00 -0.45004442784E+03  0.45004442784E+03  0.00000000000E+00 0. -1.
         23    2    1    2    0    0 -0.12341607156E+03 -0.39104653645E+02  0.36061146606E+02  0.17670894471E+03  0.11473859068E+03 0.  0.
         23    2    1    2    0    0  0.12341607156E+03  0.39104653645E+02 -0.36318882416E+03  0.39625223341E+03  0.91372916264E+02 0.  0.
          5    1    3    3  502    0 -0.21966350281E+02 -0.52380523439E+02 -0.19436288472E+02  0.60217099648E+02  0.47000000000E+01 0. -1.
         -5    1    3    3    0  502 -0.10144972127E+03  0.13275869795E+02  0.55497435078E+02  0.11649184506E+03  0.47000000000E+01 0.  1.
        -11    1    4    4    0    0  0.43728957044E+02 -0.27072868346E+00 -0.34336231355E+02  0.55599206486E+02  0.00000000000E+00 0.  1.
         11    1    4    4    0    0  0.79687114512E+02  0.39375382328E+02 -0.32885259281E+03  0.34065302692E+03  0.00000000000E+00 0. -1.
<mgrwt>
<rscale>  0 0.16923747E+03</rscale>
<asrwt>0</asrwt>
<pdfrwt beam="2">  1        1 0.69237603E-01 0.17299030E+03</pdfrwt>
<pdfrwt beam="1">  1       -1 0.18910270E-01 0.17299030E+03</pdfrwt>
<totfact> 0.11441931E+03</totfact>
</mgrwt>
</event>
<event>
 8    1  0.9424564E-006  0.1482506E+03  0.7546771E-02  0.1212290E+00
         -1   -1    0    0    0  501 -0.00000000000E+00  0.00000000000E+00  0.57762042475E+02  0.57762042475E+02  0.00000000000E+00 0. -1.
          1   -1    0    0  501    0  0.00000000000E+00 -0.00000000000E+00 -0.35190068497E+03  0.35190068497E+03  0.00000000000E+00 0.  1.
         23    2    1    2    0    0  0.48691341819E+02 -0.63101934622E+02 -0.92490985573E+02  0.17473646920E+03  0.12500220132E+03 0.  0.
         23    2    1    2    0    0 -0.48691341819E+02  0.63101934622E+02 -0.20164765692E+03  0.23492625824E+03  0.90420508458E+02 0.  0.
          5    1    3    3  502    0 -0.98871437073E+01 -0.28185235199E+01  0.26594649599E+02  0.28897492500E+02  0.47000000000E+01 0. -1.
         -5    1    3    3    0  502  0.58578485527E+02 -0.60283411102E+02 -0.11908563517E+03  0.14583897670E+03  0.47000000000E+01 0. -1.
        -11    1    4    4    0    0 -0.48000203231E+02 -0.50782030009E+01 -0.54832815094E+02  0.73050977181E+02  0.00000000000E+00 0.  1.
         11    1    4    4    0    0 -0.69113858832E+00  0.68180137623E+02 -0.14681484183E+03  0.16187528106E+03  0.00000000000E+00 0. -1.
<mgrwt>
<rscale>  0 0.14077492E+03</rscale>
<asrwt>0</asrwt>
<pdfrwt beam="2">  1        1 0.54138569E-01 0.14825064E+03</pdfrwt>
<pdfrwt beam="1">  1       -1 0.88864677E-02 0.14825064E+03</pdfrwt>
<totfact> 0.50489157E+03</totfact>
</mgrwt>
</event>
<event>
 8    1  0.9424564E-006  0.1398000E+03  0.7546771E-02  0.1224203E+00
         -2   -1    0    0    0  501 -0.00000000000E+00  0.00000000000E+00  0.22032851967E+02  0.22032851967E+02  0.00000000000E+00 0. -1.
          2   -1    0    0  501    0  0.00000000000E+00 -0.00000000000E+00 -0.72426507022E+03  0.72426507022E+03  0.00000000000E+00 0.  1.
         23    2    1    2    0    0  0.57602630041E+02  0.24428985602E+02 -0.35684499143E+03  0.38325239247E+03  0.12501683927E+03 0.  0.
         23    2    1    2    0    0 -0.57602630041E+02 -0.24428985602E+02 -0.34538722683E+03  0.36304552972E+03  0.92708585739E+02 0.  0.
          5    1    3    3  502    0  0.89295605289E+02 -0.47874122195E+01 -0.17837388557E+03  0.19958947240E+03  0.47000000000E+01 0.  1.
         -5    1    3    3    0  502 -0.31692975248E+02  0.29216397821E+02 -0.17847110586E+03  0.18366292007E+03  0.47000000000E+01 0.  1.
        -11    1    4    4    0    0 -0.80802758460E+02 -0.17706647206E+02 -0.21350171013E+03  0.22896635420E+03  0.00000000000E+00 0. -1.
         11    1    4    4    0    0  0.23200128419E+02 -0.67223383959E+01 -0.13188551670E+03  0.13407917552E+03  0.00000000000E+00 0.  1.
<mgrwt>
<rscale>  0 0.13221673E+03</rscale>
<asrwt>0</asrwt>
<pdfrwt beam="2">  1        2 0.11142538E+00 0.13980003E+03</pdfrwt>
<pdfrwt beam="1">  1       -2 0.33896699E-02 0.13980003E+03</pdfrwt>
<totfact> 0.13548933E+04</totfact>
</mgrwt>
</event>
<event>
 8    1  0.9424564E-006  0.1310617E+03  0.7546771E-02  0.1238912E+00
          2   -1    0    0  501    0  0.00000000000E+00  0.00000000000E+00  0.23121866058E+03  0.23121866058E+03  0.00000000000E+00 0. -1.
         -2   -1    0    0    0  501 -0.00000000000E+00 -0.00000000000E+00 -0.59743396129E+02  0.59743396129E+02  0.00000000000E+00 0.  1.
         23    2    1    2    0    0  0.26383453371E+02  0.29278054028E+02  0.71175280454E+02  0.14914118364E+03  0.12499552412E+03 0.  0.
         23    2    1    2    0    0 -0.26383453371E+02 -0.29278054028E+02  0.10029998399E+03  0.14182087307E+03  0.92194263323E+02 0.  0.
          5    1    3    3  502    0  0.74185551128E+02 -0.45440146356E+00  0.35995238445E+02  0.82592067824E+02  0.47000000000E+01 0. -1.
         -5    1    3    3    0  502 -0.47802097757E+02  0.29732455492E+02  0.35180042010E+02  0.66549115812E+02  0.47000000000E+01 0. -1.
        -11    1    4    4    0    0 -0.39245767499E+02 -0.52109704597E+02  0.41159790068E+02  0.77134816381E+02  0.00000000000E+00 0.  1.
         11    1    4    4    0    0  0.12862314128E+02  0.22831650569E+02  0.59140193924E+02  0.64686056688E+02  0.00000000000E+00 0. -1.
<mgrwt>
<rscale>  0 0.12257283E+03</rscale>
<asrwt>0</asrwt>
<pdfrwt beam="1">  1        2 0.35572101E-01 0.13106171E+03</pdfrwt>
<pdfrwt beam="2">  1       -2 0.91912918E-02 0.13106171E+03</pdfrwt>
<totfact> 0.10377513E+04</totfact>
</mgrwt>
</event>
<event>
 7    1  0.9424564E-006  0.1501379E+03  0.7546771E-02  0.1222236E+00
          2   -1    0    0  501    0  0.00000000000E+00  0.00000000000E+00  0.11005279506E+03  0.11005279506E+03  0.00000000000E+00 0.  1.
         -2   -1    0    0    0  501 -0.00000000000E+00 -0.00000000000E+00 -0.19414267471E+03  0.19414267471E+03  0.00000000000E+00 0. -1.
         23    2    1    2    0    0  0.24899376357E+02  0.79423349535E+02 -0.13082880200E+03  0.19914205920E+03  0.12495333895E+03 0.  0.
          5    1    3    3  502    0 -0.29404254607E+02 -0.12810936725E+02 -0.33005040775E+01  0.32583947213E+02  0.47000000000E+01 0.  1.
         -5    1    3    3    0  502  0.54303630964E+02  0.92234286260E+02 -0.12752829792E+03  0.16655811199E+03  0.47000000000E+01 0.  1.
        -11    1    1    2    0    0 -0.34253778010E+02 -0.36612569631E+02  0.27634376410E+02  0.57249107613E+02  0.00000000000E+00 0. -1.
         11    1    1    2    0    0  0.93544016528E+01 -0.42810779904E+02  0.19104545940E+02  0.47804302963E+02  0.00000000000E+00 0.  1.
<mgrwt>
<rscale>  0 0.13358140E+03</rscale>
<asrwt>0</asrwt>
<pdfrwt beam="1">  1        2 0.16931199E-01 0.15013788E+03</pdfrwt>
<pdfrwt beam="2">  1       -2 0.29868103E-01 0.15013788E+03</pdfrwt>
<totfact> 0.33606571E+03</totfact>
</mgrwt>
</event>
<event>
 8    1  0.9424564E-006  0.2086958E+03  0.7546771E-02  0.1146032E+00
         -2   -1    0    0    0  501 -0.00000000000E+00  0.00000000000E+00  0.26204071968E+03  0.26204071968E+03  0.00000000000E+00 0.  1.
          2   -1    0    0  501    0  0.00000000000E+00 -0.00000000000E+00 -0.16202405749E+03  0.16202405749E+03  0.00000000000E+00 0. -1.
         23    2    1    2    0    0 -0.16598403075E+03  0.19403163691E+02  0.10091027341E+03  0.23181202392E+03  0.12500699953E+03 0.  0.
         23    2    1    2    0    0  0.16598403075E+03 -0.19403163691E+02 -0.89361121334E+00  0.19225275325E+03  0.95042839646E+02 0.  0.
          5    1    3    3  502    0 -0.39070928557E+00  0.38583991742E+02  0.35609150544E+02  0.52716019150E+02  0.47000000000E+01 0.  1.
         -5    1    3    3    0  502 -0.16559332146E+03 -0.19180828051E+02  0.65301122861E+02  0.17909600477E+03  0.47000000000E+01 0.  1.
        -11    1    4    4    0    0  0.14037229293E+03  0.19503168458E+02 -0.17509445273E+02  0.14279823135E+03  0.00000000000E+00 0.  1.
         11    1    4    4    0    0  0.25611737818E+02 -0.38906332149E+02  0.16615834060E+02  0.49454521905E+02  0.00000000000E+00 0. -1.
<mgrwt>
<rscale>  0 0.20445712E+03</rscale>
<asrwt>0</asrwt>
<pdfrwt beam="2">  1        2 0.24926778E-01 0.20869579E+03</pdfrwt>
<pdfrwt beam="1">  1       -2 0.40313957E-01 0.20869579E+03</pdfrwt>
<totfact> 0.12581362E+03</totfact>
</mgrwt>
</event>
<event>
 8    1  0.9424564E-006  0.1604410E+03  0.7546771E-02  0.1196318E+00
          2   -1    0    0  501    0  0.00000000000E+00  0.00000000000E+00  0.54797315729E+03  0.54797315729E+03  0.00000000000E+00 0. -1.
         -2   -1    0    0    0  501 -0.00000000000E+00 -0.00000000000E+00 -0.39952972398E+02  0.39952972398E+02  0.00000000000E+00 0.  1.
         23    2    1    2    0    0 -0.99415608177E+02 -0.15253755592E+02  0.24906684879E+03  0.29626947793E+03  0.12500067271E+03 0.  0.
         23    2    1    2    0    0  0.99415608177E+02  0.15253755592E+02  0.25895333610E+03  0.29165665176E+03  0.88829229582E+02 0.  0.
          5    1    3    3  502    0 -0.76031578830E+02 -0.84655868670E+01  0.41370875395E+02  0.87098257567E+02  0.47000000000E+01 0.  1.
         -5    1    3    3    0  502 -0.23384029347E+02 -0.67881687249E+01  0.20769597339E+03  0.20917122036E+03  0.47000000000E+01 0.  1.
        -11    1    4    4    0    0  0.36976708518E+02  0.37476014887E+02  0.50618264563E+02  0.73033809787E+02  0.00000000000E+00 0.  1.
         11    1    4    4    0    0  0.62438899659E+02 -0.22222259295E+02  0.20833507154E+03  0.21862284197E+03  0.00000000000E+00 0. -1.
<mgrwt>
<rscale>  0 0.15343201E+03</rscale>
<asrwt>0</asrwt>
<pdfrwt beam="1">  1        2 0.84303557E-01 0.16044098E+03</pdfrwt>
<pdfrwt beam="2">  1       -2 0.61466116E-02 0.16044098E+03</pdfrwt>
<totfact> 0.77356689E+03</totfact>
</mgrwt>
</event>
<event>
 8    1  0.9424564E-006  0.1490880E+03  0.7546771E-02  0.1209721E+00
         -2   -1    0    0    0  501 -0.00000000000E+00  0.00000000000E+00  0.55172094282E+03  0.55172094282E+03  0.00000000000E+00 0.  1.
          2   -1    0    0  501    0  0.00000000000E+00 -0.00000000000E+00 -0.34286569934E+02  0.34286569934E+02  0.00000000000E+00 0. -1.
         23    2    1    2    0    0 -0.40506451029E+02 -0.70403255653E+02  0.30338447025E+03  0.33803750930E+03  0.12501931820E+03 0.  0.
         23    2    1    2    0    0  0.40506451029E+02  0.70403255653E+02  0.21404990264E+03  0.24797000346E+03  0.95259491981E+02 0.  0.
          5    1    3    3  502    0  0.25462380761E+02 -0.43050314113E+02  0.23041665682E+03  0.23582957431E+03  0.47000000000E+01 0.  1.
         -5    1    3    3    0  502 -0.65968831789E+02 -0.27352941540E+02  0.72967813433E+02  0.10220793499E+03  0.47000000000E+01 0.  1.
        -11    1    4    4    0    0 -0.48042111291E+01 -0.12927340176E+02 -0.58993170382E-01  0.13791303375E+02  0.00000000000E+00 0. -1.
         11    1    4    4    0    0  0.45310662158E+02  0.83330595829E+02  0.21410889581E+03  0.23417870008E+03  0.00000000000E+00 0.  1.
<mgrwt>
<rscale>  0 0.14271567E+03</rscale>
<asrwt>0</asrwt>
<pdfrwt beam="2">  1        2 0.52748573E-02 0.14908796E+03</pdfrwt>
<pdfrwt beam="1">  1       -2 0.84880139E-01 0.14908796E+03</pdfrwt>
<totfact> 0.17697898E+03</totfact>
</mgrwt>
</event>
<event>
 7    1  0.9424564E-006  0.1541501E+03  0.7546771E-02  0.1203765E+00
         -1   -1    0    0    0  501 -0.00000000000E+00  0.00000000000E+00  0.32043097030E+02  0.32043097030E+02  0.00000000000E+00 0.  1.
          1   -1    0    0  501    0  0.00000000000E+00 -0.00000000000E+00 -0.62807550549E+03  0.62807550549E+03  0.00000000000E+00 0. -1.
         23    2    1    2    0    0  0.17693952524E+02  0.84261748746E+02 -0.24560370046E+03  0.27728374438E+03  0.95665975992E+02 0.  0.
          5    1    1    2  502    0 -0.34078199982E+02 -0.90245153537E+02 -0.13146746248E+03  0.16312968811E+03  0.47000000000E+01 0. -1.
         -5    1    1    2    0  502  0.16384247458E+02  0.59834047915E+01 -0.21896124552E+03  0.21970517003E+03  0.47000000000E+01 0.  1.
        -11    1    3    3    0    0 -0.20315586934E+02  0.65028352250E+02 -0.74486069870E+02  0.10094347068E+03  0.00000000000E+00 0.  1.
         11    1    3    3    0    0  0.38009539457E+02  0.19233396496E+02 -0.17111763059E+03  0.17634027370E+03  0.00000000000E+00 0. -1.
<mgrwt>
<rscale>  0 0.14735235E+03</rscale>
<asrwt>0</asrwt>
<pdfrwt beam="2">  1        1 0.96626987E-01 0.15415009E+03</pdfrwt>
<pdfrwt beam="1">  1       -1 0.49297080E-02 0.15415009E+03</pdfrwt>
<totfact> 0.57596632E+03</totfact>
</mgrwt>
</event>
<event>
 8    1  0.9424564E-006  0.1601910E+03  0.7546771E-02  0.1196396E+00
          1   -1    0    0  501    0  0.00000000000E+00  0.00000000000E+00  0.55573617741E+03  0.55573617741E+03  0.00000000000E+00 0. -1.
         -1   -1    0    0    0  501 -0.00000000000E+00 -0.00000000000E+00 -0.52455175605E+02  0.52455175605E+02  0.00000000000E+00 0.  1.
         23    2    1    2    0    0 -0.99966444207E+02 -0.66302851304E+01  0.11486208512E+03  0.19711537075E+03  0.12499568048E+03 0.  0.
         23    2    1    2    0    0  0.99966444207E+02  0.66302851304E+01  0.38841891669E+03  0.41107598227E+03  0.89871896101E+02 0.  0.
          5    1    3    3  502    0 -0.12514145559E+03 -0.25862735934E+02  0.86971351587E+02  0.15464595376E+03  0.47000000000E+01 0.  1.
         -5    1    3    3    0  502  0.25175011387E+02  0.19232450803E+02  0.27890733529E+02  0.42469416984E+02  0.47000000000E+01 0.  1.
        -11    1    4    4    0    0  0.49554466069E+02 -0.39528235950E+02  0.22923353629E+03  0.23783637381E+03  0.00000000000E+00 0. -1.
         11    1    4    4    0    0  0.50411978138E+02  0.46158521080E+02  0.15918538040E+03  0.17323960846E+03  0.00000000000E+00 0.  1.
<mgrwt>
<rscale>  0 0.15336671E+03</rscale>
<asrwt>0</asrwt>
<pdfrwt beam="1">  1        1 0.85497870E-01 0.16019104E+03</pdfrwt>
<pdfrwt beam="2">  1       -1 0.80700274E-02 0.16019104E+03</pdfrwt>
<totfact> 0.32568320E+03</totfact>
</mgrwt>
</event>
<event>
 8    1  0.9424564E-006  0.1214565E+03  0.7546771E-02  0.1251075E+00
          1   -1    0    0  501    0  0.00000000000E+00  0.00000000000E+00  0.25349889974E+03  0.25349889974E+03  0.00000000000E+00 0. -1.
         -1   -1    0    0    0  501 -0.00000000000E+00 -0.00000000000E+00 -0.10161458565E+03  0.10161458565E+03  0.00000000000E+00 0.  1.
         23    2    1    2    0    0 -0.29007626868E+02 -0.10791914031E+02 -0.49285947058E+02  0.13107554218E+03  0.11744694698E+03 0.  0.
         23    2    1    2    0    0  0.29007626868E+02  0.10791914031E+02  0.20117026115E+03  0.22403794321E+03  0.93624880240E+02 0.  0.
          5    1    3    3  502    0 -0.67484378908E+02 -0.30071620370E+02 -0.14267436705E+02  0.75392927377E+02  0.47000000000E+01 0. -1.
         -5    1    3    3    0  502  0.38476752040E+02  0.19279706339E+02 -0.35018510354E+02  0.55682614805E+02  0.47000000000E+01 0.  1.
        -11    1    4    4    0    0  0.20925756633E+01  0.30108942572E+02  0.12811946707E+02  0.32788310022E+02  0.00000000000E+00 0. -1.
         11    1    4    4    0    0  0.26915051205E+02 -0.19317028541E+02  0.18835831445E+03  0.19124963319E+03  0.00000000000E+00 0.  1.
<mgrwt>
<rscale>  0 0.11529054E+03</rscale>
<asrwt>0</asrwt>
<pdfrwt beam="1">  1        1 0.38999830E-01 0.12145655E+03</pdfrwt>
<pdfrwt beam="2">  1       -1 0.15633013E-01 0.12145655E+03</pdfrwt>
<totfact> 0.31400136E+03</totfact>
</mgrwt>
</event>
<event>
 8    1  0.9424564E-006  0.1325484E+03  0.7546771E-02  0.1236382E+00
         -4   -1    0    0    0  501 -0.00000000000E+00  0.00000000000E+00  0.21358576349E+03  0.21358576349E+03  0.00000000000E+00 0.  1.
          4   -1    0    0  501    0  0.00000000000E+00 -0.00000000000E+00 -0.65986789531E+02  0.65986789531E+02  0.00000000000E+00 0. -1.
         23    2    1    2    0    0 -0.16136834909E+02 -0.41029823676E+02  0.10448691503E+03  0.16877970713E+03  0.12500092102E+03 0.  0.
         23    2    1    2    0    0  0.16136834909E+02  0.41029823676E+02  0.43112058934E+02  0.11079284589E+03  0.92046516523E+02 0.  0.
          5    1    3    3  502    0 -0.27786047644E+01  0.44890560904E+02  0.30885368710E+02  0.54762022452E+02  0.47000000000E+01 0.  1.
         -5    1    3    3    0  502 -0.13358230145E+02 -0.85920384580E+02  0.73601546320E+02  0.11401768468E+03  0.47000000000E+01 0.  1.
        -11    1    4    4    0    0  0.33148317568E+02  0.27026437792E+02 -0.17567314190E+02  0.46236888143E+02  0.00000000000E+00 0.  1.
         11    1    4    4    0    0 -0.17011482659E+02  0.14003385885E+02  0.60679373124E+02  0.64555957751E+02  0.00000000000E+00 0. -1.
<mgrwt>
<rscale>  0 0.12416396E+03</rscale>
<asrwt>0</asrwt>
<pdfrwt beam="2">  1        4 0.10151814E-01 0.13254838E+03</pdfrwt>
<pdfrwt beam="1">  1       -4 0.32859348E-01 0.13254838E+03</pdfrwt>
<totfact> 0.10848209E+03</totfact>
</mgrwt>
</event>
<event>
 8    1  0.9424564E-006  0.1372358E+03  0.7546771E-02  0.1228844E+00
         -1   -1    0    0    0  501 -0.00000000000E+00  0.00000000000E+00  0.15337687193E+03  0.15337687193E+03  0.00000000000E+00 0.  1.
          1   -1    0    0  501    0  0.00000000000E+00 -0.00000000000E+00 -0.97530922892E+02  0.97530922892E+02  0.00000000000E+00 0. -1.
         23    2    1    2    0    0 -0.53773933236E+02  0.17824610387E+02  0.30289146459E+02  0.14053855975E+03  0.12499720697E+03 0.  0.
         23    2    1    2    0    0  0.53773933236E+02 -0.17824610387E+02  0.25556802583E+02  0.11036923508E+03  0.91207813604E+02 0.  0.
          5    1    3    3  502    0 -0.11752220437E+01 -0.30894046970E+02  0.56073032798E+02  0.64203569155E+02  0.47000000000E+01 0. -1.
         -5    1    3    3    0  502 -0.52598711192E+02  0.48718657358E+02 -0.25783886339E+02  0.76334990592E+02  0.47000000000E+01 0. -1.
        -11    1    4    4    0    0  0.46511196533E+02 -0.51538772027E+02  0.29940785370E+02  0.75604147066E+02  0.00000000000E+00 0.  1.
         11    1    4    4    0    0  0.72627367031E+01  0.33714161640E+02 -0.43839827864E+01  0.34765088013E+02  0.00000000000E+00 0. -1.
<mgrwt>
<rscale>  0 0.12906864E+03</rscale>
<asrwt>0</asrwt>
<pdfrwt beam="2">  1        1 0.15004757E-01 0.13723576E+03</pdfrwt>
<pdfrwt beam="1">  1       -1 0.23596442E-01 0.13723576E+03</pdfrwt>
<totfact> 0.54452805E+03</totfact>
</mgrwt>
</event>
<event>
 8    1  0.9424564E-006  0.1351153E+03  0.7546771E-02  0.1232266E+00
         -1   -1    0    0    0  501 -0.00000000000E+00  0.00000000000E+00  0.29588616778E+02  0.29588616778E+02  0.00000000000E+00 0.  1.
          1   -1    0    0  501    0  0.00000000000E+00 -0.00000000000E+00 -0.50093046713E+03  0.50093046713E+03  0.00000000000E+00 0. -1.
         23    2    1    2    0    0  0.71156528799E+01  0.50781312739E+02 -0.21984694732E+03  0.25804812583E+03  0.12500712284E+03 0.  0.
         23    2    1    2    0    0 -0.71156528799E+01 -0.50781312739E+02 -0.25149490304E+03  0.27247095808E+03  0.91440486124E+02 0.  0.
          5    1    3    3  502    0 -0.54677759860E+02  0.24836404673E+02 -0.14745483045E+03  0.15928440427E+03  0.47000000000E+01 0.  1.
         -5    1    3    3    0  502  0.61793412740E+02  0.25944908066E+02 -0.72392116867E+02  0.98763721564E+02  0.47000000000E+01 0.  1.
        -11    1    4    4    0    0  0.15350184790E+02 -0.69605560390E+02 -0.13886531535E+03  0.15609015990E+03  0.00000000000E+00 0.  1.
         11    1    4    4    0    0 -0.22465837670E+02  0.18824247652E+02 -0.11262958769E+03  0.11638079818E+03  0.00000000000E+00 0. -1.
<mgrwt>
<rscale>  0 0.12681098E+03</rscale>
<asrwt>0</asrwt>
<pdfrwt beam="2">  1        1 0.77066223E-01 0.13511534E+03</pdfrwt>
<pdfrwt beam="1">  1       -1 0.45520950E-02 0.13511534E+03</pdfrwt>
<totfact> 0.87116479E+03</totfact>
</mgrwt>
</event>
<event>
 8    1  0.9424564E-006  0.1257158E+03  0.7546771E-02  0.1248769E+00
          4   -1    0    0  501    0  0.00000000000E+00  0.00000000000E+00  0.22570128184E+02  0.22570128184E+02  0.00000000000E+00 0.  1.
         -4   -1    0    0    0  501 -0.00000000000E+00 -0.00000000000E+00 -0.55732934482E+03  0.55732934482E+03  0.00000000000E+00 0. -1.
         23    2    1    2    0    0  0.10047917902E+02 -0.88762322918E+01 -0.36832918051E+03  0.38919256024E+03  0.12499886231E+03 0.  0.
         23    2    1    2    0    0 -0.10047917902E+02  0.88762322918E+01 -0.16643003613E+03  0.19070691276E+03  0.92143483203E+02 0.  0.
          5    1    3    3  502    0  0.28509306230E+02 -0.53919367152E+02 -0.10635846294E+03  0.12269593039E+03  0.47000000000E+01 0. -1.
         -5    1    3    3    0  502 -0.18461388327E+02  0.45043134860E+02 -0.26197071757E+03  0.26649662985E+03  0.47000000000E+01 0. -1.
        -11    1    4    4    0    0  0.10979555066E+02  0.42448598790E+02 -0.44367401153E+02  0.62377082761E+02  0.00000000000E+00 0.  1.
         11    1    4    4    0    0 -0.21027472969E+02 -0.33572366498E+02 -0.12206263497E+03  0.12832983000E+03  0.00000000000E+00 0. -1.
<mgrwt>
<rscale>  0 0.11662613E+03</rscale>
<asrwt>0</asrwt>
<pdfrwt beam="1">  1        4 0.34723273E-02 0.12571581E+03</pdfrwt>
<pdfrwt beam="2">  1       -4 0.85742979E-01 0.12571581E+03</pdfrwt>
<totfact> 0.84908098E+02</totfact>
</mgrwt>
</event>
<event>
 8    1  0.9424564E-006  0.1266709E+03  0.7546771E-02  0.1246937E+00
          1   -1    0    0  501    0  0.00000000000E+00  0.00000000000E+00  0.18721054938E+03  0.18721054938E+03  0.00000000000E+00 0. -1.
         -1   -1    0    0    0  501 -0.00000000000E+00 -0.00000000000E+00 -0.65298970896E+02  0.65298970896E+02  0.00000000000E+00 0.  1.
         23    2    1    2    0    0 -0.19439856085E+02  0.65622067262E+01  0.67747262207E+02  0.14364962301E+03  0.12499820835E+03 0.  0.
         23    2    1    2    0    0  0.19439856085E+02 -0.65622067262E+01  0.54164316279E+02  0.10885989727E+03  0.92172303402E+02 0.  0.
          5    1    3    3  502    0  0.15458814636E+02  0.98337364913E+00 -0.33012765526E+02  0.36767848201E+02  0.47000000000E+01 0. -1.
         -5    1    3    3    0  502 -0.34898670720E+02  0.55788330770E+01  0.10076002773E+03  0.10688177480E+03  0.47000000000E+01 0. -1.
        -11    1    4    4    0    0 -0.35570742425E+02  0.10051383825E+02  0.21116904245E+02  0.42570314520E+02  0.00000000000E+00 0. -1.
         11    1    4    4    0    0  0.55010598509E+02 -0.16613590551E+02  0.33047412034E+02  0.66289582752E+02  0.00000000000E+00 0.  1.
<mgrwt>
<rscale>  0 0.11770184E+03</rscale>
<asrwt>0</asrwt>
<pdfrwt beam="1">  1        1 0.28801623E-01 0.12667092E+03</pdfrwt>
<pdfrwt beam="2">  1       -1 0.10045996E-01 0.12667092E+03</pdfrwt>
<totfact> 0.90673692E+03</totfact>
</mgrwt>
</event>
<event>
 8    1  0.9424564E-006  0.2117536E+03  0.7546771E-02  0.1144117E+00
         -2   -1    0    0    0  501 -0.00000000000E+00  0.00000000000E+00  0.35154171065E+03  0.35154171065E+03  0.00000000000E+00 0.  1.
          2   -1    0    0  501    0  0.00000000000E+00 -0.00000000000E+00 -0.21444757570E+03  0.21444757570E+03  0.00000000000E+00 0. -1.
         23    2    1    2    0    0  0.97473740511E+01 -0.17064289821E+03  0.26162710287E+03  0.33658334265E+03  0.12500238232E+03 0.  0.
         23    2    1    2    0    0 -0.97473740511E+01  0.17064289821E+03 -0.12453296791E+03  0.22940594370E+03  0.88907912467E+02 0.  0.
          5    1    3    3  502    0  0.48588848237E+02 -0.81392097660E+02  0.59031753035E+02  0.11176935001E+03  0.47000000000E+01 0.  1.
         -5    1    3    3    0  502 -0.38841474186E+02 -0.89250800547E+02  0.20259534983E+03  0.22481399264E+03  0.47000000000E+01 0.  1.
        -11    1    4    4    0    0 -0.42029089559E+02  0.13653574313E+03 -0.10982679281E+03  0.18019538823E+03  0.00000000000E+00 0.  1.
         11    1    4    4    0    0  0.32281715508E+02  0.34107155080E+02 -0.14706175106E+02  0.49210555474E+02  0.00000000000E+00 0. -1.
<mgrwt>
<rscale>  0 0.20681030E+03</rscale>
<asrwt>0</asrwt>
<pdfrwt beam="2">  1        2 0.32991935E-01 0.21175364E+03</pdfrwt>
<pdfrwt beam="1">  1       -2 0.54083340E-01 0.21175364E+03</pdfrwt>
<totfact> 0.51835006E+02</totfact>
</mgrwt>
</event>
<event>
 8    1  0.9424564E-006  0.1812921E+03  0.7546771E-02  0.1172335E+00
          1   -1    0    0  501    0  0.00000000000E+00  0.00000000000E+00  0.16236669831E+03  0.16236669831E+03  0.00000000000E+00 0. -1.
         -1   -1    0    0    0  501 -0.00000000000E+00 -0.00000000000E+00 -0.20094514022E+03  0.20094514022E+03  0.00000000000E+00 0.  1.
         23    2    1    2    0    0  0.71276328431E+02  0.11027719738E+03 -0.81520297162E+02  0.19877721906E+03  0.12500179483E+03 0.  0.
         23    2    1    2    0    0 -0.71276328431E+02 -0.11027719738E+03  0.42941855256E+02  0.16453461947E+03  0.89365892897E+02 0.  0.
          5    1    3    3  502    0  0.79913154752E+02  0.13150337807E+03 -0.83784917435E+02  0.17527479322E+03  0.47000000000E+01 0. -1.
         -5    1    3    3    0  502 -0.86368263214E+01 -0.21226180689E+02  0.22646202735E+01  0.23502425844E+02  0.47000000000E+01 0. -1.
        -11    1    4    4    0    0 -0.32889681147E+02 -0.10593249080E+03  0.60004669775E+01  0.11108298401E+03  0.00000000000E+00 0.  1.
         11    1    4    4    0    0 -0.38386647283E+02 -0.43447065840E+01  0.36941388279E+02  0.53451635456E+02  0.00000000000E+00 0. -1.
<mgrwt>
<rscale>  0 0.17539561E+03</rscale>
<asrwt>0</asrwt>
<pdfrwt beam="1">  1        1 0.24979492E-01 0.18129210E+03</pdfrwt>
<pdfrwt beam="2">  1       -1 0.30914637E-01 0.18129210E+03</pdfrwt>
<totfact> 0.18335278E+03</totfact>
</mgrwt>
</event>
<event>
 8    1  0.9424564E-006  0.3046382E+03  0.7546771E-02  0.1084463E+00
          2   -1    0    0  501    0  0.00000000000E+00  0.00000000000E+00  0.18178569959E+03  0.18178569959E+03  0.00000000000E+00 0. -1.
         -2   -1    0    0    0  501 -0.00000000000E+00 -0.00000000000E+00 -0.51774768938E+03  0.51774768938E+03  0.00000000000E+00 0.  1.
         23    2    1    2    0    0  0.18742334279E+03 -0.20506613500E+03 -0.25158998923E+03  0.39509743818E+03  0.12499933534E+03 0.  0.
         23    2    1    2    0    0 -0.18742334279E+03  0.20506613500E+03 -0.84372000563E+02  0.30443595079E+03  0.91558639735E+02 0.  0.
          5    1    3    3  502    0  0.18650101048E+03 -0.21947590116E+03 -0.22953985084E+03  0.36832449175E+03  0.47000000000E+01 0. -1.
         -5    1    3    3    0  502  0.92233230621E+00  0.14409766163E+02 -0.22050138385E+02  0.26772946430E+02  0.47000000000E+01 0. -1.
        -11    1    4    4    0    0 -0.12481439935E+03  0.12032540235E+03 -0.96438536223E+02  0.19838656206E+03  0.00000000000E+00 0. -1.
         11    1    4    4    0    0 -0.62608943434E+02  0.84740732647E+02  0.12066535660E+02  0.10604938873E+03  0.00000000000E+00 0.  1.
<mgrwt>
<rscale>  0 0.30156007E+03</rscale>
<asrwt>0</asrwt>
<pdfrwt beam="1">  1        2 0.27967031E-01 0.30463825E+03</pdfrwt>
<pdfrwt beam="2">  1       -2 0.79653489E-01 0.30463825E+03</pdfrwt>
<totfact> 0.27382080E+02</totfact>
</mgrwt>
</event>
<event>
 8    1  0.9424564E-006  0.1535420E+03  0.7546771E-02  0.1207226E+00
          1   -1    0    0  501    0  0.00000000000E+00  0.00000000000E+00  0.11095422068E+03  0.11095422068E+03  0.00000000000E+00 0. -1.
         -1   -1    0    0    0  501 -0.00000000000E+00 -0.00000000000E+00 -0.17376399625E+03  0.17376399625E+03  0.00000000000E+00 0.  1.
         23    2    1    2    0    0 -0.34461118513E+02  0.82232677199E+02 -0.56682038841E+02  0.16367043149E+03  0.12500149891E+03 0.  0.
         23    2    1    2    0    0  0.34461118513E+02 -0.82232677199E+02 -0.61277367311E+01  0.12104778543E+03  0.81640892403E+02 0.  0.
          5    1    3    3  502    0 -0.32739945914E+02  0.99458125395E+02 -0.81694591540E+02  0.13289062816E+03  0.47000000000E+01 0.  1.
         -5    1    3    3    0  502 -0.17211725989E+01 -0.17225448195E+02  0.25012552699E+02  0.30779803332E+02  0.47000000000E+01 0.  1.
        -11    1    4    4    0    0  0.48199369662E+02 -0.86763470263E+02 -0.19725959701E+02  0.10119383624E+03  0.00000000000E+00 0.  1.
         11    1    4    4    0    0 -0.13738251149E+02  0.45307930634E+01  0.13598222970E+02  0.19853949188E+02  0.00000000000E+00 0. -1.
<mgrwt>
<rscale>  0 0.14463400E+03</rscale>
<asrwt>0</asrwt>
<pdfrwt beam="1">  1        1 0.17069880E-01 0.15354204E+03</pdfrwt>
<pdfrwt beam="2">  1       -1 0.26732922E-01 0.15354204E+03</pdfrwt>
<totfact> 0.37787577E+03</totfact>
</mgrwt>
</event>
<event>
 7    1  0.9424564E-006  0.2054898E+03  0.7546771E-02  0.1152121E+00
         -1   -1    0    0    0  501 -0.00000000000E+00  0.00000000000E+00  0.28839661149E+03  0.28839661149E+03  0.00000000000E+00 0.  1.
          1   -1    0    0  501    0  0.00000000000E+00 -0.00000000000E+00 -0.12527839786E+03  0.12527839786E+03  0.00000000000E+00 0. -1.
         23    2    1    2    0    0  0.32682156911E+02 -0.14590607532E+03  0.65701605701E+02  0.18626339740E+03  0.89558059513E+02 0.  0.
          5    1    1    2  502    0 -0.13773603401E+02  0.15877127336E+03  0.38474271278E+02  0.16401338039E+03  0.47000000000E+01 0. -1.
         -5    1    1    2    0  502 -0.18908553511E+02 -0.12865198046E+02  0.58942336642E+02  0.63398231564E+02  0.47000000000E+01 0.  1.
        -11    1    3    3    0    0  0.50775782498E+02 -0.11396971807E+03  0.17979262173E+02  0.12605764790E+03  0.00000000000E+00 0.  1.
         11    1    3    3    0    0 -0.18093625586E+02 -0.31936357247E+02  0.47722343528E+02  0.60205749501E+02  0.00000000000E+00 0. -1.
<mgrwt>
<rscale>  0 0.19720204E+03</rscale>
<asrwt>0</asrwt>
<pdfrwt beam="2">  1        1 0.19273600E-01 0.20548977E+03</pdfrwt>
<pdfrwt beam="1">  1       -1 0.44368709E-01 0.20548977E+03</pdfrwt>
<totfact> 0.13625616E+03</totfact>
</mgrwt>
</event>
<event>
 8    1  0.9424564E-006  0.1450595E+03  0.7546771E-02  0.1216903E+00
         -3   -1    0    0    0  501 -0.00000000000E+00  0.00000000000E+00  0.25747454760E+03  0.25747454760E+03  0.00000000000E+00 0.  1.
          3   -1    0    0  501    0  0.00000000000E+00 -0.00000000000E+00 -0.66915608664E+02  0.66915608664E+02  0.00000000000E+00 0. -1.
         23    2    1    2    0    0  0.26610027546E+02 -0.68619344308E+02  0.11792844334E+03  0.18694749556E+03  0.12500216146E+03 0.  0.
         23    2    1    2    0    0 -0.26610027546E+02  0.68619344308E+02  0.72630495600E+02  0.13744266070E+03  0.90546055194E+02 0.  0.
          5    1    3    3  502    0 -0.40747281651E+02 -0.47508485610E+02  0.92474562627E+02  0.11176328512E+03  0.47000000000E+01 0. -1.
         -5    1    3    3    0  502  0.67357309198E+02 -0.21110858698E+02  0.25453880714E+02  0.75184210448E+02  0.47000000000E+01 0. -1.
        -11    1    4    4    0    0 -0.40926339179E+02 -0.35530078438E+01  0.38621778867E+02  0.56384669071E+02  0.00000000000E+00 0.  1.
         11    1    4    4    0    0  0.14316311633E+02  0.72172352152E+02  0.34008716732E+02  0.81057991634E+02  0.00000000000E+00 0. -1.
<mgrwt>
<rscale>  0 0.13737666E+03</rscale>
<asrwt>0</asrwt>
<pdfrwt beam="2">  1        3 0.10294709E-01 0.14505946E+03</pdfrwt>
<pdfrwt beam="1">  1       -3 0.39611468E-01 0.14505946E+03</pdfrwt>
<totfact> 0.10363303E+03</totfact>
</mgrwt>
</event>
<event>
 8    1  0.9424564E-006  0.1256265E+03  0.7546771E-02  0.1249023E+00
          4   -1    0    0  501    0  0.00000000000E+00  0.00000000000E+00  0.41663287411E+03  0.41663287411E+03  0.00000000000E+00 0. -1.
         -4   -1    0    0    0  501 -0.00000000000E+00 -0.00000000000E+00 -0.30667913222E+02  0.30667913222E+02  0.00000000000E+00 0.  1.
         23    2    1    2    0    0  0.11107049527E+02  0.57487776528E+01  0.16310968073E+03  0.20588049012E+03  0.12500237306E+03 0.  0.
         23    2    1    2    0    0 -0.11107049527E+02 -0.57487776528E+01  0.22285528016E+03  0.24142029721E+03  0.91993853150E+02 0.  0.
          5    1    3    3  502    0 -0.16351206819E+02 -0.34971107540E+01  0.17378257762E+03  0.17464840690E+03  0.47000000000E+01 0.  1.
         -5    1    3    3    0  502  0.27458256347E+02  0.92458884068E+01 -0.10672896893E+02  0.31232083218E+02  0.47000000000E+01 0.  1.
        -11    1    4    4    0    0  0.15795200878E+02  0.18363298101E+02  0.11168081905E+02  0.26672554084E+02  0.00000000000E+00 0.  1.
         11    1    4    4    0    0 -0.26902250405E+02 -0.24112075754E+02  0.21168719825E+03  0.21474774313E+03  0.00000000000E+00 0. -1.
<mgrwt>
<rscale>  0 0.11647823E+03</rscale>
<asrwt>0</asrwt>
<pdfrwt beam="1">  1        4 0.64097361E-01 0.12562646E+03</pdfrwt>
<pdfrwt beam="2">  1       -4 0.47181408E-02 0.12562646E+03</pdfrwt>
<totfact> 0.98322007E+02</totfact>
</mgrwt>
</event>
<event>
 8    1  0.9424564E-006  0.1629736E+03  0.7546771E-02  0.1192874E+00
         -1   -1    0    0    0  501 -0.00000000000E+00  0.00000000000E+00  0.40071250255E+02  0.40071250255E+02  0.00000000000E+00 0.  1.
          1   -1    0    0  501    0  0.00000000000E+00 -0.00000000000E+00 -0.64799654953E+03  0.64799654953E+03  0.00000000000E+00 0. -1.
         23    2    1    2    0    0 -0.81626643413E+02 -0.65421109365E+02 -0.20345221753E+03  0.26067836795E+03  0.12497030140E+03 0.  0.
         23    2    1    2    0    0  0.81626643413E+02  0.65421109365E+02 -0.40447308174E+03  0.42738943183E+03  0.90113384829E+02 0.  0.
          5    1    3    3  502    0 -0.98329478076E+02 -0.60147068036E+02 -0.21143854996E+03  0.24086242227E+03  0.47000000000E+01 0.  1.
         -5    1    3    3    0  502  0.16702834663E+02 -0.52740413288E+01  0.79863324241E+01  0.19815945683E+02  0.47000000000E+01 0.  1.
        -11    1    4    4    0    0  0.52822957768E+02  0.87168268098E+02 -0.29337575978E+03  0.31057673490E+03  0.00000000000E+00 0.  1.
         11    1    4    4    0    0  0.28803685646E+02 -0.21747158734E+02 -0.11109732196E+03  0.11681269694E+03  0.00000000000E+00 0. -1.
<mgrwt>
<rscale>  0 0.15635531E+03</rscale>
<asrwt>0</asrwt>
<pdfrwt beam="2">  1        1 0.99691768E-01 0.16297364E+03</pdfrwt>
<pdfrwt beam="1">  1       -1 0.61648083E-02 0.16297364E+03</pdfrwt>
<totfact> 0.39612697E+03</totfact>
</mgrwt>
</event>
<event>
 8    1  0.9424564E-006  0.1152271E+03  0.7546771E-02  0.1259832E+00
         -2   -1    0    0    0  501 -0.00000000000E+00  0.00000000000E+00  0.66651239030E+02  0.66651239030E+02  0.00000000000E+00 0.  1.
          2   -1    0    0  501    0  0.00000000000E+00 -0.00000000000E+00 -0.18980275096E+03  0.18980275096E+03  0.00000000000E+00 0. -1.
         23    2    1    2    0    0 -0.23471067520E+02  0.84282194740E+01 -0.24042746475E+02  0.11770870847E+03  0.11249604659E+03 0.  0.
         23    2    1    2    0    0  0.23471067520E+02 -0.84282194740E+01 -0.99108765456E+02  0.13874528152E+03  0.93839116893E+02 0.  0.
          5    1    3    3  502    0 -0.48541460431E+02 -0.38220690970E+02 -0.15368893642E+02  0.63838761664E+02  0.47000000000E+01 0. -1.
         -5    1    3    3    0  502  0.25070392911E+02  0.46648910444E+02 -0.86738528332E+01  0.53869946810E+02  0.47000000000E+01 0.  1.
        -11    1    4    4    0    0 -0.29357801446E+02  0.20421401802E+02 -0.47497348737E+02  0.59455128411E+02  0.00000000000E+00 0.  1.
         11    1    4    4    0    0  0.52828868966E+02 -0.28849621276E+02 -0.51611416720E+02  0.79290153107E+02  0.00000000000E+00 0. -1.
<mgrwt>
<rscale>  0 0.11039941E+03</rscale>
<asrwt>0</asrwt>
<pdfrwt beam="2">  1        2 0.29200422E-01 0.11522711E+03</pdfrwt>
<pdfrwt beam="1">  1       -2 0.10254037E-01 0.11522711E+03</pdfrwt>
<totfact> 0.10697327E+04</totfact>
</mgrwt>
</event>
<event>
 8    1  0.9424564E-006  0.2569790E+03  0.7546771E-02  0.1111156E+00
          4   -1    0    0  501    0  0.00000000000E+00  0.00000000000E+00  0.13191907953E+03  0.13191907953E+03  0.00000000000E+00 0. -1.
         -4   -1    0    0    0  501 -0.00000000000E+00 -0.00000000000E+00 -0.50531373739E+03  0.50531373739E+03  0.00000000000E+00 0.  1.
         23    2    1    2    0    0 -0.17436840455E+03 -0.14144177430E+03 -0.27100163801E+03  0.37347033208E+03  0.12501233985E+03 0.  0.
         23    2    1    2    0    0  0.17436840455E+03  0.14144177430E+03 -0.10239301985E+03  0.26376248483E+03  0.93146131790E+02 0.  0.
          5    1    3    3  502    0 -0.65615596353E+02 -0.13219641201E+03 -0.16015203564E+03  0.21783494291E+03  0.47000000000E+01 0.  1.
         -5    1    3    3    0  502 -0.10875280820E+03 -0.92453622918E+01 -0.11084960237E+03  0.15563538917E+03  0.47000000000E+01 0.  1.
        -11    1    4    4    0    0  0.15704986030E+03  0.13415036445E+03 -0.11926718505E+03  0.23850710751E+03  0.00000000000E+00 0.  1.
         11    1    4    4    0    0  0.17318544249E+02  0.72914098515E+01  0.16874165199E+02  0.25255377323E+02  0.00000000000E+00 0. -1.
<mgrwt>
<rscale>  0 0.25343062E+03</rscale>
<asrwt>0</asrwt>
<pdfrwt beam="1">  1        4 0.20295243E-01 0.25697899E+03</pdfrwt>
<pdfrwt beam="2">  1       -4 0.77740573E-01 0.25697899E+03</pdfrwt>
<totfact> 0.60863353E+01</totfact>
</mgrwt>
</event>
<event>
 8    1  0.9424564E-006  0.1317338E+03  0.7546771E-02  0.1233863E+00
          1   -1    0    0  501    0  0.00000000000E+00  0.00000000000E+00  0.99958970522E+02  0.99958970522E+02  0.00000000000E+00 0. -1.
         -1   -1    0    0    0  501 -0.00000000000E+00 -0.00000000000E+00 -0.16050965238E+03  0.16050965238E+03  0.00000000000E+00 0.  1.
         23    2    1    2    0    0 -0.16634339972E+02 -0.44176621736E+02 -0.72474665637E+02  0.15035413541E+03  0.12298582724E+03 0.  0.
         23    2    1    2    0    0  0.16634339972E+02  0.44176621736E+02  0.11923983780E+02  0.11011448749E+03  0.98766106493E+02 0.  0.
          5    1    3    3  502    0  0.50298091392E+02 -0.37179904878E+02 -0.23464399232E+02  0.66969480778E+02  0.47000000000E+01 0. -1.
         -5    1    3    3    0  502 -0.66932431364E+02 -0.69967168576E+01 -0.49010266405E+02  0.83384654632E+02  0.47000000000E+01 0.  1.
        -11    1    4    4    0    0 -0.36137835807E+02  0.81387068799E+01 -0.16032347490E+02  0.40363571355E+02  0.00000000000E+00 0.  1.
         11    1    4    4    0    0  0.52772175779E+02  0.36037914856E+02  0.27956331270E+02  0.69750916136E+02  0.00000000000E+00 0. -1.
<mgrwt>
<rscale>  0 0.12577480E+03</rscale>
<asrwt>0</asrwt>
<pdfrwt beam="1">  1        1 0.15378303E-01 0.13173378E+03</pdfrwt>
<pdfrwt beam="2">  1       -1 0.24693792E-01 0.13173378E+03</pdfrwt>
<totfact> 0.48840805E+03</totfact>
</mgrwt>
</event>
<event>
 8    1  0.9424564E-006  0.1894091E+03  0.7546771E-02  0.1163950E+00
         -3   -1    0    0    0  501 -0.00000000000E+00  0.00000000000E+00  0.11576875719E+03  0.11576875719E+03  0.00000000000E+00 0.  1.
          3   -1    0    0  501    0  0.00000000000E+00 -0.00000000000E+00 -0.27953976563E+03  0.27953976563E+03  0.00000000000E+00 0. -1.
         23    2    1    2    0    0  0.66530693595E+02  0.12575510212E+03 -0.68237085781E+02  0.20132591566E+03  0.12504057559E+03 0.  0.
         23    2    1    2    0    0 -0.66530693595E+02 -0.12575510212E+03 -0.95533922663E+02  0.19398260716E+03  0.90894678627E+02 0.  0.
          5    1    3    3  502    0  0.81939384348E+02  0.84758351730E+02  0.24830351991E+01  0.11800972993E+03  0.47000000000E+01 0.  1.
         -5    1    3    3    0  502 -0.15408690753E+02  0.40996750387E+02 -0.70720120981E+02  0.83316185730E+02  0.47000000000E+01 0.  1.
        -11    1    4    4    0    0 -0.93990381999E+01 -0.46975210931E+02 -0.83040694213E+02  0.95868499814E+02  0.00000000000E+00 0. -1.
         11    1    4    4    0    0 -0.57131655395E+02 -0.78779891186E+02 -0.12493228450E+02  0.98114107347E+02  0.00000000000E+00 0.  1.
<mgrwt>
<rscale>  0 0.18403953E+03</rscale>
<asrwt>0</asrwt>
<pdfrwt beam="2">  1        3 0.43006117E-01 0.18940915E+03</pdfrwt>
<pdfrwt beam="1">  1       -3 0.17810578E-01 0.18940915E+03</pdfrwt>
<totfact> 0.36030837E+02</totfact>
</mgrwt>
</event>
<event>
 8    1  0.9424564E-006  0.1257138E+03  0.7546771E-02  0.1249602E+00
          2   -1    0    0  501    0  0.00000000000E+00  0.00000000000E+00  0.50639675381E+03  0.50639675381E+03  0.00000000000E+00 0. -1.
         -2   -1    0    0    0  501 -0.00000000000E+00 -0.00000000000E+00 -0.24062698628E+02  0.24062698628E+02  0.00000000000E+00 0.  1.
         23    2    1    2    0    0 -0.12934515100E+02  0.31952600851E+01  0.23151735903E+03  0.26344685989E+03  0.12500579622E+03 0.  0.
         23    2    1    2    0    0  0.12934515100E+02 -0.31952600851E+01  0.25081669615E+03  0.26701259254E+03  0.90604625382E+02 0.  0.
          5    1    3    3  502    0  0.20181198752E+01  0.62661806491E+02  0.97785686112E+02  0.11625276431E+03  0.47000000000E+01 0. -1.
         -5    1    3    3    0  502 -0.14952634975E+02 -0.59466546406E+02  0.13373167292E+03  0.14719409559E+03  0.47000000000E+01 0. -1.
        -11    1    4    4    0    0 -0.32850565841E+02 -0.52436813622E+01  0.43897287995E+02  0.55078378368E+02  0.00000000000E+00 0.  1.
         11    1    4    4    0    0  0.45785080941E+02  0.20484212771E+01  0.20691940816E+03  0.21193421418E+03  0.00000000000E+00 0. -1.
<mgrwt>
<rscale>  0 0.11614116E+03</rscale>
<asrwt>0</asrwt>
<pdfrwt beam="1">  1        2 0.77907185E-01 0.12571380E+03</pdfrwt>
<pdfrwt beam="2">  1       -2 0.37019540E-02 0.12571380E+03</pdfrwt>
<totfact> 0.17755812E+04</totfact>
</mgrwt>
</event>
<event>
 8    1  0.9424564E-006  0.1451025E+03  0.7546771E-02  0.1216640E+00
         -1   -1    0    0    0  501 -0.00000000000E+00  0.00000000000E+00  0.36307529478E+02  0.36307529478E+02  0.00000000000E+00 0.  1.
          1   -1    0    0  501    0  0.00000000000E+00 -0.00000000000E+00 -0.47412548796E+03  0.47412548796E+03  0.00000000000E+00 0. -1.
         23    2    1    2    0    0  0.59167101180E+02  0.43924383700E+02 -0.24817632551E+03  0.28748255793E+03  0.12499854089E+03 0.  0.
         23    2    1    2    0    0 -0.59167101180E+02 -0.43924383700E+02 -0.18964163297E+03  0.22295045951E+03  0.91174892893E+02 0.  0.
          5    1    3    3  502    0  0.59752025420E+02 -0.22412035306E+02 -0.18499780944E+03  0.19575209671E+03  0.47000000000E+01 0. -1.
         -5    1    3    3    0  502 -0.58492423976E+00  0.66336419006E+02 -0.63178516075E+02  0.91730461224E+02  0.47000000000E+01 0. -1.
        -11    1    4    4    0    0 -0.74406461646E+02 -0.24350767992E+02 -0.85644146496E+02  0.11603534490E+03  0.00000000000E+00 0.  1.
         11    1    4    4    0    0  0.15239360466E+02 -0.19573615708E+02 -0.10399748647E+03  0.10691511461E+03  0.00000000000E+00 0. -1.
<mgrwt>
<rscale>  0 0.13756761E+03</rscale>
<asrwt>0</asrwt>
<pdfrwt beam="2">  1        1 0.72942384E-01 0.14510249E+03</pdfrwt>
<pdfrwt beam="1">  1       -1 0.55857737E-02 0.14510249E+03</pdfrwt>
<totfact> 0.69413598E+03</totfact>
</mgrwt>
</event>
<event>
 8    1  0.9424564E-006  0.1320457E+03  0.7546771E-02  0.1229851E+00
         -1   -1    0    0    0  501 -0.00000000000E+00  0.00000000000E+00  0.13888707879E+03  0.13888707879E+03  0.00000000000E+00 0.  1.
          1   -1    0    0  501    0  0.00000000000E+00 -0.00000000000E+00 -0.12064323233E+03  0.12064323233E+03  0.00000000000E+00 0. -1.
         23    2    1    2    0    0 -0.60503771401E+01 -0.42070046260E+02  0.43077643772E+02  0.13889471498E+03  0.12501824907E+03 0.  0.
         23    2    1    2    0    0  0.60503771401E+01  0.42070046260E+02 -0.24833797310E+02  0.12063559615E+03  0.11013507031E+03 0.  0.
          5    1    3    3  502    0  0.49941535315E+02 -0.47145748545E+02  0.15787653743E+01  0.68858267881E+02  0.47000000000E+01 0. -1.
         -5    1    3    3    0  502 -0.55991912455E+02  0.50757022849E+01  0.41498878398E+02  0.70036447100E+02  0.47000000000E+01 0. -1.
        -11    1    4    4    0    0 -0.40458586094E+02 -0.16010545014E+02 -0.11936004662E+02  0.45118764917E+02  0.00000000000E+00 0.  1.
         11    1    4    4    0    0  0.46508963234E+02  0.58080591273E+02 -0.12897792649E+02  0.75516831230E+02  0.00000000000E+00 0. -1.
<mgrwt>
<rscale>  0 0.12839889E+03</rscale>
<asrwt>0</asrwt>
<pdfrwt beam="2">  1        1 0.18560497E-01 0.13204567E+03</pdfrwt>
<pdfrwt beam="1">  1       -1 0.21367243E-01 0.13204567E+03</pdfrwt>
<totfact> 0.48552272E+03</totfact>
</mgrwt>
</event>
<event>
 8    1  0.9424564E-006  0.1503503E+03  0.7546771E-02  0.1209065E+00
         -3   -1    0    0    0  501 -0.00000000000E+00  0.00000000000E+00  0.11679722128E+03  0.11679722128E+03  0.00000000000E+00 0.  1.
          3   -1    0    0  501    0  0.00000000000E+00 -0.00000000000E+00 -0.16727164710E+03  0.16727164710E+03  0.00000000000E+00 0. -1.
         23    2    1    2    0    0 -0.53233640054E+02  0.64398183580E+02  0.10846604002E+00  0.15035035687E+03  0.12499708623E+03 0.  0.
         23    2    1    2    0    0  0.53233640054E+02 -0.64398183580E+02 -0.50582891861E+02  0.13371851150E+03  0.91329430560E+02 0.  0.
          5    1    3    3  502    0 -0.10989050630E+02  0.92688584250E+02  0.19967190556E+02  0.95565221617E+02  0.47000000000E+01 0. -1.
         -5    1    3    3    0  502 -0.42244589424E+02 -0.28290400670E+02 -0.19858724516E+02  0.54785135256E+02  0.47000000000E+01 0. -1.
        -11    1    4    4    0    0  0.72455878667E+02 -0.34691263949E+02 -0.55996580693E+02  0.97923210717E+02  0.00000000000E+00 0. -1.
         11    1    4    4    0    0 -0.19222238613E+02 -0.29706919631E+02  0.54136888316E+01  0.35795300781E+02  0.00000000000E+00 0.  1.
<mgrwt>
<rscale>  0 0.14321639E+03</rscale>
<asrwt>0</asrwt>
<pdfrwt beam="2">  1        3 0.25734099E-01 0.15035032E+03</pdfrwt>
<pdfrwt beam="1">  1       -3 0.17968803E-01 0.15035032E+03</pdfrwt>
<totfact> 0.90577496E+02</totfact>
</mgrwt>
</event>
<event>
 8    1  0.9424564E-006  0.2131886E+03  0.7546771E-02  0.1142677E+00
         -1   -1    0    0    0  501 -0.00000000000E+00  0.00000000000E+00  0.79402415912E+02  0.79402415912E+02  0.00000000000E+00 0.  1.
          1   -1    0    0  501    0  0.00000000000E+00 -0.00000000000E+00 -0.63352111024E+03  0.63352111024E+03  0.00000000000E+00 0. -1.
         23    2    1    2    0    0 -0.12422330793E+03 -0.11996652441E+03 -0.14011607467E+03  0.25511153885E+03  0.12500394258E+03 0.  0.
         23    2    1    2    0    0  0.12422330793E+03  0.11996652441E+03 -0.41400261966E+03  0.45781198730E+03  0.91489067215E+02 0.  0.
          5    1    3    3  502    0 -0.43086239131E+02 -0.11185317927E+03 -0.12270598872E+03  0.17159955531E+03  0.47000000000E+01 0.  1.
         -5    1    3    3    0  502 -0.81137068801E+02 -0.81133451453E+01 -0.17410085959E+02  0.83511983548E+02  0.47000000000E+01 0.  1.
        -11    1    4    4    0    0  0.11793104624E+03  0.64384721946E+02 -0.33562584378E+03  0.36152154998E+03  0.00000000000E+00 0. -1.
         11    1    4    4    0    0  0.62922616960E+01  0.55581802465E+02 -0.78376775875E+02  0.96290437319E+02  0.00000000000E+00 0.  1.
<mgrwt>
<rscale>  0 0.20860364E+03</rscale>
<asrwt>0</asrwt>
<pdfrwt beam="2">  1        1 0.97464785E-01 0.21318861E+03</pdfrwt>
<pdfrwt beam="1">  1       -1 0.12215756E-01 0.21318861E+03</pdfrwt>
<totfact> 0.14476515E+03</totfact>
</mgrwt>
</event>
<event>
 8    1  0.9424564E-006  0.1442467E+03  0.7546771E-02  0.1217657E+00
          1   -1    0    0  501    0  0.00000000000E+00  0.00000000000E+00  0.24168949015E+03  0.24168949015E+03  0.00000000000E+00 0. -1.
         -1   -1    0    0    0  501 -0.00000000000E+00 -0.00000000000E+00 -0.71156542679E+02  0.71156542679E+02  0.00000000000E+00 0.  1.
         23    2    1    2    0    0 -0.24795389663E+02 -0.67568319835E+02  0.10924282202E+03  0.18094499884E+03  0.12500723679E+03 0.  0.
         23    2    1    2    0    0  0.24795389663E+02  0.67568319835E+02  0.61290125446E+02  0.13190103398E+03  0.91984314392E+02 0.  0.
          5    1    3    3  502    0 -0.32747343182E+02 -0.70502882385E+02  0.13364936928E+03  0.15468448150E+03  0.47000000000E+01 0. -1.
         -5    1    3    3    0  502  0.79519535182E+01  0.29345625504E+01 -0.24406547255E+02  0.26260517342E+02  0.47000000000E+01 0. -1.
        -11    1    4    4    0    0  0.33127235216E+02  0.10979550353E+02  0.65844080101E+02  0.74521185735E+02  0.00000000000E+00 0. -1.
         11    1    4    4    0    0 -0.83318455530E+01  0.56588769481E+02 -0.45539546541E+01  0.57379848246E+02  0.00000000000E+00 0.  1.
<mgrwt>
<rscale>  0 0.13683169E+03</rscale>
<asrwt>0</asrwt>
<pdfrwt beam="1">  1        1 0.37182998E-01 0.14424666E+03</pdfrwt>
<pdfrwt beam="2">  1       -1 0.10947161E-01 0.14424666E+03</pdfrwt>
<totfact> 0.58439514E+03</totfact>
</mgrwt>
</event>
<event>
 8    1  0.9424564E-006  0.1618134E+03  0.7546771E-02  0.1193303E+00
         -1   -1    0    0    0  501 -0.00000000000E+00  0.00000000000E+00  0.63926986814E+02  0.63926986814E+02  0.00000000000E+00 0.  1.
          1   -1    0    0  501    0  0.00000000000E+00 -0.00000000000E+00 -0.44140154473E+03  0.44140154473E+03  0.00000000000E+00 0. -1.
         23    2    1    2    0    0  0.15038735669E+02 -0.10165484223E+03 -0.88720940609E+02  0.18453991652E+03  0.12499481976E+03 0.  0.
         23    2    1    2    0    0 -0.15038735669E+02  0.10165484223E+03 -0.28875361731E+03  0.32078861503E+03  0.94693260083E+02 0.  0.
          5    1    3    3  502    0 -0.34643809050E+02  0.12232114947E+02 -0.26171522627E+02  0.45352582486E+02  0.47000000000E+01 0. -1.
         -5    1    3    3    0  502  0.49682544719E+02 -0.11388695717E+03 -0.62549417982E+02  0.13918733403E+03  0.47000000000E+01 0. -1.
        -11    1    4    4    0    0 -0.37202169287E+00  0.29352766379E+02 -0.78894232360E+01  0.30396813867E+02  0.00000000000E+00 0.  1.
         11    1    4    4    0    0 -0.14666713976E+02  0.72302075849E+02 -0.28086419407E+03  0.29039180116E+03  0.00000000000E+00 0. -1.
<mgrwt>
<rscale>  0 0.15598736E+03</rscale>
<asrwt>0</asrwt>
<pdfrwt beam="2">  1        1 0.67907931E-01 0.16181340E+03</pdfrwt>
<pdfrwt beam="1">  1       -1 0.98349210E-02 0.16181340E+03</pdfrwt>
<totfact> 0.32601615E+03</totfact>
</mgrwt>
</event>
<event>
 8    1  0.9424564E-006  0.1251508E+03  0.7546771E-02  0.1251885E+00
          1   -1    0    0  501    0  0.00000000000E+00  0.00000000000E+00  0.12639508498E+03  0.12639508498E+03  0.00000000000E+00 0. -1.
         -1   -1    0    0    0  501 -0.00000000000E+00 -0.00000000000E+00 -0.90447537850E+02  0.90447537850E+02  0.00000000000E+00 0.  1.
         23    2    1    2    0    0  0.61308603019E+01  0.47869629261E+00  0.20357348502E+02  0.12679572133E+03  0.12499966684E+03 0.  0.
         23    2    1    2    0    0 -0.61308603019E+01 -0.47869629261E+00  0.15590198624E+02  0.90046901497E+02  0.88473575591E+02 0.  0.
          5    1    3    3  502    0 -0.62335509848E+01  0.58698169558E+02  0.29898229415E+02  0.66334956015E+02  0.47000000000E+01 0. -1.
         -5    1    3    3    0  502  0.12364411287E+02 -0.58219473266E+02 -0.95408809130E+01  0.60460765314E+02  0.47000000000E+01 0. -1.
        -11    1    4    4    0    0 -0.84265598788E+01 -0.25673030751E+02  0.44231859099E+02  0.51832121109E+02  0.00000000000E+00 0. -1.
         11    1    4    4    0    0  0.22956995769E+01  0.25194334459E+02 -0.28641660475E+02  0.38214780388E+02  0.00000000000E+00 0.  1.
<mgrwt>
<rscale>  0 0.11482603E+03</rscale>
<asrwt>0</asrwt>
<pdfrwt beam="1">  1        1 0.19445398E-01 0.12515084E+03</pdfrwt>
<pdfrwt beam="2">  1       -1 0.13915006E-01 0.12515084E+03</pdfrwt>
<totfact> 0.89876412E+03</totfact>
</mgrwt>
</event>
<event>
 8    1  0.9424564E-006  0.1760195E+03  0.7546771E-02  0.1177635E+00
         -1   -1    0    0    0  501 -0.00000000000E+00  0.00000000000E+00  0.47970886239E+02  0.47970886239E+02  0.00000000000E+00 0.  1.
          1   -1    0    0  501    0  0.00000000000E+00 -0.00000000000E+00 -0.66549578373E+03  0.66549578373E+03  0.00000000000E+00 0. -1.
         23    2    1    2    0    0  0.18101731180E+02 -0.12259638400E+03 -0.18958853738E+03  0.25870190237E+03  0.12500125895E+03 0.  0.
         23    2    1    2    0    0 -0.18101731180E+02  0.12259638400E+03 -0.42793636010E+03  0.45476476760E+03  0.91235516708E+02 0.  0.
          5    1    3    3  502    0 -0.13479782944E+02 -0.13576389752E+03 -0.12328646541E+03  0.18394342329E+03  0.47000000000E+01 0. -1.
         -5    1    3    3    0  502  0.31581514124E+02  0.13167513514E+02 -0.66302071973E+02  0.74758479081E+02  0.47000000000E+01 0. -1.
        -11    1    4    4    0    0 -0.77704059792E+01  0.13593528458E+03 -0.39405373125E+03  0.41691380874E+03  0.00000000000E+00 0. -1.
         11    1    4    4    0    0 -0.10331325201E+02 -0.13338900574E+02 -0.33882628850E+02  0.37850958861E+02  0.00000000000E+00 0.  1.
<mgrwt>
<rscale>  0 0.17020474E+03</rscale>
<asrwt>0</asrwt>
<pdfrwt beam="2">  1        1 0.10238396E+00 0.17601949E+03</pdfrwt>
<pdfrwt beam="1">  1       -1 0.73801368E-02 0.17601949E+03</pdfrwt>
<totfact> 0.29173633E+03</totfact>
</mgrwt>
</event>
<event>
 8    1  0.9424564E-006  0.1752334E+03  0.7546771E-02  0.1178300E+00
         -1   -1    0    0    0  501 -0.00000000000E+00  0.00000000000E+00  0.68110900724E+03  0.68110900724E+03  0.00000000000E+00 0.  1.
          1   -1    0    0  501    0  0.00000000000E+00 -0.00000000000E+00 -0.58957525317E+02  0.58957525317E+02  0.00000000000E+00 0. -1.
         23    2    1    2    0    0 -0.65555456556E+02 -0.10384072414E+03  0.53599681458E+03  0.56391429038E+03  0.12500531101E+03 0.  0.
         23    2    1    2    0    0  0.65555456556E+02  0.10384072414E+03  0.86154667340E+02  0.17615224218E+03  0.92339438189E+02 0.  0.
          5    1    3    3  502    0 -0.31653070545E+02 -0.12687817773E+03  0.35702328606E+03  0.38024690091E+03  0.47000000000E+01 0. -1.
         -5    1    3    3    0  502 -0.33902386010E+02  0.23037453590E+02  0.17897352852E+03  0.18366738948E+03  0.47000000000E+01 0. -1.
        -11    1    4    4    0    0  0.53218918594E+02  0.53771935882E+01  0.21129690715E+02  0.57512010372E+02  0.00000000000E+00 0.  1.
         11    1    4    4    0    0  0.12336537961E+02  0.98463530551E+02  0.65024976624E+02  0.11864023180E+03  0.00000000000E+00 0. -1.
<mgrwt>
<rscale>  0 0.16956754E+03</rscale>
<asrwt>0</asrwt>
<pdfrwt beam="2">  1        1 0.90703890E-02 0.17523339E+03</pdfrwt>
<pdfrwt beam="1">  1       -1 0.10478600E+00 0.17523339E+03</pdfrwt>
<totfact> 0.66170268E+02</totfact>
</mgrwt>
</event>
<event>
 8    1  0.9424564E-006  0.1287573E+03  0.7546771E-02  0.1250347E+00
          2   -1    0    0  501    0  0.00000000000E+00  0.00000000000E+00  0.36064971883E+03  0.36064971883E+03  0.00000000000E+00 0. -1.
         -2   -1    0    0    0  501 -0.00000000000E+00 -0.00000000000E+00 -0.34553203055E+02  0.34553203055E+02  0.00000000000E+00 0.  1.
         23    2    1    2    0    0 -0.27939123872E+02  0.13094665364E+02  0.13546571323E+03  0.18689407322E+03  0.12500548084E+03 0.  0.
         23    2    1    2    0    0  0.27939123872E+02 -0.13094665364E+02  0.19063080254E+03  0.20830884866E+03  0.78105112818E+02 0.  0.
          5    1    3    3  502    0 -0.98919366436E+00 -0.49667707880E+02  0.95150017818E+02  0.10744056776E+03  0.47000000000E+01 0. -1.
         -5    1    3    3    0  502 -0.26949930208E+02  0.62762373244E+02  0.40315695409E+02  0.79453505459E+02  0.47000000000E+01 0. -1.
        -11    1    4    4    0    0  0.21701246021E+02  0.28621707425E+02  0.12688790649E+03  0.13187375413E+03  0.00000000000E+00 0. -1.
         11    1    4    4    0    0  0.62378778507E+01 -0.41716372789E+02  0.63742896053E+02  0.76435094531E+02  0.00000000000E+00 0.  1.
<mgrwt>
<rscale>  0 0.11571016E+03</rscale>
<asrwt>0</asrwt>
<pdfrwt beam="1">  1        2 0.55484569E-01 0.12875727E+03</pdfrwt>
<pdfrwt beam="2">  1       -2 0.53158777E-02 0.12875727E+03</pdfrwt>
<totfact> 0.14942633E+04</totfact>
</mgrwt>
</event>
<event>
 8    1  0.9424564E-006  0.1310490E+03  0.7546771E-02  0.1239145E+00
          4   -1    0    0  501    0  0.00000000000E+00  0.00000000000E+00  0.11681302630E+03  0.11681302630E+03  0.00000000000E+00 0. -1.
         -4   -1    0    0    0  501 -0.00000000000E+00 -0.00000000000E+00 -0.15007524741E+03  0.15007524741E+03  0.00000000000E+00 0.  1.
         23    2    1    2    0    0  0.35662828308E+02 -0.16565161763E+02 -0.83245688509E+02  0.15525365022E+03  0.12501043694E+03 0.  0.
         23    2    1    2    0    0 -0.35662828308E+02  0.16565161763E+02  0.49983467400E+02  0.11163462348E+03  0.91748025809E+02 0.  0.
          5    1    3    3  502    0 -0.29844686184E+02  0.34028324420E+02 -0.15125270330E+02  0.47953059953E+02  0.47000000000E+01 0.  1.
         -5    1    3    3    0  502  0.65507514492E+02 -0.50593486183E+02 -0.68120418179E+02  0.10730059027E+03  0.47000000000E+01 0.  1.
        -11    1    4    4    0    0 -0.64818569608E+02 -0.26694746525E+01  0.31501360283E+02  0.72117326356E+02  0.00000000000E+00 0.  1.
         11    1    4    4    0    0  0.29155741301E+02  0.19234636415E+02  0.18482107117E+02  0.39517297128E+02  0.00000000000E+00 0. -1.
<mgrwt>
<rscale>  0 0.12242759E+03</rscale>
<asrwt>0</asrwt>
<pdfrwt beam="1">  1        4 0.17971235E-01 0.13104904E+03</pdfrwt>
<pdfrwt beam="2">  1       -4 0.23088500E-01 0.13104904E+03</pdfrwt>
<totfact> 0.77950167E+02</totfact>
</mgrwt>
</event>
<event>
 8    1  0.9424564E-006  0.1312750E+03  0.7546771E-02  0.1238998E+00
         -2   -1    0    0    0  501 -0.00000000000E+00  0.00000000000E+00  0.98236115538E+02  0.98236115538E+02  0.00000000000E+00 0.  1.
          2   -1    0    0  501    0  0.00000000000E+00 -0.00000000000E+00 -0.13565574263E+03  0.13565574263E+03  0.00000000000E+00 0. -1.
         23    2    1    2    0    0 -0.22488928260E+02 -0.33201700702E+02 -0.21538061660E+02  0.13303012630E+03  0.12500008632E+03 0.  0.
         23    2    1    2    0    0  0.22488928260E+02  0.33201700702E+02 -0.15881565435E+02  0.10086173187E+03  0.91174338561E+02 0.  0.
          5    1    3    3  502    0 -0.42875620219E+02 -0.71174833769E+02 -0.30720810091E+02  0.88713211778E+02  0.47000000000E+01 0.  1.
         -5    1    3    3    0  502  0.20386691958E+02  0.37973133067E+02  0.91827484306E+01  0.44316914521E+02  0.47000000000E+01 0.  1.
        -11    1    4    4    0    0 -0.19974571751E+02  0.15667687586E+02  0.27674991378E+02  0.37554827901E+02  0.00000000000E+00 0.  1.
         11    1    4    4    0    0  0.42463500011E+02  0.17534013117E+02 -0.43556556813E+02  0.63306903973E+02  0.00000000000E+00 0. -1.
<mgrwt>
<rscale>  0 0.12251950E+03</rscale>
<asrwt>0</asrwt>
<pdfrwt beam="2">  1        2 0.20870114E-01 0.13127500E+03</pdfrwt>
<pdfrwt beam="1">  1       -2 0.15113248E-01 0.13127500E+03</pdfrwt>
<totfact> 0.84155287E+03</totfact>
</mgrwt>
</event>
<event>
 8    1  0.9424564E-006  0.1363560E+03  0.7546771E-02  0.1231415E+00
         -2   -1    0    0    0  501 -0.00000000000E+00  0.00000000000E+00  0.26873887676E+02  0.26873887676E+02  0.00000000000E+00 0.  1.
          2   -1    0    0  501    0  0.00000000000E+00 -0.00000000000E+00 -0.57934362384E+03  0.57934362384E+03  0.00000000000E+00 0. -1.
         23    2    1    2    0    0 -0.34718515298E+02  0.41970397795E+02 -0.22923511995E+03  0.26672402853E+03  0.12500431023E+03 0.  0.
         23    2    1    2    0    0  0.34718515298E+02 -0.41970397795E+02 -0.32323461621E+03  0.33949348299E+03  0.88364689103E+02 0.  0.
          5    1    3    3  502    0  0.27899833979E+01 -0.21466855984E+02  0.36148353686E+01  0.22444753238E+02  0.47000000000E+01 0. -1.
         -5    1    3    3    0  502 -0.37508498696E+02  0.63437253779E+02 -0.23284995532E+03  0.24427927529E+03  0.47000000000E+01 0. -1.
        -11    1    4    4    0    0  0.24594216085E+02  0.22496271713E+02 -0.63852458007E+02  0.72028425634E+02  0.00000000000E+00 0.  1.
         11    1    4    4    0    0  0.10124299213E+02 -0.64466669508E+02 -0.25938215820E+03  0.26746505736E+03  0.00000000000E+00 0. -1.
<mgrwt>
<rscale>  0 0.12736760E+03</rscale>
<asrwt>0</asrwt>
<pdfrwt beam="2">  1        2 0.89129786E-01 0.13635603E+03</pdfrwt>
<pdfrwt beam="1">  1       -2 0.41344444E-02 0.13635603E+03</pdfrwt>
<totfact> 0.13061086E+04</totfact>
</mgrwt>
</event>
<event>
 8    1  0.9424564E-006  0.1365643E+03  0.7546771E-02  0.1230134E+00
         -1   -1    0    0    0  501 -0.00000000000E+00  0.00000000000E+00  0.25482715957E+03  0.25482715957E+03  0.00000000000E+00 0.  1.
          1   -1    0    0  501    0  0.00000000000E+00 -0.00000000000E+00 -0.58646625739E+02  0.58646625739E+02  0.00000000000E+00 0. -1.
         23    2    1    2    0    0 -0.29655547340E+01  0.54717826469E+02  0.12925008078E+03  0.18803028907E+03  0.12508785384E+03 0.  0.
         23    2    1    2    0    0  0.29655547340E+01 -0.54717826469E+02  0.66930453052E+02  0.12544349624E+03  0.90849051479E+02 0.  0.
          5    1    3    3  502    0  0.37674402676E+02 -0.26018805647E+02  0.41789060272E+02  0.62167149063E+02  0.47000000000E+01 0. -1.
         -5    1    3    3    0  502 -0.40639957410E+02  0.80736632117E+02  0.87461020507E+02  0.12586314000E+03  0.47000000000E+01 0. -1.
        -11    1    4    4    0    0 -0.95242625833E+01 -0.42068970299E+02  0.87924374848E+02  0.97934700348E+02  0.00000000000E+00 0.  1.
         11    1    4    4    0    0  0.12489817317E+02 -0.12648856170E+02 -0.20993921796E+02  0.27508795892E+02  0.00000000000E+00 0. -1.
<mgrwt>
<rscale>  0 0.12821172E+03</rscale>
<asrwt>0</asrwt>
<pdfrwt beam="2">  1        1 0.90225580E-02 0.13656429E+03</pdfrwt>
<pdfrwt beam="1">  1       -1 0.39204178E-01 0.13656429E+03</pdfrwt>
<totfact> 0.45153186E+03</totfact>
</mgrwt>
</event>
<event>
 8    1  0.9424564E-006  0.1404780E+03  0.7546771E-02  0.1224413E+00
         -2   -1    0    0    0  501 -0.00000000000E+00  0.00000000000E+00  0.55391627198E+02  0.55391627198E+02  0.00000000000E+00 0.  1.
          2   -1    0    0  501    0  0.00000000000E+00 -0.00000000000E+00 -0.28278270559E+03  0.28278270559E+03  0.00000000000E+00 0. -1.
         23    2    1    2    0    0  0.12628332807E+02  0.62842694746E+02 -0.13185153141E+03  0.19266261201E+03  0.12500150663E+03 0.  0.
         23    2    1    2    0    0 -0.12628332807E+02 -0.62842694746E+02 -0.95539546980E+02  0.14551172078E+03  0.89090834396E+02 0.  0.
          5    1    3    3  502    0 -0.55836105524E+02  0.25280353897E+02 -0.68120307294E+02  0.91756379828E+02  0.47000000000E+01 0.  1.
         -5    1    3    3    0  502  0.68464438330E+02  0.37562340848E+02 -0.63731224114E+02  0.10090623218E+03  0.47000000000E+01 0.  1.
        -11    1    4    4    0    0 -0.27350809979E+02  0.11743375001E+02 -0.45931989978E+02  0.54733183410E+02  0.00000000000E+00 0.  1.
         11    1    4    4    0    0  0.14722477172E+02 -0.74586069747E+02 -0.49607557002E+02  0.90778537365E+02  0.00000000000E+00 0. -1.
<mgrwt>
<rscale>  0 0.13207203E+03</rscale>
<asrwt>0</asrwt>
<pdfrwt beam="2">  1        2 0.43505032E-01 0.14047795E+03</pdfrwt>
<pdfrwt beam="1">  1       -2 0.85217888E-02 0.14047795E+03</pdfrwt>
<totfact> 0.94711861E+03</totfact>
</mgrwt>
</event>
<event>
 8    1  0.9424564E-006  0.1705295E+03  0.7546771E-02  0.1184452E+00
          1   -1    0    0  501    0  0.00000000000E+00  0.00000000000E+00  0.71814843310E+02  0.71814843310E+02  0.00000000000E+00 0. -1.
         -1   -1    0    0    0  501 -0.00000000000E+00 -0.00000000000E+00 -0.50500346370E+03  0.50500346370E+03  0.00000000000E+00 0.  1.
         23    2    1    2    0    0 -0.11443372537E+03  0.18996687464E+02 -0.38944734796E+03  0.42514649881E+03  0.12499742789E+03 0.  0.
         23    2    1    2    0    0  0.11443372537E+03 -0.18996687464E+02 -0.43741272425E+02  0.15167180820E+03  0.87378984032E+02 0.  0.
          5    1    3    3  502    0 -0.58634111816E+02 -0.17660938037E+02 -0.32988123404E+03  0.33554967795E+03  0.47000000000E+01 0.  1.
         -5    1    3    3    0  502 -0.55799613557E+02  0.36657625501E+02 -0.59566113917E+02  0.89596820857E+02  0.47000000000E+01 0.  1.
        -11    1    4    4    0    0  0.50823675120E+02 -0.46156977597E+02  0.21115088474E+01  0.68687487967E+02  0.00000000000E+00 0. -1.
         11    1    4    4    0    0  0.63610050253E+02  0.27160290133E+02 -0.45852781273E+02  0.82984320228E+02  0.00000000000E+00 0.  1.
<mgrwt>
<rscale>  0 0.16381810E+03</rscale>
<asrwt>0</asrwt>
<pdfrwt beam="1">  1        1 0.11048437E-01 0.17052949E+03</pdfrwt>
<pdfrwt beam="2">  1       -1 0.77692841E-01 0.17052949E+03</pdfrwt>
<totfact> 0.96385866E+02</totfact>
</mgrwt>
</event>
<event>
 7    1  0.9424564E-006  0.1455703E+03  0.7546771E-02  0.1222053E+00
         -1   -1    0    0    0  501 -0.00000000000E+00  0.00000000000E+00  0.69166398346E+02  0.69166398346E+02  0.00000000000E+00 0.  1.
          1   -1    0    0  501    0  0.00000000000E+00 -0.00000000000E+00 -0.22506697385E+03  0.22506697385E+03  0.00000000000E+00 0. -1.
         23    2    1    2    0    0  0.24330724874E+02 -0.42140323057E+02 -0.72519960124E+02  0.12647446834E+03  0.91481449071E+02 0.  0.
          5    1    1    2  502    0  0.31856148905E+02 -0.10995338504E+02 -0.83625481759E+02  0.90283015519E+02  0.47000000000E+01 0. -1.
         -5    1    1    2    0  502 -0.56186873779E+02  0.53135661561E+02  0.24486638033E+00  0.77475888340E+02  0.47000000000E+01 0.  1.
        -11    1    3    3    0    0  0.18906544039E+02 -0.67733753476E+02 -0.71507794927E+02  0.10029298830E+03  0.00000000000E+00 0. -1.
         11    1    3    3    0    0  0.54241808349E+01  0.25593430418E+02 -0.10121651971E+01  0.26181480033E+02  0.00000000000E+00 0.  1.
<mgrwt>
<rscale>  0 0.13370980E+03</rscale>
<asrwt>0</asrwt>
<pdfrwt beam="2">  1        1 0.34625687E-01 0.14557034E+03</pdfrwt>
<pdfrwt beam="1">  1       -1 0.10640985E-01 0.14557034E+03</pdfrwt>
<totfact> 0.66720130E+03</totfact>
</mgrwt>
</event>
<event>
 8    1  0.9424564E-006  0.1640467E+03  0.7546771E-02  0.1191479E+00
         -1   -1    0    0    0  501 -0.00000000000E+00  0.00000000000E+00  0.95946421828E+03  0.95946421828E+03  0.00000000000E+00 0.  1.
          1   -1    0    0  501    0  0.00000000000E+00 -0.00000000000E+00 -0.31220644979E+02  0.31220644979E+02  0.00000000000E+00 0. -1.
         23    2    1    2    0    0 -0.96014252851E+02  0.45467588236E+02  0.73010282596E+03  0.74830572670E+03  0.12500114323E+03 0.  0.
         23    2    1    2    0    0  0.96014252851E+02 -0.45467588236E+02  0.19814074735E+03  0.24237913656E+03  0.90564075389E+02 0.  0.
          5    1    3    3  502    0 -0.27061651989E+02 -0.74149198814E+01  0.52154190672E+03  0.52231730252E+03  0.47000000000E+01 0. -1.
         -5    1    3    3    0  502 -0.68952600862E+02  0.52882508117E+02  0.20856091924E+03  0.22598842418E+03  0.47000000000E+01 0. -1.
        -11    1    4    4    0    0  0.11096669304E+03 -0.27158818832E+02  0.14815605382E+03  0.18708667694E+03  0.00000000000E+00 0.  1.
         11    1    4    4    0    0 -0.14952440184E+02 -0.18308769403E+02  0.49984693527E+02  0.55292459627E+02  0.00000000000E+00 0. -1.
<mgrwt>
<rscale>  0 0.15756010E+03</rscale>
<asrwt>0</asrwt>
<pdfrwt beam="2">  1        1 0.48031769E-02 0.16404671E+03</pdfrwt>
<pdfrwt beam="1">  1       -1 0.14760986E+00 0.16404671E+03</pdfrwt>
<totfact> 0.68915242E+02</totfact>
</mgrwt>
</event>
<event>
 8    1  0.9424564E-006  0.1341353E+03  0.7546771E-02  0.1231384E+00
          1   -1    0    0  501    0  0.00000000000E+00  0.00000000000E+00  0.86950332102E+03  0.86950332102E+03  0.00000000000E+00 0. -1.
         -1   -1    0    0    0  501 -0.00000000000E+00 -0.00000000000E+00 -0.19233162453E+02  0.19233162453E+02  0.00000000000E+00 0.  1.
         23    2    1    2    0    0  0.41532020433E+02  0.25342640609E+02  0.31354013012E+03  0.34102742220E+03  0.12500052537E+03 0.  0.
         23    2    1    2    0    0 -0.41532020433E+02 -0.25342640609E+02  0.53673002845E+03  0.54770906127E+03  0.97667467490E+02 0.  0.
          5    1    3    3  502    0 -0.19173144245E+02 -0.39877804967E+02  0.11729059536E+03  0.12544728993E+03  0.47000000000E+01 0.  1.
         -5    1    3    3    0  502  0.60705164678E+02  0.65220445576E+02  0.19624953475E+03  0.21558013227E+03  0.47000000000E+01 0.  1.
        -11    1    4    4    0    0 -0.73594261039E+02 -0.16767803176E+02  0.39474741103E+03  0.40189898358E+03  0.00000000000E+00 0. -1.
         11    1    4    4    0    0  0.32062240606E+02 -0.85748374324E+01  0.14198261741E+03  0.14581007770E+03  0.00000000000E+00 0.  1.
<mgrwt>
<rscale>  0 0.12738801E+03</rscale>
<asrwt>0</asrwt>
<pdfrwt beam="1">  1        1 0.13376971E+00 0.13413534E+03</pdfrwt>
<pdfrwt beam="2">  1       -1 0.29589487E-02 0.13413534E+03</pdfrwt>
<totfact> 0.75120006E+03</totfact>
</mgrwt>
</event>
<event>
 8    1  0.9424564E-006  0.2507467E+03  0.7546771E-02  0.1115297E+00
          3   -1    0    0  501    0  0.00000000000E+00  0.00000000000E+00  0.81739887760E+03  0.81739887760E+03  0.00000000000E+00 0. -1.
         -3   -1    0    0    0  501 -0.00000000000E+00 -0.00000000000E+00 -0.89747979826E+02  0.89747979826E+02  0.00000000000E+00 0.  1.
         23    2    1    2    0    0  0.54038894097E+01  0.21730167385E+03  0.17330520649E+03  0.30480909965E+03  0.12499869262E+03 0.  0.
         23    2    1    2    0    0 -0.54038894097E+01 -0.21730167385E+03  0.55434569128E+03  0.60233775777E+03  0.90897797058E+02 0.  0.
          5    1    3    3  502    0 -0.19392950746E+02  0.12966105563E+03  0.29406808069E+02  0.13444302230E+03  0.47000000000E+01 0. -1.
         -5    1    3    3    0  502  0.24796840156E+02  0.87640618223E+02  0.14389839842E+03  0.17036607735E+03  0.47000000000E+01 0. -1.
        -11    1    4    4    0    0  0.12655199159E+02  0.37276746901E+01  0.42883791404E+02  0.44867239602E+02  0.00000000000E+00 0.  1.
         11    1    4    4    0    0 -0.18059088568E+02 -0.22102934854E+03  0.51146189988E+03  0.55747051817E+03  0.00000000000E+00 0. -1.
<mgrwt>
<rscale>  0 0.24687344E+03</rscale>
<asrwt>0</asrwt>
<pdfrwt beam="1">  1        3 0.12575367E+00 0.25074667E+03</pdfrwt>
<pdfrwt beam="2">  1       -3 0.13807382E-01 0.25074667E+03</pdfrwt>
<totfact> 0.56305621E+01</totfact>
</mgrwt>
</event>
<event>
 8    1  0.9424564E-006  0.2022544E+03  0.7546771E-02  0.1152369E+00
          2   -1    0    0  501    0  0.00000000000E+00  0.00000000000E+00  0.29561710448E+03  0.29561710448E+03  0.00000000000E+00 0. -1.
         -2   -1    0    0    0  501 -0.00000000000E+00 -0.00000000000E+00 -0.12876101863E+03  0.12876101863E+03  0.00000000000E+00 0.  1.
         23    2    1    2    0    0 -0.12787610399E+03  0.94495625854E+02  0.50061536567E+02  0.20835788013E+03  0.12500050997E+03 0.  0.
         23    2    1    2    0    0  0.12787610399E+03 -0.94495625854E+02  0.11679454928E+03  0.21602024298E+03  0.87988961579E+02 0.  0.
          5    1    3    3  502    0 -0.49129779588E+02 -0.17041757715E+02  0.49197564751E+02  0.71740136087E+02  0.47000000000E+01 0. -1.
         -5    1    3    3    0  502 -0.78746324401E+02  0.11153738357E+03  0.86397181591E+00  0.13661774404E+03  0.47000000000E+01 0. -1.
        -11    1    4    4    0    0  0.20407312238E+02  0.91149525589E+01 -0.55282751753E+01  0.23023956640E+02  0.00000000000E+00 0.  1.
         11    1    4    4    0    0  0.10746879175E+03 -0.10361057841E+03  0.12232282446E+03  0.19299628634E+03  0.00000000000E+00 0. -1.
<mgrwt>
<rscale>  0 0.19691412E+03</rscale>
<asrwt>0</asrwt>
<pdfrwt beam="1">  1        2 0.45479554E-01 0.20225442E+03</pdfrwt>
<pdfrwt beam="2">  1       -2 0.19809388E-01 0.20225442E+03</pdfrwt>
<totfact> 0.23453705E+03</totfact>
</mgrwt>
</event>
<event>
 8    1  0.9424564E-006  0.1319680E+03  0.7546771E-02  0.1240659E+00
          1   -1    0    0  501    0  0.00000000000E+00  0.00000000000E+00  0.43422606366E+03  0.43422606366E+03  0.00000000000E+00 0. -1.
         -1   -1    0    0    0  501 -0.00000000000E+00 -0.00000000000E+00 -0.31582068028E+02  0.31582068028E+02  0.00000000000E+00 0.  1.
         23    2    1    2    0    0 -0.13465759181E+02  0.40118095669E+02  0.17470627795E+03  0.21894708666E+03  0.12499901972E+03 0.  0.
         23    2    1    2    0    0  0.13465759181E+02 -0.40118095669E+02  0.22793771768E+03  0.24686104503E+03  0.84817357541E+02 0.  0.
          5    1    3    3  502    0 -0.21253323795E+02  0.44155873775E+02  0.19242625701E+03  0.19862376330E+03  0.47000000000E+01 0. -1.
         -5    1    3    3    0  502  0.77875646138E+01 -0.40377781061E+01 -0.17719979057E+02  0.20323323361E+02  0.47000000000E+01 0. -1.
        -11    1    4    4    0    0  0.48071085376E+02 -0.11076804166E+02  0.12843127347E+03  0.13757949282E+03  0.00000000000E+00 0.  1.
         11    1    4    4    0    0 -0.34605326195E+02 -0.29041291503E+02  0.99506444211E+02  0.10928155221E+03  0.00000000000E+00 0. -1.
<mgrwt>
<rscale>  0 0.12148979E+03</rscale>
<asrwt>0</asrwt>
<pdfrwt beam="1">  1        1 0.66804006E-01 0.13196796E+03</pdfrwt>
<pdfrwt beam="2">  1       -1 0.48587800E-02 0.13196796E+03</pdfrwt>
<totfact> 0.94956202E+03</totfact>
</mgrwt>
</event>
<event>
 8    1  0.9424564E-006  0.2227489E+03  0.7546771E-02  0.1135233E+00
         -1   -1    0    0    0  501 -0.00000000000E+00  0.00000000000E+00  0.55022183692E+02  0.55022183692E+02  0.00000000000E+00 0.  1.
          1   -1    0    0  501    0  0.00000000000E+00 -0.00000000000E+00 -0.83184986289E+03  0.83184986289E+03  0.00000000000E+00 0. -1.
         23    2    1    2    0    0  0.11248365258E+03 -0.14611654478E+03 -0.39923575776E+03  0.45717202107E+03  0.12495779214E+03 0.  0.
         23    2    1    2    0    0 -0.11248365258E+03  0.14611654478E+03 -0.37759192143E+03  0.42970002551E+03  0.89798864314E+02 0.  0.
          5    1    3    3  502    0 -0.55132106570E+01 -0.50030794337E+02 -0.20078411145E+03  0.20705029651E+03  0.47000000000E+01 0. -1.
         -5    1    3    3    0  502  0.11799686324E+03 -0.96085750445E+02 -0.19845164631E+03  0.25012172456E+03  0.47000000000E+01 0. -1.
        -11    1    4    4    0    0 -0.55689144421E+02  0.11009345897E+03 -0.16057085163E+03  0.20249654048E+03  0.00000000000E+00 0.  1.
         11    1    4    4    0    0 -0.56794508164E+02  0.36023085811E+02 -0.21702106980E+03  0.22720348502E+03  0.00000000000E+00 0. -1.
<mgrwt>
<rscale>  0 0.21819945E+03</rscale>
<asrwt>0</asrwt>
<pdfrwt beam="2">  1        1 0.12797691E+00 0.22274889E+03</pdfrwt>
<pdfrwt beam="1">  1       -1 0.84649511E-02 0.22274889E+03</pdfrwt>
<totfact> 0.17075602E+03</totfact>
</mgrwt>
</event>
<event>
 8    1  0.9424564E-006  0.1281403E+03  0.7546771E-02  0.1243981E+00
          1   -1    0    0  501    0  0.00000000000E+00  0.00000000000E+00  0.28492742609E+03  0.28492742609E+03  0.00000000000E+00 0. -1.
         -1   -1    0    0    0  501 -0.00000000000E+00 -0.00000000000E+00 -0.44517810463E+02  0.44517810463E+02  0.00000000000E+00 0.  1.
         23    2    1    2    0    0  0.40673025671E+01  0.27509346911E+02  0.12849289641E+03  0.18146725027E+03  0.12508649557E+03 0.  0.
         23    2    1    2    0    0 -0.40673025671E+01 -0.27509346911E+02  0.11191671922E+03  0.14797798629E+03  0.92729851007E+02 0.  0.
          5    1    3    3  502    0 -0.34024091110E+02  0.55859921220E+02  0.30179471381E+02  0.72186287253E+02  0.47000000000E+01 0.  1.
         -5    1    3    3    0  502  0.38091393677E+02 -0.28350574309E+02  0.98313425030E+02  0.10928096301E+03  0.47000000000E+01 0.  1.
        -11    1    4    4    0    0  0.31404106508E+02  0.10366148648E+02  0.11620874978E+02  0.35053097989E+02  0.00000000000E+00 0.  1.
         11    1    4    4    0    0 -0.35471409075E+02 -0.37875495558E+02  0.10029584424E+03  0.11292488830E+03  0.00000000000E+00 0. -1.
<mgrwt>
<rscale>  0 0.11946595E+03</rscale>
<asrwt>0</asrwt>
<pdfrwt beam="1">  1        1 0.43834987E-01 0.12814031E+03</pdfrwt>
<pdfrwt beam="2">  1       -1 0.68488941E-02 0.12814031E+03</pdfrwt>
<totfact> 0.96253657E+03</totfact>
</mgrwt>
</event>
<event>
 8    1  0.9424564E-006  0.1327000E+03  0.7546771E-02  0.1236602E+00
         -1   -1    0    0    0  501 -0.00000000000E+00  0.00000000000E+00  0.18462865144E+02  0.18462865144E+02  0.00000000000E+00 0.  1.
          1   -1    0    0  501    0  0.00000000000E+00 -0.00000000000E+00 -0.76760828382E+03  0.76760828382E+03  0.00000000000E+00 0. -1.
         23    2    1    2    0    0  0.10756759527E+02  0.43229691429E+02 -0.35085167049E+03  0.37510824474E+03  0.12499914598E+03 0.  0.
         23    2    1    2    0    0 -0.10756759527E+02 -0.43229691429E+02 -0.39829374819E+03  0.41096290422E+03  0.90929009134E+02 0.  0.
          5    1    3    3  502    0  0.63289488426E+02  0.43380647959E+02 -0.16705623096E+03  0.18389484567E+03  0.47000000000E+01 0.  1.
         -5    1    3    3    0  502 -0.52532728899E+02 -0.15095653061E+00 -0.18379543953E+03  0.19121339907E+03  0.47000000000E+01 0.  1.
        -11    1    4    4    0    0 -0.28042609886E+02  0.17820816195E+02 -0.20069603847E+03  0.20342779878E+03  0.00000000000E+00 0.  1.
         11    1    4    4    0    0  0.17285850359E+02 -0.61050507624E+02 -0.19759770972E+03  0.20753510544E+03  0.00000000000E+00 0. -1.
<mgrwt>
<rscale>  0 0.12402451E+03</rscale>
<asrwt>0</asrwt>
<pdfrwt beam="2">  1        1 0.11809360E+00 0.13270004E+03</pdfrwt>
<pdfrwt beam="1">  1       -1 0.28404403E-02 0.13270004E+03</pdfrwt>
<totfact> 0.96296512E+03</totfact>
</mgrwt>
</event>
<event>
 8    1  0.9424564E-006  0.1371758E+03  0.7546771E-02  0.1228309E+00
          2   -1    0    0  501    0  0.00000000000E+00  0.00000000000E+00  0.15851305398E+03  0.15851305398E+03  0.00000000000E+00 0.  1.
         -2   -1    0    0    0  501 -0.00000000000E+00 -0.00000000000E+00 -0.16988679259E+03  0.16988679259E+03  0.00000000000E+00 0. -1.
         23    2    1    2    0    0  0.55927551832E+02 -0.80152843653E+01 -0.11440634046E+03  0.17862255192E+03  0.12500027793E+03 0.  0.
         23    2    1    2    0    0 -0.55927551832E+02  0.80152843653E+01  0.10303260185E+03  0.14977729464E+03  0.92872951439E+02 0.  0.
          5    1    3    3  502    0  0.82010808742E+02  0.19588678114E+02 -0.36848815669E+02  0.92138017544E+02  0.47000000000E+01 0. -1.
         -5    1    3    3    0  502 -0.26083256909E+02 -0.27603962480E+02 -0.77557524789E+02  0.86484534380E+02  0.47000000000E+01 0. -1.
        -11    1    4    4    0    0 -0.26439687003E+02 -0.20022102928E+02  0.10391409390E+03  0.10907832307E+03  0.00000000000E+00 0.  1.
         11    1    4    4    0    0 -0.29487864830E+02  0.28037387294E+02 -0.88149204663E+00  0.40698971568E+02  0.00000000000E+00 0. -1.
<mgrwt>
<rscale>  0 0.12942673E+03</rscale>
<asrwt>0</asrwt>
<pdfrwt beam="1">  1        2 0.24386624E-01 0.13717582E+03</pdfrwt>
<pdfrwt beam="2">  1       -2 0.26136429E-01 0.13717582E+03</pdfrwt>
<totfact> 0.28075800E+03</totfact>
</mgrwt>
</event>
<event>
 7    1  0.9424564E-006  0.3020227E+03  0.7546771E-02  0.1119033E+00
         -1   -1    0    0    0  501 -0.00000000000E+00  0.00000000000E+00  0.42432800385E+02  0.42432800385E+02  0.00000000000E+00 0.  1.
          1   -1    0    0  501    0  0.00000000000E+00 -0.00000000000E+00 -0.11751751170E+04  0.11751751170E+04  0.00000000000E+00 0. -1.
         23    2    1    2    0    0 -0.22814859158E+02  0.75256808270E+02 -0.52241262486E+03  0.53663796937E+03  0.94240408312E+02 0.  0.
          5    1    1    2  502    0  0.81844180631E+02  0.92026636374E+02 -0.28193838742E+03  0.30769906728E+03  0.47000000000E+01 0. -1.
         -5    1    1    2    0  502 -0.59029321473E+02 -0.16728344464E+03 -0.32839130434E+03  0.37327088075E+03  0.47000000000E+01 0.  1.
        -11    1    3    3    0    0  0.32010386811E+02  0.51205770809E+01 -0.17660602989E+03  0.17955660658E+03  0.00000000000E+00 0.  1.
         11    1    3    3    0    0 -0.54825245969E+02  0.70136231189E+02 -0.34580659498E+03  0.35708136279E+03  0.00000000000E+00 0. -1.
<mgrwt>
<rscale>  0 0.24114440E+03</rscale>
<asrwt>0</asrwt>
<pdfrwt beam="2">  1        1 0.18079617E+00 0.30202274E+03</pdfrwt>
<pdfrwt beam="1">  1       -1 0.65281233E-02 0.30202274E+03</pdfrwt>
<totfact> 0.14006418E+03</totfact>
</mgrwt>
</event>
<event>
 8    1  0.9424564E-006  0.1400969E+03  0.7546771E-02  0.1224460E+00
          1   -1    0    0  501    0  0.00000000000E+00  0.00000000000E+00  0.25805075020E+02  0.25805075020E+02  0.00000000000E+00 0. -1.
         -1   -1    0    0    0  501 -0.00000000000E+00 -0.00000000000E+00 -0.68391840594E+03  0.68391840594E+03  0.00000000000E+00 0.  1.
         23    2    1    2    0    0 -0.63255217712E+02  0.14657007810E+01 -0.48061040960E+03  0.50061312054E+03  0.12499503908E+03 0.  0.
         23    2    1    2    0    0  0.63255217712E+02 -0.14657007810E+01 -0.17750292132E+03  0.20911036042E+03  0.90644828374E+02 0.  0.
          5    1    3    3  502    0  0.33851793546E+02 -0.41754446890E+01 -0.21444988088E+03  0.21719626994E+03  0.47000000000E+01 0.  1.
         -5    1    3    3    0  502 -0.97107011259E+02  0.56411454700E+01 -0.26616052871E+03  0.28341685060E+03  0.47000000000E+01 0.  1.
        -11    1    4    4    0    0  0.75223527966E+02  0.48250607485E-01 -0.18144402113E+03  0.19641923096E+03  0.00000000000E+00 0.  1.
         11    1    4    4    0    0 -0.11968310254E+02 -0.15139513885E+01  0.39410998118E+01  0.12691129456E+02  0.00000000000E+00 0. -1.
<mgrwt>
<rscale>  0 0.13203971E+03</rscale>
<asrwt>0</asrwt>
<pdfrwt beam="1">  1        1 0.39700114E-02 0.14009686E+03</pdfrwt>
<pdfrwt beam="2">  1       -1 0.10521822E+00 0.14009686E+03</pdfrwt>
<totfact> 0.20071643E+03</totfact>
</mgrwt>
</event>
<event>
 8    1  0.9424564E-006  0.1482096E+03  0.7546771E-02  0.1212760E+00
          1   -1    0    0  501    0  0.00000000000E+00  0.00000000000E+00  0.37724072040E+02  0.37724072040E+02  0.00000000000E+00 0. -1.
         -1   -1    0    0    0  501 -0.00000000000E+00 -0.00000000000E+00 -0.47511181688E+03  0.47511181688E+03  0.00000000000E+00 0.  1.
         23    2    1    2    0    0 -0.36808196755E+02 -0.70615963321E+02 -0.23490408562E+03  0.27775168916E+03  0.12499845506E+03 0.  0.
         23    2    1    2    0    0  0.36808196755E+02  0.70615963321E+02 -0.20248365922E+03  0.23508419976E+03  0.89013993845E+02 0.  0.
          5    1    3    3  502    0 -0.19694691062E+01 -0.10024821691E+03 -0.18039673372E+03  0.20644286216E+03  0.47000000000E+01 0. -1.
         -5    1    3    3    0  502 -0.34838727649E+02  0.29632253588E+02 -0.54507351902E+02  0.71308827001E+02  0.47000000000E+01 0. -1.
        -11    1    4    4    0    0  0.30969240420E+02  0.51881011163E+02 -0.20640986026E+03  0.21507153132E+03  0.00000000000E+00 0.  1.
         11    1    4    4    0    0  0.58389563345E+01  0.18734952158E+02  0.39262010388E+01  0.20012668439E+02  0.00000000000E+00 0. -1.
<mgrwt>
<rscale>  0 0.14042387E+03</rscale>
<asrwt>0</asrwt>
<pdfrwt beam="1">  1        1 0.58037032E-02 0.14820955E+03</pdfrwt>
<pdfrwt beam="2">  1       -1 0.73094128E-01 0.14820955E+03</pdfrwt>
<totfact> 0.25812125E+03</totfact>
</mgrwt>
</event>
<event>
 8    1  0.9424564E-006  0.1564437E+03  0.7546771E-02  0.1199473E+00
          2   -1    0    0  501    0  0.00000000000E+00  0.00000000000E+00  0.18616352694E+03  0.18616352694E+03  0.00000000000E+00 0. -1.
         -2   -1    0    0    0  501 -0.00000000000E+00 -0.00000000000E+00 -0.15577159352E+03  0.15577159352E+03  0.00000000000E+00 0.  1.
         23    2    1    2    0    0  0.92468786495E+02  0.17268704454E+02 -0.72180546828E+02  0.17229236332E+03  0.12500376989E+03 0.  0.
         23    2    1    2    0    0 -0.92468786495E+02 -0.17268704454E+02  0.10257248026E+03  0.16964275714E+03  0.96999312966E+02 0.  0.
          5    1    3    3  502    0  0.45176195832E+02  0.63123943635E+02 -0.72399688096E+02  0.10625123889E+03  0.47000000000E+01 0.  1.
         -5    1    3    3    0  502  0.47292590664E+02 -0.45855239181E+02  0.21914126823E+00  0.66041124422E+02  0.47000000000E+01 0.  1.
        -11    1    4    4    0    0 -0.60048373586E+01 -0.33451596327E+02  0.66278330550E+02  0.74484122262E+02  0.00000000000E+00 0. -1.
         11    1    4    4    0    0 -0.86463949137E+02  0.16182891874E+02  0.36294149706E+02  0.95158634882E+02  0.00000000000E+00 0.  1.
<mgrwt>
<rscale>  0 0.15081650E+03</rscale>
<asrwt>0</asrwt>
<pdfrwt beam="1">  1        2 0.28640543E-01 0.15644369E+03</pdfrwt>
<pdfrwt beam="2">  1       -2 0.23964861E-01 0.15644369E+03</pdfrwt>
<totfact> 0.27554028E+03</totfact>
</mgrwt>
</event>
<event>
 7    1  0.9424564E-006  0.2085526E+03  0.7546771E-02  0.1151435E+00
         -1   -1    0    0    0  501 -0.00000000000E+00  0.00000000000E+00  0.30331323443E+03  0.30331323443E+03  0.00000000000E+00 0.  1.
          1   -1    0    0  501    0  0.00000000000E+00 -0.00000000000E+00 -0.13971791856E+03  0.13971791856E+03  0.00000000000E+00 0. -1.
         23    2    1    2    0    0 -0.16130430641E+03 -0.43008076867E+02  0.17632578618E+03  0.27310245424E+03  0.12500157480E+03 0.  0.
          5    1    3    3  502    0 -0.74928388904E+02 -0.51955902422E+02  0.18874969734E+02  0.93231077129E+02  0.47000000000E+01 0. -1.
         -5    1    3    3    0  502 -0.86375917502E+02  0.89478255553E+01  0.15745081644E+03  0.17987137711E+03  0.47000000000E+01 0. -1.
        -11    1    1    2    0    0  0.23092735233E+02  0.17210557641E+02 -0.37481339035E+01  0.29043522903E+02  0.00000000000E+00 0. -1.
         11    1    1    2    0    0  0.13821157117E+03  0.25797519226E+02 -0.89823363992E+01  0.14088517584E+03  0.00000000000E+00 0.  1.
<mgrwt>
<rscale>  0 0.19800346E+03</rscale>
<asrwt>0</asrwt>
<pdfrwt beam="2">  1        1 0.21495064E-01 0.20855255E+03</pdfrwt>
<pdfrwt beam="1">  1       -1 0.46663575E-01 0.20855255E+03</pdfrwt>
<totfact> 0.10812798E+03</totfact>
</mgrwt>
</event>
<event>
 8    1  0.9424564E-006  0.1250283E+03  0.7546771E-02  0.1250477E+00
          3   -1    0    0  501    0  0.00000000000E+00  0.00000000000E+00  0.65084434451E+03  0.65084434451E+03  0.00000000000E+00 0. -1.
         -3   -1    0    0    0  501 -0.00000000000E+00 -0.00000000000E+00 -0.18990987544E+02  0.18990987544E+02  0.00000000000E+00 0.  1.
         23    2    1    2    0    0  0.19122986017E+01  0.18602065824E+01  0.28693673099E+03  0.31299321337E+03  0.12499978709E+03 0.  0.
         23    2    1    2    0    0 -0.19122986017E+01 -0.18602065824E+01  0.34491662597E+03  0.35684211868E+03  0.91442339948E+02 0.  0.
          5    1    3    3  502    0  0.42395507675E+02  0.31632658969E+02  0.58336237499E+02  0.78887329718E+02  0.47000000000E+01 0. -1.
         -5    1    3    3    0  502 -0.40483209074E+02 -0.29772452386E+02  0.22860049349E+03  0.23410588365E+03  0.47000000000E+01 0. -1.
        -11    1    4    4    0    0 -0.38403550737E+02 -0.24249571284E+02  0.22431389162E+03  0.22886589172E+03  0.00000000000E+00 0.  1.
         11    1    4    4    0    0  0.36491252135E+02  0.22389364702E+02  0.12060273435E+03  0.12797622696E+03  0.00000000000E+00 0. -1.
<mgrwt>
<rscale>  0 0.11563496E+03</rscale>
<asrwt>0</asrwt>
<pdfrwt beam="1">  1        3 0.10012988E+00 0.12502825E+03</pdfrwt>
<pdfrwt beam="2">  1       -3 0.29216909E-02 0.12502825E+03</pdfrwt>
<totfact> 0.10927712E+03</totfact>
</mgrwt>
</event>
<event>
 8    1  0.9424564E-006  0.1420589E+03  0.7546771E-02  0.1221533E+00
         -1   -1    0    0    0  501 -0.00000000000E+00  0.00000000000E+00  0.97468777004E+03  0.97468777004E+03  0.00000000000E+00 0.  1.
          1   -1    0    0  501    0  0.00000000000E+00 -0.00000000000E+00 -0.18474782155E+02  0.18474782155E+02  0.00000000000E+00 0. -1.
         23    2    1    2    0    0 -0.63312543051E+02  0.23386278179E+02  0.37254223491E+03  0.39870847649E+03  0.12500134526E+03 0.  0.
         23    2    1    2    0    0  0.63312543051E+02 -0.23386278179E+02  0.58367075297E+03  0.59445407570E+03  0.90270172991E+02 0.  0.
          5    1    3    3  502    0 -0.11038869851E+02  0.16379545570E+02 -0.20367540867E+01  0.20405502392E+02  0.47000000000E+01 0.  1.
         -5    1    3    3    0  502 -0.52273673200E+02  0.70067326081E+01  0.37457898900E+03  0.37830297410E+03  0.47000000000E+01 0.  1.
        -11    1    4    4    0    0 -0.13395374624E+02 -0.32764085844E+02  0.19048070399E+03  0.19374163201E+03  0.00000000000E+00 0.  1.
         11    1    4    4    0    0  0.76707917675E+02  0.93778076655E+01  0.39319004898E+03  0.40071244369E+03  0.00000000000E+00 0. -1.
<mgrwt>
<rscale>  0 0.13407393E+03</rscale>
<asrwt>0</asrwt>
<pdfrwt beam="2">  1        1 0.28422749E-02 0.14205890E+03</pdfrwt>
<pdfrwt beam="1">  1       -1 0.14995192E+00 0.14205890E+03</pdfrwt>
<totfact> 0.13614048E+03</totfact>
</mgrwt>
</event>
<event>
 8    1  0.9424564E-006  0.1393636E+03  0.7546771E-02  0.1223846E+00
         -3   -1    0    0    0  501 -0.00000000000E+00  0.00000000000E+00  0.25721088371E+03  0.25721088371E+03  0.00000000000E+00 0.  1.
          3   -1    0    0  501    0  0.00000000000E+00 -0.00000000000E+00 -0.69351851574E+02  0.69351851574E+02  0.00000000000E+00 0. -1.
         23    2    1    2    0    0  0.18002997768E+02 -0.58944294568E+02  0.15440809853E+03  0.20800016295E+03  0.12499467632E+03 0.  0.
         23    2    1    2    0    0 -0.18002997768E+02  0.58944294568E+02  0.33450933612E+02  0.11856257233E+03  0.95601154845E+02 0.  0.
          5    1    3    3  502    0 -0.15391631926E+01  0.12176285817E+02 -0.16912238937E+02  0.21418328261E+02  0.47000000000E+01 0.  1.
         -5    1    3    3    0  502  0.19542160960E+02 -0.71120580385E+02  0.17132033746E+03  0.18658183469E+03  0.47000000000E+01 0.  1.
        -11    1    4    4    0    0 -0.72497848890E+01  0.83359768224E+02  0.37292854091E+02  0.91608773082E+02  0.00000000000E+00 0. -1.
         11    1    4    4    0    0 -0.10753212879E+02 -0.24415473656E+02 -0.38419204798E+01  0.26953799250E+02  0.00000000000E+00 0.  1.
<mgrwt>
<rscale>  0 0.13246339E+03</rscale>
<asrwt>0</asrwt>
<pdfrwt beam="2">  1        3 0.10669516E-01 0.13936358E+03</pdfrwt>
<pdfrwt beam="1">  1       -3 0.39570905E-01 0.13936358E+03</pdfrwt>
<totfact> 0.97249261E+02</totfact>
</mgrwt>
</event>
<event>
 8    1  0.9424564E-006  0.1652134E+03  0.7546771E-02  0.1189587E+00
         -2   -1    0    0    0  501 -0.00000000000E+00  0.00000000000E+00  0.24351687627E+02  0.24351687627E+02  0.00000000000E+00 0.  1.
          2   -1    0    0  501    0  0.00000000000E+00 -0.00000000000E+00 -0.10281776713E+04  0.10281776713E+04  0.00000000000E+00 0. -1.
         23    2    1    2    0    0 -0.93495604243E+02  0.54116574436E+02 -0.41429725336E+03  0.44602429286E+03  0.12500169614E+03 0.  0.
         23    2    1    2    0    0  0.93495604243E+02 -0.54116574436E+02 -0.58952873034E+03  0.60650506609E+03  0.92920609440E+02 0.  0.
          5    1    3    3  502    0 -0.70858629224E+02  0.92176687974E+02 -0.34048712226E+03  0.35982086872E+03  0.47000000000E+01 0. -1.
         -5    1    3    3    0  502 -0.22636975019E+02 -0.38060113538E+02 -0.73810131102E+02  0.86203424142E+02  0.47000000000E+01 0. -1.
        -11    1    4    4    0    0  0.15538805508E+02 -0.56859667625E+02 -0.33987790319E+03  0.34495139565E+03  0.00000000000E+00 0. -1.
         11    1    4    4    0    0  0.77956798735E+02  0.27430931892E+01 -0.24965082715E+03  0.26155367045E+03  0.00000000000E+00 0.  1.
<mgrwt>
<rscale>  0 0.15921439E+03</rscale>
<asrwt>0</asrwt>
<pdfrwt beam="2">  1        2 0.15818115E+00 0.16521336E+03</pdfrwt>
<pdfrwt beam="1">  1       -2 0.37464141E-02 0.16521336E+03</pdfrwt>
<totfact> 0.74922009E+03</totfact>
</mgrwt>
</event>
<event>
 8    1  0.9424564E-006  0.1340702E+03  0.7546771E-02  0.1234153E+00
          1   -1    0    0  501    0  0.00000000000E+00  0.00000000000E+00  0.17626540372E+03  0.17626540372E+03  0.00000000000E+00 0.  1.
         -1   -1    0    0    0  501 -0.00000000000E+00 -0.00000000000E+00 -0.90587297980E+02  0.90587297980E+02  0.00000000000E+00 0. -1.
         23    2    1    2    0    0  0.38999695275E+02  0.28799563590E+02  0.21879877637E+01  0.13408809399E+03  0.12499775423E+03 0.  0.
         23    2    1    2    0    0 -0.38999695275E+02 -0.28799563590E+02  0.83490117981E+02  0.13276460772E+03  0.91134242563E+02 0.  0.
          5    1    3    3  502    0 -0.24310350956E+02  0.22166013006E+02  0.45941927705E+02  0.56701640342E+02  0.47000000000E+01 0.  1.
         -5    1    3    3    0  502  0.63310046232E+02  0.66335505831E+01 -0.43753939941E+02  0.77386453644E+02  0.47000000000E+01 0.  1.
        -11    1    4    4    0    0 -0.34773450822E+02 -0.51784721244E+02  0.20628417388E+02  0.65699176862E+02  0.00000000000E+00 0. -1.
         11    1    4    4    0    0 -0.42262444534E+01  0.22985157654E+02  0.62861700593E+02  0.67065430856E+02  0.00000000000E+00 0.  1.
<mgrwt>
<rscale>  0 0.12558789E+03</rscale>
<asrwt>0</asrwt>
<pdfrwt beam="1">  1        1 0.27117754E-01 0.13407024E+03</pdfrwt>
<pdfrwt beam="2">  1       -1 0.13936507E-01 0.13407024E+03</pdfrwt>
<totfact> 0.59279500E+03</totfact>
</mgrwt>
</event>
<event>
 8    1  0.9424564E-006  0.1513353E+03  0.7546771E-02  0.1207827E+00
          1   -1    0    0  501    0  0.00000000000E+00  0.00000000000E+00  0.42581656375E+03  0.42581656375E+03  0.00000000000E+00 0.  1.
         -1   -1    0    0    0  501 -0.00000000000E+00 -0.00000000000E+00 -0.55087206470E+02  0.55087206470E+02  0.00000000000E+00 0. -1.
         23    2    1    2    0    0 -0.85074955186E+02 -0.59930309986E+01  0.95985042916E+02  0.17920795451E+03  0.12501479143E+03 0.  0.
         23    2    1    2    0    0  0.85074955186E+02  0.59930309986E+01  0.27474431436E+03  0.30169581570E+03  0.90896988501E+02 0.  0.
          5    1    3    3  502    0 -0.10076640607E+03  0.19398271234E+02  0.30610255201E+02  0.10718786892E+03  0.47000000000E+01 0.  1.
         -5    1    3    3    0  502  0.15691450889E+02 -0.25391302233E+02  0.65374787716E+02  0.72020085594E+02  0.47000000000E+01 0.  1.
        -11    1    4    4    0    0  0.20358005595E+02 -0.10789120969E+01  0.11025173695E+01  0.20416365682E+02  0.00000000000E+00 0. -1.
         11    1    4    4    0    0  0.64716949591E+02  0.70719430955E+01  0.27364179699E+03  0.28127945002E+03  0.00000000000E+00 0.  1.
<mgrwt>
<rscale>  0 0.14416912E+03</rscale>
<asrwt>0</asrwt>
<pdfrwt beam="1">  1        1 0.65510239E-01 0.15133527E+03</pdfrwt>
<pdfrwt beam="2">  1       -1 0.84749551E-02 0.15133527E+03</pdfrwt>
<totfact> 0.42702519E+03</totfact>
</mgrwt>
</event>
<event>
 8    1  0.9424564E-006  0.1483097E+03  0.7546771E-02  0.1212207E+00
          2   -1    0    0  501    0  0.00000000000E+00  0.00000000000E+00  0.22318765983E+03  0.22318765983E+03  0.00000000000E+00 0. -1.
         -2   -1    0    0    0  501 -0.00000000000E+00 -0.00000000000E+00 -0.15231219714E+03  0.15231219714E+03  0.00000000000E+00 0.  1.
         23    2    1    2    0    0  0.42062243761E+02  0.67839304418E+02 -0.90724095587E+02  0.17385806366E+03  0.12499744480E+03 0.  0.
         23    2    1    2    0    0 -0.42062243761E+02 -0.67839304418E+02  0.16159955828E+03  0.20164179330E+03  0.90407919989E+02 0.  0.
          5    1    3    3  502    0  0.11847865214E+02  0.87232845569E+02 -0.10304423129E+03  0.13561026826E+03  0.47000000000E+01 0.  1.
         -5    1    3    3    0  502  0.30214378548E+02 -0.19393541150E+02  0.12320135703E+02  0.38247795402E+02  0.47000000000E+01 0.  1.
        -11    1    4    4    0    0 -0.38645025396E+02 -0.12542766988E+02  0.13345131908E+03  0.13949915252E+03  0.00000000000E+00 0. -1.
         11    1    4    4    0    0 -0.34172183654E+01 -0.55296537430E+02  0.28148239204E+02  0.62142640782E+02  0.00000000000E+00 0.  1.
<mgrwt>
<rscale>  0 0.14083687E+03</rscale>
<asrwt>0</asrwt>
<pdfrwt beam="1">  1        2 0.34336563E-01 0.14830969E+03</pdfrwt>
<pdfrwt beam="2">  1       -2 0.23432646E-01 0.14830969E+03</pdfrwt>
<totfact> 0.23484369E+03</totfact>
</mgrwt>
</event>
<event>
 8    1  0.9424564E-006  0.1322490E+03  0.7546771E-02  0.1236999E+00
         -2   -1    0    0    0  501 -0.00000000000E+00  0.00000000000E+00  0.62501670348E+02  0.62501670348E+02  0.00000000000E+00 0.  1.
          2   -1    0    0  501    0  0.00000000000E+00 -0.00000000000E+00 -0.22482866546E+03  0.22482866546E+03  0.00000000000E+00 0. -1.
         23    2    1    2    0    0  0.38012280996E+02  0.20413910908E+02 -0.67633752066E+02  0.14854000054E+03  0.12501258367E+03 0.  0.
         23    2    1    2    0    0 -0.38012280996E+02 -0.20413910908E+02 -0.94693243050E+02  0.13879033528E+03  0.91838366829E+02 0.  0.
          5    1    3    3  502    0  0.81469890620E+02  0.27771449798E+02 -0.33054797275E+02  0.92321753257E+02  0.47000000000E+01 0. -1.
         -5    1    3    3    0  502 -0.43457609624E+02 -0.73575388901E+01 -0.34578954791E+02  0.56218247279E+02  0.47000000000E+01 0. -1.
        -11    1    4    4    0    0  0.12811266190E+02 -0.21645775364E+02  0.61175089806E+01  0.25886136225E+02  0.00000000000E+00 0.  1.
         11    1    4    4    0    0 -0.50823547185E+02  0.12318644568E+01 -0.10081075203E+03  0.11290419905E+03  0.00000000000E+00 0. -1.
<mgrwt>
<rscale>  0 0.12377350E+03</rscale>
<asrwt>0</asrwt>
<pdfrwt beam="2">  1        2 0.34589026E-01 0.13224904E+03</pdfrwt>
<pdfrwt beam="1">  1       -2 0.96156415E-02 0.13224904E+03</pdfrwt>
<totfact> 0.99725397E+03</totfact>
</mgrwt>
</event>
<event>
 7    1  0.9424564E-006  0.3880580E+03  0.7546771E-02  0.1047995E+00
          2   -1    0    0  501    0  0.00000000000E+00  0.00000000000E+00  0.63240827386E+03  0.63240827386E+03  0.00000000000E+00 0. -1.
         -2   -1    0    0    0  501 -0.00000000000E+00 -0.00000000000E+00 -0.59529990198E+02  0.59529990198E+02  0.00000000000E+00 0.  1.
         23    2    1    2    0    0 -0.86904470575E+02 -0.10047034182E+02  0.41977511200E+03  0.43816568678E+03  0.90137087365E+02 0.  0.
          5    1    1    2  502    0 -0.32123291951E+02  0.82803122427E+01  0.12761892594E+03  0.13194373693E+03  0.47000000000E+01 0. -1.
         -5    1    1    2    0  502  0.11902776253E+03  0.17667219395E+01  0.25484245715E+02  0.12182884034E+03  0.47000000000E+01 0.  1.
        -11    1    3    3    0    0  0.86769373056E+01 -0.24955708384E+02  0.13038467666E+03  0.13303473430E+03  0.00000000000E+00 0.  1.
         11    1    3    3    0    0 -0.95581407881E+02  0.14908674202E+02  0.28939043534E+03  0.30513095248E+03  0.00000000000E+00 0. -1.
<mgrwt>
<rscale>  0 0.38805803E+03</rscale>
<asrwt>0</asrwt>
<pdfrwt beam="1">  1        2 0.97293576E-01 0.38805803E+03</pdfrwt>
<pdfrwt beam="2">  1       -2 0.91584605E-02 0.38805803E+03</pdfrwt>
<totfact> 0.36398702E+03</totfact>
</mgrwt>
</event>
<event>
 8    1  0.9424564E-006  0.1613723E+03  0.7546771E-02  0.1194933E+00
         -1   -1    0    0    0  501 -0.00000000000E+00  0.00000000000E+00  0.35115651510E+03  0.35115651510E+03  0.00000000000E+00 0.  1.
          1   -1    0    0  501    0  0.00000000000E+00 -0.00000000000E+00 -0.66901205339E+02  0.66901205339E+02  0.00000000000E+00 0. -1.
         23    2    1    2    0    0 -0.90446027252E+02 -0.47273814397E+02  0.20431589162E+03  0.26035743587E+03  0.12500285384E+03 0.  0.
         23    2    1    2    0    0  0.90446027252E+02  0.47273814397E+02  0.79939418136E+02  0.15770028457E+03  0.89798506711E+02 0.  0.
          5    1    3    3  502    0 -0.69017924932E+02 -0.80892864831E+02  0.90644049507E+02  0.13980544787E+03  0.47000000000E+01 0. -1.
         -5    1    3    3    0  502 -0.21428102320E+02  0.33619050434E+02  0.11367184211E+03  0.12055198800E+03  0.47000000000E+01 0. -1.
        -11    1    4    4    0    0  0.31901597674E+02  0.66301354062E+01 -0.17494440575E+02  0.36982780867E+02  0.00000000000E+00 0. -1.
         11    1    4    4    0    0  0.58544429578E+02  0.40643678991E+02  0.97433858710E+02  0.12071750370E+03  0.00000000000E+00 0.  1.
<mgrwt>
<rscale>  0 0.15459901E+03</rscale>
<asrwt>0</asrwt>
<pdfrwt beam="2">  1        1 0.10292493E-01 0.16137227E+03</pdfrwt>
<pdfrwt beam="1">  1       -1 0.54024078E-01 0.16137227E+03</pdfrwt>
<totfact> 0.21446459E+03</totfact>
</mgrwt>
</event>
<event>
 8    1  0.9424564E-006  0.1690803E+03  0.7546771E-02  0.1187608E+00
         -2   -1    0    0    0  501 -0.00000000000E+00  0.00000000000E+00  0.19631888560E+02  0.19631888560E+02  0.00000000000E+00 0. -1.
          2   -1    0    0  501    0  0.00000000000E+00 -0.00000000000E+00 -0.12309737834E+04  0.12309737834E+04  0.00000000000E+00 0.  1.
         23    2    1    2    0    0 -0.10911473490E+03  0.32509474625E+02 -0.74925434362E+03  0.76809519686E+03  0.12500107477E+03 0.  0.
         23    2    1    2    0    0  0.10911473490E+03 -0.32509474625E+02 -0.46208755124E+03  0.48251047512E+03  0.79552261291E+02 0.  0.
          5    1    3    3  502    0 -0.57581874635E+02  0.51095335711E+02 -0.65058199589E+03  0.65513771758E+03  0.47000000000E+01 0. -1.
         -5    1    3    3    0  502 -0.51532860261E+02 -0.18585861086E+02 -0.98672347725E+02  0.11295747928E+03  0.47000000000E+01 0. -1.
        -11    1    4    4    0    0  0.50548882345E+02 -0.53850320084E+02 -0.20264630249E+03  0.21568627771E+03  0.00000000000E+00 0. -1.
         11    1    4    4    0    0  0.58565852551E+02  0.21340845459E+02 -0.25944124875E+03  0.26682419741E+03  0.00000000000E+00 0.  1.
<mgrwt>
<rscale>  0 0.16096833E+03</rscale>
<asrwt>0</asrwt>
<pdfrwt beam="2">  1        2 0.18938060E+00 0.16908034E+03</pdfrwt>
<pdfrwt beam="1">  1       -2 0.30202903E-02 0.16908034E+03</pdfrwt>
<totfact> 0.79022198E+03</totfact>
</mgrwt>
</event>
<event>
 8    1  0.9424564E-006  0.1256289E+03  0.7546771E-02  0.1246483E+00
         -3   -1    0    0    0  501 -0.00000000000E+00  0.00000000000E+00  0.47927603419E+03  0.47927603419E+03  0.00000000000E+00 0.  1.
          3   -1    0    0  501    0  0.00000000000E+00 -0.00000000000E+00 -0.28128537293E+02  0.28128537293E+02  0.00000000000E+00 0. -1.
         23    2    1    2    0    0  0.34419168535E+02  0.60833499939E+01  0.32075776496E+03  0.34448246013E+03  0.12066870037E+03 0.  0.
         23    2    1    2    0    0 -0.34419168535E+02 -0.60833499939E+01  0.13038973194E+03  0.16292211135E+03  0.91216478015E+02 0.  0.
          5    1    3    3  502    0 -0.14126757421E+02  0.16164398746E+02  0.22347250918E+01  0.22089297369E+02  0.47000000000E+01 0. -1.
         -5    1    3    3    0  502  0.48545925955E+02 -0.10081048752E+02  0.31852303987E+03  0.32239316277E+03  0.47000000000E+01 0.  1.
        -11    1    4    4    0    0 -0.58499461842E+02 -0.27758724652E+02  0.78645320646E+02  0.10187158725E+03  0.00000000000E+00 0.  1.
         11    1    4    4    0    0  0.24080293307E+02  0.21675374658E+02  0.51744411289E+02  0.61050524093E+02  0.00000000000E+00 0. -1.
<mgrwt>
<rscale>  0 0.11797035E+03</rscale>
<asrwt>0</asrwt>
<pdfrwt beam="2">  1        3 0.43274676E-02 0.12562890E+03</pdfrwt>
<pdfrwt beam="1">  1       -3 0.73734769E-01 0.12562890E+03</pdfrwt>
<totfact> 0.11611163E+03</totfact>
</mgrwt>
</event>
<event>
 8    1  0.9424564E-006  0.1333917E+03  0.7546771E-02  0.1236568E+00
          1   -1    0    0  501    0  0.00000000000E+00  0.00000000000E+00  0.32575701632E+03  0.32575701632E+03  0.00000000000E+00 0. -1.
         -1   -1    0    0    0  501 -0.00000000000E+00 -0.00000000000E+00 -0.43275785193E+02  0.43275785193E+02  0.00000000000E+00 0.  1.
         23    2    1    2    0    0 -0.42351668195E+02 -0.19371728907E+02  0.12621264327E+03  0.18363817107E+03  0.12499767548E+03 0.  0.
         23    2    1    2    0    0  0.42351668195E+02  0.19371728907E+02  0.15626858785E+03  0.18539463043E+03  0.88217740640E+02 0.  0.
          5    1    3    3  502    0 -0.76584252583E+02  0.21484446228E+02  0.80439565695E+02  0.11322253708E+03  0.47000000000E+01 0.  1.
         -5    1    3    3    0  502  0.34232584388E+02 -0.40856175135E+02  0.45773077573E+02  0.70415633996E+02  0.47000000000E+01 0.  1.
        -11    1    4    4    0    0  0.24042584963E+01  0.45922255775E+02  0.45518607933E+02  0.64703768843E+02  0.00000000000E+00 0.  1.
         11    1    4    4    0    0  0.39947409699E+02 -0.26550526868E+02  0.11074997992E+03  0.12069086159E+03  0.00000000000E+00 0. -1.
<mgrwt>
<rscale>  0 0.12404566E+03</rscale>
<asrwt>0</asrwt>
<pdfrwt beam="1">  1        1 0.50116462E-01 0.13339170E+03</pdfrwt>
<pdfrwt beam="2">  1       -1 0.66578133E-02 0.13339170E+03</pdfrwt>
<totfact> 0.85338253E+03</totfact>
</mgrwt>
</event>
<event>
 8    1  0.9424564E-006  0.1456177E+03  0.7546771E-02  0.1215371E+00
         -1   -1    0    0    0  501 -0.00000000000E+00  0.00000000000E+00  0.94609336011E+02  0.94609336011E+02  0.00000000000E+00 0.  1.
          1   -1    0    0  501    0  0.00000000000E+00 -0.00000000000E+00 -0.27824979200E+03  0.27824979200E+03  0.00000000000E+00 0. -1.
         23    2    1    2    0    0  0.51544988958E+02  0.54115364564E+02  0.94991556646E+01  0.14592717993E+03  0.12497659507E+03 0.  0.
         23    2    1    2    0    0 -0.51544988958E+02 -0.54115364564E+02 -0.19313961165E+03  0.22693194808E+03  0.92789228378E+02 0.  0.
          5    1    3    3  502    0 -0.31251581056E+02  0.20216151238E+02  0.36514117742E+02  0.52351932952E+02  0.47000000000E+01 0. -1.
         -5    1    3    3    0  502  0.82796570014E+02  0.33899213326E+02 -0.27014962078E+02  0.93575246974E+02  0.47000000000E+01 0. -1.
        -11    1    4    4    0    0  0.17086622919E+02 -0.24857092858E+02 -0.14765630921E+02  0.33583501971E+02  0.00000000000E+00 0.  1.
         11    1    4    4    0    0 -0.68631611878E+02 -0.29258271706E+02 -0.17837398073E+03  0.19334844611E+03  0.00000000000E+00 0. -1.
<mgrwt>
<rscale>  0 0.13849314E+03</rscale>
<asrwt>0</asrwt>
<pdfrwt beam="2">  1        1 0.42807659E-01 0.14561768E+03</pdfrwt>
<pdfrwt beam="1">  1       -1 0.14555283E-01 0.14561768E+03</pdfrwt>
<totfact> 0.31570756E+03</totfact>
</mgrwt>
</event>
<event>
 8    1  0.9424564E-006  0.1482754E+03  0.7546771E-02  0.1207637E+00
          1   -1    0    0  501    0  0.00000000000E+00  0.00000000000E+00  0.25611409675E+03  0.25611409675E+03  0.00000000000E+00 0. -1.
         -1   -1    0    0    0  501 -0.00000000000E+00 -0.00000000000E+00 -0.17239293654E+03  0.17239293654E+03  0.00000000000E+00 0.  1.
         23    2    1    2    0    0  0.25984592962E+02  0.77113569738E+02 -0.11618035267E+03  0.18837054219E+03  0.12395114001E+03 0.  0.
         23    2    1    2    0    0 -0.25984592962E+02 -0.77113569738E+02  0.19990151287E+03  0.24013649110E+03  0.10527686261E+03 0.  0.
          5    1    3    3  502    0 -0.22946023345E+02 -0.22158290203E+02 -0.73296453619E+01  0.33065442885E+02  0.47000000000E+01 0. -1.
         -5    1    3    3    0  502  0.48930616307E+02  0.99271859941E+02 -0.10885070730E+03  0.15530509930E+03  0.47000000000E+01 0.  1.
        -11    1    4    4    0    0  0.12842383040E+01 -0.70432460860E+02  0.20001858650E+03  0.21206087747E+03  0.00000000000E+00 0. -1.
         11    1    4    4    0    0 -0.27268831266E+02 -0.66811088781E+01 -0.11707362175E+00  0.28075613630E+02  0.00000000000E+00 0.  1.
<mgrwt>
<rscale>  0 0.14431568E+03</rscale>
<asrwt>0</asrwt>
<pdfrwt beam="1">  1        1 0.39402169E-01 0.14827537E+03</pdfrwt>
<pdfrwt beam="2">  1       -1 0.26521990E-01 0.14827537E+03</pdfrwt>
<totfact> 0.13338885E+03</totfact>
</mgrwt>
</event>
<event>
 8    1  0.9424564E-006  0.1280852E+03  0.7546771E-02  0.1244770E+00
          2   -1    0    0  501    0  0.00000000000E+00  0.00000000000E+00  0.21841604909E+03  0.21841604909E+03  0.00000000000E+00 0. -1.
         -2   -1    0    0    0  501 -0.00000000000E+00 -0.00000000000E+00 -0.80401692339E+02  0.80401692339E+02  0.00000000000E+00 0.  1.
         23    2    1    2    0    0 -0.22837741430E+01 -0.27850750269E+02 -0.35170147275E+01  0.12813349240E+03  0.12499977027E+03 0.  0.
         23    2    1    2    0    0  0.22837741430E+01  0.27850750269E+02  0.14153137148E+03  0.17068424903E+03  0.91220084628E+02 0.  0.
          5    1    3    3  502    0 -0.28713061321E+02 -0.46991434177E+02 -0.47698980467E+02  0.73006284072E+02  0.47000000000E+01 0.  1.
         -5    1    3    3    0  502  0.26429287178E+02  0.19140683908E+02  0.44181965740E+02  0.55127208326E+02  0.47000000000E+01 0.  1.
        -11    1    4    4    0    0  0.24861736842E+02  0.39440034466E+02  0.13724313839E+03  0.14494585648E+03  0.00000000000E+00 0. -1.
         11    1    4    4    0    0 -0.22577962699E+02 -0.11589284197E+02  0.42882330914E+01  0.25738392547E+02  0.00000000000E+00 0.  1.
<mgrwt>
<rscale>  0 0.11899159E+03</rscale>
<asrwt>0</asrwt>
<pdfrwt beam="1">  1        2 0.33602469E-01 0.12808522E+03</pdfrwt>
<pdfrwt beam="2">  1       -2 0.12369491E-01 0.12808522E+03</pdfrwt>
<totfact> 0.68904987E+03</totfact>
</mgrwt>
</event>
<event>
 8    1  0.9424564E-006  0.1375737E+03  0.7546771E-02  0.1228256E+00
          4   -1    0    0  501    0  0.00000000000E+00  0.00000000000E+00  0.20720923911E+03  0.20720923911E+03  0.00000000000E+00 0. -1.
         -4   -1    0    0    0  501 -0.00000000000E+00 -0.00000000000E+00 -0.81540902434E+02  0.81540902434E+02  0.00000000000E+00 0.  1.
         23    2    1    2    0    0  0.55707555539E+02 -0.13779368598E+02  0.22361716808E+02  0.13937919957E+03  0.12503324418E+03 0.  0.
         23    2    1    2    0    0 -0.55707555539E+02  0.13779368598E+02  0.10330661987E+03  0.14937094198E+03  0.91357637090E+02 0.  0.
          5    1    3    3  502    0  0.95731141801E+02 -0.60790089181E+01  0.21113666119E+02  0.98332511190E+02  0.47000000000E+01 0. -1.
         -5    1    3    3    0  502 -0.40023586262E+02 -0.77003596794E+01  0.12480506897E+01  0.41046688380E+02  0.47000000000E+01 0. -1.
        -11    1    4    4    0    0 -0.49597550581E+02 -0.68450166214E+01  0.11461188622E+03  0.12507060302E+03  0.00000000000E+00 0. -1.
         11    1    4    4    0    0 -0.61100049573E+01  0.20624385219E+02 -0.11305266350E+02  0.24300338958E+02  0.00000000000E+00 0.  1.
<mgrwt>
<rscale>  0 0.12946218E+03</rscale>
<asrwt>0</asrwt>
<pdfrwt beam="1">  1        4 0.31878344E-01 0.13757367E+03</pdfrwt>
<pdfrwt beam="2">  1       -4 0.12544754E-01 0.13757367E+03</pdfrwt>
<totfact> 0.80795835E+02</totfact>
</mgrwt>
</event>
<event>
 8    1  0.9424564E-006  0.2088314E+03  0.7546771E-02  0.1146392E+00
         -2   -1    0    0    0  501 -0.00000000000E+00  0.00000000000E+00  0.28243127830E+03  0.28243127830E+03  0.00000000000E+00 0.  1.
          2   -1    0    0  501    0  0.00000000000E+00 -0.00000000000E+00 -0.14570674752E+03  0.14570674752E+03  0.00000000000E+00 0. -1.
         23    2    1    2    0    0 -0.42237294509E+02 -0.16186618140E+03  0.32883503936E+02  0.21140454271E+03  0.12500362442E+03 0.  0.
         23    2    1    2    0    0  0.42237294509E+02  0.16186618140E+03  0.10384102685E+03  0.21673348311E+03  0.90585838385E+02 0.  0.
          5    1    3    3  502    0 -0.59365558739E+02 -0.40927950681E+02  0.50147587918E+02  0.87955882608E+02  0.47000000000E+01 0. -1.
         -5    1    3    3    0  502  0.17128264230E+02 -0.12093823072E+03 -0.17264083982E+02  0.12344866010E+03  0.47000000000E+01 0. -1.
        -11    1    4    4    0    0  0.82244932312E+00  0.40332215972E+02  0.74964771128E+02  0.85129789019E+02  0.00000000000E+00 0.  1.
         11    1    4    4    0    0  0.41414845186E+02  0.12153396543E+03  0.28876255722E+02  0.13160369409E+03  0.00000000000E+00 0. -1.
<mgrwt>
<rscale>  0 0.20401923E+03</rscale>
<asrwt>0</asrwt>
<pdfrwt beam="2">  1        2 0.22416423E-01 0.20883141E+03</pdfrwt>
<pdfrwt beam="1">  1       -2 0.43450966E-01 0.20883141E+03</pdfrwt>
<totfact> 0.12271002E+03</totfact>
</mgrwt>
</event>
<event>
 8    1  0.9424564E-006  0.1281800E+03  0.7546771E-02  0.1259185E+00
          3   -1    0    0  501    0  0.00000000000E+00  0.00000000000E+00  0.15314045178E+02  0.15314045178E+02  0.00000000000E+00 0. -1.
         -3   -1    0    0    0  501 -0.00000000000E+00 -0.00000000000E+00 -0.69390311168E+03  0.69390311168E+03  0.00000000000E+00 0.  1.
         23    2    1    2    0    0  0.17835179310E+02 -0.22060879153E+02 -0.51495948518E+03  0.53067257504E+03  0.12500133805E+03 0.  0.
         23    2    1    2    0    0 -0.17835179310E+02  0.22060879153E+02 -0.16362958132E+03  0.17854458181E+03  0.65564867133E+02 0.  0.
          5    1    3    3  502    0 -0.41810579363E+02 -0.40044233163E+02 -0.15910958238E+03  0.16938008845E+03  0.47000000000E+01 0.  1.
         -5    1    3    3    0  502  0.59645758673E+02  0.17983354010E+02 -0.35584990280E+03  0.36129248660E+03  0.47000000000E+01 0.  1.
        -11    1    4    4    0    0 -0.23266325692E+02 -0.12321764912E+02 -0.11935869533E+03  0.12222784442E+03  0.00000000000E+00 0.  1.
         11    1    4    4    0    0  0.54311463819E+01  0.34382644065E+02 -0.44270885992E+02  0.56316737391E+02  0.00000000000E+00 0. -1.
<mgrwt>
<rscale>  0 0.11075134E+03</rscale>
<asrwt>0</asrwt>
<pdfrwt beam="1">  1        3 0.23560065E-02 0.12817999E+03</pdfrwt>
<pdfrwt beam="2">  1       -3 0.10675434E+00 0.12817999E+03</pdfrwt>
<totfact> 0.13161878E+03</totfact>
</mgrwt>
</event>
<event>
 8    1  0.9424564E-006  0.1374069E+03  0.7546771E-02  0.1229525E+00
         -1   -1    0    0    0  501 -0.00000000000E+00  0.00000000000E+00  0.15374536103E+02  0.15374536103E+02  0.00000000000E+00 0.  1.
          1   -1    0    0  501    0  0.00000000000E+00 -0.00000000000E+00 -0.96458427486E+03  0.96458427486E+03  0.00000000000E+00 0. -1.
         23    2    1    2    0    0  0.57037702581E+02  0.15406383544E+01 -0.50046150632E+03  0.51898205027E+03  0.12499990447E+03 0.  0.
         23    2    1    2    0    0 -0.57037702581E+02 -0.15406383544E+01 -0.44874823244E+03  0.46097676069E+03  0.88706959685E+02 0.  0.
          5    1    3    3  502    0  0.78319528800E+02  0.41706088202E+02 -0.27725295638E+03  0.29114367279E+03  0.47000000000E+01 0.  1.
         -5    1    3    3    0  502 -0.21281826219E+02 -0.40165449848E+02 -0.22320854994E+03  0.22783837748E+03  0.47000000000E+01 0.  1.
        -11    1    4    4    0    0 -0.36943749973E+02  0.41449221966E+02 -0.29082837028E+03  0.29608110312E+03  0.00000000000E+00 0.  1.
         11    1    4    4    0    0 -0.20093952608E+02 -0.42989860321E+02 -0.15791986216E+03  0.16489565757E+03  0.00000000000E+00 0. -1.
<mgrwt>
<rscale>  0 0.12861508E+03</rscale>
<asrwt>0</asrwt>
<pdfrwt beam="2">  1        1 0.14839764E+00 0.13740687E+03</pdfrwt>
<pdfrwt beam="1">  1       -1 0.23653123E-02 0.13740687E+03</pdfrwt>
<totfact> 0.88112875E+03</totfact>
</mgrwt>
</event>
<event>
 8    1  0.9424564E-006  0.1143327E+03  0.7546771E-02  0.1262287E+00
         -1   -1    0    0    0  501 -0.00000000000E+00  0.00000000000E+00  0.26250829951E+03  0.26250829951E+03  0.00000000000E+00 0.  1.
          1   -1    0    0  501    0  0.00000000000E+00 -0.00000000000E+00 -0.91753739853E+02  0.91753739853E+02  0.00000000000E+00 0. -1.
         23    2    1    2    0    0  0.88445087440E+01 -0.20855470746E+02  0.21968109799E+03  0.24765247289E+03  0.11206599180E+03 0.  0.
         23    2    1    2    0    0 -0.88445087440E+01  0.20855470746E+02 -0.48926538335E+02  0.10660956648E+03  0.91970742716E+02 0.  0.
          5    1    3    3  502    0 -0.43297468615E+02  0.80615406684E+01  0.45538681365E+02  0.63525748535E+02  0.47000000000E+01 0. -1.
         -5    1    3    3    0  502  0.52141977359E+02 -0.28917011414E+02  0.17414241663E+03  0.18412672436E+03  0.47000000000E+01 0.  1.
        -11    1    4    4    0    0  0.30503914911E+02  0.36250392343E+02 -0.85025215339E+01  0.48133903252E+02  0.00000000000E+00 0. -1.
         11    1    4    4    0    0 -0.39348423655E+02 -0.15394921597E+02 -0.40424016801E+02  0.58475663223E+02  0.00000000000E+00 0.  1.
<mgrwt>
<rscale>  0 0.10907814E+03</rscale>
<asrwt>0</asrwt>
<pdfrwt beam="2">  1        1 0.14115960E-01 0.11433268E+03</pdfrwt>
<pdfrwt beam="1">  1       -1 0.40385892E-01 0.11433268E+03</pdfrwt>
<totfact> 0.23577941E+03</totfact>
</mgrwt>
</event>
<event>
 8    1  0.9424564E-006  0.1515579E+03  0.7546771E-02  0.1207707E+00
         -3   -1    0    0    0  501 -0.00000000000E+00  0.00000000000E+00  0.66025062603E+02  0.66025062603E+02  0.00000000000E+00 0.  1.
          3   -1    0    0  501    0  0.00000000000E+00 -0.00000000000E+00 -0.29067494826E+03  0.29067494826E+03  0.00000000000E+00 0. -1.
         23    2    1    2    0    0 -0.72839100622E+02  0.45153195661E+02 -0.10749297161E+03  0.18580781088E+03  0.12500183191E+03 0.  0.
         23    2    1    2    0    0  0.72839100622E+02 -0.45153195661E+02 -0.11715691405E+03  0.17089219999E+03  0.90189000711E+02 0.  0.
          5    1    3    3  502    0 -0.65309318501E+02  0.42970116416E+02 -0.13541247140E+03  0.15643006552E+03  0.47000000000E+01 0. -1.
         -5    1    3    3    0  502 -0.75297821214E+01  0.21830792454E+01  0.27919499790E+02  0.29377745358E+02  0.47000000000E+01 0. -1.
        -11    1    4    4    0    0  0.55112293975E+02 -0.52020668974E+01 -0.11440992450E+03  0.12709861239E+03  0.00000000000E+00 0. -1.
         11    1    4    4    0    0  0.17726806648E+02 -0.39951128764E+02 -0.27469895536E+01  0.43793587602E+02  0.00000000000E+00 0.  1.
<mgrwt>
<rscale>  0 0.14426127E+03</rscale>
<asrwt>0</asrwt>
<pdfrwt beam="2">  1        3 0.44719223E-01 0.15155792E+03</pdfrwt>
<pdfrwt beam="1">  1       -3 0.10157702E-01 0.15155792E+03</pdfrwt>
<totfact> 0.84285932E+02</totfact>
</mgrwt>
</event>
<event>
 8    1  0.9424564E-006  0.1792862E+03  0.7546771E-02  0.1174296E+00
          2   -1    0    0  501    0  0.00000000000E+00  0.00000000000E+00  0.22116945740E+03  0.22116945740E+03  0.00000000000E+00 0.  1.
         -2   -1    0    0    0  501 -0.00000000000E+00 -0.00000000000E+00 -0.13279572782E+03  0.13279572782E+03  0.00000000000E+00 0. -1.
         23    2    1    2    0    0 -0.48748194380E+02  0.11892121495E+03  0.13008969907E+02  0.17975758363E+03  0.12499965501E+03 0.  0.
         23    2    1    2    0    0  0.48748194380E+02 -0.11892121495E+03  0.75364759678E+02  0.17420760160E+03  0.90276240690E+02 0.  0.
          5    1    3    3  502    0 -0.57208599610E+02  0.14256955716E+03  0.12526726005E+02  0.15420087990E+03  0.47000000000E+01 0.  1.
         -5    1    3    3    0  502  0.84604052300E+01 -0.23648342213E+02  0.48224390294E+00  0.25556703725E+02  0.47000000000E+01 0.  1.
        -11    1    4    4    0    0  0.40796477390E+01 -0.80172536622E+02  0.24302083316E+01  0.80313044188E+02  0.00000000000E+00 0. -1.
         11    1    4    4    0    0  0.44668546641E+02 -0.38748678323E+02  0.72934551347E+02  0.93894557408E+02  0.00000000000E+00 0.  1.
<mgrwt>
<rscale>  0 0.17345145E+03</rscale>
<asrwt>0</asrwt>
<pdfrwt beam="1">  1        2 0.34026070E-01 0.17928624E+03</pdfrwt>
<pdfrwt beam="2">  1       -2 0.20430112E-01 0.17928624E+03</pdfrwt>
<totfact> 0.30264148E+03</totfact>
</mgrwt>
</event>
<event>
 8    1  0.9424564E-006  0.2076987E+03  0.7546771E-02  0.1147532E+00
         -1   -1    0    0    0  501 -0.00000000000E+00  0.00000000000E+00  0.13780630810E+03  0.13780630810E+03  0.00000000000E+00 0.  1.
          1   -1    0    0  501    0  0.00000000000E+00 -0.00000000000E+00 -0.47679686701E+03  0.47679686701E+03  0.00000000000E+00 0. -1.
         23    2    1    2    0    0 -0.47963793038E+02  0.15878296843E+03  0.20631113551E+02  0.20872081080E+03  0.12500470994E+03 0.  0.
         23    2    1    2    0    0  0.47963793038E+02 -0.15878296843E+03 -0.35962167246E+03  0.40588236431E+03  0.88883012132E+02 0.  0.
          5    1    3    3  502    0 -0.84710480801E+02  0.13268552838E+03 -0.31951712703E+01  0.15752337642E+03  0.47000000000E+01 0. -1.
         -5    1    3    3    0  502  0.36746687763E+02  0.26097440054E+02  0.23826284821E+02  0.51197434382E+02  0.47000000000E+01 0. -1.
        -11    1    4    4    0    0  0.26695076343E+02 -0.10184613517E+03 -0.31008758884E+03  0.32747454115E+03  0.00000000000E+00 0. -1.
         11    1    4    4    0    0  0.21268716695E+02 -0.56936833263E+02 -0.49534083621E+02  0.78407823156E+02  0.00000000000E+00 0.  1.
<mgrwt>
<rscale>  0 0.20263769E+03</rscale>
<asrwt>0</asrwt>
<pdfrwt beam="2">  1        1 0.73353363E-01 0.20769866E+03</pdfrwt>
<pdfrwt beam="1">  1       -1 0.21200971E-01 0.20769866E+03</pdfrwt>
<totfact> 0.88319543E+02</totfact>
</mgrwt>
</event>
<event>
 8    1  0.9424564E-006  0.1905412E+03  0.7546771E-02  0.1162772E+00
         -2   -1    0    0    0  501 -0.00000000000E+00  0.00000000000E+00  0.23887045737E+02  0.23887045737E+02  0.00000000000E+00 0.  1.
          2   -1    0    0  501    0  0.00000000000E+00 -0.00000000000E+00 -0.13647515288E+04  0.13647515288E+04  0.00000000000E+00 0. -1.
         23    2    1    2    0    0 -0.91559663206E+02  0.11135901412E+03 -0.68782830161E+03  0.71373223669E+03  0.12458704284E+03 0.  0.
         23    2    1    2    0    0  0.91559663206E+02 -0.11135901412E+03 -0.65303618143E+03  0.67490633783E+03  0.90875236588E+02 0.  0.
          5    1    3    3  502    0 -0.51778285874E+02  0.10070316701E+03 -0.25656401092E+03  0.28048048138E+03  0.47000000000E+01 0. -1.
         -5    1    3    3    0  502 -0.39781377333E+02  0.10655847112E+02 -0.43126429068E+03  0.43325175531E+03  0.47000000000E+01 0. -1.
        -11    1    4    4    0    0  0.30548245663E+02 -0.91131302010E+02 -0.49595982652E+03  0.50518735043E+03  0.00000000000E+00 0. -1.
         11    1    4    4    0    0  0.61011417544E+02 -0.20227712109E+02 -0.15707635492E+03  0.16971898739E+03  0.00000000000E+00 0.  1.
<mgrwt>
<rscale>  0 0.18529790E+03</rscale>
<asrwt>0</asrwt>
<pdfrwt beam="2">  1        2 0.20996177E+00 0.19054116E+03</pdfrwt>
<pdfrwt beam="1">  1       -2 0.36749301E-02 0.19054116E+03</pdfrwt>
<totfact> 0.50079322E+03</totfact>
</mgrwt>
</event>
<event>
 8    1  0.9424564E-006  0.1418625E+03  0.7546771E-02  0.1221442E+00
         -2   -1    0    0    0  501 -0.00000000000E+00  0.00000000000E+00  0.19905290055E+02  0.19905290055E+02  0.00000000000E+00 0.  1.
          2   -1    0    0  501    0  0.00000000000E+00 -0.00000000000E+00 -0.84790041211E+03  0.84790041211E+03  0.00000000000E+00 0. -1.
         23    2    1    2    0    0 -0.57021465947E+02 -0.35383492370E+02 -0.37803473555E+03  0.40377620126E+03  0.12498608048E+03 0.  0.
         23    2    1    2    0    0  0.57021465947E+02  0.35383492370E+02 -0.44996038651E+03  0.46402950090E+03  0.91408911881E+02 0.  0.
          5    1    3    3  502    0 -0.87739971572E+02  0.81964487912E+01 -0.24223151178E+03  0.25780550747E+03  0.47000000000E+01 0. -1.
         -5    1    3    3    0  502  0.30718505626E+02 -0.43579941161E+02 -0.13580322377E+03  0.14597069379E+03  0.47000000000E+01 0. -1.
        -11    1    4    4    0    0  0.34382692070E+02 -0.25652289487E+02 -0.25241235305E+03  0.25603164929E+03  0.00000000000E+00 0. -1.
         11    1    4    4    0    0  0.22638773877E+02  0.61035781857E+02 -0.19754803346E+03  0.20799785161E+03  0.00000000000E+00 0.  1.
<mgrwt>
<rscale>  0 0.13413795E+03</rscale>
<asrwt>0</asrwt>
<pdfrwt beam="2">  1        2 0.13044619E+00 0.14186247E+03</pdfrwt>
<pdfrwt beam="1">  1       -2 0.30623531E-02 0.14186247E+03</pdfrwt>
<totfact> 0.12963468E+04</totfact>
</mgrwt>
</event>
<event>
 8    1  0.9424564E-006  0.2205748E+03  0.7546771E-02  0.1137113E+00
          2   -1    0    0  501    0  0.00000000000E+00  0.00000000000E+00  0.23690539217E+03  0.23690539217E+03  0.00000000000E+00 0. -1.
         -2   -1    0    0    0  501 -0.00000000000E+00 -0.00000000000E+00 -0.21043083130E+03  0.21043083130E+03  0.00000000000E+00 0.  1.
         23    2    1    2    0    0  0.56124889497E+02  0.17290341677E+03 -0.58777701608E+02  0.22827189874E+03  0.12493056792E+03 0.  0.
         23    2    1    2    0    0 -0.56124889497E+02 -0.17290341677E+03  0.85252262476E+02  0.21906432472E+03  0.87610703448E+02 0.  0.
          5    1    3    3  502    0  0.49171424731E+02  0.11473359659E+03  0.23553078471E+02  0.12711594983E+03  0.47000000000E+01 0. -1.
         -5    1    3    3    0  502  0.69534647654E+01  0.58169820175E+02 -0.82330780079E+02  0.10115594891E+03  0.47000000000E+01 0. -1.
        -11    1    4    4    0    0 -0.16814088164E+02 -0.15240730457E+03  0.46625742770E+02  0.16026434393E+03  0.00000000000E+00 0.  1.
         11    1    4    4    0    0 -0.39310801333E+02 -0.20496112199E+02  0.38626519706E+02  0.58799980794E+02  0.00000000000E+00 0. -1.
<mgrwt>
<rscale>  0 0.21572205E+03</rscale>
<asrwt>0</asrwt>
<pdfrwt beam="1">  1        2 0.36446983E-01 0.22057480E+03</pdfrwt>
<pdfrwt beam="2">  1       -2 0.32373974E-01 0.22057480E+03</pdfrwt>
<totfact> 0.12519495E+03</totfact>
</mgrwt>
</event>
<event>
 8    1  0.9424564E-006  0.1543641E+03  0.7546771E-02  0.1203743E+00
         -2   -1    0    0    0  501 -0.00000000000E+00  0.00000000000E+00  0.22505009408E+03  0.22505009408E+03  0.00000000000E+00 0.  1.
          2   -1    0    0  501    0  0.00000000000E+00 -0.00000000000E+00 -0.89304355808E+02  0.89304355808E+02  0.00000000000E+00 0. -1.
         23    2    1    2    0    0 -0.26989231263E+01  0.90545298658E+02  0.86830368528E+02  0.17710953126E+03  0.12499015109E+03 0.  0.
         23    2    1    2    0    0  0.26989231263E+01 -0.90545298658E+02  0.48915369746E+02  0.13724491863E+03  0.90761880747E+02 0.  0.
          5    1    3    3  502    0 -0.28773152674E+02  0.71080379809E+02 -0.75211008023E+01  0.77194375870E+02  0.47000000000E+01 0.  1.
         -5    1    3    3    0  502  0.26074229548E+02  0.19464918848E+02  0.94351469330E+02  0.99915155392E+02  0.47000000000E+01 0.  1.
        -11    1    4    4    0    0  0.37659743955E+02 -0.19734171586E+02 -0.31841803300E+01  0.42636051029E+02  0.00000000000E+00 0.  1.
         11    1    4    4    0    0 -0.34960820829E+02 -0.70811127072E+02  0.52099550076E+02  0.94608867599E+02  0.00000000000E+00 0. -1.
<mgrwt>
<rscale>  0 0.14736992E+03</rscale>
<asrwt>0</asrwt>
<pdfrwt beam="2">  1        2 0.13739132E-01 0.15436409E+03</pdfrwt>
<pdfrwt beam="1">  1       -2 0.34623091E-01 0.15436409E+03</pdfrwt>
<totfact> 0.32842210E+03</totfact>
</mgrwt>
</event>
<event>
 8    1  0.9424564E-006  0.1262295E+03  0.7546771E-02  0.1249445E+00
          2   -1    0    0  501    0  0.00000000000E+00  0.00000000000E+00  0.51140445441E+02  0.51140445441E+02  0.00000000000E+00 0. -1.
         -2   -1    0    0    0  501 -0.00000000000E+00 -0.00000000000E+00 -0.25762435346E+03  0.25762435346E+03  0.00000000000E+00 0.  1.
         23    2    1    2    0    0  0.72209453985E+01  0.16035208742E+02 -0.16814008784E+03  0.21024981049E+03  0.12499849480E+03 0.  0.
         23    2    1    2    0    0 -0.72209453985E+01 -0.16035208742E+02 -0.38343820184E+02  0.98514988414E+02  0.89026313099E+02 0.  0.
          5    1    3    3  502    0  0.13475677780E+02  0.59042290158E+02 -0.34972039877E+02  0.70090794630E+02  0.47000000000E+01 0.  1.
         -5    1    3    3    0  502 -0.62547323819E+01 -0.43007081416E+02 -0.13316804796E+03  0.14015901586E+03  0.47000000000E+01 0.  1.
        -11    1    4    4    0    0 -0.16153632564E+02 -0.47768147796E+02 -0.34987862743E+01  0.50546783224E+02  0.00000000000E+00 0. -1.
         11    1    4    4    0    0  0.89326871658E+01  0.31732939054E+02 -0.34845033910E+02  0.47968205190E+02  0.00000000000E+00 0.  1.
<mgrwt>
<rscale>  0 0.11623271E+03</rscale>
<asrwt>0</asrwt>
<pdfrwt beam="1">  1        2 0.78677608E-02 0.12622953E+03</pdfrwt>
<pdfrwt beam="2">  1       -2 0.39634516E-01 0.12622953E+03</pdfrwt>
<totfact> 0.49779720E+03</totfact>
</mgrwt>
</event>
<event>
 7    1  0.9424564E-006  0.1903771E+03  0.7546771E-02  0.1165353E+00
         -2   -1    0    0    0  501 -0.00000000000E+00  0.00000000000E+00  0.66008749871E+02  0.66008749871E+02  0.00000000000E+00 0.  1.
          2   -1    0    0  501    0  0.00000000000E+00 -0.00000000000E+00 -0.58848986344E+03  0.58848986344E+03  0.00000000000E+00 0. -1.
         23    2    1    2    0    0  0.10948714513E+02 -0.12932625515E+03 -0.39182540328E+03  0.42359957697E+03  0.95206619159E+02 0.  0.
          5    1    1    2  502    0  0.16635277144E+02 -0.26551321937E+02 -0.16894438053E+02  0.35905670574E+02  0.47000000000E+01 0. -1.
         -5    1    1    2    0  502 -0.27583991657E+02  0.15587757708E+03 -0.11376127224E+03  0.19499336577E+03  0.47000000000E+01 0.  1.
        -11    1    3    3    0    0  0.31886439939E+02 -0.35445706460E+02 -0.52560977991E+02  0.70963367774E+02  0.00000000000E+00 0.  1.
         11    1    3    3    0    0 -0.20937725426E+02 -0.93880548687E+02 -0.33926442529E+03  0.35263620919E+03  0.00000000000E+00 0. -1.
<mgrwt>
<rscale>  0 0.18255484E+03</rscale>
<asrwt>0</asrwt>
<pdfrwt beam="2">  1        2 0.90536905E-01 0.19037713E+03</pdfrwt>
<pdfrwt beam="1">  1       -2 0.10155192E-01 0.19037713E+03</pdfrwt>
<totfact> 0.32955234E+03</totfact>
</mgrwt>
</event>
<event>
 8    1  0.9424564E-006  0.1299664E+03  0.7546771E-02  0.1241325E+00
          2   -1    0    0  501    0  0.00000000000E+00  0.00000000000E+00  0.17674329681E+03  0.17674329681E+03  0.00000000000E+00 0. -1.
         -2   -1    0    0    0  501 -0.00000000000E+00 -0.00000000000E+00 -0.74038275342E+02  0.74038275342E+02  0.00000000000E+00 0.  1.
         23    2    1    2    0    0  0.30243096597E+02 -0.18742255860E+02  0.47432691176E+02  0.13835143885E+03  0.12500137357E+03 0.  0.
         23    2    1    2    0    0 -0.30243096597E+02  0.18742255860E+02  0.55272330288E+02  0.11243013330E+03  0.91211771890E+02 0.  0.
          5    1    3    3  502    0 -0.40679379829E+02  0.15127203473E+02 -0.47217378662E+01  0.43909327445E+02  0.47000000000E+01 0. -1.
         -5    1    3    3    0  502  0.70922476427E+02 -0.33869459334E+02  0.52154429042E+02  0.94442111406E+02  0.47000000000E+01 0. -1.
        -11    1    4    4    0    0  0.24032533609E+02 -0.17337480390E+01  0.48334267073E+02  0.54007128487E+02  0.00000000000E+00 0. -1.
         11    1    4    4    0    0 -0.54275630206E+02  0.20476003899E+02  0.69380632149E+01  0.58423004811E+02  0.00000000000E+00 0.  1.
<mgrwt>
<rscale>  0 0.12108076E+03</rscale>
<asrwt>0</asrwt>
<pdfrwt beam="1">  1        2 0.27191276E-01 0.12996638E+03</pdfrwt>
<pdfrwt beam="2">  1       -2 0.11390504E-01 0.12996638E+03</pdfrwt>
<totfact> 0.98892314E+03</totfact>
</mgrwt>
</event>
<event>
 8    1  0.9424564E-006  0.1388720E+03  0.7546771E-02  0.1226088E+00
          2   -1    0    0  501    0  0.00000000000E+00  0.00000000000E+00  0.14922625049E+03  0.14922625049E+03  0.00000000000E+00 0. -1.
         -2   -1    0    0    0  501 -0.00000000000E+00 -0.00000000000E+00 -0.11188666905E+03  0.11188666905E+03  0.00000000000E+00 0.  1.
         23    2    1    2    0    0 -0.12131765290E+02 -0.59250586012E+02 -0.14765546614E+02  0.13965479314E+03  0.12501051239E+03 0.  0.
         23    2    1    2    0    0  0.12131765290E+02  0.59250586012E+02  0.52105128053E+02  0.12145812641E+03  0.91538628069E+02 0.  0.
          5    1    3    3  502    0  0.39452298154E+01  0.38858466888E+02 -0.46241840631E+01  0.39610836465E+02  0.47000000000E+01 0. -1.
         -5    1    3    3    0  502 -0.16076995106E+02 -0.98109052900E+02 -0.10141362551E+02  0.10004395667E+03  0.47000000000E+01 0. -1.
        -11    1    4    4    0    0 -0.35921112166E+02  0.15006434803E+02  0.38469934598E+02  0.54730752349E+02  0.00000000000E+00 0.  1.
         11    1    4    4    0    0  0.48052877456E+02  0.44244151209E+02  0.13635193454E+02  0.66727374057E+02  0.00000000000E+00 0. -1.
<mgrwt>
<rscale>  0 0.13092617E+03</rscale>
<asrwt>0</asrwt>
<pdfrwt beam="1">  1        2 0.22957885E-01 0.13887203E+03</pdfrwt>
<pdfrwt beam="2">  1       -2 0.17213334E-01 0.13887203E+03</pdfrwt>
<totfact> 0.61294731E+03</totfact>
</mgrwt>
</event>
<event>
 8    1  0.9424564E-006  0.1255640E+03  0.7546771E-02  0.1249342E+00
         -2   -1    0    0    0  501 -0.00000000000E+00  0.00000000000E+00  0.12494106711E+03  0.12494106711E+03  0.00000000000E+00 0.  1.
          2   -1    0    0  501    0  0.00000000000E+00 -0.00000000000E+00 -0.13728726546E+03  0.13728726546E+03  0.00000000000E+00 0. -1.
         23    2    1    2    0    0  0.11752164481E+02 -0.18284904245E+01  0.65316101093E+02  0.14153628593E+03  0.12499948171E+03 0.  0.
         23    2    1    2    0    0 -0.11752164481E+02  0.18284904245E+01 -0.77662299438E+02  0.12069204664E+03  0.91617032367E+02 0.  0.
          5    1    3    3  502    0 -0.20015600699E+02  0.55854103527E+02  0.29512765134E+02  0.66433413717E+02  0.47000000000E+01 0. -1.
         -5    1    3    3    0  502  0.31767765180E+02 -0.57682593952E+02  0.35803335959E+02  0.75102872218E+02  0.47000000000E+01 0. -1.
        -11    1    4    4    0    0 -0.51903115671E+02 -0.13566313596E+01 -0.39899325968E+02  0.65480761126E+02  0.00000000000E+00 0.  1.
         11    1    4    4    0    0  0.40150951190E+02  0.31851217842E+01 -0.37762973471E+02  0.55211285509E+02  0.00000000000E+00 0. -1.
<mgrwt>
<rscale>  0 0.11629211E+03</rscale>
<asrwt>0</asrwt>
<pdfrwt beam="2">  1        2 0.21121118E-01 0.12556404E+03</pdfrwt>
<pdfrwt beam="1">  1       -2 0.19221703E-01 0.12556404E+03</pdfrwt>
<totfact> 0.55573781E+03</totfact>
</mgrwt>
</event>
<event>
 8    1  0.9424564E-006  0.1364852E+03  0.7546771E-02  0.1228696E+00
          4   -1    0    0  501    0  0.00000000000E+00  0.00000000000E+00  0.38947181099E+03  0.38947181099E+03  0.00000000000E+00 0. -1.
         -4   -1    0    0    0  501 -0.00000000000E+00 -0.00000000000E+00 -0.39102063970E+02  0.39102063970E+02  0.00000000000E+00 0.  1.
         23    2    1    2    0    0  0.62428944408E+01  0.54456634367E+02  0.21184757002E+03  0.25200712566E+03  0.12499479869E+03 0.  0.
         23    2    1    2    0    0 -0.62428944408E+01 -0.54456634367E+02  0.13852217700E+03  0.17656674930E+03  0.94778292249E+02 0.  0.
          5    1    3    3  502    0  0.13807017271E+02 -0.26061601698E+02  0.14180641455E+03  0.14491718331E+03  0.47000000000E+01 0. -1.
         -5    1    3    3    0  502 -0.75641228298E+01  0.80518236065E+02  0.70041155468E+02  0.10708994235E+03  0.47000000000E+01 0. -1.
        -11    1    4    4    0    0 -0.16487637509E+02  0.22211569892E+02  0.16851934355E+02  0.32391105557E+02  0.00000000000E+00 0.  1.
         11    1    4    4    0    0  0.10244743068E+02 -0.76668204259E+02  0.12167024264E+03  0.14417564375E+03  0.00000000000E+00 0. -1.
<mgrwt>
<rscale>  0 0.12916796E+03</rscale>
<asrwt>0</asrwt>
<pdfrwt beam="1">  1        4 0.59918738E-01 0.13648516E+03</pdfrwt>
<pdfrwt beam="2">  1       -4 0.60157024E-02 0.13648516E+03</pdfrwt>
<totfact> 0.77959022E+02</totfact>
</mgrwt>
</event>
<event>
 8    1  0.1647170E-005  0.1451495E+03  0.7546771E-02  0.1217354E+00
         -3   -1    0    0    0  501 -0.00000000000E+00  0.00000000000E+00  0.43220250771E+02  0.43220250771E+02  0.00000000000E+00 0.  1.
          3   -1    0    0  501    0  0.00000000000E+00 -0.00000000000E+00 -0.39653427017E+03  0.39653427017E+03  0.00000000000E+00 0. -1.
         23    2    1    2    0    0 -0.71963553119E+02 -0.16274227541E+02 -0.17480261927E+03  0.22720989084E+03  0.12499910134E+03 0.  0.
         23    2    1    2    0    0  0.71963553119E+02  0.16274227541E+02 -0.17851140013E+03  0.21254463010E+03  0.88686506002E+02 0.  0.
          5    1    3    3  502    0  0.19782550240E+02 -0.62765844381E+01 -0.11542154805E+03  0.11736681201E+03  0.47000000000E+01 0. -1.
         -5    1    3    3    0  502 -0.91746103358E+02 -0.99976431032E+01 -0.59381071212E+02  0.10984307883E+03  0.47000000000E+01 0. -1.
        -11    1    4    4    0    0 -0.15127625315E+02  0.52968827940E+01 -0.30008041647E+01  0.16306650197E+02  0.00000000000E+00 0.  1.
         11    1    4    4    0    0  0.87091178434E+02  0.10977344747E+02 -0.17551059597E+03  0.19623797990E+03  0.00000000000E+00 0. -1.
<mgrwt>
<rscale>  0 0.13705013E+03</rscale>
<asrwt>0</asrwt>
<pdfrwt beam="2">  1        3 0.61005269E-01 0.14514950E+03</pdfrwt>
<pdfrwt beam="1">  1       -3 0.66492697E-02 0.14514950E+03</pdfrwt>
<totfact> 0.89512620E+02</totfact>
</mgrwt>
</event>
<event>
 8    1  0.9424564E-006  0.1257594E+03  0.7546771E-02  0.1248200E+00
         -1   -1    0    0    0  501 -0.00000000000E+00  0.00000000000E+00  0.75786220305E+02  0.75786220305E+02  0.00000000000E+00 0.  1.
          1   -1    0    0  501    0  0.00000000000E+00 -0.00000000000E+00 -0.17627940502E+03  0.17627940502E+03  0.00000000000E+00 0. -1.
         23    2    1    2    0    0 -0.63370369841E+01 -0.12508378372E+02 -0.18197112551E+02  0.12706912379E+03  0.12497523654E+03 0.  0.
         23    2    1    2    0    0  0.63370369841E+01  0.12508378372E+02 -0.82296072167E+02  0.12499650153E+03  0.93031523336E+02 0.  0.
          5    1    3    3  502    0 -0.34238519606E+02 -0.79242824417E+01 -0.63925335621E+02  0.73099993237E+02  0.47000000000E+01 0. -1.
         -5    1    3    3    0  502  0.27901482622E+02 -0.45840959308E+01  0.45728223070E+02  0.53969130557E+02  0.47000000000E+01 0. -1.
        -11    1    4    4    0    0  0.36468464762E+02 -0.25664347830E+02 -0.30991172487E+02  0.54305252451E+02  0.00000000000E+00 0.  1.
         11    1    4    4    0    0 -0.30131427778E+02  0.38172726203E+02 -0.51304899680E+02  0.70691249082E+02  0.00000000000E+00 0. -1.
<mgrwt>
<rscale>  0 0.11695865E+03</rscale>
<asrwt>0</asrwt>
<pdfrwt beam="2">  1        1 0.27119909E-01 0.12575940E+03</pdfrwt>
<pdfrwt beam="1">  1       -1 0.11659418E-01 0.12575940E+03</pdfrwt>
<totfact> 0.77763486E+03</totfact>
</mgrwt>
</event>
<event>
 8    1  0.9424564E-006  0.1799241E+03  0.7546771E-02  0.1173539E+00
          1   -1    0    0  501    0  0.00000000000E+00  0.00000000000E+00  0.77537789988E+02  0.77537789988E+02  0.00000000000E+00 0. -1.
         -1   -1    0    0    0  501 -0.00000000000E+00 -0.00000000000E+00 -0.45740040225E+03  0.45740040225E+03  0.00000000000E+00 0.  1.
         23    2    1    2    0    0 -0.74822739011E+02  0.10559426019E+03 -0.31760463256E+03  0.36502791603E+03  0.12499634716E+03 0.  0.
         23    2    1    2    0    0  0.74822739011E+02 -0.10559426019E+03 -0.62257979704E+02  0.16991027621E+03  0.90801188678E+02 0.  0.
          5    1    3    3  502    0 -0.51013742302E+01  0.70600440771E+02 -0.51442155283E+02  0.87628942685E+02  0.47000000000E+01 0. -1.
         -5    1    3    3    0  502 -0.69721364781E+02  0.34993819419E+02 -0.26616247727E+03  0.27739897335E+03  0.47000000000E+01 0. -1.
        -11    1    4    4    0    0  0.13718500443E+02 -0.93613540939E+02 -0.27171464724E+02  0.98437700078E+02  0.00000000000E+00 0.  1.
         11    1    4    4    0    0  0.61104238569E+02 -0.11980719251E+02 -0.35086514980E+02  0.71472576128E+02  0.00000000000E+00 0. -1.
<mgrwt>
<rscale>  0 0.17419884E+03</rscale>
<asrwt>0</asrwt>
<pdfrwt beam="1">  1        1 0.11928891E-01 0.17992409E+03</pdfrwt>
<pdfrwt beam="2">  1       -1 0.70369292E-01 0.17992409E+03</pdfrwt>
<totfact> 0.10641142E+03</totfact>
</mgrwt>
</event>
<event>
 8    1  0.9424564E-006  0.1302671E+03  0.7546771E-02  0.1240795E+00
         -1   -1    0    0    0  501 -0.00000000000E+00  0.00000000000E+00  0.44939681001E+03  0.44939681001E+03  0.00000000000E+00 0.  1.
          1   -1    0    0  501    0  0.00000000000E+00 -0.00000000000E+00 -0.36221164710E+02  0.36221164710E+02  0.00000000000E+00 0. -1.
         23    2    1    2    0    0  0.15981705086E+02  0.33000580743E+02  0.33691380499E+03  0.36122075794E+03  0.12500028299E+03 0.  0.
         23    2    1    2    0    0 -0.15981705086E+02 -0.33000580743E+02  0.76261840310E+02  0.12439721678E+03  0.91183035854E+02 0.  0.
          5    1    3    3  502    0  0.68717391742E+02  0.25908902158E+02  0.23355775218E+03  0.24487683586E+03  0.47000000000E+01 0. -1.
         -5    1    3    3    0  502 -0.52735686656E+02  0.70916785845E+01  0.10335605281E+03  0.11634392208E+03  0.47000000000E+01 0. -1.
        -11    1    4    4    0    0  0.34070512099E+02  0.47612555999E+01  0.18086953086E+02  0.38866530865E+02  0.00000000000E+00 0.  1.
         11    1    4    4    0    0 -0.50052217185E+02 -0.37761836342E+02  0.58174887224E+02  0.85530685912E+02  0.00000000000E+00 0. -1.
<mgrwt>
<rscale>  0 0.12140638E+03</rscale>
<asrwt>0</asrwt>
<pdfrwt beam="2">  1        1 0.55724872E-02 0.13026713E+03</pdfrwt>
<pdfrwt beam="1">  1       -1 0.69137967E-01 0.13026713E+03</pdfrwt>
<totfact> 0.30254036E+03</totfact>
</mgrwt>
</event>
<event>
 8    1  0.9424564E-006  0.3243043E+03  0.7546771E-02  0.1074988E+00
          1   -1    0    0  501    0  0.00000000000E+00  0.00000000000E+00  0.12137085920E+03  0.12137085920E+03  0.00000000000E+00 0.  1.
         -1   -1    0    0    0  501 -0.00000000000E+00 -0.00000000000E+00 -0.84106311375E+03  0.84106311375E+03  0.00000000000E+00 0. -1.
         23    2    1    2    0    0  0.42721725065E+02 -0.29618072514E+03 -0.40122463532E+03  0.51590163983E+03  0.12500050501E+03 0.  0.
         23    2    1    2    0    0 -0.42721725065E+02  0.29618072514E+03 -0.31846761922E+03  0.44653233312E+03  0.91767817312E+02 0.  0.
          5    1    3    3  502    0  0.74100635308E+02 -0.10429557194E+03 -0.13324892331E+03  0.18478591949E+03  0.47000000000E+01 0.  1.
         -5    1    3    3    0  502 -0.31378910242E+02 -0.19188515320E+03 -0.26797571201E+03  0.33111572034E+03  0.47000000000E+01 0.  1.
        -11    1    4    4    0    0  0.16829188664E+02  0.17904392533E+03 -0.20710670460E+03  0.27428659442E+03  0.00000000000E+00 0. -1.
         11    1    4    4    0    0 -0.59550913729E+02  0.11713679981E+03 -0.11136091463E+03  0.17224573870E+03  0.00000000000E+00 0.  1.
<mgrwt>
<rscale>  0 0.32144074E+03</rscale>
<asrwt>0</asrwt>
<pdfrwt beam="1">  1        1 0.18672439E-01 0.32430432E+03</pdfrwt>
<pdfrwt beam="2">  1       -1 0.12939433E+00 0.32430432E+03</pdfrwt>
<totfact> 0.15371608E+02</totfact>
</mgrwt>
</event>
<event>
 7    1  0.9424564E-006  0.2059686E+03  0.7546771E-02  0.1169794E+00
         -1   -1    0    0    0  501 -0.00000000000E+00  0.00000000000E+00  0.97175146439E+02  0.97175146439E+02  0.00000000000E+00 0.  1.
          1   -1    0    0  501    0  0.00000000000E+00 -0.00000000000E+00 -0.27244375295E+03  0.27244375295E+03  0.00000000000E+00 0. -1.
         23    2    1    2    0    0  0.69893806716E+02 -0.28190904960E+01 -0.93381705820E+02  0.14796934673E+03  0.91003808167E+02 0.  0.
          5    1    1    2  502    0  0.33914631961E+02 -0.69901843516E+02 -0.19195641323E+02  0.80168775928E+02  0.47000000000E+01 0. -1.
         -5    1    1    2    0  502 -0.10380843868E+03  0.72720934012E+02 -0.62691259372E+02  0.14148077674E+03  0.47000000000E+01 0.  1.
        -11    1    3    3    0    0  0.19433960551E+02  0.16010669476E+02  0.13290155272E+02  0.28471891172E+02  0.00000000000E+00 0.  1.
         11    1    3    3    0    0  0.50459846165E+02 -0.18829759972E+02 -0.10667186109E+03  0.11949745556E+03  0.00000000000E+00 0. -1.
<mgrwt>
<rscale>  0 0.17795848E+03</rscale>
<asrwt>0</asrwt>
<pdfrwt beam="2">  1        1 0.41914423E-01 0.20596859E+03</pdfrwt>
<pdfrwt beam="1">  1       -1 0.14950023E-01 0.20596859E+03</pdfrwt>
<totfact> 0.31523732E+03</totfact>
</mgrwt>
</event>
<event>
 8    1  0.9424564E-006  0.1494745E+03  0.7546771E-02  0.1211832E+00
          1   -1    0    0  501    0  0.00000000000E+00  0.00000000000E+00  0.10140328045E+03  0.10140328045E+03  0.00000000000E+00 0. -1.
         -1   -1    0    0    0  501 -0.00000000000E+00 -0.00000000000E+00 -0.18013431900E+03  0.18013431900E+03  0.00000000000E+00 0.  1.
         23    2    1    2    0    0  0.74644025390E+02  0.33885640822E+02 -0.61120532874E+02  0.16148787105E+03  0.12499058275E+03 0.  0.
         23    2    1    2    0    0 -0.74644025390E+02 -0.33885640822E+02 -0.17610505675E+02  0.12004972840E+03  0.85917636126E+02 0.  0.
          5    1    3    3  502    0  0.88634003970E+02  0.40259991389E+02  0.84985352583E+00  0.97466229112E+02  0.47000000000E+01 0. -1.
         -5    1    3    3    0  502 -0.13989978579E+02 -0.63743505675E+01 -0.61970386400E+02  0.64021641937E+02  0.47000000000E+01 0. -1.
        -11    1    4    4    0    0 -0.93239026018E+01  0.20859812590E+02 -0.25759960941E+02  0.34433160307E+02  0.00000000000E+00 0.  1.
         11    1    4    4    0    0 -0.65320122789E+02 -0.54745453411E+02  0.81494552660E+01  0.85616568090E+02  0.00000000000E+00 0. -1.
<mgrwt>
<rscale>  0 0.14111871E+03</rscale>
<asrwt>0</asrwt>
<pdfrwt beam="1">  1        1 0.15600505E-01 0.14947446E+03</pdfrwt>
<pdfrwt beam="2">  1       -1 0.27712972E-01 0.14947446E+03</pdfrwt>
<totfact> 0.39919175E+03</totfact>
</mgrwt>
</event>
<event>
 8    1  0.9424564E-006  0.1525775E+03  0.7546771E-02  0.1205043E+00
         -1   -1    0    0    0  501 -0.00000000000E+00  0.00000000000E+00  0.17357782817E+02  0.17357782817E+02  0.00000000000E+00 0.  1.
          1   -1    0    0  501    0  0.00000000000E+00 -0.00000000000E+00 -0.11432023893E+04  0.11432023893E+04  0.00000000000E+00 0. -1.
         23    2    1    2    0    0 -0.40701360022E+02 -0.77445661505E+02 -0.60042934781E+03  0.61951213804E+03  0.12500182506E+03 0.  0.
         23    2    1    2    0    0  0.40701360022E+02  0.77445661505E+02 -0.52541525871E+03  0.54104803412E+03  0.94959728016E+02 0.  0.
          5    1    3    3  502    0 -0.47159336327E+02  0.22186545581E+02 -0.22503113564E+03  0.23103538217E+03  0.47000000000E+01 0. -1.
         -5    1    3    3    0  502  0.64579763051E+01 -0.99632207086E+02 -0.37539821217E+03  0.38847675586E+03  0.47000000000E+01 0. -1.
        -11    1    4    4    0    0  0.48556178136E+02  0.90231500390E+01 -0.11904739368E+03  0.12888522652E+03  0.00000000000E+00 0.  1.
         11    1    4    4    0    0 -0.78548181146E+01  0.68422511466E+02 -0.40636786503E+03  0.41216280760E+03  0.00000000000E+00 0. -1.
<mgrwt>
<rscale>  0 0.14634085E+03</rscale>
<asrwt>0</asrwt>
<pdfrwt beam="2">  1        1 0.17587732E+00 0.15257748E+03</pdfrwt>
<pdfrwt beam="1">  1       -1 0.26704277E-02 0.15257748E+03</pdfrwt>
<totfact> 0.55230289E+03</totfact>
</mgrwt>
</event>
<event>
 8    1  0.9424564E-006  0.1443052E+03  0.7546771E-02  0.1220773E+00
         -1   -1    0    0    0  501 -0.00000000000E+00  0.00000000000E+00  0.13547580840E+03  0.13547580840E+03  0.00000000000E+00 0.  1.
          1   -1    0    0  501    0  0.00000000000E+00 -0.00000000000E+00 -0.20649466391E+03  0.20649466391E+03  0.00000000000E+00 0. -1.
         23    2    1    2    0    0 -0.24856943864E+01 -0.72068451741E+02  0.72583243606E+02  0.16153118177E+03  0.12499582001E+03 0.  0.
         23    2    1    2    0    0  0.24856943864E+01  0.72068451741E+02 -0.14360209911E+03  0.18043929055E+03  0.82077611379E+02 0.  0.
          5    1    3    3  502    0 -0.59284052151E+02 -0.13389642666E+02  0.19439897197E+02  0.63983442961E+02  0.47000000000E+01 0. -1.
         -5    1    3    3    0  502  0.56798357764E+02 -0.58678809075E+02  0.53143346409E+02  0.97547738809E+02  0.47000000000E+01 0. -1.
        -11    1    4    4    0    0 -0.91945363412E+01  0.59830872080E+02 -0.15046356938E+03  0.16218371824E+03  0.00000000000E+00 0. -1.
         11    1    4    4    0    0  0.11680230728E+02  0.12237579661E+02  0.68614702679E+01  0.18255572301E+02  0.00000000000E+00 0.  1.
<mgrwt>
<rscale>  0 0.13460847E+03</rscale>
<asrwt>0</asrwt>
<pdfrwt beam="2">  1        1 0.31768410E-01 0.14430522E+03</pdfrwt>
<pdfrwt beam="1">  1       -1 0.20842432E-01 0.14430522E+03</pdfrwt>
<totfact> 0.25820003E+03</totfact>
</mgrwt>
</event>
<event>
 8    1  0.9424564E-006  0.1263093E+03  0.7546771E-02  0.1248115E+00
          1   -1    0    0  501    0  0.00000000000E+00  0.00000000000E+00  0.21770400636E+03  0.21770400636E+03  0.00000000000E+00 0. -1.
         -1   -1    0    0    0  501 -0.00000000000E+00 -0.00000000000E+00 -0.68277926955E+02  0.68277926955E+02  0.00000000000E+00 0.  1.
         23    2    1    2    0    0 -0.18046551412E+02 -0.19857496888E+01  0.21989493464E+02  0.12820914270E+03  0.12499770089E+03 0.  0.
         23    2    1    2    0    0  0.18046551412E+02  0.19857496888E+01  0.12743658594E+03  0.15777279062E+03  0.91228004490E+02 0.  0.
          5    1    3    3  502    0 -0.70351266538E+02 -0.72828114677E+01  0.25450827638E+02  0.75313841184E+02  0.47000000000E+01 0. -1.
         -5    1    3    3    0  502  0.52304715126E+02  0.52970617788E+01 -0.34613341735E+01  0.52895301514E+02  0.47000000000E+01 0. -1.
        -11    1    4    4    0    0 -0.26250322148E+02 -0.28580078843E+01  0.42129264738E+01  0.26739416063E+02  0.00000000000E+00 0.  1.
         11    1    4    4    0    0  0.44296873560E+02  0.48437575731E+01  0.12322365947E+03  0.13103337456E+03  0.00000000000E+00 0. -1.
<mgrwt>
<rscale>  0 0.11700844E+03</rscale>
<asrwt>0</asrwt>
<pdfrwt beam="1">  1        1 0.33492924E-01 0.12630933E+03</pdfrwt>
<pdfrwt beam="2">  1       -1 0.10504297E-01 0.12630933E+03</pdfrwt>
<totfact> 0.70240039E+03</totfact>
</mgrwt>
</event>
<event>
 8    1  0.9424564E-006  0.2545265E+03  0.7546771E-02  0.1113025E+00
          2   -1    0    0  501    0  0.00000000000E+00  0.00000000000E+00  0.46992412545E+03  0.46992412545E+03  0.00000000000E+00 0. -1.
         -2   -1    0    0    0  501 -0.00000000000E+00 -0.00000000000E+00 -0.12936063371E+03  0.12936063371E+03  0.00000000000E+00 0.  1.
         23    2    1    2    0    0  0.15859578169E+03  0.15409841697E+03  0.17452719222E+03  0.30861546046E+03  0.12603498534E+03 0.  0.
         23    2    1    2    0    0 -0.15859578169E+03 -0.15409841697E+03  0.16603629952E+03  0.29066929871E+03  0.89563633065E+02 0.  0.
          5    1    3    3  502    0 -0.42771895739E+01  0.37931392342E+02 -0.62203894361E+01  0.38959827007E+02  0.47000000000E+01 0. -1.
         -5    1    3    3    0  502  0.16287297126E+03  0.11616702463E+03  0.18074758165E+03  0.26965563345E+03  0.47000000000E+01 0. -1.
        -11    1    4    4    0    0 -0.36712578585E+01 -0.26299444738E+02  0.55262729867E+02  0.61311566936E+02  0.00000000000E+00 0.  1.
         11    1    4    4    0    0 -0.15492452383E+03 -0.12779897224E+03  0.11077356966E+03  0.22935773177E+03  0.00000000000E+00 0. -1.
<mgrwt>
<rscale>  0 0.25044276E+03</rscale>
<asrwt>0</asrwt>
<pdfrwt beam="1">  1        2 0.72296018E-01 0.25452654E+03</pdfrwt>
<pdfrwt beam="2">  1       -2 0.19901636E-01 0.25452654E+03</pdfrwt>
<totfact> 0.14138551E+03</totfact>
</mgrwt>
</event>
<event>
 8    1  0.9424564E-006  0.1558386E+03  0.7546771E-02  0.1201538E+00
         -1   -1    0    0    0  501 -0.00000000000E+00  0.00000000000E+00  0.98959267810E+02  0.98959267810E+02  0.00000000000E+00 0.  1.
          1   -1    0    0  501    0  0.00000000000E+00 -0.00000000000E+00 -0.26328987159E+03  0.26328987159E+03  0.00000000000E+00 0. -1.
         23    2    1    2    0    0  0.78957290647E+02 -0.49267457949E+02 -0.46721274691E+01  0.15590859156E+03  0.12499649590E+03 0.  0.
         23    2    1    2    0    0 -0.78957290647E+02  0.49267457949E+02 -0.15965847631E+03  0.20634054785E+03  0.91782658863E+02 0.  0.
          5    1    3    3  502    0  0.82674473327E+02 -0.95117002217E+01 -0.48497911751E+02  0.96434840308E+02  0.47000000000E+01 0.  1.
         -5    1    3    3    0  502 -0.37171826795E+01 -0.39755757727E+02  0.43825784282E+02  0.59473751248E+02  0.47000000000E+01 0.  1.
        -11    1    4    4    0    0 -0.48517183276E+02  0.91419756623E+00 -0.13618057408E+03  0.14456798258E+03  0.00000000000E+00 0. -1.
         11    1    4    4    0    0 -0.30440107372E+02  0.48353260383E+02 -0.23477902231E+02  0.61772565267E+02  0.00000000000E+00 0.  1.
<mgrwt>
<rscale>  0 0.14913685E+03</rscale>
<asrwt>0</asrwt>
<pdfrwt beam="2">  1        1 0.40506134E-01 0.15583857E+03</pdfrwt>
<pdfrwt beam="1">  1       -1 0.15224503E-01 0.15583857E+03</pdfrwt>
<totfact> 0.31600780E+03</totfact>
</mgrwt>
</event>
<event>
 8    1  0.9424564E-006  0.1380785E+03  0.7546771E-02  0.1228401E+00
          2   -1    0    0  501    0  0.00000000000E+00  0.00000000000E+00  0.32389389405E+03  0.32389389405E+03  0.00000000000E+00 0.  1.
         -2   -1    0    0    0  501 -0.00000000000E+00 -0.00000000000E+00 -0.51926753037E+02  0.51926753037E+02  0.00000000000E+00 0. -1.
         23    2    1    2    0    0 -0.13229921509E+02  0.57142654710E+02  0.89323359266E+02  0.16445158087E+03  0.12500138452E+03 0.  0.
         23    2    1    2    0    0  0.13229921509E+02 -0.57142654710E+02  0.18264378174E+03  0.21136906621E+03  0.88757069183E+02 0.  0.
          5    1    3    3  502    0 -0.25997435161E+02 -0.15812118312E+02 -0.16707001001E+02  0.35030038580E+02  0.47000000000E+01 0. -1.
         -5    1    3    3    0  502  0.12767513651E+02  0.72954773022E+02  0.10603036027E+03  0.12942154229E+03  0.47000000000E+01 0. -1.
        -11    1    4    4    0    0  0.14753331201E+02 -0.76029742029E+02  0.17416811324E+03  0.19061142181E+03  0.00000000000E+00 0.  1.
         11    1    4    4    0    0 -0.15234096915E+01  0.18887087319E+02  0.84756685063E+01  0.20757644402E+02  0.00000000000E+00 0. -1.
<mgrwt>
<rscale>  0 0.12936485E+03</rscale>
<asrwt>0</asrwt>
<pdfrwt beam="1">  1        2 0.49829829E-01 0.13807846E+03</pdfrwt>
<pdfrwt beam="2">  1       -2 0.79887315E-02 0.13807846E+03</pdfrwt>
<totfact> 0.90532288E+03</totfact>
</mgrwt>
</event>
<event>
 8    1  0.9424564E-006  0.1268706E+03  0.7546771E-02  0.1247085E+00
         -2   -1    0    0    0  501 -0.00000000000E+00  0.00000000000E+00  0.45461596057E+02  0.45461596057E+02  0.00000000000E+00 0.  1.
          2   -1    0    0  501    0  0.00000000000E+00 -0.00000000000E+00 -0.26827235110E+03  0.26827235110E+03  0.00000000000E+00 0. -1.
         23    2    1    2    0    0 -0.21340322534E+02 -0.39664084412E+01 -0.12007851508E+03  0.17468543952E+03  0.12500004494E+03 0.  0.
         23    2    1    2    0    0  0.21340322534E+02  0.39664084412E+01 -0.10273223996E+03  0.13904850763E+03  0.91156089131E+02 0.  0.
          5    1    3    3  502    0 -0.60874198046E+02 -0.36492607213E+02 -0.46701808363E+02  0.85091287882E+02  0.47000000000E+01 0.  1.
         -5    1    3    3    0  502  0.39533875512E+02  0.32526198772E+02 -0.73376706712E+02  0.89594151637E+02  0.47000000000E+01 0.  1.
        -11    1    4    4    0    0 -0.45801853085E+01  0.40284817840E+02 -0.20363636965E+02  0.45370941761E+02  0.00000000000E+00 0.  1.
         11    1    4    4    0    0  0.25920507842E+02 -0.36318409398E+02 -0.82368602999E+02  0.93677565874E+02  0.00000000000E+00 0. -1.
<mgrwt>
<rscale>  0 0.11761458E+03</rscale>
<asrwt>0</asrwt>
<pdfrwt beam="2">  1        2 0.41272669E-01 0.12687062E+03</pdfrwt>
<pdfrwt beam="1">  1       -2 0.69940918E-02 0.12687062E+03</pdfrwt>
<totfact> 0.13467767E+04</totfact>
</mgrwt>
</event>
<event>
 8    1  0.9424564E-006  0.1272934E+03  0.7546771E-02  0.1246170E+00
          2   -1    0    0  501    0  0.00000000000E+00  0.00000000000E+00  0.11685723017E+03  0.11685723017E+03  0.00000000000E+00 0. -1.
         -2   -1    0    0    0  501 -0.00000000000E+00 -0.00000000000E+00 -0.10641078456E+03  0.10641078456E+03  0.00000000000E+00 0.  1.
         23    2    1    2    0    0  0.98982782549E+01  0.21906249288E+02 -0.56195135667E+01  0.12741741855E+03  0.12500303976E+03 0.  0.
         23    2    1    2    0    0 -0.98982782549E+01 -0.21906249288E+02  0.16065959178E+02  0.95850596175E+02  0.91385787038E+02 0.  0.
          5    1    3    3  502    0  0.48128012831E+02 -0.11761775112E+02 -0.41608135402E+02  0.64868882405E+02  0.47000000000E+01 0.  1.
         -5    1    3    3    0  502 -0.38229734577E+02  0.33668024400E+02  0.35988621835E+02  0.62548536149E+02  0.47000000000E+01 0.  1.
        -11    1    4    4    0    0  0.29544294613E+02 -0.34861147023E+02 -0.10070398039E+02  0.46792925028E+02  0.00000000000E+00 0.  1.
         11    1    4    4    0    0 -0.39442572868E+02  0.12954897736E+02  0.26136357217E+02  0.49057671147E+02  0.00000000000E+00 0. -1.
<mgrwt>
<rscale>  0 0.11815612E+03</rscale>
<asrwt>0</asrwt>
<pdfrwt beam="1">  1        2 0.17978035E-01 0.12729344E+03</pdfrwt>
<pdfrwt beam="2">  1       -2 0.16370890E-01 0.12729344E+03</pdfrwt>
<totfact> 0.87193011E+03</totfact>
</mgrwt>
</event>
<event>
 8    1  0.9424564E-006  0.1788520E+03  0.7546771E-02  0.1174282E+00
         -1   -1    0    0    0  501 -0.00000000000E+00  0.00000000000E+00  0.44211392923E+02  0.44211392923E+02  0.00000000000E+00 0.  1.
          1   -1    0    0  501    0  0.00000000000E+00 -0.00000000000E+00 -0.81211467916E+03  0.81211467916E+03  0.00000000000E+00 0. -1.
         23    2    1    2    0    0 -0.57331015775E+02  0.11438964539E+03 -0.20719259489E+03  0.27370934231E+03  0.12496478045E+03 0.  0.
         23    2    1    2    0    0  0.57331015775E+02 -0.11438964539E+03 -0.56071069136E+03  0.58261672977E+03  0.93133979130E+02 0.  0.
          5    1    3    3  502    0 -0.91517341147E+02  0.68074049033E+02 -0.17081978120E+03  0.20545312733E+03  0.47000000000E+01 0.  1.
         -5    1    3    3    0  502  0.34186325371E+02  0.46315596354E+02 -0.36372813688E+02  0.68256214981E+02  0.47000000000E+01 0.  1.
        -11    1    4    4    0    0  0.29733901208E+02 -0.11715662199E+03 -0.51627566434E+03  0.53023611773E+03  0.00000000000E+00 0. -1.
         11    1    4    4    0    0  0.27597114567E+02  0.27669766015E+01 -0.44435027014E+02  0.52380612040E+02  0.00000000000E+00 0.  1.
<mgrwt>
<rscale>  0 0.17346511E+03</rscale>
<asrwt>0</asrwt>
<pdfrwt beam="2">  1        1 0.12494072E+00 0.17885199E+03</pdfrwt>
<pdfrwt beam="1">  1       -1 0.68017525E-02 0.17885199E+03</pdfrwt>
<totfact> 0.24627783E+03</totfact>
</mgrwt>
</event>
<event>
 8    1  0.9424564E-006  0.1665463E+03  0.7546771E-02  0.1188524E+00
         -1   -1    0    0    0  501 -0.00000000000E+00  0.00000000000E+00  0.10970308557E+03  0.10970308557E+03  0.00000000000E+00 0.  1.
          1   -1    0    0  501    0  0.00000000000E+00 -0.00000000000E+00 -0.23234367213E+03  0.23234367213E+03  0.00000000000E+00 0. -1.
         23    2    1    2    0    0 -0.10974051121E+03 -0.83361299517E+01 -0.22737309216E+02  0.16809125406E+03  0.12500085438E+03 0.  0.
         23    2    1    2    0    0  0.10974051121E+03  0.83361299517E+01 -0.99903277347E+02  0.17395550364E+03  0.90373566701E+02 0.  0.
          5    1    3    3  502    0 -0.65135141859E+02  0.52264718556E+02  0.13014782420E+02  0.84650233740E+02  0.47000000000E+01 0. -1.
         -5    1    3    3    0  502 -0.44605369354E+02 -0.60600848508E+02 -0.35752091635E+02  0.83441020316E+02  0.47000000000E+01 0. -1.
        -11    1    4    4    0    0  0.58309754623E+02  0.48830993134E+02 -0.63337558068E+02  0.98975449666E+02  0.00000000000E+00 0.  1.
         11    1    4    4    0    0  0.51430756590E+02 -0.40494863182E+02 -0.36565719279E+02  0.74980053974E+02  0.00000000000E+00 0. -1.
<mgrwt>
<rscale>  0 0.16015276E+03</rscale>
<asrwt>0</asrwt>
<pdfrwt beam="2">  1        1 0.35745180E-01 0.16654634E+03</pdfrwt>
<pdfrwt beam="1">  1       -1 0.16877398E-01 0.16654634E+03</pdfrwt>
<totfact> 0.31452438E+03</totfact>
</mgrwt>
</event>
<event>
 8    1  0.9424564E-006  0.1313774E+03  0.7546771E-02  0.1238788E+00
          1   -1    0    0  501    0  0.00000000000E+00  0.00000000000E+00  0.53267389166E+02  0.53267389166E+02  0.00000000000E+00 0. -1.
         -1   -1    0    0    0  501 -0.00000000000E+00 -0.00000000000E+00 -0.25094007558E+03  0.25094007558E+03  0.00000000000E+00 0.  1.
         23    2    1    2    0    0 -0.37655650175E+02 -0.14699021022E+02 -0.11571183083E+03  0.17506926817E+03  0.12500404655E+03 0.  0.
         23    2    1    2    0    0  0.37655650175E+02  0.14699021022E+02 -0.81960855581E+02  0.12913819657E+03  0.91241891461E+02 0.  0.
          5    1    3    3  502    0 -0.89510267746E+01  0.30409474687E+02 -0.11707200205E+03  0.12137874894E+03  0.47000000000E+01 0. -1.
         -5    1    3    3    0  502 -0.28704623400E+02 -0.45108495708E+02  0.13601712147E+01  0.53690519232E+02  0.47000000000E+01 0. -1.
        -11    1    4    4    0    0  0.23309013387E+02  0.28374733562E+01 -0.10029699504E+03  0.10300897327E+03  0.00000000000E+00 0.  1.
         11    1    4    4    0    0  0.14346636787E+02  0.11861547665E+02  0.18336139459E+02  0.26129223303E+02  0.00000000000E+00 0. -1.
<mgrwt>
<rscale>  0 0.12265012E+03</rscale>
<asrwt>0</asrwt>
<pdfrwt beam="1">  1        1 0.81949829E-02 0.13137740E+03</pdfrwt>
<pdfrwt beam="2">  1       -1 0.38606166E-01 0.13137740E+03</pdfrwt>
<totfact> 0.52606251E+03</totfact>
</mgrwt>
</event>
<event>
 8    1  0.9424564E-006  0.2034232E+03  0.7546771E-02  0.1151058E+00
          2   -1    0    0  501    0  0.00000000000E+00  0.00000000000E+00  0.11334025925E+04  0.11334025925E+04  0.00000000000E+00 0.  1.
         -2   -1    0    0    0  501 -0.00000000000E+00 -0.00000000000E+00 -0.33694797680E+02  0.33694797680E+02  0.00000000000E+00 0. -1.
         23    2    1    2    0    0 -0.16045136546E+03 -0.33849081128E+01  0.50231139463E+03  0.54193886519E+03  0.12499959260E+03 0.  0.
         23    2    1    2    0    0  0.16045136546E+03  0.33849081128E+01  0.59739640019E+03  0.62515852499E+03  0.90468912453E+02 0.  0.
          5    1    3    3  502    0 -0.12700669838E+03  0.13256118150E+01  0.48913963718E+03  0.50538315499E+03  0.47000000000E+01 0. -1.
         -5    1    3    3    0  502 -0.33444667083E+02 -0.47105199278E+01  0.13171757442E+02  0.36555710202E+02  0.47000000000E+01 0. -1.
        -11    1    4    4    0    0  0.39790227230E+02 -0.31652907529E+02  0.10058674849E+03  0.11270697721E+03  0.00000000000E+00 0.  1.
         11    1    4    4    0    0  0.12066113823E+03  0.35037815642E+02  0.49680965170E+03  0.51245154778E+03  0.00000000000E+00 0. -1.
<mgrwt>
<rscale>  0 0.19844515E+03</rscale>
<asrwt>0</asrwt>
<pdfrwt beam="1">  1        2 0.17436960E+00 0.20342320E+03</pdfrwt>
<pdfrwt beam="2">  1       -2 0.51838159E-02 0.20342320E+03</pdfrwt>
<totfact> 0.40171350E+03</totfact>
</mgrwt>
</event>
<event>
 8    1  0.9424564E-006  0.1630804E+03  0.7546771E-02  0.1192161E+00
         -1   -1    0    0    0  501 -0.00000000000E+00  0.00000000000E+00  0.11066086385E+03  0.11066086385E+03  0.00000000000E+00 0.  1.
          1   -1    0    0  501    0  0.00000000000E+00 -0.00000000000E+00 -0.25573463190E+03  0.25573463190E+03  0.00000000000E+00 0. -1.
         23    2    1    2    0    0  0.10345207825E+03  0.16337902734E+02  0.23598185451E+01  0.16309750268E+03  0.12500386824E+03 0.  0.
         23    2    1    2    0    0 -0.10345207825E+03 -0.16337902734E+02 -0.14743358659E+03  0.20329799308E+03  0.92866312372E+02 0.  0.
          5    1    3    3  502    0  0.52885085003E+02 -0.12428263819E+02  0.59993519683E+02  0.81071612549E+02  0.47000000000E+01 0. -1.
         -5    1    3    3    0  502  0.50566993251E+02  0.28766166553E+02 -0.57633701137E+02  0.82025890129E+02  0.47000000000E+01 0. -1.
        -11    1    4    4    0    0 -0.28989967419E+02  0.26148060487E+02 -0.83623164052E+01  0.39925776309E+02  0.00000000000E+00 0.  1.
         11    1    4    4    0    0 -0.74462110835E+02 -0.42485963221E+02 -0.13907127019E+03  0.16337221677E+03  0.00000000000E+00 0. -1.
<mgrwt>
<rscale>  0 0.15696945E+03</rscale>
<asrwt>0</asrwt>
<pdfrwt beam="2">  1        1 0.39343789E-01 0.16308043E+03</pdfrwt>
<pdfrwt beam="1">  1       -1 0.17024748E-01 0.16308043E+03</pdfrwt>
<totfact> 0.27506604E+03</totfact>
</mgrwt>
</event>
<event>
 8    1  0.9424564E-006  0.1708759E+03  0.7546771E-02  0.1183782E+00
          1   -1    0    0  501    0  0.00000000000E+00  0.00000000000E+00  0.80145852338E+02  0.80145852338E+02  0.00000000000E+00 0. -1.
         -1   -1    0    0    0  501 -0.00000000000E+00 -0.00000000000E+00 -0.43581559315E+03  0.43581559315E+03  0.00000000000E+00 0.  1.
         23    2    1    2    0    0  0.93445784454E+02 -0.69580353964E+02 -0.32363855925E+03  0.36597882552E+03  0.12500017361E+03 0.  0.
         23    2    1    2    0    0 -0.93445784454E+02  0.69580353964E+02 -0.32031181557E+02  0.14998261997E+03  0.88855215999E+02 0.  0.
          5    1    3    3  502    0  0.22023575061E+02  0.47383272432E+01 -0.21470767833E+03  0.21593741394E+03  0.47000000000E+01 0. -1.
         -5    1    3    3    0  502  0.71422209393E+02 -0.74318681208E+02 -0.10893088092E+03  0.15004141158E+03  0.47000000000E+01 0. -1.
        -11    1    4    4    0    0 -0.47391421535E+02  0.15776862073E+02 -0.56163918530E+02  0.75161439293E+02  0.00000000000E+00 0.  1.
         11    1    4    4    0    0 -0.46054362919E+02  0.53803491891E+02  0.24132736973E+02  0.74821180674E+02  0.00000000000E+00 0. -1.
<mgrwt>
<rscale>  0 0.16443210E+03</rscale>
<asrwt>0</asrwt>
<pdfrwt beam="1">  1        1 0.12330131E-01 0.17087593E+03</pdfrwt>
<pdfrwt beam="2">  1       -1 0.67048553E-01 0.17087593E+03</pdfrwt>
<totfact> 0.11193968E+03</totfact>
</mgrwt>
</event>
<event>
 8    1  0.9424564E-006  0.1596826E+03  0.7546771E-02  0.1196349E+00
         -2   -1    0    0    0  501 -0.00000000000E+00  0.00000000000E+00  0.13211127225E+03  0.13211127225E+03  0.00000000000E+00 0.  1.
          2   -1    0    0  501    0  0.00000000000E+00 -0.00000000000E+00 -0.18819593394E+03  0.18819593394E+03  0.00000000000E+00 0. -1.
         23    2    1    2    0    0  0.32485528186E+02 -0.93909827846E+02  0.25486652495E+02  0.16170374966E+03  0.12499667152E+03 0.  0.
         23    2    1    2    0    0 -0.32485528186E+02  0.93909827846E+02 -0.81571314181E+02  0.15860345652E+03  0.92880632085E+02 0.  0.
          5    1    3    3  502    0 -0.32666907588E+01 -0.11669451433E+03  0.15139151640E+02  0.11781156503E+03  0.47000000000E+01 0.  1.
         -5    1    3    3    0  502  0.35752218945E+02  0.22784686484E+02  0.10347500855E+02  0.43892184630E+02  0.47000000000E+01 0.  1.
        -11    1    4    4    0    0  0.24391969477E+02  0.69619302879E+02 -0.38272143864E+02  0.83105791039E+02  0.00000000000E+00 0.  1.
         11    1    4    4    0    0 -0.56877497662E+02  0.24290524967E+02 -0.43299170317E+02  0.75497665484E+02  0.00000000000E+00 0. -1.
<mgrwt>
<rscale>  0 0.15340627E+03</rscale>
<asrwt>0</asrwt>
<pdfrwt beam="2">  1        2 0.28953220E-01 0.15968260E+03</pdfrwt>
<pdfrwt beam="1">  1       -2 0.20324811E-01 0.15968260E+03</pdfrwt>
<totfact> 0.36192055E+03</totfact>
</mgrwt>
</event>
<event>
 8    1  0.9424564E-006  0.1720585E+03  0.7546771E-02  0.1181993E+00
         -1   -1    0    0    0  501 -0.00000000000E+00  0.00000000000E+00  0.86306770637E+03  0.86306770637E+03  0.00000000000E+00 0.  1.
          1   -1    0    0  501    0  0.00000000000E+00 -0.00000000000E+00 -0.76621589228E+02  0.76621589228E+02  0.00000000000E+00 0. -1.
         23    2    1    2    0    0 -0.47532177881E+02 -0.10827433392E+03  0.77048013474E+03  0.78945788932E+03  0.12498592581E+03 0.  0.
         23    2    1    2    0    0  0.47532177881E+02  0.10827433392E+03  0.15965982405E+02  0.15023140629E+03  0.91279370724E+02 0.  0.
          5    1    3    3  502    0 -0.57273526708E+02 -0.12365442472E+03  0.74716752199E+03  0.75950778109E+03  0.47000000000E+01 0. -1.
         -5    1    3    3    0  502  0.97413488263E+01  0.15380090791E+02  0.23312612750E+02  0.29950108229E+02  0.47000000000E+01 0. -1.
        -11    1    4    4    0    0  0.68959658038E+01  0.84523207389E+02  0.43905200893E+02  0.95495516110E+02  0.00000000000E+00 0.  1.
         11    1    4    4    0    0  0.40636212078E+02  0.23751126535E+02 -0.27939218488E+02  0.54735890177E+02  0.00000000000E+00 0. -1.
<mgrwt>
<rscale>  0 0.16608508E+03</rscale>
<asrwt>0</asrwt>
<pdfrwt beam="2">  1        1 0.11787937E-01 0.17205848E+03</pdfrwt>
<pdfrwt beam="1">  1       -1 0.13277964E+00 0.17205848E+03</pdfrwt>
<totfact> 0.26748983E+02</totfact>
</mgrwt>
</event>
<event>
 8    1  0.9424564E-006  0.1158210E+03  0.7546771E-02  0.1257556E+00
          1   -1    0    0  501    0  0.00000000000E+00  0.00000000000E+00  0.42419848778E+03  0.42419848778E+03  0.00000000000E+00 0. -1.
         -1   -1    0    0    0  501 -0.00000000000E+00 -0.00000000000E+00 -0.31073536505E+02  0.31073536505E+02  0.00000000000E+00 0.  1.
         23    2    1    2    0    0 -0.29584111232E+02 -0.15573341661E+01  0.13174365837E+03  0.17541635026E+03  0.11196811818E+03 0.  0.
         23    2    1    2    0    0  0.29584111232E+02  0.15573341661E+01  0.26138129291E+03  0.27985567403E+03  0.95505879806E+02 0.  0.
          5    1    3    3  502    0 -0.33303789750E+02  0.46358001013E+02  0.10650876540E+03  0.12093144247E+03  0.47000000000E+01 0. -1.
         -5    1    3    3    0  502  0.37196785180E+01 -0.47915335179E+02  0.25234892964E+02  0.54484907787E+02  0.47000000000E+01 0.  1.
        -11    1    4    4    0    0 -0.23230142580E+02 -0.29926410381E+02  0.11520687891E+03  0.12127594366E+03  0.00000000000E+00 0.  1.
         11    1    4    4    0    0  0.52814253812E+02  0.31483744547E+02  0.14617441400E+03  0.15857973037E+03  0.00000000000E+00 0. -1.
<mgrwt>
<rscale>  0 0.11164394E+03</rscale>
<asrwt>0</asrwt>
<pdfrwt beam="1">  1        1 0.65261302E-01 0.11582100E+03</pdfrwt>
<pdfrwt beam="2">  1       -1 0.47805444E-02 0.11582100E+03</pdfrwt>
<totfact> 0.99215585E+03</totfact>
</mgrwt>
</event>
<event>
 8    1  0.9424564E-006  0.1537815E+03  0.7546771E-02  0.1204224E+00
          2   -1    0    0  501    0  0.00000000000E+00  0.00000000000E+00  0.10645169986E+04  0.10645169986E+04  0.00000000000E+00 0. -1.
         -2   -1    0    0    0  501 -0.00000000000E+00 -0.00000000000E+00 -0.19057369772E+02  0.19057369772E+02  0.00000000000E+00 0.  1.
         23    2    1    2    0    0 -0.87971585483E+02  0.16835075289E+02  0.49444205045E+03  0.51780467522E+03  0.12500528314E+03 0.  0.
         23    2    1    2    0    0  0.87971585483E+02 -0.16835075289E+02  0.55101757835E+03  0.56576969312E+03  0.91937774583E+02 0.  0.
          5    1    3    3  502    0 -0.33680583382E+02  0.47920517171E+02  0.40083038082E+03  0.40511460335E+03  0.47000000000E+01 0.  1.
         -5    1    3    3    0  502 -0.54291002101E+02 -0.31085441882E+02  0.93611669635E+02  0.11269007187E+03  0.47000000000E+01 0.  1.
        -11    1    4    4    0    0  0.18733680449E+02  0.36213914262E+02  0.15639684941E+03  0.16162417169E+03  0.00000000000E+00 0.  1.
         11    1    4    4    0    0  0.69237905034E+02 -0.53048989551E+02  0.39462072893E+03  0.40414552143E+03  0.00000000000E+00 0. -1.
<mgrwt>
<rscale>  0 0.14698773E+03</rscale>
<asrwt>0</asrwt>
<pdfrwt beam="1">  1        2 0.16377180E+00 0.15378147E+03</pdfrwt>
<pdfrwt beam="2">  1       -2 0.29319039E-02 0.15378147E+03</pdfrwt>
<totfact> 0.10219317E+04</totfact>
</mgrwt>
</event>
<event>
 8    1  0.9424564E-006  0.1430928E+03  0.7546771E-02  0.1215146E+00
         -2   -1    0    0    0  501 -0.00000000000E+00  0.00000000000E+00  0.79365007446E+02  0.79365007446E+02  0.00000000000E+00 0.  1.
          2   -1    0    0  501    0  0.00000000000E+00 -0.00000000000E+00 -0.23400830246E+03  0.23400830246E+03  0.00000000000E+00 0. -1.
         23    2    1    2    0    0 -0.27042056521E+02  0.64078701382E+02 -0.10634579977E+03  0.17828342957E+03  0.12505278620E+03 0.  0.
         23    2    1    2    0    0  0.27042056521E+02 -0.64078701382E+02 -0.48297495248E+02  0.13508988034E+03  0.10525813476E+03 0.  0.
          5    1    3    3  502    0 -0.21815214903E+02 -0.36217360910E+02 -0.30644998109E+02  0.52429063902E+02  0.47000000000E+01 0. -1.
         -5    1    3    3    0  502 -0.52268416182E+01  0.10029606229E+03 -0.75700801662E+02  0.12585436567E+03  0.47000000000E+01 0. -1.
        -11    1    4    4    0    0  0.18120661940E+02 -0.27634697624E+02 -0.79625437916E+02  0.86210470740E+02  0.00000000000E+00 0. -1.
         11    1    4    4    0    0  0.89213945806E+01 -0.36444003759E+02  0.31327942669E+02  0.48879409603E+02  0.00000000000E+00 0.  1.
<mgrwt>
<rscale>  0 0.13865794E+03</rscale>
<asrwt>0</asrwt>
<pdfrwt beam="2">  1        2 0.36001277E-01 0.14309281E+03</pdfrwt>
<pdfrwt beam="1">  1       -2 0.12210001E-01 0.14309281E+03</pdfrwt>
<totfact> 0.65827081E+03</totfact>
</mgrwt>
</event>
<event>
 8    1  0.9424564E-006  0.1456209E+03  0.7546771E-02  0.1215364E+00
          1   -1    0    0  501    0  0.00000000000E+00  0.00000000000E+00  0.59675867558E+02  0.59675867558E+02  0.00000000000E+00 0. -1.
         -1   -1    0    0    0  501 -0.00000000000E+00 -0.00000000000E+00 -0.29836254686E+03  0.29836254686E+03  0.00000000000E+00 0.  1.
         23    2    1    2    0    0 -0.33924194839E+02  0.66560585076E+02 -0.15336570668E+03  0.21148638967E+03  0.12499716217E+03 0.  0.
         23    2    1    2    0    0  0.33924194839E+02 -0.66560585076E+02 -0.85320972624E+02  0.14655202475E+03  0.92825993703E+02 0.  0.
          5    1    3    3  502    0  0.30939824470E+02  0.59123663167E+02 -0.12146774883E+03  0.13867005549E+03  0.47000000000E+01 0.  1.
         -5    1    3    3    0  502 -0.64864019308E+02  0.74369219092E+01 -0.31897957849E+02  0.72816334179E+02  0.47000000000E+01 0.  1.
        -11    1    4    4    0    0  0.21192776191E+02 -0.72174988034E+02 -0.17383920810E+02  0.77204684853E+02  0.00000000000E+00 0. -1.
         11    1    4    4    0    0  0.12731418648E+02  0.56144029584E+01 -0.67937051814E+02  0.69347339895E+02  0.00000000000E+00 0.  1.
<mgrwt>
<rscale>  0 0.13849866E+03</rscale>
<asrwt>0</asrwt>
<pdfrwt beam="1">  1        1 0.91809029E-02 0.14562092E+03</pdfrwt>
<pdfrwt beam="2">  1       -1 0.45901929E-01 0.14562092E+03</pdfrwt>
<totfact> 0.33482089E+03</totfact>
</mgrwt>
</event>
<event>
 8    1  0.9424564E-006  0.1342824E+03  0.7546771E-02  0.1232801E+00
         -1   -1    0    0    0  501 -0.00000000000E+00  0.00000000000E+00  0.59536320395E+03  0.59536320395E+03  0.00000000000E+00 0.  1.
          1   -1    0    0  501    0  0.00000000000E+00 -0.00000000000E+00 -0.27760787854E+02  0.27760787854E+02  0.00000000000E+00 0. -1.
         23    2    1    2    0    0 -0.19787535404E+02  0.44889046406E+02  0.42466871323E+03  0.44539340222E+03  0.12500077477E+03 0.  0.
         23    2    1    2    0    0  0.19787535404E+02 -0.44889046406E+02  0.14293370287E+03  0.17773058959E+03  0.93549698114E+02 0.  0.
          5    1    3    3  502    0  0.17855499177E+02 -0.17562236727E+01  0.22105621888E+01  0.18678323202E+02  0.47000000000E+01 0. -1.
         -5    1    3    3    0  502 -0.37643034581E+02  0.46645270079E+02  0.42245815105E+03  0.42671507901E+03  0.47000000000E+01 0. -1.
        -11    1    4    4    0    0 -0.17204671207E+02 -0.10943583562E+02 -0.54309437490E+01  0.21101134627E+02  0.00000000000E+00 0. -1.
         11    1    4    4    0    0  0.36992206611E+02 -0.33945462844E+02  0.14836464661E+03  0.15662945497E+03  0.00000000000E+00 0.  1.
<mgrwt>
<rscale>  0 0.12646293E+03</rscale>
<asrwt>0</asrwt>
<pdfrwt beam="2">  1        1 0.42708909E-02 0.13428241E+03</pdfrwt>
<pdfrwt beam="1">  1       -1 0.91594330E-01 0.13428241E+03</pdfrwt>
<totfact> 0.24529480E+03</totfact>
</mgrwt>
</event>
<event>
 8    1  0.9424564E-006  0.1438287E+03  0.7546771E-02  0.1218657E+00
         -1   -1    0    0    0  501 -0.00000000000E+00  0.00000000000E+00  0.12873032397E+03  0.12873032397E+03  0.00000000000E+00 0.  1.
          1   -1    0    0  501    0  0.00000000000E+00 -0.00000000000E+00 -0.13330793999E+03  0.13330793999E+03  0.00000000000E+00 0. -1.
         23    2    1    2    0    0  0.62186287920E+02 -0.34585257668E+02  0.16486023802E+02  0.14477043647E+03  0.12499366321E+03 0.  0.
         23    2    1    2    0    0 -0.62186287920E+02  0.34585257668E+02 -0.21063639821E+02  0.11726782749E+03  0.90800836932E+02 0.  0.
          5    1    3    3  502    0 -0.12142998974E+02  0.37482796246E+02 -0.87067673379E+00  0.39689551729E+02  0.47000000000E+01 0. -1.
         -5    1    3    3    0  502  0.74329286895E+02 -0.72068053914E+02  0.17356700536E+02  0.10508088474E+03  0.47000000000E+01 0. -1.
        -11    1    4    4    0    0 -0.52891702321E+02 -0.19650687982E+02 -0.25789747354E+02  0.62038639421E+02  0.00000000000E+00 0. -1.
         11    1    4    4    0    0 -0.92945855993E+01  0.54235945650E+02  0.47261075334E+01  0.55229188066E+02  0.00000000000E+00 0.  1.
<mgrwt>
<rscale>  0 0.13611265E+03</rscale>
<asrwt>0</asrwt>
<pdfrwt beam="2">  1        1 0.20508914E-01 0.14382868E+03</pdfrwt>
<pdfrwt beam="1">  1       -1 0.19804665E-01 0.14382868E+03</pdfrwt>
<totfact> 0.48569575E+03</totfact>
</mgrwt>
</event>
<event>
 8    1  0.9424564E-006  0.1783667E+03  0.7546771E-02  0.1174916E+00
          1   -1    0    0  501    0  0.00000000000E+00  0.00000000000E+00  0.11104174148E+03  0.11104174148E+03  0.00000000000E+00 0. -1.
         -1   -1    0    0    0  501 -0.00000000000E+00 -0.00000000000E+00 -0.25974094119E+03  0.25974094119E+03  0.00000000000E+00 0.  1.
         23    2    1    2    0    0  0.60942959608E+02 -0.11169364735E+03 -0.50531193014E+02  0.18538628636E+03  0.12500063408E+03 0.  0.
         23    2    1    2    0    0 -0.60942959608E+02  0.11169364735E+03 -0.98168006701E+02  0.18539639630E+03  0.92441067922E+02 0.  0.
          5    1    3    3  502    0  0.73547396635E+02 -0.12252726511E+03 -0.70135661091E+02  0.15925844154E+03  0.47000000000E+01 0. -1.
         -5    1    3    3    0  502 -0.12604437027E+02  0.10833617757E+02  0.19604468076E+02  0.26127844822E+02  0.47000000000E+01 0. -1.
        -11    1    4    4    0    0  0.20693208267E+02  0.38469262930E+02 -0.10318937993E+02  0.44884000936E+02  0.00000000000E+00 0. -1.
         11    1    4    4    0    0 -0.81636167875E+02  0.73224384419E+02 -0.87849068708E+02  0.14051239537E+03  0.00000000000E+00 0.  1.
<mgrwt>
<rscale>  0 0.17284189E+03</rscale>
<asrwt>0</asrwt>
<pdfrwt beam="1">  1        1 0.17083345E-01 0.17836668E+03</pdfrwt>
<pdfrwt beam="2">  1       -1 0.39960145E-01 0.17836668E+03</pdfrwt>
<totfact> 0.19113315E+03</totfact>
</mgrwt>
</event>
<event>
 8    1  0.9424564E-006  0.1281541E+03  0.7546771E-02  0.1245142E+00
          2   -1    0    0  501    0  0.00000000000E+00  0.00000000000E+00  0.12950627559E+03  0.12950627559E+03  0.00000000000E+00 0. -1.
         -2   -1    0    0    0  501 -0.00000000000E+00 -0.00000000000E+00 -0.14122665930E+03  0.14122665930E+03  0.00000000000E+00 0.  1.
         23    2    1    2    0    0 -0.67058663973E+01  0.27459379537E+02 -0.82693220975E+02  0.15251764837E+03  0.12499791238E+03 0.  0.
         23    2    1    2    0    0  0.67058663973E+01 -0.27459379537E+02  0.70972837266E+02  0.11821528652E+03  0.90214877760E+02 0.  0.
          5    1    3    3  502    0  0.28387498436E+02 -0.41046891268E+02 -0.41575693245E+02  0.65125460605E+02  0.47000000000E+01 0. -1.
         -5    1    3    3    0  502 -0.35093364833E+02  0.68506270805E+02 -0.41117527730E+02  0.87392187760E+02  0.47000000000E+01 0. -1.
        -11    1    4    4    0    0 -0.45950215496E+01  0.24798779929E+02 -0.46047049588E+01  0.25637804445E+02  0.00000000000E+00 0.  1.
         11    1    4    4    0    0  0.11300887947E+02 -0.52258159465E+02  0.75577542224E+02  0.92577482077E+02  0.00000000000E+00 0. -1.
<mgrwt>
<rscale>  0 0.11876886E+03</rscale>
<asrwt>0</asrwt>
<pdfrwt beam="1">  1        2 0.19924042E-01 0.12815406E+03</pdfrwt>
<pdfrwt beam="2">  1       -2 0.21727178E-01 0.12815406E+03</pdfrwt>
<totfact> 0.48284038E+03</totfact>
</mgrwt>
</event>
<event>
 8    1  0.9424564E-006  0.1178795E+03  0.7546771E-02  0.1274038E+00
         -2   -1    0    0    0  501 -0.00000000000E+00  0.00000000000E+00  0.69083975775E+02  0.69083975775E+02  0.00000000000E+00 0.  1.
          2   -1    0    0  501    0  0.00000000000E+00 -0.00000000000E+00 -0.13693134879E+03  0.13693134879E+03  0.00000000000E+00 0. -1.
         23    2    1    2    0    0 -0.87576976226E+01  0.30071524705E+02 -0.14132626640E+02  0.11872363370E+03  0.11364231693E+03 0.  0.
         23    2    1    2    0    0  0.87576976226E+01 -0.30071524705E+02 -0.53714746371E+02  0.87291690862E+02  0.61266397397E+02 0.  0.
          5    1    3    3  502    0  0.16207600827E+02 -0.39748128729E+02 -0.49593290478E+00  0.43184904902E+02  0.47000000000E+01 0. -1.
         -5    1    3    3    0  502 -0.24965298449E+02  0.69819653434E+02 -0.13636693736E+02  0.75538728797E+02  0.47000000000E+01 0.  1.
        -11    1    4    4    0    0 -0.81455684936E+00  0.18628527745E+02 -0.10028760339E+02  0.21172188898E+02  0.00000000000E+00 0. -1.
         11    1    4    4    0    0  0.95722544719E+01 -0.48700052450E+02 -0.43685986032E+02  0.66119501964E+02  0.00000000000E+00 0.  1.
<mgrwt>
<rscale>  0 0.10303592E+03</rscale>
<asrwt>0</asrwt>
<pdfrwt beam="2">  1        2 0.21066361E-01 0.11787947E+03</pdfrwt>
<pdfrwt beam="1">  1       -2 0.10628304E-01 0.11787947E+03</pdfrwt>
<totfact> 0.14505443E+04</totfact>
</mgrwt>
</event>
<event>
 8    1  0.9424564E-006  0.1306257E+03  0.7546771E-02  0.1239437E+00
         -1   -1    0    0    0  501 -0.00000000000E+00  0.00000000000E+00  0.85618653835E+02  0.85618653835E+02  0.00000000000E+00 0.  1.
          1   -1    0    0  501    0  0.00000000000E+00 -0.00000000000E+00 -0.16090732077E+03  0.16090732077E+03  0.00000000000E+00 0. -1.
         23    2    1    2    0    0 -0.36083459689E+02 -0.11698723493E+02 -0.20182486479E+02  0.13217565981E+03  0.12499678432E+03 0.  0.
         23    2    1    2    0    0  0.36083459689E+02  0.11698723493E+02 -0.55106180459E+02  0.11435031480E+03  0.92738488105E+02 0.  0.
          5    1    3    3  502    0 -0.43009036131E+02 -0.42066714346E+02 -0.57491443172E+02  0.83347115624E+02  0.47000000000E+01 0. -1.
         -5    1    3    3    0  502  0.69255764425E+01  0.30367990853E+02  0.37308956692E+02  0.48828544183E+02  0.47000000000E+01 0. -1.
        -11    1    4    4    0    0  0.51817118679E+02  0.37408122102E+02 -0.54831571168E+02  0.84207378442E+02  0.00000000000E+00 0. -1.
         11    1    4    4    0    0 -0.15733658991E+02 -0.25709398609E+02 -0.27460929121E+00  0.30142936359E+02  0.00000000000E+00 0.  1.
<mgrwt>
<rscale>  0 0.12224593E+03</rscale>
<asrwt>0</asrwt>
<pdfrwt beam="2">  1        1 0.24754972E-01 0.13062570E+03</pdfrwt>
<pdfrwt beam="1">  1       -1 0.13172101E-01 0.13062570E+03</pdfrwt>
<totfact> 0.72406473E+03</totfact>
</mgrwt>
</event>
<event>
 8    1  0.9424564E-006  0.1283914E+03  0.7546771E-02  0.1245584E+00
          1   -1    0    0  501    0  0.00000000000E+00  0.00000000000E+00  0.52034322478E+03  0.52034322478E+03  0.00000000000E+00 0. -1.
         -1   -1    0    0    0  501 -0.00000000000E+00 -0.00000000000E+00 -0.23789779604E+02  0.23789779604E+02  0.00000000000E+00 0.  1.
         23    2    1    2    0    0 -0.25713331092E+02  0.14086267640E+02  0.26265869328E+03  0.29235926058E+03  0.12499899904E+03 0.  0.
         23    2    1    2    0    0  0.25713331092E+02 -0.14086267640E+02  0.23389475190E+03  0.25177374381E+03  0.88451482587E+02 0.  0.
          5    1    3    3  502    0 -0.74892645517E+02  0.10193217042E+02  0.18873970752E+03  0.20336562448E+03  0.47000000000E+01 0.  1.
         -5    1    3    3    0  502  0.49179314425E+02  0.38930505979E+01  0.73918985758E+02  0.88993636097E+02  0.47000000000E+01 0.  1.
        -11    1    4    4    0    0 -0.20180014999E+02 -0.89822233120E+01  0.12025172388E+02  0.25149912763E+02  0.00000000000E+00 0.  1.
         11    1    4    4    0    0  0.45893346092E+02 -0.51040443282E+01  0.22186957951E+03  0.22662383105E+03  0.00000000000E+00 0. -1.
<mgrwt>
<rscale>  0 0.11850517E+03</rscale>
<asrwt>0</asrwt>
<pdfrwt beam="1">  1        1 0.80052796E-01 0.12839139E+03</pdfrwt>
<pdfrwt beam="2">  1       -1 0.36599665E-02 0.12839139E+03</pdfrwt>
<totfact> 0.11376531E+04</totfact>
</mgrwt>
</event>
<event>
 8    1  0.9424564E-006  0.1718755E+03  0.7546771E-02  0.1182246E+00
          2   -1    0    0  501    0  0.00000000000E+00  0.00000000000E+00  0.20944769216E+03  0.20944769216E+03  0.00000000000E+00 0. -1.
         -2   -1    0    0    0  501 -0.00000000000E+00 -0.00000000000E+00 -0.18467624490E+03  0.18467624490E+03  0.00000000000E+00 0.  1.
         23    2    1    2    0    0 -0.11105774885E+03  0.39771991526E+02 -0.10080415066E+03  0.19925523509E+03  0.12500214811E+03 0.  0.
         23    2    1    2    0    0  0.11105774885E+03 -0.39771991526E+02  0.12557559792E+03  0.19486870198E+03  0.91043645184E+02 0.  0.
          5    1    3    3  502    0 -0.12762614468E+03  0.42152987850E+01 -0.95211356413E+02  0.15935336187E+03  0.47000000000E+01 0.  1.
         -5    1    3    3    0  502  0.16568395828E+02  0.35556692741E+02 -0.55927942444E+01  0.39901873220E+02  0.47000000000E+01 0.  1.
        -11    1    4    4    0    0  0.30825467577E+02 -0.24576411642E+02 -0.61353948162E+01  0.39898026644E+02  0.00000000000E+00 0.  1.
         11    1    4    4    0    0  0.80232281270E+02 -0.15195579884E+02  0.13171099273E+03  0.15497067533E+03  0.00000000000E+00 0. -1.
<mgrwt>
<rscale>  0 0.16585009E+03</rscale>
<asrwt>0</asrwt>
<pdfrwt beam="1">  1        2 0.32222722E-01 0.17187545E+03</pdfrwt>
<pdfrwt beam="2">  1       -2 0.28411730E-01 0.17187545E+03</pdfrwt>
<totfact> 0.18012817E+03</totfact>
</mgrwt>
</event>
<event>
 8    1  0.9424564E-006  0.1616496E+03  0.7546771E-02  0.1195252E+00
          2   -1    0    0  501    0  0.00000000000E+00  0.00000000000E+00  0.54492124271E+03  0.54492124271E+03  0.00000000000E+00 0. -1.
         -2   -1    0    0    0  501 -0.00000000000E+00 -0.00000000000E+00 -0.58697909584E+02  0.58697909584E+02  0.00000000000E+00 0.  1.
         23    2    1    2    0    0  0.97806235991E+02  0.30622679214E+02  0.89480932230E+02  0.18476318788E+03  0.12500716012E+03 0.  0.
         23    2    1    2    0    0 -0.97806235991E+02 -0.30622679214E+02  0.39674240090E+03  0.41885596442E+03  0.86786968937E+02 0.  0.
          5    1    3    3  502    0 -0.24890410044E+02  0.26393456361E+02  0.34056171360E+02  0.49980594820E+02  0.47000000000E+01 0. -1.
         -5    1    3    3    0  502  0.12269664603E+03  0.42292228531E+01  0.55424760870E+02  0.13478259306E+03  0.47000000000E+01 0. -1.
        -11    1    4    4    0    0 -0.69030307871E+02  0.87365033013E+01  0.12765190814E+03  0.14538404158E+03  0.00000000000E+00 0.  1.
         11    1    4    4    0    0 -0.28775928120E+02 -0.39359182515E+02  0.26909049276E+03  0.27347192283E+03  0.00000000000E+00 0. -1.
<mgrwt>
<rscale>  0 0.15432912E+03</rscale>
<asrwt>0</asrwt>
<pdfrwt beam="1">  1        2 0.83834034E-01 0.16164962E+03</pdfrwt>
<pdfrwt beam="2">  1       -2 0.90304480E-02 0.16164962E+03</pdfrwt>
<totfact> 0.42999033E+03</totfact>
</mgrwt>
</event>
<event>
 8    1  0.9424564E-006  0.1327887E+03  0.7546771E-02  0.1236380E+00
         -4   -1    0    0    0  501 -0.00000000000E+00  0.00000000000E+00  0.10634884878E+03  0.10634884878E+03  0.00000000000E+00 0.  1.
          4   -1    0    0  501    0  0.00000000000E+00 -0.00000000000E+00 -0.13725607624E+03  0.13725607624E+03  0.00000000000E+00 0. -1.
         23    2    1    2    0    0 -0.41136977593E+01 -0.44630770260E+02  0.12141978988E+02  0.13334265731E+03  0.12499603370E+03 0.  0.
         23    2    1    2    0    0  0.41136977593E+01  0.44630770260E+02 -0.43049206450E+02  0.11026226772E+03  0.91080762751E+02 0.  0.
          5    1    3    3  502    0  0.46149016849E+02 -0.62843215051E+02  0.15256791155E+02  0.79585558429E+02  0.47000000000E+01 0. -1.
         -5    1    3    3    0  502 -0.50262714608E+02  0.18212444790E+02 -0.31148121662E+01  0.53757098879E+02  0.47000000000E+01 0. -1.
        -11    1    4    4    0    0  0.40009313242E+02  0.40329189263E+02 -0.38523825541E+01  0.56938822468E+02  0.00000000000E+00 0.  1.
         11    1    4    4    0    0 -0.35895615483E+02  0.43015809978E+01 -0.39196823896E+02  0.53323445251E+02  0.00000000000E+00 0. -1.
<mgrwt>
<rscale>  0 0.12416505E+03</rscale>
<asrwt>0</asrwt>
<pdfrwt beam="2">  1        4 0.21116319E-01 0.13278869E+03</pdfrwt>
<pdfrwt beam="1">  1       -4 0.16361361E-01 0.13278869E+03</pdfrwt>
<totfact> 0.10854679E+03</totfact>
</mgrwt>
</event>
<event>
 8    1  0.9424564E-006  0.1457618E+03  0.7546771E-02  0.1215659E+00
          1   -1    0    0  501    0  0.00000000000E+00  0.00000000000E+00  0.12092533347E+04  0.12092533347E+04  0.00000000000E+00 0. -1.
         -1   -1    0    0    0  501 -0.00000000000E+00 -0.00000000000E+00 -0.14390564106E+02  0.14390564106E+02  0.00000000000E+00 0.  1.
         23    2    1    2    0    0 -0.43599066405E+02 -0.61002097400E+02  0.66256028150E+03  0.67840446830E+03  0.12499744606E+03 0.  0.
         23    2    1    2    0    0  0.43599066405E+02  0.61002097400E+02  0.53230248912E+03  0.54523943053E+03  0.91202862872E+02 0.  0.
          5    1    3    3  502    0 -0.79594243449E+02 -0.35051063100E+02  0.55746946225E+03  0.56423232090E+03  0.47000000000E+01 0. -1.
         -5    1    3    3    0  502  0.35995177044E+02 -0.25951034299E+02  0.10509081925E+03  0.11417214740E+03  0.47000000000E+01 0. -1.
        -11    1    4    4    0    0  0.39105514906E+02  0.84582324601E+02  0.44784186959E+03  0.45743387620E+03  0.00000000000E+00 0. -1.
         11    1    4    4    0    0  0.44935514984E+01 -0.23580227202E+02  0.84460619530E+02  0.87805554331E+02  0.00000000000E+00 0.  1.
<mgrwt>
<rscale>  0 0.13828210E+03</rscale>
<asrwt>0</asrwt>
<pdfrwt beam="1">  1        1 0.18603889E+00 0.14576178E+03</pdfrwt>
<pdfrwt beam="2">  1       -1 0.22139339E-02 0.14576178E+03</pdfrwt>
<totfact> 0.65163102E+03</totfact>
</mgrwt>
</event>
<event>
 7    1  0.9424564E-006  0.2107793E+03  0.7546771E-02  0.1175333E+00
          2   -1    0    0  501    0  0.00000000000E+00  0.00000000000E+00  0.32361771857E+03  0.32361771857E+03  0.00000000000E+00 0. -1.
         -2   -1    0    0    0  501 -0.00000000000E+00 -0.00000000000E+00 -0.79995590819E+02  0.79995590819E+02  0.00000000000E+00 0.  1.
         23    2    1    2    0    0  0.12606353733E+02  0.14304679098E+02  0.13969651490E+03  0.16860594523E+03  0.92462449092E+02 0.  0.
          5    1    1    2  502    0 -0.89676111074E+02  0.56335932881E+02  0.48330126165E+02  0.11650507854E+03  0.47000000000E+01 0. -1.
         -5    1    1    2    0  502  0.77069757341E+02 -0.70640611978E+02  0.55595486683E+02  0.11850228562E+03  0.47000000000E+01 0.  1.
        -11    1    3    3    0    0  0.15115052128E+02  0.49987823678E+02  0.51118431218E+02  0.73077639036E+02  0.00000000000E+00 0. -1.
         11    1    3    3    0    0 -0.25086983944E+01 -0.35683144581E+02  0.88578083684E+02  0.95528306192E+02  0.00000000000E+00 0.  1.
<mgrwt>
<rscale>  0 0.17243407E+03</rscale>
<asrwt>0</asrwt>
<pdfrwt beam="1">  1        2 0.49787341E-01 0.21077934E+03</pdfrwt>
<pdfrwt beam="2">  1       -2 0.12307014E-01 0.21077934E+03</pdfrwt>
<totfact> 0.46933450E+03</totfact>
</mgrwt>
</event>
<event>
 8    1  0.9424564E-006  0.1294676E+03  0.7546771E-02  0.1242016E+00
         -4   -1    0    0    0  501 -0.00000000000E+00  0.00000000000E+00  0.10293319790E+03  0.10293319790E+03  0.00000000000E+00 0.  1.
          4   -1    0    0  501    0  0.00000000000E+00 -0.00000000000E+00 -0.12872147062E+03  0.12872147062E+03  0.00000000000E+00 0. -1.
         23    2    1    2    0    0  0.28769369014E+02  0.17562008170E+02  0.40572006800E+01  0.12953115296E+03  0.12500303190E+03 0.  0.
         23    2    1    2    0    0 -0.28769369014E+02 -0.17562008170E+02 -0.29845473400E+02  0.10212351557E+03  0.91664384716E+02 0.  0.
          5    1    3    3  502    0 -0.43414460035E+02  0.25931875261E+02  0.20683794966E+02  0.54837823342E+02  0.47000000000E+01 0. -1.
         -5    1    3    3    0  502  0.72183829049E+02 -0.83698670910E+01 -0.16626594286E+02  0.74693329614E+02  0.47000000000E+01 0. -1.
        -11    1    4    4    0    0 -0.37766500709E+01  0.31256876859E+02  0.11417004755E+02  0.33490348375E+02  0.00000000000E+00 0.  1.
         11    1    4    4    0    0 -0.24992718944E+02 -0.48818885029E+02 -0.41262478155E+02  0.68633167194E+02  0.00000000000E+00 0. -1.
<mgrwt>
<rscale>  0 0.12065785E+03</rscale>
<asrwt>0</asrwt>
<pdfrwt beam="2">  1        4 0.19803303E-01 0.12946760E+03</pdfrwt>
<pdfrwt beam="1">  1       -4 0.15835877E-01 0.12946760E+03</pdfrwt>
<totfact> 0.12833672E+03</totfact>
</mgrwt>
</event>
<event>
 8    1  0.9424564E-006  0.1261922E+03  0.7546771E-02  0.1249624E+00
          1   -1    0    0  501    0  0.00000000000E+00  0.00000000000E+00  0.72779063393E+02  0.72779063393E+02  0.00000000000E+00 0. -1.
         -1   -1    0    0    0  501 -0.00000000000E+00 -0.00000000000E+00 -0.24540711498E+03  0.24540711498E+03  0.00000000000E+00 0.  1.
         23    2    1    2    0    0 -0.18684247095E+01  0.16974457331E+02 -0.18796268163E+03  0.22639442729E+03  0.12503137131E+03 0.  0.
         23    2    1    2    0    0  0.18684247095E+01 -0.16974457331E+02  0.15334630039E+02  0.91791751081E+02  0.88876045566E+02 0.  0.
          5    1    3    3  502    0  0.13307351984E+02 -0.93017390252E+01 -0.19430657094E+03  0.19504035858E+03  0.47000000000E+01 0.  1.
         -5    1    3    3    0  502 -0.15175776694E+02  0.26276196357E+02  0.63438893110E+01  0.31354068712E+02  0.47000000000E+01 0.  1.
        -11    1    4    4    0    0  0.18158660291E+02 -0.43157065261E+01  0.48929236345E+02  0.52368238806E+02  0.00000000000E+00 0. -1.
         11    1    4    4    0    0 -0.16290235581E+02 -0.12658750805E+02 -0.33594606306E+02  0.39423512275E+02  0.00000000000E+00 0.  1.
<mgrwt>
<rscale>  0 0.11612845E+03</rscale>
<asrwt>0</asrwt>
<pdfrwt beam="1">  1        1 0.11196779E-01 0.12619218E+03</pdfrwt>
<pdfrwt beam="2">  1       -1 0.37754941E-01 0.12619218E+03</pdfrwt>
<totfact> 0.36048852E+03</totfact>
</mgrwt>
</event>
<event>
 8    1  0.9424564E-006  0.1369775E+03  0.7546771E-02  0.1229309E+00
         -2   -1    0    0    0  501 -0.00000000000E+00  0.00000000000E+00  0.34913154363E+03  0.34913154363E+03  0.00000000000E+00 0.  1.
          2   -1    0    0  501    0  0.00000000000E+00 -0.00000000000E+00 -0.51558471061E+02  0.51558471061E+02  0.00000000000E+00 0. -1.
         23    2    1    2    0    0  0.11033936205E+02 -0.54850831480E+02  0.24688783350E+03  0.28234097674E+03  0.12502984984E+03 0.  0.
         23    2    1    2    0    0 -0.11033936205E+02  0.54850831480E+02  0.50685239071E+02  0.11834903796E+03  0.91143512460E+02 0.  0.
          5    1    3    3  502    0  0.32401257735E+02 -0.39885225316E+02  0.22333615570E+02  0.56227689671E+02  0.47000000000E+01 0.  1.
         -5    1    3    3    0  502 -0.21367321531E+02 -0.14965606164E+02  0.22455421793E+03  0.22611328707E+03  0.47000000000E+01 0.  1.
        -11    1    4    4    0    0 -0.11078661735E+02  0.25540175820E+02 -0.24855789125E+02  0.37320873245E+02  0.00000000000E+00 0. -1.
         11    1    4    4    0    0  0.44725530860E-01  0.29310655661E+02  0.75541028197E+02  0.81028164712E+02  0.00000000000E+00 0.  1.
<mgrwt>
<rscale>  0 0.12875919E+03</rscale>
<asrwt>0</asrwt>
<pdfrwt beam="2">  1        2 0.79320727E-02 0.13697746E+03</pdfrwt>
<pdfrwt beam="1">  1       -2 0.53712544E-01 0.13697746E+03</pdfrwt>
<totfact> 0.27430985E+03</totfact>
</mgrwt>
</event>
<event>
 8    1  0.9424564E-006  0.3997378E+03  0.7546771E-02  0.1044626E+00
         -2   -1    0    0    0  501 -0.00000000000E+00  0.00000000000E+00  0.11678389825E+03  0.11678389825E+03  0.00000000000E+00 0. -1.
          2   -1    0    0  501    0  0.00000000000E+00 -0.00000000000E+00 -0.13572723301E+04  0.13572723301E+04  0.00000000000E+00 0.  1.
         23    2    1    2    0    0  0.36051392528E+03 -0.11919232713E+03 -0.71260658591E+03  0.81706696560E+03  0.12495270636E+03 0.  0.
         23    2    1    2    0    0 -0.36051392528E+03  0.11919232713E+03 -0.52788184593E+03  0.65698926275E+03  0.93800570016E+02 0.  0.
          5    1    3    3  502    0  0.36768323509E+03 -0.11310013063E+03 -0.70759679477E+03  0.80541785111E+03  0.47000000000E+01 0. -1.
         -5    1    3    3    0  502 -0.71693098088E+01 -0.60921964948E+01 -0.50097911456E+01  0.11649114498E+02  0.47000000000E+01 0. -1.
        -11    1    4    4    0    0 -0.41868539648E+02  0.49701044886E+02 -0.87413744569E+02  0.10892351084E+03  0.00000000000E+00 0.  1.
         11    1    4    4    0    0 -0.31864538563E+03  0.69491282241E+02 -0.44046810137E+03  0.54806575191E+03  0.00000000000E+00 0. -1.
<mgrwt>
<rscale>  0 0.39756594E+03</rscale>
<asrwt>0</asrwt>
<pdfrwt beam="2">  1        2 0.20881114E+00 0.39973776E+03</pdfrwt>
<pdfrwt beam="1">  1       -2 0.17966753E-01 0.39973776E+03</pdfrwt>
<totfact> 0.40826996E+02</totfact>
</mgrwt>
</event>
<event>
 8    1  0.9424564E-006  0.1834878E+03  0.7546771E-02  0.1169855E+00
          1   -1    0    0  501    0  0.00000000000E+00  0.00000000000E+00  0.14714731830E+03  0.14714731830E+03  0.00000000000E+00 0. -1.
         -1   -1    0    0    0  501 -0.00000000000E+00 -0.00000000000E+00 -0.20315256099E+03  0.20315256099E+03  0.00000000000E+00 0.  1.
         23    2    1    2    0    0  0.72949986886E+02 -0.11278787254E+03 -0.35448397622E+02  0.18688064110E+03  0.12499992138E+03 0.  0.
         23    2    1    2    0    0 -0.72949986886E+02  0.11278787254E+03 -0.20556845064E+02  0.16341923819E+03  0.90776972582E+02 0.  0.
          5    1    3    3  502    0  0.10665531956E+03 -0.65804767377E+02 -0.21932046231E+02  0.12731350774E+03  0.47000000000E+01 0.  1.
         -5    1    3    3    0  502 -0.33705332678E+02 -0.46983105164E+02 -0.13516351391E+02  0.59567133360E+02  0.47000000000E+01 0.  1.
        -11    1    4    4    0    0  0.48828625996E-01  0.25125147501E+02 -0.40452532490E+02  0.47620193259E+02  0.00000000000E+00 0.  1.
         11    1    4    4    0    0 -0.72998815512E+02  0.87662725041E+02  0.19895687426E+02  0.11579904493E+03  0.00000000000E+00 0. -1.
<mgrwt>
<rscale>  0 0.17789567E+03</rscale>
<asrwt>0</asrwt>
<pdfrwt beam="1">  1        1 0.22638049E-01 0.18348783E+03</pdfrwt>
<pdfrwt beam="2">  1       -1 0.31254240E-01 0.18348783E+03</pdfrwt>
<totfact> 0.20400675E+03</totfact>
</mgrwt>
</event>
<event>
 8    1  0.9424564E-006  0.1625969E+03  0.7546771E-02  0.1193126E+00
          1   -1    0    0  501    0  0.00000000000E+00  0.00000000000E+00  0.12442181966E+03  0.12442181966E+03  0.00000000000E+00 0. -1.
         -1   -1    0    0    0  501 -0.00000000000E+00 -0.00000000000E+00 -0.26905022098E+03  0.26905022098E+03  0.00000000000E+00 0.  1.
         23    2    1    2    0    0  0.10397565469E+03  0.93756383484E+00 -0.18800550311E+03  0.24856352613E+03  0.12500376605E+03 0.  0.
         23    2    1    2    0    0 -0.10397565469E+03 -0.93756383484E+00  0.43377101791E+02  0.14490851452E+03  0.91132260075E+02 0.  0.
          5    1    3    3  502    0  0.34431574040E+02 -0.23763097702E+02  0.45040908768E+01  0.42339047437E+02  0.47000000000E+01 0.  1.
         -5    1    3    3    0  502  0.69544080646E+02  0.24700661537E+02 -0.19250959399E+03  0.20622447869E+03  0.47000000000E+01 0.  1.
        -11    1    4    4    0    0  0.80845635246E+01 -0.18931485428E+02 -0.55429807866E+01  0.21318675942E+02  0.00000000000E+00 0.  1.
         11    1    4    4    0    0 -0.11206021821E+03  0.17993921593E+02  0.48920082577E+02  0.12358983858E+03  0.00000000000E+00 0. -1.
<mgrwt>
<rscale>  0 0.15613901E+03</rscale>
<asrwt>0</asrwt>
<pdfrwt beam="1">  1        1 0.19141818E-01 0.16259692E+03</pdfrwt>
<pdfrwt beam="2">  1       -1 0.41392342E-01 0.16259692E+03</pdfrwt>
<totfact> 0.15467509E+03</totfact>
</mgrwt>
</event>
<event>
 8    1  0.9424564E-006  0.2294208E+03  0.7546771E-02  0.1130087E+00
          2   -1    0    0  501    0  0.00000000000E+00  0.00000000000E+00  0.49660393299E+03  0.49660393299E+03  0.00000000000E+00 0. -1.
         -2   -1    0    0    0  501 -0.00000000000E+00 -0.00000000000E+00 -0.10003405879E+03  0.10003405879E+03  0.00000000000E+00 0.  1.
         23    2    1    2    0    0 -0.17003913281E+01 -0.19237631726E+03  0.16848851588E+03  0.28464415395E+03  0.12498950204E+03 0.  0.
         23    2    1    2    0    0  0.17003913281E+01  0.19237631726E+03  0.22808135832E+03  0.31199383783E+03  0.91145543274E+02 0.  0.
          5    1    3    3  502    0  0.23423442418E+02 -0.40594808777E+02  0.11057732024E+03  0.12019163825E+03  0.47000000000E+01 0. -1.
         -5    1    3    3    0  502 -0.25123833746E+02 -0.15178150848E+03  0.57911195643E+02  0.16445251570E+03  0.47000000000E+01 0. -1.
        -11    1    4    4    0    0  0.31709047174E+02  0.11662376353E+03  0.86438128945E+02  0.14858706548E+03  0.00000000000E+00 0. -1.
         11    1    4    4    0    0 -0.30008655846E+02  0.75752553727E+02  0.14164322937E+03  0.16340677235E+03  0.00000000000E+00 0.  1.
<mgrwt>
<rscale>  0 0.22516958E+03</rscale>
<asrwt>0</asrwt>
<pdfrwt beam="1">  1        2 0.76400604E-01 0.22942082E+03</pdfrwt>
<pdfrwt beam="2">  1       -2 0.15389855E-01 0.22942082E+03</pdfrwt>
<totfact> 0.20466164E+03</totfact>
</mgrwt>
</event>
<event>
 8    1  0.9424564E-006  0.1651809E+03  0.7546771E-02  0.1190871E+00
         -1   -1    0    0    0  501 -0.00000000000E+00  0.00000000000E+00  0.35496657541E+02  0.35496657541E+02  0.00000000000E+00 0.  1.
          1   -1    0    0  501    0  0.00000000000E+00 -0.00000000000E+00 -0.74883567736E+03  0.74883567736E+03  0.00000000000E+00 0. -1.
         23    2    1    2    0    0  0.86162847589E+02  0.65083952622E+02 -0.24169089170E+03  0.29274425973E+03  0.12499902910E+03 0.  0.
         23    2    1    2    0    0 -0.86162847589E+02 -0.65083952622E+02 -0.47164812812E+03  0.49158807518E+03  0.86873020593E+02 0.  0.
          5    1    3    3  502    0 -0.32456000057E+01  0.50545105805E+02 -0.16905097270E+03  0.17653799311E+03  0.47000000000E+01 0. -1.
         -5    1    3    3    0  502  0.89408447595E+02  0.14538846818E+02 -0.72639919005E+02  0.11620626662E+03  0.47000000000E+01 0. -1.
        -11    1    4    4    0    0 -0.20455633126E+02 -0.47816197479E+02 -0.90051298389E+02  0.10399066309E+03  0.00000000000E+00 0.  1.
         11    1    4    4    0    0 -0.65707214462E+02 -0.17267755144E+02 -0.38159682973E+03  0.38759741209E+03  0.00000000000E+00 0. -1.
<mgrwt>
<rscale>  0 0.15808908E+03</rscale>
<asrwt>0</asrwt>
<pdfrwt beam="2">  1        1 0.11520548E+00 0.16518085E+03</pdfrwt>
<pdfrwt beam="1">  1       -1 0.54610247E-02 0.16518085E+03</pdfrwt>
<totfact> 0.38585163E+03</totfact>
</mgrwt>
</event>
<event>
 8    1  0.9424564E-006  0.1612362E+03  0.7546771E-02  0.1193010E+00
         -4   -1    0    0    0  501 -0.00000000000E+00  0.00000000000E+00  0.43675861770E+03  0.43675861770E+03  0.00000000000E+00 0.  1.
          4   -1    0    0  501    0  0.00000000000E+00 -0.00000000000E+00 -0.95261672743E+02  0.95261672743E+02  0.00000000000E+00 0. -1.
         23    2    1    2    0    0  0.90167956683E+02  0.47371561059E+02  0.35432665872E+03  0.38928718077E+03  0.12499121097E+03 0.  0.
         23    2    1    2    0    0 -0.90167956683E+02 -0.47371561059E+02 -0.12829713767E+02  0.14273310967E+03  0.99165587944E+02 0.  0.
          5    1    3    3  502    0  0.11921515142E+03  0.25122288488E+02  0.24063516055E+03  0.26976054604E+03  0.47000000000E+01 0.  1.
         -5    1    3    3    0  502 -0.29047194742E+02  0.22249272571E+02  0.11369149817E+03  0.11952663473E+03  0.47000000000E+01 0.  1.
        -11    1    4    4    0    0 -0.48795424243E+02  0.18090864274E+00  0.37930393446E+02  0.61804052472E+02  0.00000000000E+00 0.  1.
         11    1    4    4    0    0 -0.41372532440E+02 -0.47552469702E+02 -0.50760107213E+02  0.80929057201E+02  0.00000000000E+00 0. -1.
<mgrwt>
<rscale>  0 0.15623841E+03</rscale>
<asrwt>0</asrwt>
<pdfrwt beam="2">  1        4 0.14655642E-01 0.16123625E+03</pdfrwt>
<pdfrwt beam="1">  1       -4 0.67193633E-01 0.16123625E+03</pdfrwt>
<totfact> 0.14081774E+02</totfact>
</mgrwt>
</event>
<event>
 8    1  0.9424564E-006  0.1490804E+03  0.7546771E-02  0.1209883E+00
         -2   -1    0    0    0  501 -0.00000000000E+00  0.00000000000E+00  0.59508456545E+02  0.59508456545E+02  0.00000000000E+00 0.  1.
          2   -1    0    0  501    0  0.00000000000E+00 -0.00000000000E+00 -0.48613748435E+03  0.48613748435E+03  0.00000000000E+00 0. -1.
         23    2    1    2    0    0 -0.46668750355E+02 -0.68800882398E+02 -0.64155933669E+02  0.16229897652E+03  0.12374748594E+03 0.  0.
         23    2    1    2    0    0  0.46668750355E+02  0.68800882398E+02 -0.36247309414E+03  0.38334696438E+03  0.93040944985E+02 0.  0.
          5    1    3    3  502    0 -0.42705775623E+01 -0.21387178774E+02 -0.90562120400E+02  0.93269699796E+02  0.47000000000E+01 0. -1.
         -5    1    3    3    0  502 -0.42398172793E+02 -0.47413703624E+02  0.26406186731E+02  0.69029276725E+02  0.47000000000E+01 0.  1.
        -11    1    4    4    0    0  0.31927879206E+02  0.90449473718E+02 -0.24769785773E+03  0.26562139501E+03  0.00000000000E+00 0. -1.
         11    1    4    4    0    0  0.14740871150E+02 -0.21648591320E+02 -0.11477523641E+03  0.11772556936E+03  0.00000000000E+00 0.  1.
<mgrwt>
<rscale>  0 0.14259198E+03</rscale>
<asrwt>0</asrwt>
<pdfrwt beam="2">  1        2 0.74790379E-01 0.14908043E+03</pdfrwt>
<pdfrwt beam="1">  1       -2 0.91551475E-02 0.14908043E+03</pdfrwt>
<totfact> 0.47588077E+03</totfact>
</mgrwt>
</event>
<event>
 8    1  0.9424564E-006  0.1423369E+03  0.7546771E-02  0.1221085E+00
         -3   -1    0    0    0  501 -0.00000000000E+00  0.00000000000E+00  0.58158751600E+03  0.58158751600E+03  0.00000000000E+00 0.  1.
          3   -1    0    0  501    0  0.00000000000E+00 -0.00000000000E+00 -0.36926217538E+02  0.36926217538E+02  0.00000000000E+00 0. -1.
         23    2    1    2    0    0  0.60637062693E+02 -0.30938640298E+02  0.44686847570E+03  0.46898957830E+03  0.12500294856E+03 0.  0.
         23    2    1    2    0    0 -0.60637062693E+02  0.30938640298E+02  0.97792822764E+02  0.14952415523E+03  0.90332629648E+02 0.  0.
          5    1    3    3  502    0  0.90329098289E+02 -0.68251033458E+01  0.38919179766E+03  0.39962266377E+03  0.47000000000E+01 0.  1.
         -5    1    3    3    0  502 -0.29692035596E+02 -0.24113536952E+02  0.57676678040E+02  0.69366914534E+02  0.47000000000E+01 0.  1.
        -11    1    4    4    0    0  0.10003729464E+02  0.10681997889E+02 -0.10950322773E+02  0.18278108516E+02  0.00000000000E+00 0. -1.
         11    1    4    4    0    0 -0.70640792157E+02  0.20256642408E+02  0.10874314554E+03  0.13124604672E+03  0.00000000000E+00 0.  1.
<mgrwt>
<rscale>  0 0.13438910E+03</rscale>
<asrwt>0</asrwt>
<pdfrwt beam="2">  1        3 0.56809569E-02 0.14233689E+03</pdfrwt>
<pdfrwt beam="1">  1       -3 0.89474996E-01 0.14233689E+03</pdfrwt>
<totfact> 0.50523736E+02</totfact>
</mgrwt>
</event>
<event>
 8    1  0.9424564E-006  0.1357045E+03  0.7546771E-02  0.1231553E+00
          3   -1    0    0  501    0  0.00000000000E+00  0.00000000000E+00  0.18055849831E+03  0.18055849831E+03  0.00000000000E+00 0. -1.
         -3   -1    0    0    0  501 -0.00000000000E+00 -0.00000000000E+00 -0.19918523427E+03  0.19918523427E+03  0.00000000000E+00 0.  1.
         23    2    1    2    0    0  0.21708732792E+02  0.48159089262E+02 -0.15604478571E+03  0.20679863869E+03  0.12500053944E+03 0.  0.
         23    2    1    2    0    0 -0.21708732792E+02 -0.48159089262E+02  0.13741804975E+03  0.17294509389E+03  0.90750857541E+02 0.  0.
          5    1    3    3  502    0  0.63298450600E+02  0.16077481910E+01 -0.40280200667E+02  0.75192175580E+02  0.47000000000E+01 0.  1.
         -5    1    3    3    0  502 -0.41589717808E+02  0.46551341071E+02 -0.11576458504E+03  0.13160646311E+03  0.47000000000E+01 0.  1.
        -11    1    4    4    0    0  0.21585794300E+02 -0.56383596178E+02  0.70486886668E+02  0.92808715246E+02  0.00000000000E+00 0.  1.
         11    1    4    4    0    0 -0.43294527092E+02  0.82245069158E+01  0.66931163085E+02  0.80136378643E+02  0.00000000000E+00 0. -1.
<mgrwt>
<rscale>  0 0.12727680E+03</rscale>
<asrwt>0</asrwt>
<pdfrwt beam="1">  1        3 0.27778230E-01 0.13570446E+03</pdfrwt>
<pdfrwt beam="2">  1       -3 0.30643882E-01 0.13570446E+03</pdfrwt>
<totfact> 0.29771131E+02</totfact>
</mgrwt>
</event>
<event>
 8    1  0.9424564E-006  0.1310777E+03  0.7546771E-02  0.1239701E+00
          1   -1    0    0  501    0  0.00000000000E+00  0.00000000000E+00  0.92179738244E+02  0.92179738244E+02  0.00000000000E+00 0. -1.
         -1   -1    0    0    0  501 -0.00000000000E+00 -0.00000000000E+00 -0.15373798686E+03  0.15373798686E+03  0.00000000000E+00 0.  1.
         23    2    1    2    0    0  0.28880786657E+02  0.26882583274E+02 -0.66854708666E+02  0.14714251055E+03  0.12499837286E+03 0.  0.
         23    2    1    2    0    0 -0.28880786657E+02 -0.26882583274E+02  0.52964600515E+01  0.98775214556E+02  0.90397551958E+02 0.  0.
          5    1    3    3  502    0  0.38358965042E+02  0.25715829656E+02 -0.10111811097E+03  0.11126399445E+03  0.47000000000E+01 0.  1.
         -5    1    3    3    0  502 -0.94781783842E+01  0.11667536184E+01  0.34263402309E+02  0.35878516096E+02  0.47000000000E+01 0.  1.
        -11    1    4    4    0    0  0.10686944563E+02 -0.31795042598E+02  0.35436010283E+02  0.48793917067E+02  0.00000000000E+00 0. -1.
         11    1    4    4    0    0 -0.39567731221E+02  0.49124593245E+01 -0.30139550232E+02  0.49981297489E+02  0.00000000000E+00 0.  1.
<mgrwt>
<rscale>  0 0.12208219E+03</rscale>
<asrwt>0</asrwt>
<pdfrwt beam="1">  1        1 0.14181498E-01 0.13107771E+03</pdfrwt>
<pdfrwt beam="2">  1       -1 0.23651998E-01 0.13107771E+03</pdfrwt>
<totfact> 0.58182102E+03</totfact>
</mgrwt>
</event>
<event>
 8    1  0.9424564E-006  0.1926989E+03  0.7546771E-02  0.1160785E+00
         -2   -1    0    0    0  501 -0.00000000000E+00  0.00000000000E+00  0.18210788162E+03  0.18210788162E+03  0.00000000000E+00 0.  1.
          2   -1    0    0  501    0  0.00000000000E+00 -0.00000000000E+00 -0.18312681767E+03  0.18312681767E+03  0.00000000000E+00 0. -1.
         23    2    1    2    0    0  0.10682889944E+03 -0.10047897248E+03 -0.25390065248E+00  0.19269901967E+03  0.12499764017E+03 0.  0.
         23    2    1    2    0    0 -0.10682889944E+03  0.10047897248E+03 -0.76503540395E+00  0.17253567962E+03  0.90881999303E+02 0.  0.
          5    1    3    3  502    0  0.22805795608E+02 -0.65491844400E+02  0.52760056611E+02  0.87263964899E+02  0.47000000000E+01 0.  1.
         -5    1    3    3    0  502  0.84023103831E+02 -0.34987128083E+02 -0.53013957264E+02  0.10543505477E+03  0.47000000000E+01 0.  1.
        -11    1    4    4    0    0 -0.42399336378E+02  0.74851621158E+02 -0.37755743656E+02  0.93946607679E+02  0.00000000000E+00 0. -1.
         11    1    4    4    0    0 -0.64429563060E+02  0.25627351324E+02  0.36990708252E+02  0.78589071944E+02  0.00000000000E+00 0.  1.
<mgrwt>
<rscale>  0 0.18744679E+03</rscale>
<asrwt>0</asrwt>
<pdfrwt beam="2">  1        2 0.28173356E-01 0.19269885E+03</pdfrwt>
<pdfrwt beam="1">  1       -2 0.28016597E-01 0.19269885E+03</pdfrwt>
<totfact> 0.21474955E+03</totfact>
</mgrwt>
</event>
<event>
 8    1  0.9424564E-006  0.1428633E+03  0.7546771E-02  0.1219318E+00
         -1   -1    0    0    0  501 -0.00000000000E+00  0.00000000000E+00  0.42460531232E+03  0.42460531232E+03  0.00000000000E+00 0.  1.
          1   -1    0    0  501    0  0.00000000000E+00 -0.00000000000E+00 -0.51468308761E+02  0.51468308761E+02  0.00000000000E+00 0. -1.
         23    2    1    2    0    0 -0.10507589680E+02  0.68388345639E+02  0.31576514223E+03  0.34657979922E+03  0.12499022728E+03 0.  0.
         23    2    1    2    0    0  0.10507589680E+02 -0.68388345639E+02  0.57371861321E+02  0.12949382186E+03  0.93218797290E+02 0.  0.
          5    1    3    3  502    0  0.25069400906E+02 -0.12335874119E+02  0.12968838467E+02  0.31159740423E+02  0.47000000000E+01 0. -1.
         -5    1    3    3    0  502 -0.35576990586E+02  0.80724219758E+02  0.30279630377E+03  0.31542005879E+03  0.47000000000E+01 0. -1.
        -11    1    4    4    0    0 -0.31860350540E+02  0.70417206232E+00  0.32439566179E+01  0.32032812074E+02  0.00000000000E+00 0. -1.
         11    1    4    4    0    0  0.42367940221E+02 -0.69092517702E+02  0.54127904703E+02  0.97461009786E+02  0.00000000000E+00 0.  1.
<mgrwt>
<rscale>  0 0.13564076E+03</rscale>
<asrwt>0</asrwt>
<pdfrwt beam="2">  1        1 0.79182016E-02 0.14286333E+03</pdfrwt>
<pdfrwt beam="1">  1       -1 0.65323892E-01 0.14286333E+03</pdfrwt>
<totfact> 0.21115139E+03</totfact>
</mgrwt>
</event>
<event>
 8    1  0.9424564E-006  0.1277409E+03  0.7546771E-02  0.1245407E+00
          2   -1    0    0  501    0  0.00000000000E+00  0.00000000000E+00  0.57762475912E+02  0.57762475912E+02  0.00000000000E+00 0. -1.
         -2   -1    0    0    0  501 -0.00000000000E+00 -0.00000000000E+00 -0.21758734946E+03  0.21758734946E+03  0.00000000000E+00 0.  1.
         23    2    1    2    0    0  0.20006512545E+02  0.17022246714E+02 -0.10737477150E+03  0.16687443662E+03  0.12501087398E+03 0.  0.
         23    2    1    2    0    0 -0.20006512545E+02 -0.17022246714E+02 -0.52450102056E+02  0.10847538876E+03  0.91246256547E+02 0.  0.
          5    1    3    3  502    0  0.51467864595E+02 -0.36578047255E+02 -0.69145834852E+02  0.93755699050E+02  0.47000000000E+01 0.  1.
         -5    1    3    3    0  502 -0.31461352049E+02  0.53600293968E+02 -0.38228936644E+02  0.73118737565E+02  0.47000000000E+01 0.  1.
        -11    1    4    4    0    0 -0.72753505196E+01 -0.23158532739E+02 -0.76676953350E+02  0.80427629201E+02  0.00000000000E+00 0.  1.
         11    1    4    4    0    0 -0.12731162026E+02  0.61362860256E+01  0.24226851294E+02  0.28047759560E+02  0.00000000000E+00 0. -1.
<mgrwt>
<rscale>  0 0.11861062E+03</rscale>
<asrwt>0</asrwt>
<pdfrwt beam="1">  1        2 0.88865349E-02 0.12774089E+03</pdfrwt>
<pdfrwt beam="2">  1       -2 0.33474976E-01 0.12774089E+03</pdfrwt>
<totfact> 0.58577177E+03</totfact>
</mgrwt>
</event>
<event>
 8    1  0.9424564E-006  0.1344138E+03  0.7546771E-02  0.1233787E+00
         -2   -1    0    0    0  501 -0.00000000000E+00  0.00000000000E+00  0.50692663113E+02  0.50692663113E+02  0.00000000000E+00 0.  1.
          2   -1    0    0  501    0  0.00000000000E+00 -0.00000000000E+00 -0.48885779373E+03  0.48885779373E+03  0.00000000000E+00 0. -1.
         23    2    1    2    0    0  0.39355985244E+02 -0.29918169455E+02 -0.59362331902E+02  0.14693865563E+03  0.12499236630E+03 0.  0.
         23    2    1    2    0    0 -0.39355985244E+02  0.29918169455E+02 -0.37880279871E+03  0.39261180121E+03  0.90600638506E+02 0.  0.
          5    1    3    3  502    0  0.52149872423E+02 -0.71131056913E+02 -0.53161841526E+02  0.10308980476E+03  0.47000000000E+01 0.  1.
         -5    1    3    3    0  502 -0.12793887179E+02  0.41212887459E+02 -0.62004903762E+01  0.43848850871E+02  0.47000000000E+01 0.  1.
        -11    1    4    4    0    0 -0.50101149102E+02  0.36681310854E+02 -0.37386919906E+03  0.37899052985E+03  0.00000000000E+00 0. -1.
         11    1    4    4    0    0  0.10745163857E+02 -0.67631413992E+01 -0.49335996474E+01  0.13621271357E+02  0.00000000000E+00 0.  1.
<mgrwt>
<rscale>  0 0.12582423E+03</rscale>
<asrwt>0</asrwt>
<pdfrwt beam="2">  1        2 0.75208894E-01 0.13441385E+03</pdfrwt>
<pdfrwt beam="1">  1       -2 0.77988710E-02 0.13441385E+03</pdfrwt>
<totfact> 0.60335657E+03</totfact>
</mgrwt>
</event>
<event>
 8    1  0.9424564E-006  0.1950603E+03  0.7546771E-02  0.1159971E+00
         -1   -1    0    0    0  501 -0.00000000000E+00  0.00000000000E+00  0.64689040015E+02  0.64689040015E+02  0.00000000000E+00 0.  1.
          1   -1    0    0  501    0  0.00000000000E+00 -0.00000000000E+00 -0.55585976867E+03  0.55585976867E+03  0.00000000000E+00 0. -1.
         23    2    1    2    0    0  0.32683790385E+02  0.14613505443E+03 -0.17621145686E+03  0.26286688735E+03  0.12499935461E+03 0.  0.
         23    2    1    2    0    0 -0.32683790385E+02 -0.14613505443E+03 -0.31495927179E+03  0.35768192133E+03  0.79456464007E+02 0.  0.
          5    1    3    3  502    0 -0.30351249253E+02  0.11854576204E+02 -0.78638199344E+02  0.85251309106E+02  0.47000000000E+01 0.  1.
         -5    1    3    3    0  502  0.63035039639E+02  0.13428047822E+03 -0.97573257515E+02  0.17761557825E+03  0.47000000000E+01 0.  1.
        -11    1    4    4    0    0 -0.57717064435E+02 -0.85284865831E+02 -0.20817911189E+03  0.23225699235E+03  0.00000000000E+00 0.  1.
         11    1    4    4    0    0  0.25033274049E+02 -0.60850188594E+02 -0.10678015990E+03  0.12542492898E+03  0.00000000000E+00 0. -1.
<mgrwt>
<rscale>  0 0.18833537E+03</rscale>
<asrwt>0</asrwt>
<pdfrwt beam="2">  1        1 0.85516889E-01 0.19506031E+03</pdfrwt>
<pdfrwt beam="1">  1       -1 0.99521598E-02 0.19506031E+03</pdfrwt>
<totfact> 0.23781412E+03</totfact>
</mgrwt>
</event>
<event>
 7    1  0.9424564E-006  0.2306070E+03  0.7546771E-02  0.1133579E+00
         -2   -1    0    0    0  501 -0.00000000000E+00  0.00000000000E+00  0.10750443875E+04  0.10750443875E+04  0.00000000000E+00 0.  1.
          2   -1    0    0  501    0  0.00000000000E+00 -0.00000000000E+00 -0.63762742543E+02  0.63762742543E+02  0.00000000000E+00 0. -1.
         23    2    1    2    0    0  0.15916559097E+03 -0.16376074030E+02  0.14120613827E+03  0.23868994002E+03  0.10691984302E+03 0.  0.
          5    1    1    2  502    0 -0.57552457898E+02 -0.30951731589E+02  0.86295358580E+02  0.10834793035E+03  0.47000000000E+01 0. -1.
         -5    1    1    2    0  502 -0.10161313307E+03  0.47327805618E+02  0.78378014815E+03  0.79176925972E+03  0.47000000000E+01 0.  1.
        -11    1    3    3    0    0  0.16242622951E+02 -0.93398451159E+01  0.81519272302E+02  0.83644768299E+02  0.00000000000E+00 0.  1.
         11    1    3    3    0    0  0.14292296802E+03 -0.70362289139E+01  0.59686865966E+02  0.15504517172E+03  0.00000000000E+00 0. -1.
<mgrwt>
<rscale>  0 0.22040882E+03</rscale>
<asrwt>0</asrwt>
<pdfrwt beam="2">  1        2 0.98096535E-02 0.23060696E+03</pdfrwt>
<pdfrwt beam="1">  1       -2 0.16539143E+00 0.23060696E+03</pdfrwt>
<totfact> 0.16112153E+02</totfact>
</mgrwt>
</event>
<event>
 8    1  0.9424564E-006  0.1261592E+03  0.7546771E-02  0.1248355E+00
         -1   -1    0    0    0  501 -0.00000000000E+00  0.00000000000E+00  0.34634868503E+03  0.34634868503E+03  0.00000000000E+00 0.  1.
          1   -1    0    0  501    0  0.00000000000E+00 -0.00000000000E+00 -0.34640351652E+02  0.34640351652E+02  0.00000000000E+00 0. -1.
         23    2    1    2    0    0 -0.15890194180E+02  0.60968107572E+01  0.17813404536E+03  0.21828393788E+03  0.12500588005E+03 0.  0.
         23    2    1    2    0    0  0.15890194180E+02 -0.60968107572E+01  0.13357428802E+03  0.16270509880E+03  0.91330112142E+02 0.  0.
          5    1    3    3  502    0  0.11668955712E+02  0.49146183728E+02  0.15287978395E+03  0.16107709410E+03  0.47000000000E+01 0.  1.
         -5    1    3    3    0  502 -0.27559149893E+02 -0.43049372971E+02  0.25254261409E+02  0.57206843780E+02  0.47000000000E+01 0.  1.
        -11    1    4    4    0    0 -0.34029330748E+02 -0.21987126360E+02  0.58061932328E+02  0.70799838011E+02  0.00000000000E+00 0.  1.
         11    1    4    4    0    0  0.49919524929E+02  0.15890315603E+02  0.75512355689E+02  0.91905260790E+02  0.00000000000E+00 0. -1.
<mgrwt>
<rscale>  0 0.11686808E+03</rscale>
<asrwt>0</asrwt>
<pdfrwt beam="2">  1        1 0.53292851E-02 0.12615918E+03</pdfrwt>
<pdfrwt beam="1">  1       -1 0.53284411E-01 0.12615918E+03</pdfrwt>
<totfact> 0.52660621E+03</totfact>
</mgrwt>
</event>
<event>
 8    1  0.9424564E-006  0.1322153E+03  0.7546771E-02  0.1237277E+00
         -2   -1    0    0    0  501 -0.00000000000E+00  0.00000000000E+00  0.60645967127E+02  0.60645967127E+02  0.00000000000E+00 0.  1.
          2   -1    0    0  501    0  0.00000000000E+00 -0.00000000000E+00 -0.26455315146E+03  0.26455315146E+03  0.00000000000E+00 0. -1.
         23    2    1    2    0    0 -0.27329139611E+02 -0.33335533572E+02 -0.50473243595E+02  0.14152184280E+03  0.12499097567E+03 0.  0.
         23    2    1    2    0    0  0.27329139611E+02  0.33335533572E+02 -0.15343394074E+03  0.18367727579E+03  0.91308421299E+02 0.  0.
          5    1    3    3  502    0  0.46196951915E+02 -0.39475445383E+01  0.16084812430E+01  0.46630662509E+02  0.47000000000E+01 0.  1.
         -5    1    3    3    0  502 -0.73526091527E+02 -0.29387989034E+02 -0.52081724838E+02  0.94891180290E+02  0.47000000000E+01 0.  1.
        -11    1    4    4    0    0  0.17104336805E+02 -0.29623690672E+02 -0.33729033656E+02  0.48039245394E+02  0.00000000000E+00 0.  1.
         11    1    4    4    0    0  0.10224802806E+02  0.62959224245E+02 -0.11970490708E+03  0.13563803039E+03  0.00000000000E+00 0. -1.
<mgrwt>
<rscale>  0 0.12359805E+03</rscale>
<asrwt>0</asrwt>
<pdfrwt beam="2">  1        2 0.40700485E-01 0.13221529E+03</pdfrwt>
<pdfrwt beam="1">  1       -2 0.93301487E-02 0.13221529E+03</pdfrwt>
<totfact> 0.87888738E+03</totfact>
</mgrwt>
</event>
<event>
 8    1  0.9424564E-006  0.1296003E+03  0.7546771E-02  0.1243034E+00
          2   -1    0    0  501    0  0.00000000000E+00  0.00000000000E+00  0.56225970001E+03  0.56225970001E+03  0.00000000000E+00 0. -1.
         -2   -1    0    0    0  501 -0.00000000000E+00 -0.00000000000E+00 -0.35882112064E+02  0.35882112064E+02  0.00000000000E+00 0.  1.
         23    2    1    2    0    0  0.33713868110E+02 -0.58924558628E+01  0.10702604432E+03  0.16807980611E+03  0.12499960447E+03 0.  0.
         23    2    1    2    0    0 -0.33713868110E+02  0.58924558628E+01  0.41935154362E+03  0.43006200596E+03  0.89029578782E+02 0.  0.
          5    1    3    3  502    0  0.58789342196E+02  0.92389671505E+01  0.12127628395E+03  0.13517238001E+03  0.47000000000E+01 0. -1.
         -5    1    3    3    0  502 -0.25075474086E+02 -0.15131423013E+02 -0.14250239622E+02  0.32907426097E+02  0.47000000000E+01 0. -1.
        -11    1    4    4    0    0  0.20819684344E+02 -0.23577769513E+02  0.10304272168E+03  0.10773659064E+03  0.00000000000E+00 0.  1.
         11    1    4    4    0    0 -0.54533552454E+02  0.29470225376E+02  0.31630882194E+03  0.32232541532E+03  0.00000000000E+00 0. -1.
<mgrwt>
<rscale>  0 0.12003849E+03</rscale>
<asrwt>0</asrwt>
<pdfrwt beam="1">  1        2 0.86501486E-01 0.12960034E+03</pdfrwt>
<pdfrwt beam="2">  1       -2 0.55203253E-02 0.12960034E+03</pdfrwt>
<totfact> 0.87308957E+03</totfact>
</mgrwt>
</event>
<event>
 8    1  0.9424564E-006  0.1495324E+03  0.7546771E-02  0.1208334E+00
         -2   -1    0    0    0  501 -0.00000000000E+00  0.00000000000E+00  0.51784621424E+02  0.51784621424E+02  0.00000000000E+00 0.  1.
          2   -1    0    0  501    0  0.00000000000E+00 -0.00000000000E+00 -0.42378409972E+03  0.42378409972E+03  0.00000000000E+00 0. -1.
         23    2    1    2    0    0  0.67451404662E+02  0.46743539964E+02 -0.11534200524E+03  0.18884841191E+03  0.12500117596E+03 0.  0.
         23    2    1    2    0    0 -0.67451404662E+02 -0.46743539964E+02 -0.25665747305E+03  0.28672030923E+03  0.97983808511E+02 0.  0.
          5    1    3    3  502    0 -0.25284874420E+02  0.50302635189E+02 -0.47194789196E+02  0.73614659604E+02  0.47000000000E+01 0.  1.
         -5    1    3    3    0  502  0.92736279082E+02 -0.35590952252E+01 -0.68147216042E+02  0.11523375231E+03  0.47000000000E+01 0.  1.
        -11    1    4    4    0    0 -0.75728502277E+02 -0.18526071490E+02 -0.24122503378E+03  0.25351043037E+03  0.00000000000E+00 0. -1.
         11    1    4    4    0    0  0.82770976155E+01 -0.28217468474E+02 -0.15432439271E+02  0.33209878860E+02  0.00000000000E+00 0.  1.
<mgrwt>
<rscale>  0 0.14377819E+03</rscale>
<asrwt>0</asrwt>
<pdfrwt beam="2">  1        2 0.65197555E-01 0.14953242E+03</pdfrwt>
<pdfrwt beam="1">  1       -2 0.79668647E-02 0.14953242E+03</pdfrwt>
<totfact> 0.68592623E+03</totfact>
</mgrwt>
</event>
<event>
 8    1  0.9424564E-006  0.1375540E+03  0.7546771E-02  0.1230647E+00
         -3   -1    0    0    0  501 -0.00000000000E+00  0.00000000000E+00  0.46834844355E+02  0.46834844355E+02  0.00000000000E+00 0.  1.
          3   -1    0    0  501    0  0.00000000000E+00 -0.00000000000E+00 -0.46634299969E+03  0.46634299969E+03  0.00000000000E+00 0. -1.
         23    2    1    2    0    0 -0.14447181038E+02 -0.55815496037E+02 -0.81458771440E+02  0.15986444711E+03  0.12488802732E+03 0.  0.
         23    2    1    2    0    0  0.14447181038E+02  0.55815496037E+02 -0.33804938389E+03  0.35331339693E+03  0.85022819672E+02 0.  0.
          5    1    3    3  502    0  0.46901156277E+02 -0.36434455500E+02 -0.73886586979E+02  0.94913148421E+02  0.47000000000E+01 0.  1.
         -5    1    3    3    0  502 -0.61348337315E+02 -0.19381040538E+02 -0.75721844604E+01  0.64951298687E+02  0.47000000000E+01 0.  1.
        -11    1    4    4    0    0 -0.14059823348E+02  0.68617603284E+02 -0.20471986244E+03  0.21637069162E+03  0.00000000000E+00 0.  1.
         11    1    4    4    0    0  0.28507004386E+02 -0.12802107246E+02 -0.13332952145E+03  0.13694270531E+03  0.00000000000E+00 0. -1.
<mgrwt>
<rscale>  0 0.12787240E+03</rscale>
<asrwt>0</asrwt>
<pdfrwt beam="2">  1        3 0.71745080E-01 0.13755403E+03</pdfrwt>
<pdfrwt beam="1">  1       -3 0.72053603E-02 0.13755403E+03</pdfrwt>
<totfact> 0.55540262E+02</totfact>
</mgrwt>
</event>
<event>
 8    1  0.9424564E-006  0.2001815E+03  0.7546771E-02  0.1153913E+00
         -1   -1    0    0    0  501 -0.00000000000E+00  0.00000000000E+00  0.17953400572E+03  0.17953400572E+03  0.00000000000E+00 0.  1.
          1   -1    0    0  501    0  0.00000000000E+00 -0.00000000000E+00 -0.20610954322E+03  0.20610954322E+03  0.00000000000E+00 0. -1.
         23    2    1    2    0    0  0.11472629545E+03  0.10623006787E+03 -0.40997905624E+02  0.20433662946E+03  0.12500271871E+03 0.  0.
         23    2    1    2    0    0 -0.11472629545E+03 -0.10623006787E+03  0.14422368127E+02  0.18130691949E+03  0.90649016352E+02 0.  0.
          5    1    3    3  502    0  0.78313417144E+01  0.65213047382E+02 -0.58909749382E+02  0.88354513378E+02  0.47000000000E+01 0. -1.
         -5    1    3    3    0  502  0.10689495373E+03  0.41017020487E+02  0.17911843758E+02  0.11598211608E+03  0.47000000000E+01 0. -1.
        -11    1    4    4    0    0 -0.10326682886E+03 -0.87669311861E+02 -0.23570515558E+02  0.13749732866E+03  0.00000000000E+00 0. -1.
         11    1    4    4    0    0 -0.11459466590E+02 -0.18560756008E+02  0.37992883684E+02  0.43809590831E+02  0.00000000000E+00 0.  1.
<mgrwt>
<rscale>  0 0.19513130E+03</rscale>
<asrwt>0</asrwt>
<pdfrwt beam="2">  1        1 0.31709160E-01 0.20018149E+03</pdfrwt>
<pdfrwt beam="1">  1       -1 0.27620616E-01 0.20018149E+03</pdfrwt>
<totfact> 0.16465294E+03</totfact>
</mgrwt>
</event>
<event>
 8    1  0.9424564E-006  0.1563555E+03  0.7546771E-02  0.1201512E+00
         -3   -1    0    0    0  501 -0.00000000000E+00  0.00000000000E+00  0.72481039888E+03  0.72481039888E+03  0.00000000000E+00 0.  1.
          3   -1    0    0  501    0  0.00000000000E+00 -0.00000000000E+00 -0.29965224159E+02  0.29965224159E+02  0.00000000000E+00 0. -1.
         23    2    1    2    0    0 -0.45699743302E+02 -0.82062032880E+02  0.46978710120E+03  0.49512318525E+03  0.12499761736E+03 0.  0.
         23    2    1    2    0    0  0.45699743302E+02  0.82062032880E+02  0.22505807352E+03  0.25965243779E+03  0.89138141176E+02 0.  0.
          5    1    3    3  502    0  0.31248985108E+02  0.10280485000E+02  0.67507845975E+02  0.75243516068E+02  0.47000000000E+01 0. -1.
         -5    1    3    3    0  502 -0.76948728409E+02 -0.92342517880E+02  0.40227925522E+03  0.41987966918E+03  0.47000000000E+01 0. -1.
        -11    1    4    4    0    0  0.20529084136E+02  0.35231365271E+02  0.15774152775E+02  0.43720890774E+02  0.00000000000E+00 0. -1.
         11    1    4    4    0    0  0.25170659166E+02  0.46830667609E+02  0.20928392075E+03  0.21593154701E+03  0.00000000000E+00 0.  1.
<mgrwt>
<rscale>  0 0.14915777E+03</rscale>
<asrwt>0</asrwt>
<pdfrwt beam="2">  1        3 0.46100350E-02 0.15635552E+03</pdfrwt>
<pdfrwt beam="1">  1       -3 0.11150928E+00 0.15635552E+03</pdfrwt>
<totfact> 0.43206177E+02</totfact>
</mgrwt>
</event>
<event>
 8    1  0.9424564E-006  0.1199753E+03  0.7546771E-02  0.1252895E+00
         -2   -1    0    0    0  501 -0.00000000000E+00  0.00000000000E+00  0.29086649403E+03  0.29086649403E+03  0.00000000000E+00 0.  1.
          2   -1    0    0  501    0  0.00000000000E+00 -0.00000000000E+00 -0.41112634227E+02  0.41112634227E+02  0.00000000000E+00 0. -1.
         23    2    1    2    0    0 -0.10236887252E+02  0.31383886569E+02  0.14119764340E+03  0.18528587871E+03  0.11534444135E+03 0.  0.
         23    2    1    2    0    0  0.10236887252E+02 -0.31383886569E+02  0.10855621640E+03  0.14669324955E+03  0.92976960302E+02 0.  0.
          5    1    3    3  502    0 -0.13668571469E+02  0.17014679365E+02 -0.15910529707E+02  0.27414669712E+02  0.47000000000E+01 0. -1.
         -5    1    3    3    0  502  0.34316842172E+01  0.14369207205E+02  0.15710817311E+03  0.15787120900E+03  0.47000000000E+01 0.  1.
        -11    1    4    4    0    0 -0.25153127044E+02  0.22281843194E+02  0.28805476376E+02  0.44259640819E+02  0.00000000000E+00 0.  1.
         11    1    4    4    0    0  0.35390014296E+02 -0.53665729763E+02  0.79750740027E+02  0.10243360873E+03  0.00000000000E+00 0. -1.
<mgrwt>
<rscale>  0 0.11425046E+03</rscale>
<asrwt>0</asrwt>
<pdfrwt beam="2">  1        2 0.63250209E-02 0.11997534E+03</pdfrwt>
<pdfrwt beam="1">  1       -2 0.44748690E-01 0.11997534E+03</pdfrwt>
<totfact> 0.51859533E+03</totfact>
</mgrwt>
</event>
<event>
 8    1  0.9424564E-006  0.1278983E+03  0.7546771E-02  0.1243370E+00
          1   -1    0    0  501    0  0.00000000000E+00  0.00000000000E+00  0.13160792010E+03  0.13160792010E+03  0.00000000000E+00 0. -1.
         -1   -1    0    0    0  501 -0.00000000000E+00 -0.00000000000E+00 -0.99316574363E+02  0.99316574363E+02  0.00000000000E+00 0.  1.
         23    2    1    2    0    0  0.21153147492E+02  0.17360875307E+02  0.23903818339E+01  0.12792064400E+03  0.12493647024E+03 0.  0.
         23    2    1    2    0    0 -0.21153147492E+02 -0.17360875307E+02  0.29900963907E+02  0.10300385047E+03  0.94693558009E+02 0.  0.
          5    1    3    3  502    0  0.91280082564E+01  0.71485274855E+02  0.28650646641E+01  0.72275608965E+02  0.47000000000E+01 0.  1.
         -5    1    3    3    0  502  0.12025139236E+02 -0.54124399548E+02 -0.47468283018E+00  0.55645035033E+02  0.47000000000E+01 0.  1.
        -11    1    4    4    0    0 -0.20911073433E+02 -0.52614716782E+01 -0.32740960808E+02  0.39203655327E+02  0.00000000000E+00 0.  1.
         11    1    4    4    0    0 -0.24207405925E+00 -0.12099403629E+02  0.62641924716E+02  0.63800195142E+02  0.00000000000E+00 0. -1.
<mgrwt>
<rscale>  0 0.11983481E+03</rscale>
<asrwt>0</asrwt>
<pdfrwt beam="1">  1        1 0.20247372E-01 0.12789831E+03</pdfrwt>
<pdfrwt beam="2">  1       -1 0.15279473E-01 0.12789831E+03</pdfrwt>
<totfact> 0.73908841E+03</totfact>
</mgrwt>
</event>
<event>
 8    1  0.1100028E-005  0.3219256E+03  0.7546771E-02  0.1075926E+00
         -1   -1    0    0    0  501 -0.00000000000E+00  0.00000000000E+00  0.15950641195E+03  0.15950641195E+03  0.00000000000E+00 0.  1.
          1   -1    0    0  501    0  0.00000000000E+00 -0.00000000000E+00 -0.65541140308E+03  0.65541140308E+03  0.00000000000E+00 0. -1.
         23    2    1    2    0    0  0.15367347401E+03 -0.25376137624E+03 -0.17105812357E+03  0.36455035502E+03  0.12500282806E+03 0.  0.
         23    2    1    2    0    0 -0.15367347401E+03  0.25376137624E+03 -0.32484686757E+03  0.45036746001E+03  0.96410523200E+02 0.  0.
          5    1    3    3  502    0  0.51956724115E+02 -0.75910092121E+02 -0.12367578773E+03  0.15420646464E+03  0.47000000000E+01 0.  1.
         -5    1    3    3    0  502  0.10171674990E+03 -0.17785128412E+03 -0.47382335839E+02  0.21034389038E+03  0.47000000000E+01 0.  1.
        -11    1    4    4    0    0 -0.16766077679E+01  0.83182710151E+02 -0.78632744668E+02  0.11447830718E+03  0.00000000000E+00 0.  1.
         11    1    4    4    0    0 -0.15199686624E+03  0.17057866609E+03 -0.24621412290E+03  0.33588915283E+03  0.00000000000E+00 0. -1.
<mgrwt>
<rscale>  0 0.31939912E+03</rscale>
<asrwt>0</asrwt>
<pdfrwt beam="2">  1        1 0.10083252E+00 0.32192558E+03</pdfrwt>
<pdfrwt beam="1">  1       -1 0.24539448E-01 0.32192558E+03</pdfrwt>
<totfact> 0.44682753E+02</totfact>
</mgrwt>
</event>
<event>
 8    1  0.9424564E-006  0.1680724E+03  0.7546771E-02  0.1186716E+00
          2   -1    0    0  501    0  0.00000000000E+00  0.00000000000E+00  0.57961868051E+03  0.57961868051E+03  0.00000000000E+00 0. -1.
         -2   -1    0    0    0  501 -0.00000000000E+00 -0.00000000000E+00 -0.46739626778E+02  0.46739626778E+02  0.00000000000E+00 0.  1.
         23    2    1    2    0    0  0.63331915261E+02  0.92801716568E+02  0.18600546557E+03  0.25069179077E+03  0.12500100258E+03 0.  0.
         23    2    1    2    0    0 -0.63331915261E+02 -0.92801716568E+02  0.34687358816E+03  0.37566651652E+03  0.90448633958E+02 0.  0.
          5    1    3    3  502    0 -0.37255640093E+02  0.28802753827E+02  0.68268390339E+02  0.83067710130E+02  0.47000000000E+01 0.  1.
         -5    1    3    3    0  502  0.10058755535E+03  0.63998962742E+02  0.11773707523E+03  0.16762408064E+03  0.47000000000E+01 0.  1.
        -11    1    4    4    0    0 -0.81355842118E+02 -0.89041794713E+02  0.25657634050E+03  0.28351125684E+03  0.00000000000E+00 0.  1.
         11    1    4    4    0    0  0.18023926857E+02 -0.37599218556E+01  0.90297247659E+02  0.92155259679E+02  0.00000000000E+00 0. -1.
<mgrwt>
<rscale>  0 0.16176733E+03</rscale>
<asrwt>0</asrwt>
<pdfrwt beam="1">  1        2 0.89172100E-01 0.16807243E+03</pdfrwt>
<pdfrwt beam="2">  1       -2 0.71907122E-02 0.16807243E+03</pdfrwt>
<totfact> 0.57218257E+03</totfact>
</mgrwt>
</event>
<event>
 8    1  0.9424564E-006  0.1305947E+03  0.7546771E-02  0.1239773E+00
         -2   -1    0    0    0  501 -0.00000000000E+00  0.00000000000E+00  0.77685144717E+02  0.77685144717E+02  0.00000000000E+00 0.  1.
          2   -1    0    0  501    0  0.00000000000E+00 -0.00000000000E+00 -0.19165971761E+03  0.19165971761E+03  0.00000000000E+00 0. -1.
         23    2    1    2    0    0  0.14563086448E+02 -0.34918980085E+02 -0.19439087201E+02  0.13203350718E+03  0.12499420087E+03 0.  0.
         23    2    1    2    0    0 -0.14563086448E+02  0.34918980085E+02 -0.94535485692E+02  0.13731135515E+03  0.92119658815E+02 0.  0.
          5    1    3    3  502    0  0.55073808874E+01 -0.24103922107E+02 -0.72596803591E+02  0.76835644051E+02  0.47000000000E+01 0. -1.
         -5    1    3    3    0  502  0.90557055607E+01 -0.10815057977E+02  0.53157716389E+02  0.55197863129E+02  0.47000000000E+01 0. -1.
        -11    1    4    4    0    0 -0.49867971234E+02  0.25908733659E+02 -0.31289320674E+02  0.64320281584E+02  0.00000000000E+00 0.  1.
         11    1    4    4    0    0  0.35304884786E+02  0.90102464262E+01 -0.63246165018E+02  0.72991073563E+02  0.00000000000E+00 0. -1.
<mgrwt>
<rscale>  0 0.12203772E+03</rscale>
<asrwt>0</asrwt>
<pdfrwt beam="2">  1        2 0.29486110E-01 0.13059467E+03</pdfrwt>
<pdfrwt beam="1">  1       -2 0.11951561E-01 0.13059467E+03</pdfrwt>
<totfact> 0.83917244E+03</totfact>
</mgrwt>
</event>
<event>
 8    1  0.9424564E-006  0.1291810E+03  0.7546771E-02  0.1240046E+00
          2   -1    0    0  501    0  0.00000000000E+00  0.00000000000E+00  0.11579335520E+03  0.11579335520E+03  0.00000000000E+00 0. -1.
         -2   -1    0    0    0  501 -0.00000000000E+00 -0.00000000000E+00 -0.11665054862E+03  0.11665054862E+03  0.00000000000E+00 0.  1.
         23    2    1    2    0    0 -0.22833399488E+02  0.23293963943E+02 -0.10840200474E+02  0.12963499340E+03  0.12499499461E+03 0.  0.
         23    2    1    2    0    0  0.22833399488E+02 -0.23293963943E+02  0.99830070496E+01  0.10280891042E+03  0.96984734595E+02 0.  0.
          5    1    3    3  502    0 -0.46703043899E+02  0.60369338398E+02 -0.28906569229E+02  0.81751520308E+02  0.47000000000E+01 0.  1.
         -5    1    3    3    0  502  0.23869644410E+02 -0.37075374455E+02  0.18066368755E+02  0.47883473091E+02  0.47000000000E+01 0.  1.
        -11    1    4    4    0    0 -0.17106307425E+02 -0.42343123873E+02 -0.19478435898E+02  0.49648518186E+02  0.00000000000E+00 0.  1.
         11    1    4    4    0    0  0.39939706913E+02  0.19049159930E+02  0.29461442947E+02  0.53160392238E+02  0.00000000000E+00 0. -1.
<mgrwt>
<rscale>  0 0.12186873E+03</rscale>
<asrwt>0</asrwt>
<pdfrwt beam="1">  1        2 0.17814362E-01 0.12918096E+03</pdfrwt>
<pdfrwt beam="2">  1       -2 0.17946238E-01 0.12918096E+03</pdfrwt>
<totfact> 0.75757618E+03</totfact>
</mgrwt>
</event>
<event>
 8    1  0.9424564E-006  0.1432591E+03  0.7546771E-02  0.1218436E+00
          2   -1    0    0  501    0  0.00000000000E+00  0.00000000000E+00  0.11697517363E+04  0.11697517363E+04  0.00000000000E+00 0. -1.
         -2   -1    0    0    0  501 -0.00000000000E+00 -0.00000000000E+00 -0.14509302455E+02  0.14509302455E+02  0.00000000000E+00 0.  1.
         23    2    1    2    0    0  0.69347625022E+02 -0.95275630462E+01  0.63006086260E+03  0.64614229466E+03  0.12499322708E+03 0.  0.
         23    2    1    2    0    0 -0.69347625022E+02  0.95275630462E+01  0.52518157120E+03  0.53811874405E+03  0.94107557700E+02 0.  0.
          5    1    3    3  502    0 -0.21385305278E+02 -0.28372311445E+02  0.72069402093E+02  0.80488558545E+02  0.47000000000E+01 0.  1.
         -5    1    3    3    0  502  0.90732930300E+02  0.18844748399E+02  0.55799146051E+03  0.56565373612E+03  0.47000000000E+01 0.  1.
        -11    1    4    4    0    0  0.77303584017E+00  0.35387989439E+02  0.92720018267E+02  0.99246708602E+02  0.00000000000E+00 0.  1.
         11    1    4    4    0    0 -0.70120660863E+02 -0.25860426393E+02  0.43246155293E+03  0.43887203545E+03  0.00000000000E+00 0. -1.
<mgrwt>
<rscale>  0 0.13627105E+03</rscale>
<asrwt>0</asrwt>
<pdfrwt beam="1">  1        2 0.17996173E+00 0.14325912E+03</pdfrwt>
<pdfrwt beam="2">  1       -2 0.22322013E-02 0.14325912E+03</pdfrwt>
<totfact> 0.13218312E+04</totfact>
</mgrwt>
</event>
<event>
 8    1  0.9424564E-006  0.1699491E+03  0.7546771E-02  0.1184643E+00
         -1   -1    0    0    0  501 -0.00000000000E+00  0.00000000000E+00  0.29133013076E+02  0.29133013076E+02  0.00000000000E+00 0.  1.
          1   -1    0    0  501    0  0.00000000000E+00 -0.00000000000E+00 -0.85731795251E+03  0.85731795251E+03  0.00000000000E+00 0. -1.
         23    2    1    2    0    0 -0.10907904298E+03  0.36869251347E+02 -0.45132886550E+03  0.48226592973E+03  0.12500041133E+03 0.  0.
         23    2    1    2    0    0  0.10907904298E+03 -0.36869251347E+02 -0.37685607393E+03  0.40418503585E+03  0.89930325447E+02 0.  0.
          5    1    3    3  502    0 -0.13344863488E+02  0.85972398907E+01 -0.30277755337E+03  0.30322983814E+03  0.47000000000E+01 0.  1.
         -5    1    3    3    0  502 -0.95734179495E+02  0.28272011457E+02 -0.14855131213E+03  0.17903609159E+03  0.47000000000E+01 0.  1.
        -11    1    4    4    0    0  0.87628014916E+02 -0.58882226750E+02 -0.34094532663E+03  0.35691665887E+03  0.00000000000E+00 0.  1.
         11    1    4    4    0    0  0.21451028067E+02  0.22012975402E+02 -0.35910747300E+02  0.47268376986E+02  0.00000000000E+00 0. -1.
<mgrwt>
<rscale>  0 0.16364442E+03</rscale>
<asrwt>0</asrwt>
<pdfrwt beam="2">  1        1 0.13189509E+00 0.16994906E+03</pdfrwt>
<pdfrwt beam="1">  1       -1 0.44820014E-02 0.16994906E+03</pdfrwt>
<totfact> 0.42175595E+03</totfact>
</mgrwt>
</event>
<event>
 7    1  0.9424564E-006  0.9425766E+03  0.7546771E-02  0.9727248E-01
         -2   -1    0    0    0  501 -0.00000000000E+00  0.00000000000E+00  0.58102473317E+03  0.58102473317E+03  0.00000000000E+00 0.  1.
          2   -1    0    0  501    0  0.00000000000E+00 -0.00000000000E+00 -0.10206268626E+04  0.10206268626E+04  0.00000000000E+00 0. -1.
         23    2    1    2    0    0  0.20960978380E+03  0.15795232524E+03 -0.58551040082E+03  0.64784876610E+03  0.89444931397E+02 0.  0.
          5    1    1    2  502    0 -0.49677226029E+03 -0.30119168365E+03 -0.40989523488E+02  0.58240994147E+03  0.47000000000E+01 0. -1.
         -5    1    1    2    0  502  0.28716247649E+03  0.14323935841E+03  0.18689779485E+03  0.37139288822E+03  0.47000000000E+01 0.  1.
        -11    1    3    3    0    0  0.16890835931E+03  0.15396925592E+03 -0.42900389482E+03  0.48608734543E+03  0.00000000000E+00 0. -1.
         11    1    3    3    0    0  0.40701424490E+02  0.39830693162E+01 -0.15650650601E+03  0.16176142068E+03  0.00000000000E+00 0.  1.
<mgrwt>
<rscale>  0 0.69417362E+03</rscale>
<asrwt>0</asrwt>
<pdfrwt beam="2">  1        2 0.15701952E+00 0.94257658E+03</pdfrwt>
<pdfrwt beam="1">  1       -2 0.89388421E-01 0.94257658E+03</pdfrwt>
<totfact> 0.26212693E+01</totfact>
</mgrwt>
</event>
<event>
 7    1  0.9424564E-006  0.1487999E+03  0.7546771E-02  0.1214511E+00
          2   -1    0    0  501    0  0.00000000000E+00  0.00000000000E+00  0.10750303228E+03  0.10750303228E+03  0.00000000000E+00 0. -1.
         -2   -1    0    0    0  501 -0.00000000000E+00 -0.00000000000E+00 -0.22108761937E+03  0.22108761937E+03  0.00000000000E+00 0.  1.
         23    2    1    2    0    0  0.63369649847E+02  0.26429294784E+02  0.34327610625E+02  0.11878261060E+03  0.90646034586E+02 0.  0.
          5    1    1    2  502    0  0.24637339642E+01  0.28037493010E+02  0.99696862515E+01  0.30226737225E+02  0.47000000000E+01 0. -1.
         -5    1    1    2    0  502 -0.65833383811E+02 -0.54466787794E+02 -0.15788188397E+03  0.17958130382E+03  0.47000000000E+01 0.  1.
        -11    1    3    3    0    0  0.76614492106E+02 -0.40621435967E+01  0.95361106360E+01  0.77312475173E+02  0.00000000000E+00 0.  1.
         11    1    3    3    0    0 -0.13244842259E+02  0.30491438381E+02  0.24791499989E+02  0.41470135432E+02  0.00000000000E+00 0. -1.
<mgrwt>
<rscale>  0 0.13912512E+03</rscale>
<asrwt>0</asrwt>
<pdfrwt beam="1">  1        2 0.16538928E-01 0.14879985E+03</pdfrwt>
<pdfrwt beam="2">  1       -2 0.34013480E-01 0.14879985E+03</pdfrwt>
<totfact> 0.27243656E+03</totfact>
</mgrwt>
</event>
<event>
 8    1  0.9424564E-006  0.1322054E+03  0.7546771E-02  0.1237663E+00
         -1   -1    0    0    0  501 -0.00000000000E+00  0.00000000000E+00  0.29349399423E+03  0.29349399423E+03  0.00000000000E+00 0.  1.
          1   -1    0    0  501    0  0.00000000000E+00 -0.00000000000E+00 -0.46296995551E+02  0.46296995551E+02  0.00000000000E+00 0. -1.
         23    2    1    2    0    0 -0.22510150204E+02 -0.36661217360E+02  0.12722917578E+03  0.18348169093E+03  0.12501006365E+03 0.  0.
         23    2    1    2    0    0  0.22510150204E+02  0.36661217360E+02  0.11996782289E+03  0.15630929885E+03  0.90496224548E+02 0.  0.
          5    1    3    3  502    0 -0.48894176395E+02  0.30628259348E+02  0.41356149124E+02  0.71141772725E+02  0.47000000000E+01 0.  1.
         -5    1    3    3    0  502  0.26384026190E+02 -0.67289476709E+02  0.85873026660E+02  0.11233991820E+03  0.47000000000E+01 0.  1.
        -11    1    4    4    0    0 -0.16165226596E+02  0.16358815561E+02  0.10882701384E+03  0.11123059084E+03  0.00000000000E+00 0.  1.
         11    1    4    4    0    0  0.38675376800E+02  0.20302401799E+02  0.11140809049E+02  0.45078708009E+02  0.00000000000E+00 0. -1.
<mgrwt>
<rscale>  0 0.12335459E+03</rscale>
<asrwt>0</asrwt>
<pdfrwt beam="2">  1        1 0.71226149E-02 0.13220540E+03</pdfrwt>
<pdfrwt beam="1">  1       -1 0.45152921E-01 0.13220540E+03</pdfrwt>
<totfact> 0.48190613E+03</totfact>
</mgrwt>
</event>
<event>
 8    1  0.9424564E-006  0.2453583E+03  0.7546771E-02  0.1118872E+00
         -2   -1    0    0    0  501 -0.00000000000E+00  0.00000000000E+00  0.21348854112E+03  0.21348854112E+03  0.00000000000E+00 0.  1.
          2   -1    0    0  501    0  0.00000000000E+00 -0.00000000000E+00 -0.27423504306E+03  0.27423504306E+03  0.00000000000E+00 0. -1.
         23    2    1    2    0    0  0.81704834132E+02 -0.19467987150E+03  0.14707773709E+02  0.24579876535E+03  0.12499912861E+03 0.  0.
         23    2    1    2    0    0 -0.81704834132E+02  0.19467987150E+03 -0.75454275644E+02  0.24192481884E+03  0.90875398037E+02 0.  0.
          5    1    3    3  502    0  0.89623368559E+02 -0.13519650238E+03  0.57266131531E+02  0.17208120835E+03  0.47000000000E+01 0. -1.
         -5    1    3    3    0  502 -0.79185344265E+01 -0.59483369116E+02 -0.42558357822E+02  0.73717556995E+02  0.47000000000E+01 0. -1.
        -11    1    4    4    0    0 -0.14281855659E+02  0.88086577015E+02  0.96711107638E+01  0.89759382990E+02  0.00000000000E+00 0.  1.
         11    1    4    4    0    0 -0.67422978473E+02  0.10659329448E+03 -0.85125386408E+02  0.15216543585E+03  0.00000000000E+00 0. -1.
<mgrwt>
<rscale>  0 0.24138767E+03</rscale>
<asrwt>0</asrwt>
<pdfrwt beam="2">  1        2 0.42190006E-01 0.24535834E+03</pdfrwt>
<pdfrwt beam="1">  1       -2 0.32844391E-01 0.24535834E+03</pdfrwt>
<totfact> 0.10425550E+03</totfact>
</mgrwt>
</event>
<event>
 8    1  0.9424564E-006  0.1441493E+03  0.7546771E-02  0.1217969E+00
          1   -1    0    0  501    0  0.00000000000E+00  0.00000000000E+00  0.14813834965E+03  0.14813834965E+03  0.00000000000E+00 0. -1.
         -1   -1    0    0    0  501 -0.00000000000E+00 -0.00000000000E+00 -0.12084317858E+03  0.12084317858E+03  0.00000000000E+00 0.  1.
         23    2    1    2    0    0 -0.71746454127E+02  0.22177427860E+01 -0.15741786826E+02  0.14500632390E+03  0.12500623207E+03 0.  0.
         23    2    1    2    0    0  0.71746454127E+02 -0.22177427860E+01  0.43036957892E+02  0.12397520433E+03  0.91461464454E+02 0.  0.
          5    1    3    3  502    0  0.10108817262E+02 -0.38137393215E+02  0.22819783846E+02  0.45820099109E+02  0.47000000000E+01 0.  1.
         -5    1    3    3    0  502 -0.81855271389E+02  0.40355136001E+02 -0.38561570672E+02  0.99186224792E+02  0.47000000000E+01 0.  1.
        -11    1    4    4    0    0  0.77871274919E+02  0.15293951740E+02  0.25040587696E+01  0.79398430259E+02  0.00000000000E+00 0.  1.
         11    1    4    4    0    0 -0.61248207916E+01 -0.17511694526E+02  0.40532899122E+02  0.44576774066E+02  0.00000000000E+00 0. -1.
<mgrwt>
<rscale>  0 0.13660677E+03</rscale>
<asrwt>0</asrwt>
<pdfrwt beam="1">  1        1 0.22790515E-01 0.14414933E+03</pdfrwt>
<pdfrwt beam="2">  1       -1 0.18591258E-01 0.14414933E+03</pdfrwt>
<totfact> 0.47026964E+03</totfact>
</mgrwt>
</event>
<event>
 8    1  0.9424564E-006  0.1271110E+03  0.7546771E-02  0.1246816E+00
         -1   -1    0    0    0  501 -0.00000000000E+00  0.00000000000E+00  0.13366906179E+03  0.13366906179E+03  0.00000000000E+00 0.  1.
          1   -1    0    0  501    0  0.00000000000E+00 -0.00000000000E+00 -0.91226927326E+02  0.91226927326E+02  0.00000000000E+00 0. -1.
         23    2    1    2    0    0  0.22763891830E+02  0.37567884153E+01  0.27118657079E+02  0.12997159471E+03  0.12499954255E+03 0.  0.
         23    2    1    2    0    0 -0.22763891830E+02 -0.37567884153E+01  0.15323477383E+02  0.94924394407E+02  0.90793851465E+02 0.  0.
          5    1    3    3  502    0  0.48541135731E+02 -0.30547384179E+02 -0.24619608823E+02  0.62590731557E+02  0.47000000000E+01 0.  1.
         -5    1    3    3    0  502 -0.25777243901E+02  0.34304172594E+02  0.51738265902E+02  0.67380863151E+02  0.47000000000E+01 0.  1.
        -11    1    4    4    0    0 -0.25159490646E+02  0.23295783257E+02  0.43765953639E+02  0.55598131129E+02  0.00000000000E+00 0.  1.
         11    1    4    4    0    0  0.23955988158E+01 -0.27052571673E+02 -0.28442476256E+02  0.39326263278E+02  0.00000000000E+00 0. -1.
<mgrwt>
<rscale>  0 0.11777368E+03</rscale>
<asrwt>0</asrwt>
<pdfrwt beam="2">  1        1 0.14034912E-01 0.12711095E+03</pdfrwt>
<pdfrwt beam="1">  1       -1 0.20564471E-01 0.12711095E+03</pdfrwt>
<totfact> 0.73792177E+03</totfact>
</mgrwt>
</event>
<event>
 8    1  0.9424564E-006  0.1841172E+03  0.7546771E-02  0.1169065E+00
          1   -1    0    0  501    0  0.00000000000E+00  0.00000000000E+00  0.59067490223E+03  0.59067490223E+03  0.00000000000E+00 0. -1.
         -1   -1    0    0    0  501 -0.00000000000E+00 -0.00000000000E+00 -0.51302958615E+02  0.51302958615E+02  0.00000000000E+00 0.  1.
         23    2    1    2    0    0 -0.11989392637E+03 -0.62441752309E+02  0.30521247073E+03  0.35644607698E+03  0.12500250996E+03 0.  0.
         23    2    1    2    0    0  0.11989392637E+03  0.62441752309E+02  0.23415947288E+03  0.28553178386E+03  0.91783521617E+02 0.  0.
          5    1    3    3  502    0 -0.76272996745E+02 -0.40993808384E+02  0.29375090435E+03  0.30628376739E+03  0.47000000000E+01 0.  1.
         -5    1    3    3    0  502 -0.43620929625E+02 -0.21447943925E+02  0.11461566375E+02  0.50162309593E+02  0.47000000000E+01 0.  1.
        -11    1    4    4    0    0  0.44652585278E+02 -0.53589337442E+01  0.14071607558E+03  0.14772807949E+03  0.00000000000E+00 0.  1.
         11    1    4    4    0    0  0.75241341092E+02  0.67800686053E+02  0.93443397308E+02  0.13780370437E+03  0.00000000000E+00 0. -1.
<mgrwt>
<rscale>  0 0.17870230E+03</rscale>
<asrwt>0</asrwt>
<pdfrwt beam="1">  1        1 0.90873057E-01 0.18411723E+03</pdfrwt>
<pdfrwt beam="2">  1       -1 0.78927633E-02 0.18411723E+03</pdfrwt>
<totfact> 0.31157233E+03</totfact>
</mgrwt>
</event>
<event>
 8    1  0.9424564E-006  0.1368420E+03  0.7546771E-02  0.1228350E+00
          1   -1    0    0  501    0  0.00000000000E+00  0.00000000000E+00  0.13673494850E+03  0.13673494850E+03  0.00000000000E+00 0. -1.
         -1   -1    0    0    0  501 -0.00000000000E+00 -0.00000000000E+00 -0.11103128762E+03  0.11103128762E+03  0.00000000000E+00 0.  1.
         23    2    1    2    0    0 -0.83575420082E+01 -0.55065865691E+02  0.96385367701E+01  0.13718103486E+03  0.12499454733E+03 0.  0.
         23    2    1    2    0    0  0.83575420082E+01  0.55065865691E+02  0.16065124101E+02  0.11058520126E+03  0.94174839801E+02 0.  0.
          5    1    3    3  502    0  0.49146933133E+02 -0.39014277548E+02  0.35159989625E+02  0.72082243024E+02  0.47000000000E+01 0.  1.
         -5    1    3    3    0  502 -0.57504475141E+02 -0.16051588142E+02 -0.25521452855E+02  0.65098791840E+02  0.47000000000E+01 0.  1.
        -11    1    4    4    0    0  0.17496384574E+02  0.89519218074E+01  0.49260038242E+02  0.53035947666E+02  0.00000000000E+00 0. -1.
         11    1    4    4    0    0 -0.91388425663E+01  0.46113943883E+02 -0.33194914141E+02  0.57549253590E+02  0.00000000000E+00 0.  1.
<mgrwt>
<rscale>  0 0.12939899E+03</rscale>
<asrwt>0</asrwt>
<pdfrwt beam="1">  1        1 0.21036146E-01 0.13684201E+03</pdfrwt>
<pdfrwt beam="2">  1       -1 0.17081737E-01 0.13684201E+03</pdfrwt>
<totfact> 0.59354548E+03</totfact>
</mgrwt>
</event>
<event>
 8    1  0.9424564E-006  0.1791802E+03  0.7546771E-02  0.1174129E+00
         -2   -1    0    0    0  501 -0.00000000000E+00  0.00000000000E+00  0.18294859972E+02  0.18294859972E+02  0.00000000000E+00 0.  1.
          2   -1    0    0  501    0  0.00000000000E+00 -0.00000000000E+00 -0.15875227302E+04  0.15875227302E+04  0.00000000000E+00 0. -1.
         23    2    1    2    0    0  0.98688627983E+02 -0.82093205411E+02 -0.71483862408E+03  0.73695305362E+03  0.12500722015E+03 0.  0.
         23    2    1    2    0    0 -0.98688627983E+02  0.82093205411E+02 -0.85438924615E+03  0.86886453656E+03  0.92010104262E+02 0.  0.
          5    1    3    3  502    0  0.93694821432E+02 -0.12229390877E+01 -0.46118753288E+03  0.47063387642E+03  0.47000000000E+01 0.  1.
         -5    1    3    3    0  502  0.49938065506E+01 -0.80870266323E+02 -0.25365109120E+03  0.26631917720E+03  0.47000000000E+01 0.  1.
        -11    1    4    4    0    0 -0.50180201182E+02 -0.12363207820E+02 -0.26739177694E+03  0.27234034566E+03  0.00000000000E+00 0. -1.
         11    1    4    4    0    0 -0.48508426801E+02  0.94456413231E+02 -0.58699746921E+03  0.59652419090E+03  0.00000000000E+00 0.  1.
<mgrwt>
<rscale>  0 0.17361593E+03</rscale>
<asrwt>0</asrwt>
<pdfrwt beam="2">  1        2 0.24423422E+00 0.17918020E+03</pdfrwt>
<pdfrwt beam="1">  1       -2 0.28145943E-02 0.17918020E+03</pdfrwt>
<totfact> 0.56620681E+03</totfact>
</mgrwt>
</event>
<event>
 8    1  0.9424564E-006  0.1441598E+03  0.7546771E-02  0.1219219E+00
         -2   -1    0    0    0  501 -0.00000000000E+00  0.00000000000E+00  0.41739392380E+03  0.41739392380E+03  0.00000000000E+00 0.  1.
          2   -1    0    0  501    0  0.00000000000E+00 -0.00000000000E+00 -0.42174899711E+02  0.42174899711E+02  0.00000000000E+00 0. -1.
         23    2    1    2    0    0 -0.28348455424E+02  0.65971346424E+02  0.26435013121E+03  0.30110301918E+03  0.12500473117E+03 0.  0.
         23    2    1    2    0    0  0.28348455424E+02 -0.65971346424E+02  0.11086889288E+03  0.15846580433E+03  0.87542254141E+02 0.  0.
          5    1    3    3  502    0  0.23219232037E+02 -0.23336328999E+02  0.29059881680E+02  0.44162016607E+02  0.47000000000E+01 0.  1.
         -5    1    3    3    0  502 -0.51567687461E+02  0.89307675423E+02  0.23529024953E+03  0.25694100258E+03  0.47000000000E+01 0.  1.
        -11    1    4    4    0    0  0.10766508998E+02 -0.84565699394E+02  0.97775471078E+02  0.12972015254E+03  0.00000000000E+00 0.  1.
         11    1    4    4    0    0  0.17581946425E+02  0.18594352971E+02  0.13093421801E+02  0.28745651792E+02  0.00000000000E+00 0. -1.
<mgrwt>
<rscale>  0 0.13571158E+03</rscale>
<asrwt>0</asrwt>
<pdfrwt beam="2">  1        2 0.64884464E-02 0.14415976E+03</pdfrwt>
<pdfrwt beam="1">  1       -2 0.64214447E-01 0.14415976E+03</pdfrwt>
<totfact> 0.24638328E+03</totfact>
</mgrwt>
</event>
<event>
 8    1  0.9424564E-006  0.1843159E+03  0.7546771E-02  0.1166561E+00
          2   -1    0    0  501    0  0.00000000000E+00  0.00000000000E+00  0.57173007970E+03  0.57173007970E+03  0.00000000000E+00 0. -1.
         -2   -1    0    0    0  501 -0.00000000000E+00 -0.00000000000E+00 -0.56544267213E+02  0.56544267213E+02  0.00000000000E+00 0.  1.
         23    2    1    2    0    0 -0.93434638730E+01  0.13512562419E+03  0.22703803483E+03  0.29243569378E+03  0.12500452435E+03 0.  0.
         23    2    1    2    0    0  0.93434638730E+01 -0.13512562419E+03  0.28814777766E+03  0.33583865314E+03  0.10682801384E+03 0.  0.
          5    1    3    3  502    0 -0.42046389303E+02 -0.10719443034E+01  0.71369725828E+02  0.82974548403E+02  0.47000000000E+01 0.  1.
         -5    1    3    3    0  502  0.32702925430E+02  0.13619756849E+03  0.15566830901E+03  0.20946114538E+03  0.47000000000E+01 0.  1.
        -11    1    4    4    0    0  0.59483937759E+00 -0.11613702868E+03  0.29229635901E+03  0.31452396531E+03  0.00000000000E+00 0. -1.
         11    1    4    4    0    0  0.87486244954E+01 -0.18988595504E+02 -0.41485813518E+01  0.21314687824E+02  0.00000000000E+00 0.  1.
<mgrwt>
<rscale>  0 0.18128984E+03</rscale>
<asrwt>0</asrwt>
<pdfrwt beam="1">  1        2 0.87958470E-01 0.18431594E+03</pdfrwt>
<pdfrwt beam="2">  1       -2 0.86991184E-02 0.18431594E+03</pdfrwt>
<totfact> 0.43415139E+03</totfact>
</mgrwt>
</event>
<event>
 8    1  0.9424564E-006  0.1295126E+03  0.7546771E-02  0.1247606E+00
          2   -1    0    0  501    0  0.00000000000E+00  0.00000000000E+00  0.10730013808E+02  0.10730013808E+02  0.00000000000E+00 0. -1.
         -2   -1    0    0    0  501 -0.00000000000E+00 -0.00000000000E+00 -0.11150829970E+04  0.11150829970E+04  0.00000000000E+00 0.  1.
         23    2    1    2    0    0  0.27235754094E+02  0.20289847522E+02 -0.73409862081E+03  0.74543564164E+03  0.12498018460E+03 0.  0.
         23    2    1    2    0    0 -0.27235754094E+02 -0.20289847522E+02 -0.37025436240E+03  0.38037736918E+03  0.80281915128E+02 0.  0.
          5    1    3    3  502    0 -0.12837778037E+02 -0.46526266207E+01 -0.63899944458E+03  0.63916260502E+03  0.47000000000E+01 0.  1.
         -5    1    3    3    0  502  0.40073532131E+02  0.24942474142E+02 -0.95099176226E+02  0.10627303662E+03  0.47000000000E+01 0.  1.
        -11    1    4    4    0    0 -0.46902222740E+02  0.11336024868E+02 -0.17124848862E+03  0.17791674686E+03  0.00000000000E+00 0. -1.
         11    1    4    4    0    0  0.19666468646E+02 -0.31625872390E+02 -0.19900587378E+03  0.20246062232E+03  0.00000000000E+00 0.  1.
<mgrwt>
<rscale>  0 0.11730757E+03</rscale>
<asrwt>0</asrwt>
<pdfrwt beam="1">  1        2 0.16507723E-02 0.12951259E+03</pdfrwt>
<pdfrwt beam="2">  1       -2 0.17155113E+00 0.12951259E+03</pdfrwt>
<totfact> 0.15210453E+03</totfact>
</mgrwt>
</event>
<event>
 8    1  0.9424564E-006  0.2171195E+03  0.7546771E-02  0.1139713E+00
          2   -1    0    0  501    0  0.00000000000E+00  0.00000000000E+00  0.27135079165E+03  0.27135079165E+03  0.00000000000E+00 0. -1.
         -2   -1    0    0    0  501 -0.00000000000E+00 -0.00000000000E+00 -0.22327900976E+03  0.22327900976E+03  0.00000000000E+00 0.  1.
         23    2    1    2    0    0 -0.92203382164E+02  0.15170068804E+03 -0.10750855348E+03  0.24227868969E+03  0.12500524777E+03 0.  0.
         23    2    1    2    0    0  0.92203382164E+02 -0.15170068804E+03  0.15558033537E+03  0.25235111172E+03  0.89226007418E+02 0.  0.
          5    1    3    3  502    0 -0.50771836208E+02  0.93445057715E+02 -0.12921978329E+03  0.16742043053E+03  0.47000000000E+01 0. -1.
         -5    1    3    3    0  502 -0.41431545956E+02  0.58255630324E+02  0.21711229810E+02  0.74858259161E+02  0.47000000000E+01 0. -1.
        -11    1    4    4    0    0  0.73999296120E+02 -0.82738798489E+02  0.42920179654E+02  0.11901153903E+03  0.00000000000E+00 0.  1.
         11    1    4    4    0    0  0.18204086044E+02 -0.68961889551E+02  0.11266015571E+03  0.13333957269E+03  0.00000000000E+00 0. -1.
<mgrwt>
<rscale>  0 0.21235649E+03</rscale>
<asrwt>0</asrwt>
<pdfrwt beam="1">  1        2 0.41746276E-01 0.21711949E+03</pdfrwt>
<pdfrwt beam="2">  1       -2 0.34350617E-01 0.21711949E+03</pdfrwt>
<totfact> 0.96872463E+02</totfact>
</mgrwt>
</event>
<event>
 8    1  0.9424564E-006  0.1360652E+03  0.7546771E-02  0.1229951E+00
          1   -1    0    0  501    0  0.00000000000E+00  0.00000000000E+00  0.45259771542E+02  0.45259771542E+02  0.00000000000E+00 0. -1.
         -1   -1    0    0    0  501 -0.00000000000E+00 -0.00000000000E+00 -0.39741635394E+03  0.39741635394E+03  0.00000000000E+00 0.  1.
         23    2    1    2    0    0  0.39022503354E+02 -0.36967296851E+02 -0.28489618781E+03  0.31572072553E+03  0.12499760755E+03 0.  0.
         23    2    1    2    0    0 -0.39022503354E+02  0.36967296851E+02 -0.67260394580E+02  0.12695539995E+03  0.93297245901E+02 0.  0.
          5    1    3    3  502    0  0.34832860414E+02 -0.52088004404E+02 -0.50130513240E+02  0.80384368662E+02  0.47000000000E+01 0. -1.
         -5    1    3    3    0  502  0.41896429392E+01  0.15120707553E+02 -0.23476567457E+03  0.23533635687E+03  0.47000000000E+01 0. -1.
        -11    1    4    4    0    0 -0.26789075789E+01  0.62938919083E+02 -0.38567691171E+02  0.73864408773E+02  0.00000000000E+00 0. -1.
         11    1    4    4    0    0 -0.36343595775E+02 -0.25971622231E+02 -0.28692703409E+02  0.53090991176E+02  0.00000000000E+00 0.  1.
<mgrwt>
<rscale>  0 0.12833293E+03</rscale>
<asrwt>0</asrwt>
<pdfrwt beam="1">  1        1 0.69630417E-02 0.13606520E+03</pdfrwt>
<pdfrwt beam="2">  1       -1 0.61140978E-01 0.13606520E+03</pdfrwt>
<totfact> 0.28449172E+03</totfact>
</mgrwt>
</event>
<event>
 8    1  0.9424564E-006  0.1374047E+03  0.7546771E-02  0.1228271E+00
         -1   -1    0    0    0  501 -0.00000000000E+00  0.00000000000E+00  0.50578995389E+02  0.50578995389E+02  0.00000000000E+00 0.  1.
          1   -1    0    0  501    0  0.00000000000E+00 -0.00000000000E+00 -0.29829073557E+03  0.29829073557E+03  0.00000000000E+00 0. -1.
         23    2    1    2    0    0  0.44524377194E+01 -0.56874361265E+02 -0.13949737441E+03  0.19580490643E+03  0.12500210696E+03 0.  0.
         23    2    1    2    0    0 -0.44524377194E+01  0.56874361265E+02 -0.10821436577E+03  0.15306482453E+03  0.91999860747E+02 0.  0.
          5    1    3    3  502    0  0.52920125573E+02 -0.68709107809E+02 -0.95869298750E+02  0.12936187085E+03  0.47000000000E+01 0.  1.
         -5    1    3    3    0  502 -0.48467687854E+02  0.11834746544E+02 -0.43628075660E+02  0.66443035583E+02  0.47000000000E+01 0.  1.
        -11    1    4    4    0    0 -0.19544654650E+02  0.43445651947E+02 -0.12039323311E+03  0.12947605484E+03  0.00000000000E+00 0. -1.
         11    1    4    4    0    0  0.15092216930E+02  0.13428709318E+02  0.12178867337E+02  0.23588769689E+02  0.00000000000E+00 0.  1.
<mgrwt>
<rscale>  0 0.12945239E+03</rscale>
<asrwt>0</asrwt>
<pdfrwt beam="2">  1        1 0.45890882E-01 0.13740467E+03</pdfrwt>
<pdfrwt beam="1">  1       -1 0.77813839E-02 0.13740467E+03</pdfrwt>
<totfact> 0.75469802E+03</totfact>
</mgrwt>
</event>
<event>
 7    1  0.9424564E-006  0.1792089E+03  0.7546771E-02  0.1194499E+00
          1   -1    0    0  501    0  0.00000000000E+00  0.00000000000E+00  0.22347359762E+03  0.22347359762E+03  0.00000000000E+00 0. -1.
         -1   -1    0    0    0  501 -0.00000000000E+00 -0.00000000000E+00 -0.88041645513E+02  0.88041645513E+02  0.00000000000E+00 0.  1.
         23    2    1    2    0    0 -0.43202581675E+02  0.29811285977E+01  0.62085141687E+02  0.11787744846E+03  0.90361373636E+02 0.  0.
          5    1    1    2  502    0 -0.51298945919E+01  0.27687512034E+02  0.11767385491E+03  0.12108732498E+03  0.47000000000E+01 0. -1.
         -5    1    1    2    0  502  0.48332476267E+02 -0.30668640632E+02 -0.44327044488E+02  0.72550469698E+02  0.47000000000E+01 0.  1.
        -11    1    3    3    0    0 -0.66307816675E+02  0.20647364354E+02  0.53143979870E+02  0.87448972569E+02  0.00000000000E+00 0.  1.
         11    1    3    3    0    0  0.23105235000E+02 -0.17666235757E+02  0.89411618164E+01  0.30428475888E+02  0.00000000000E+00 0. -1.
<mgrwt>
<rscale>  0 0.15496703E+03</rscale>
<asrwt>0</asrwt>
<pdfrwt beam="1">  1        1 0.34380553E-01 0.17920893E+03</pdfrwt>
<pdfrwt beam="2">  1       -1 0.13544869E-01 0.17920893E+03</pdfrwt>
<totfact> 0.46876900E+03</totfact>
</mgrwt>
</event>
<event>
 8    1  0.9424564E-006  0.2455778E+03  0.7546771E-02  0.1118651E+00
         -1   -1    0    0    0  501 -0.00000000000E+00  0.00000000000E+00  0.86118063351E+02  0.86118063351E+02  0.00000000000E+00 0.  1.
          1   -1    0    0  501    0  0.00000000000E+00 -0.00000000000E+00 -0.75724124581E+03  0.75724124581E+03  0.00000000000E+00 0. -1.
         23    2    1    2    0    0 -0.70718015069E+02 -0.19920160050E+03 -0.19219687685E+03  0.31184627697E+03  0.12500458268E+03 0.  0.
         23    2    1    2    0    0  0.70718015069E+02  0.19920160050E+03 -0.47892630560E+03  0.53151303219E+03  0.91942274757E+02 0.  0.
          5    1    3    3  502    0 -0.65798310943E+02 -0.74608550221E+02 -0.24037375499E+02  0.10244871356E+03  0.47000000000E+01 0.  1.
         -5    1    3    3    0  502 -0.49197041260E+01 -0.12459305028E+03 -0.16815950136E+03  0.20939756341E+03  0.47000000000E+01 0.  1.
        -11    1    4    4    0    0  0.64051272788E+02  0.77072084105E+02 -0.14826977514E+03  0.17895976618E+03  0.00000000000E+00 0.  1.
         11    1    4    4    0    0  0.66667422816E+01  0.12212951640E+03 -0.33065653047E+03  0.35255326600E+03  0.00000000000E+00 0. -1.
<mgrwt>
<rscale>  0 0.24172142E+03</rscale>
<asrwt>0</asrwt>
<pdfrwt beam="2">  1        1 0.11649866E+00 0.24557781E+03</pdfrwt>
<pdfrwt beam="1">  1       -1 0.13248932E-01 0.24557781E+03</pdfrwt>
<totfact> 0.98410303E+02</totfact>
</mgrwt>
</event>
<event>
 8    1  0.9424564E-006  0.1419663E+03  0.7546771E-02  0.1221207E+00
          1   -1    0    0  501    0  0.00000000000E+00  0.00000000000E+00  0.17523765989E+03  0.17523765989E+03  0.00000000000E+00 0. -1.
         -1   -1    0    0    0  501 -0.00000000000E+00 -0.00000000000E+00 -0.10414843907E+03  0.10414843907E+03  0.00000000000E+00 0.  1.
         23    2    1    2    0    0 -0.27812117840E+02 -0.61277629811E+02 -0.58630563315E+01  0.14208731662E+03  0.12500387315E+03 0.  0.
         23    2    1    2    0    0  0.27812117840E+02  0.61277629811E+02  0.76952277154E+02  0.13729878234E+03  0.91656101044E+02 0.  0.
          5    1    3    3  502    0 -0.42895298027E+02 -0.60570035360E+02  0.46283447153E+02  0.87595566421E+02  0.47000000000E+01 0.  1.
         -5    1    3    3    0  502  0.15083180187E+02 -0.70759445136E+00 -0.52146503484E+02  0.54491750202E+02  0.47000000000E+01 0.  1.
        -11    1    4    4    0    0  0.11580756302E+02 -0.40944115414E+01 -0.17444106742E+02  0.21334830265E+02  0.00000000000E+00 0.  1.
         11    1    4    4    0    0  0.16231361537E+02  0.65372041353E+02  0.94396383896E+02  0.11596395207E+03  0.00000000000E+00 0. -1.
<mgrwt>
<rscale>  0 0.13430304E+03</rscale>
<asrwt>0</asrwt>
<pdfrwt beam="1">  1        1 0.26959640E-01 0.14196630E+03</pdfrwt>
<pdfrwt beam="2">  1       -1 0.16022837E-01 0.14196630E+03</pdfrwt>
<totfact> 0.48155450E+03</totfact>
</mgrwt>
</event>
<event>
 8    1  0.9424564E-006  0.1528124E+03  0.7546771E-02  0.1205746E+00
          4   -1    0    0  501    0  0.00000000000E+00  0.00000000000E+00  0.58845567026E+02  0.58845567026E+02  0.00000000000E+00 0. -1.
         -4   -1    0    0    0  501 -0.00000000000E+00 -0.00000000000E+00 -0.37663417024E+03  0.37663417024E+03  0.00000000000E+00 0.  1.
         23    2    1    2    0    0  0.35296601000E+02 -0.80514822380E+02 -0.24696688298E+03  0.29042084278E+03  0.12499255164E+03 0.  0.
         23    2    1    2    0    0 -0.35296601000E+02  0.80514822380E+02 -0.70821720232E+02  0.14505889449E+03  0.91092700852E+02 0.  0.
          5    1    3    3  502    0 -0.29569309033E+02  0.17060028434E+02 -0.42499495707E+02  0.54714584364E+02  0.47000000000E+01 0.  1.
         -5    1    3    3    0  502  0.64865910033E+02 -0.97574850814E+02 -0.20446738727E+03  0.23570625841E+03  0.47000000000E+01 0.  1.
        -11    1    4    4    0    0 -0.51070119829E+02  0.18213941625E+02 -0.73224305430E+01  0.54713095305E+02  0.00000000000E+00 0. -1.
         11    1    4    4    0    0  0.15773518828E+02  0.62300880756E+02 -0.63499289689E+02  0.90345799184E+02  0.00000000000E+00 0.  1.
<mgrwt>
<rscale>  0 0.14578851E+03</rscale>
<asrwt>0</asrwt>
<pdfrwt beam="1">  1        4 0.90531647E-02 0.15281238E+03</pdfrwt>
<pdfrwt beam="2">  1       -4 0.57943715E-01 0.15281238E+03</pdfrwt>
<totfact> 0.43545220E+02</totfact>
</mgrwt>
</event>
<event>
 8    1  0.9424564E-006  0.1855265E+03  0.7546771E-02  0.1167964E+00
          2   -1    0    0  501    0  0.00000000000E+00  0.00000000000E+00  0.11229651354E+04  0.11229651354E+04  0.00000000000E+00 0. -1.
         -2   -1    0    0    0  501 -0.00000000000E+00 -0.00000000000E+00 -0.28374312444E+02  0.28374312444E+02  0.00000000000E+00 0.  1.
         23    2    1    2    0    0 -0.13252643876E+03  0.35087419996E+02  0.46122431148E+03  0.49713975941E+03  0.12500276345E+03 0.  0.
         23    2    1    2    0    0  0.13252643876E+03 -0.35087419996E+02  0.63336651147E+03  0.65419968844E+03  0.89608651830E+02 0.  0.
          5    1    3    3  502    0 -0.66438400105E+02 -0.41862980089E+02  0.14437161023E+03  0.16441356985E+03  0.47000000000E+01 0. -1.
         -5    1    3    3    0  502 -0.66088038652E+02  0.76950400085E+02  0.31685270126E+03  0.33272618956E+03  0.47000000000E+01 0. -1.
        -11    1    4    4    0    0  0.55387912412E+02  0.28719763627E+02  0.28405843854E+03  0.29082957581E+03  0.00000000000E+00 0. -1.
         11    1    4    4    0    0  0.77138526345E+02 -0.63807183623E+02  0.34930807294E+03  0.36337011262E+03  0.00000000000E+00 0.  1.
<mgrwt>
<rscale>  0 0.17983328E+03</rscale>
<asrwt>0</asrwt>
<pdfrwt beam="1">  1        2 0.17276383E+00 0.18552648E+03</pdfrwt>
<pdfrwt beam="2">  1       -2 0.43652797E-02 0.18552648E+03</pdfrwt>
<totfact> 0.52684834E+03</totfact>
</mgrwt>
</event>
<event>
 8    1  0.9424564E-006  0.1299886E+03  0.7546771E-02  0.1245260E+00
          1   -1    0    0  501    0  0.00000000000E+00  0.00000000000E+00  0.14031610133E+03  0.14031610133E+03  0.00000000000E+00 0. -1.
         -1   -1    0    0    0  501 -0.00000000000E+00 -0.00000000000E+00 -0.91074332938E+02  0.91074332938E+02  0.00000000000E+00 0.  1.
         23    2    1    2    0    0  0.16404646290E+02  0.31653458394E+02  0.33560035753E+01  0.13003193120E+03  0.12500394603E+03 0.  0.
         23    2    1    2    0    0 -0.16404646290E+02 -0.31653458394E+02  0.45885764812E+02  0.10135850307E+03  0.83048111862E+02 0.  0.
          5    1    3    3  502    0 -0.13255184813E+01  0.37360833847E+02 -0.56083643906E+02  0.67565183480E+02  0.47000000000E+01 0. -1.
         -5    1    3    3    0  502  0.17730164771E+02 -0.57073754525E+01  0.59439647481E+02  0.62466747715E+02  0.47000000000E+01 0. -1.
        -11    1    4    4    0    0 -0.24521931753E+02 -0.50520639924E+02  0.55255116243E+02  0.78783171213E+02  0.00000000000E+00 0. -1.
         11    1    4    4    0    0  0.81172854636E+01  0.18867181530E+02 -0.93693514308E+01  0.22575331856E+02  0.00000000000E+00 0.  1.
<mgrwt>
<rscale>  0 0.11869809E+03</rscale>
<asrwt>0</asrwt>
<pdfrwt beam="1">  1        1 0.21587093E-01 0.12998862E+03</pdfrwt>
<pdfrwt beam="2">  1       -1 0.14011436E-01 0.12998862E+03</pdfrwt>
<totfact> 0.78124432E+03</totfact>
</mgrwt>
</event>
<event>
 8    1  0.9424564E-006  0.1442439E+03  0.7546771E-02  0.1218286E+00
         -2   -1    0    0    0  501 -0.00000000000E+00  0.00000000000E+00  0.10314903242E+03  0.10314903242E+03  0.00000000000E+00 0.  1.
          2   -1    0    0  501    0  0.00000000000E+00 -0.00000000000E+00 -0.17640228412E+03  0.17640228412E+03  0.00000000000E+00 0. -1.
         23    2    1    2    0    0  0.67791581271E+02 -0.24262575033E+02 -0.24244976095E+01  0.14426423969E+03  0.12498768590E+03 0.  0.
         23    2    1    2    0    0 -0.67791581271E+02  0.24262575033E+02 -0.70828754084E+02  0.13528707685E+03  0.90008386936E+02 0.  0.
          5    1    3    3  502    0 -0.16091074970E+02  0.10127871119E+02  0.39637909483E+02  0.44212558570E+02  0.47000000000E+01 0. -1.
         -5    1    3    3    0  502  0.83882656241E+02 -0.34390446152E+02 -0.42062407093E+02  0.10005168112E+03  0.47000000000E+01 0. -1.
        -11    1    4    4    0    0  0.15242192066E+02  0.23435822509E+02 -0.30942875321E+01  0.28127154335E+02  0.00000000000E+00 0. -1.
         11    1    4    4    0    0 -0.83033773337E+02  0.82675252398E+00 -0.67734466552E+02  0.10715992251E+03  0.00000000000E+00 0.  1.
<mgrwt>
<rscale>  0 0.13637878E+03</rscale>
<asrwt>0</asrwt>
<pdfrwt beam="2">  1        2 0.27138813E-01 0.14424387E+03</pdfrwt>
<pdfrwt beam="1">  1       -2 0.15869082E-01 0.14424387E+03</pdfrwt>
<totfact> 0.58427023E+03</totfact>
</mgrwt>
</event>
<event>
 8    1  0.9424564E-006  0.1361933E+03  0.7546771E-02  0.1230211E+00
          1   -1    0    0  501    0  0.00000000000E+00  0.00000000000E+00  0.33296640068E+03  0.33296640068E+03  0.00000000000E+00 0. -1.
         -1   -1    0    0    0  501 -0.00000000000E+00 -0.00000000000E+00 -0.53896086763E+02  0.53896086763E+02  0.00000000000E+00 0.  1.
         23    2    1    2    0    0  0.24476643336E+02  0.48226952102E+02  0.72426176287E+02  0.15425355199E+03  0.12499464913E+03 0.  0.
         23    2    1    2    0    0 -0.24476643336E+02 -0.48226952102E+02  0.20664413763E+03  0.23260893545E+03  0.92087850759E+02 0.  0.
          5    1    3    3  502    0 -0.68141799020E+01 -0.40478095532E+02  0.29415272301E+02  0.50717428072E+02  0.47000000000E+01 0. -1.
         -5    1    3    3    0  502  0.31290823238E+02  0.88705047634E+02  0.43010903986E+02  0.10353612392E+03  0.47000000000E+01 0. -1.
        -11    1    4    4    0    0 -0.31230629864E+02 -0.11971807512E+02  0.13653205409E+02  0.36125980052E+02  0.00000000000E+00 0.  1.
         11    1    4    4    0    0  0.67539865275E+01 -0.36255144590E+02  0.19299093222E+03  0.19648295540E+03  0.00000000000E+00 0. -1.
<mgrwt>
<rscale>  0 0.12816050E+03</rscale>
<asrwt>0</asrwt>
<pdfrwt beam="1">  1        1 0.51225599E-01 0.13619327E+03</pdfrwt>
<pdfrwt beam="2">  1       -1 0.82917059E-02 0.13619327E+03</pdfrwt>
<totfact> 0.59792751E+03</totfact>
</mgrwt>
</event>
<event>
 8    1  0.9424564E-006  0.1481993E+03  0.7546771E-02  0.1211418E+00
         -1   -1    0    0    0  501 -0.00000000000E+00  0.00000000000E+00  0.12662532338E+03  0.12662532338E+03  0.00000000000E+00 0.  1.
          1   -1    0    0  501    0  0.00000000000E+00 -0.00000000000E+00 -0.22203398317E+03  0.22203398317E+03  0.00000000000E+00 0. -1.
         23    2    1    2    0    0 -0.20509127587E+02  0.76923401759E+02  0.51697095582E+02  0.15695740462E+03  0.12500081248E+03 0.  0.
         23    2    1    2    0    0  0.20509127587E+02 -0.76923401759E+02 -0.14710575537E+03  0.19170190193E+03  0.93657257519E+02 0.  0.
          5    1    3    3  502    0  0.50991134514E+02  0.33278944068E+02  0.58569674456E+01  0.61351267183E+02  0.47000000000E+01 0. -1.
         -5    1    3    3    0  502 -0.71500262101E+02  0.43644457692E+02  0.45840128136E+02  0.95606137435E+02  0.47000000000E+01 0. -1.
        -11    1    4    4    0    0 -0.36755888083E+02 -0.40822306532E+02 -0.59336439718E+02  0.80859564046E+02  0.00000000000E+00 0.  1.
         11    1    4    4    0    0  0.57265015670E+02 -0.36101095227E+02 -0.87769315655E+02  0.11084233788E+03  0.00000000000E+00 0. -1.
<mgrwt>
<rscale>  0 0.14142981E+03</rscale>
<asrwt>0</asrwt>
<pdfrwt beam="2">  1        1 0.34159074E-01 0.14819932E+03</pdfrwt>
<pdfrwt beam="1">  1       -1 0.19480819E-01 0.14819932E+03</pdfrwt>
<totfact> 0.26333489E+03</totfact>
</mgrwt>
</event>
<event>
 8    1  0.9424564E-006  0.1356915E+03  0.7546771E-02  0.1231249E+00
         -1   -1    0    0    0  501 -0.00000000000E+00  0.00000000000E+00  0.48714204982E+02  0.48714204982E+02  0.00000000000E+00 0.  1.
          1   -1    0    0  501    0  0.00000000000E+00 -0.00000000000E+00 -0.37914456258E+03  0.37914456258E+03  0.00000000000E+00 0. -1.
         23    2    1    2    0    0 -0.51341078978E+02 -0.12510924502E+02 -0.83669942581E+02  0.15941402700E+03  0.12497897060E+03 0.  0.
         23    2    1    2    0    0  0.51341078978E+02  0.12510924502E+02 -0.24676041502E+03  0.26844474056E+03  0.91539317734E+02 0.  0.
          5    1    3    3  502    0  0.38332106699E+02  0.13733276068E+02 -0.16218168691E+02  0.44080293457E+02  0.47000000000E+01 0. -1.
         -5    1    3    3    0  502 -0.89673185677E+02 -0.26244200571E+02 -0.67451773890E+02  0.11533373355E+03  0.47000000000E+01 0. -1.
        -11    1    4    4    0    0  0.33961209204E+02  0.51073955310E+02 -0.17113163547E+03  0.18179094945E+03  0.00000000000E+00 0.  1.
         11    1    4    4    0    0  0.17379869774E+02 -0.38563030807E+02 -0.75628779550E+02  0.86653791115E+02  0.00000000000E+00 0. -1.
<mgrwt>
<rscale>  0 0.12747651E+03</rscale>
<asrwt>0</asrwt>
<pdfrwt beam="2">  1        1 0.58329933E-01 0.13569146E+03</pdfrwt>
<pdfrwt beam="1">  1       -1 0.74944930E-02 0.13569146E+03</pdfrwt>
<totfact> 0.59196574E+03</totfact>
</mgrwt>
</event>
<event>
 7    1  0.9424564E-006  0.2154787E+03  0.7546771E-02  0.1158597E+00
          1   -1    0    0  501    0  0.00000000000E+00  0.00000000000E+00  0.42403208802E+03  0.42403208802E+03  0.00000000000E+00 0. -1.
         -1   -1    0    0    0  501 -0.00000000000E+00 -0.00000000000E+00 -0.72061372000E+02  0.72061372000E+02  0.00000000000E+00 0.  1.
         23    2    1    2    0    0  0.41185633216E+02  0.82303080433E+02  0.95874566176E+02  0.16140510237E+03  0.91594875408E+02 0.  0.
          5    1    1    2  502    0 -0.33627407464E+02 -0.11316640405E+03  0.27366206884E+03  0.29807793521E+03  0.47000000000E+01 0. -1.
         -5    1    1    2    0  502 -0.75582257521E+01  0.30863323613E+02 -0.17565918993E+02  0.36610422437E+02  0.47000000000E+01 0.  1.
        -11    1    3    3    0    0  0.62955616811E+02  0.86297980903E+02  0.86139788353E+02  0.13722541431E+03  0.00000000000E+00 0.  1.
         11    1    3    3    0    0 -0.21769983594E+02 -0.39949004703E+01  0.97347778222E+01  0.24179688061E+02  0.00000000000E+00 0. -1.
<mgrwt>
<rscale>  0 0.18984946E+03</rscale>
<asrwt>0</asrwt>
<pdfrwt beam="1">  1        1 0.65235704E-01 0.21547867E+03</pdfrwt>
<pdfrwt beam="2">  1       -1 0.11086365E-01 0.21547867E+03</pdfrwt>
<totfact> 0.28828627E+03</totfact>
</mgrwt>
</event>
<event>
 8    1  0.9424564E-006  0.1620686E+03  0.7546771E-02  0.1194383E+00
         -1   -1    0    0    0  501 -0.00000000000E+00  0.00000000000E+00  0.14301031610E+03  0.14301031610E+03  0.00000000000E+00 0.  1.
          1   -1    0    0  501    0  0.00000000000E+00 -0.00000000000E+00 -0.15556695167E+03  0.15556695167E+03  0.00000000000E+00 0. -1.
         23    2    1    2    0    0 -0.38165014871E+02 -0.95835183169E+02 -0.14748105902E+02  0.16273824098E+03  0.12500111102E+03 0.  0.
         23    2    1    2    0    0  0.38165014871E+02  0.95835183169E+02  0.21914703302E+01  0.13583902678E+03  0.88354331881E+02 0.  0.
          5    1    3    3  502    0  0.28194693659E+02 -0.89625463861E+02 -0.18268057396E+02  0.95830456766E+02  0.47000000000E+01 0. -1.
         -5    1    3    3    0  502 -0.66359708530E+02 -0.62097193072E+01  0.35199514948E+01  0.66907784215E+02  0.47000000000E+01 0. -1.
        -11    1    4    4    0    0 -0.20750229085E+02  0.10938828055E+02 -0.19198742501E+02  0.30312071521E+02  0.00000000000E+00 0. -1.
         11    1    4    4    0    0  0.58915243955E+02  0.84896355114E+02  0.21390212831E+02  0.10552695526E+03  0.00000000000E+00 0.  1.
<mgrwt>
<rscale>  0 0.15506585E+03</rscale>
<asrwt>0</asrwt>
<pdfrwt beam="2">  1        1 0.23933377E-01 0.16206859E+03</pdfrwt>
<pdfrwt beam="1">  1       -1 0.22001587E-01 0.16206859E+03</pdfrwt>
<totfact> 0.33907572E+03</totfact>
</mgrwt>
</event>
<event>
 8    1  0.9424564E-006  0.1661897E+03  0.7546771E-02  0.1188552E+00
          2   -1    0    0  501    0  0.00000000000E+00  0.00000000000E+00  0.10734478342E+03  0.10734478342E+03  0.00000000000E+00 0. -1.
         -2   -1    0    0    0  501 -0.00000000000E+00 -0.00000000000E+00 -0.25267698828E+03  0.25267698828E+03  0.00000000000E+00 0.  1.
         23    2    1    2    0    0  0.62669885361E+02 -0.89814730145E+02 -0.13897800446E+03  0.21664233770E+03  0.12499926591E+03 0.  0.
         23    2    1    2    0    0 -0.62669885361E+02  0.89814730145E+02 -0.63542003944E+01  0.14337943400E+03  0.92320560823E+02 0.  0.
          5    1    3    3  502    0  0.83881290577E+02 -0.83399218861E+02 -0.15029705166E+03  0.19131856772E+03  0.47000000000E+01 0.  1.
         -5    1    3    3    0  502 -0.21211405216E+02 -0.64155112841E+01  0.11319047204E+02  0.25323769978E+02  0.47000000000E+01 0.  1.
        -11    1    4    4    0    0  0.32322479503E+01  0.64862939787E+02 -0.26418180993E+02  0.70111116606E+02  0.00000000000E+00 0. -1.
         11    1    4    4    0    0 -0.65902133311E+02  0.24951790358E+02  0.20063980599E+02  0.73268317399E+02  0.00000000000E+00 0.  1.
<mgrwt>
<rscale>  0 0.16012829E+03</rscale>
<asrwt>0</asrwt>
<pdfrwt beam="1">  1        2 0.16514582E-01 0.16618970E+03</pdfrwt>
<pdfrwt beam="2">  1       -2 0.38873382E-01 0.16618970E+03</pdfrwt>
<totfact> 0.21385471E+03</totfact>
</mgrwt>
</event>
<event>
 8    1  0.9424564E-006  0.1725987E+03  0.7546771E-02  0.1181459E+00
         -1   -1    0    0    0  501 -0.00000000000E+00  0.00000000000E+00  0.35790971824E+02  0.35790971824E+02  0.00000000000E+00 0.  1.
          1   -1    0    0  501    0  0.00000000000E+00 -0.00000000000E+00 -0.72695598971E+03  0.72695598971E+03  0.00000000000E+00 0. -1.
         23    2    1    2    0    0  0.27441877752E+02 -0.11581066852E+03 -0.35532310652E+03  0.39502507495E+03  0.12500052886E+03 0.  0.
         23    2    1    2    0    0 -0.27441877752E+02  0.11581066852E+03 -0.33584191136E+03  0.36772188658E+03  0.90908904102E+02 0.  0.
          5    1    3    3  502    0  0.22143847589E+01 -0.56054705725E+02 -0.31163781571E+03  0.31668162516E+03  0.47000000000E+01 0.  1.
         -5    1    3    3    0  502  0.25227492993E+02 -0.59755962792E+02 -0.43685290813E+02  0.78343449792E+02  0.47000000000E+01 0.  1.
        -11    1    4    4    0    0 -0.54425256850E+02  0.63615772707E+02 -0.25041164812E+03  0.26403611236E+03  0.00000000000E+00 0. -1.
         11    1    4    4    0    0  0.26983379098E+02  0.52194895811E+02 -0.85430263244E+02  0.10368577421E+03  0.00000000000E+00 0.  1.
<mgrwt>
<rscale>  0 0.16658303E+03</rscale>
<asrwt>0</asrwt>
<pdfrwt beam="2">  1        1 0.11183938E+00 0.17259867E+03</pdfrwt>
<pdfrwt beam="1">  1       -1 0.55063036E-02 0.17259867E+03</pdfrwt>
<totfact> 0.39870697E+03</totfact>
</mgrwt>
</event>
<event>
 8    1  0.9424564E-006  0.1863954E+03  0.7546771E-02  0.1167040E+00
         -1   -1    0    0    0  501 -0.00000000000E+00  0.00000000000E+00  0.61458393220E+03  0.61458393220E+03  0.00000000000E+00 0.  1.
          1   -1    0    0  501    0  0.00000000000E+00 -0.00000000000E+00 -0.55988763145E+02  0.55988763145E+02  0.00000000000E+00 0. -1.
         23    2    1    2    0    0  0.44441471280E+02 -0.13092840389E+03  0.40202304609E+03  0.44313178585E+03  0.12500383487E+03 0.  0.
         23    2    1    2    0    0 -0.44441471280E+02  0.13092840389E+03  0.15657212297E+03  0.22744090949E+03  0.89984700399E+02 0.  0.
          5    1    3    3  502    0  0.17783344886E+02 -0.14605992746E+03  0.27010378989E+03  0.30761647726E+03  0.47000000000E+01 0.  1.
         -5    1    3    3    0  502  0.26658126394E+02  0.15131523571E+02  0.13191925620E+03  0.13551530860E+03  0.47000000000E+01 0.  1.
        -11    1    4    4    0    0 -0.19251892804E+02  0.11303731395E+03  0.15946322556E+03  0.19640924120E+03  0.00000000000E+00 0.  1.
         11    1    4    4    0    0 -0.25189578476E+02  0.17891089942E+02 -0.28911025923E+01  0.31031668297E+02  0.00000000000E+00 0. -1.
<mgrwt>
<rscale>  0 0.18079089E+03</rscale>
<asrwt>0</asrwt>
<pdfrwt beam="2">  1        1 0.86136563E-02 0.18639541E+03</pdfrwt>
<pdfrwt beam="1">  1       -1 0.94551369E-01 0.18639541E+03</pdfrwt>
<totfact> 0.89114168E+02</totfact>
</mgrwt>
</event>
<event>
 8    1  0.9424564E-006  0.2337955E+03  0.7546771E-02  0.1126887E+00
          2   -1    0    0  501    0  0.00000000000E+00  0.00000000000E+00  0.72650102398E+03  0.72650102398E+03  0.00000000000E+00 0. -1.
         -2   -1    0    0    0  501 -0.00000000000E+00 -0.00000000000E+00 -0.89322413842E+02  0.89322413842E+02  0.00000000000E+00 0.  1.
         23    2    1    2    0    0  0.14326392096E+03  0.13606050990E+03  0.13855392059E+03  0.27176737552E+03  0.12499321613E+03 0.  0.
         23    2    1    2    0    0 -0.14326392096E+03 -0.13606050990E+03  0.49862468955E+03  0.54405606231E+03  0.91287482706E+02 0.  0.
          5    1    3    3  502    0  0.15697533224E+03  0.11632423689E+03  0.85467940483E+02  0.21330598180E+03  0.47000000000E+01 0. -1.
         -5    1    3    3    0  502 -0.13711411277E+02  0.19736273015E+02  0.53085980107E+02  0.58461393719E+02  0.47000000000E+01 0. -1.
        -11    1    4    4    0    0 -0.43150909023E+02 -0.57603166092E+02  0.29753644702E+03  0.30611772735E+03  0.00000000000E+00 0.  1.
         11    1    4    4    0    0 -0.10011301194E+03 -0.78457343812E+02  0.20108824253E+03  0.23793833496E+03  0.00000000000E+00 0. -1.
<mgrwt>
<rscale>  0 0.22964948E+03</rscale>
<asrwt>0</asrwt>
<pdfrwt beam="1">  1        2 0.11176938E+00 0.23379546E+03</pdfrwt>
<pdfrwt beam="2">  1       -2 0.13741910E-01 0.23379546E+03</pdfrwt>
<totfact> 0.15837376E+03</totfact>
</mgrwt>
</event>
<event>
 8    1  0.9424564E-006  0.1307061E+03  0.7546771E-02  0.1240241E+00
          1   -1    0    0  501    0  0.00000000000E+00  0.00000000000E+00  0.20812680863E+03  0.20812680863E+03  0.00000000000E+00 0. -1.
         -1   -1    0    0    0  501 -0.00000000000E+00 -0.00000000000E+00 -0.63265142107E+02  0.63265142107E+02  0.00000000000E+00 0.  1.
         23    2    1    2    0    0 -0.26088123397E+02  0.27918223016E+02  0.90519754168E+02  0.15899028463E+03  0.12499626936E+03 0.  0.
         23    2    1    2    0    0  0.26088123397E+02 -0.27918223016E+02  0.54341912358E+02  0.11240166611E+03  0.90670137014E+02 0.  0.
          5    1    3    3  502    0 -0.25719213079E+01  0.31080685589E+02 -0.25448754065E+02  0.40525953158E+02  0.47000000000E+01 0. -1.
         -5    1    3    3    0  502 -0.23516202089E+02 -0.31624625736E+01  0.11596850823E+03  0.11846433148E+03  0.47000000000E+01 0. -1.
        -11    1    4    4    0    0  0.17409236908E+02  0.31672400039E+02  0.31675278055E+02  0.48057732924E+02  0.00000000000E+00 0.  1.
         11    1    4    4    0    0  0.86788864886E+01 -0.59590623055E+02  0.22666634303E+02  0.64343933182E+02  0.00000000000E+00 0. -1.
<mgrwt>
<rscale>  0 0.12174817E+03</rscale>
<asrwt>0</asrwt>
<pdfrwt beam="1">  1        1 0.32019509E-01 0.13070610E+03</pdfrwt>
<pdfrwt beam="2">  1       -1 0.97330988E-02 0.13070610E+03</pdfrwt>
<totfact> 0.83631865E+03</totfact>
</mgrwt>
</event>
<event>
 8    1  0.9424564E-006  0.1912039E+03  0.7546771E-02  0.1162455E+00
          2   -1    0    0  501    0  0.00000000000E+00  0.00000000000E+00  0.48085146020E+03  0.48085146020E+03  0.00000000000E+00 0. -1.
         -2   -1    0    0    0  501 -0.00000000000E+00 -0.00000000000E+00 -0.78754498102E+02  0.78754498102E+02  0.00000000000E+00 0.  1.
         23    2    1    2    0    0 -0.26607558950E+02 -0.14223109531E+03  0.10702721392E+03  0.21912043555E+03  0.12498517548E+03 0.  0.
         23    2    1    2    0    0  0.26607558950E+02  0.14223109531E+03  0.29506974817E+03  0.34048552275E+03  0.89031389127E+02 0.  0.
          5    1    3    3  502    0 -0.50611033356E+02 -0.10839542517E+03  0.18367021400E+02  0.12112176670E+03  0.47000000000E+01 0.  1.
         -5    1    3    3    0  502  0.24003474407E+02 -0.33835670139E+02  0.88660192524E+02  0.97998668847E+02  0.47000000000E+01 0.  1.
        -11    1    4    4    0    0  0.61115443245E+01  0.79157767964E+02  0.24455184136E+03  0.25711652284E+03  0.00000000000E+00 0. -1.
         11    1    4    4    0    0  0.20496014625E+02  0.63073327342E+02  0.50517906810E+02  0.83368999910E+02  0.00000000000E+00 0.  1.
<mgrwt>
<rscale>  0 0.18563831E+03</rscale>
<asrwt>0</asrwt>
<pdfrwt beam="1">  1        2 0.73977146E-01 0.19120392E+03</pdfrwt>
<pdfrwt beam="2">  1       -2 0.12116077E-01 0.19120392E+03</pdfrwt>
<totfact> 0.31197792E+03</totfact>
</mgrwt>
</event>
<event>
 8    1  0.9424564E-006  0.1287720E+03  0.7546771E-02  0.1244275E+00
          1   -1    0    0  501    0  0.00000000000E+00  0.00000000000E+00  0.65442378662E+03  0.65442378662E+03  0.00000000000E+00 0. -1.
         -1   -1    0    0    0  501 -0.00000000000E+00 -0.00000000000E+00 -0.19437828548E+02  0.19437828548E+02  0.00000000000E+00 0.  1.
         23    2    1    2    0    0 -0.90143246014E+00  0.30934414813E+02  0.32091304763E+03  0.34578519455E+03  0.12499786412E+03 0.  0.
         23    2    1    2    0    0  0.90143246014E+00 -0.30934414813E+02  0.31407291045E+03  0.32807642062E+03  0.89635897311E+02 0.  0.
          5    1    3    3  502    0  0.19372443872E+02  0.37842821297E+02  0.32101981420E+03  0.32385673038E+03  0.47000000000E+01 0. -1.
         -5    1    3    3    0  502 -0.20273876332E+02 -0.69084064832E+01 -0.10676657659E+00  0.21928464168E+02  0.47000000000E+01 0. -1.
        -11    1    4    4    0    0 -0.32075717189E+02 -0.30342603537E+02  0.26683495250E+03  0.27046333781E+03  0.00000000000E+00 0. -1.
         11    1    4    4    0    0  0.32977149649E+02 -0.59181127696E+00  0.47237957949E+02  0.57613082809E+02  0.00000000000E+00 0.  1.
<mgrwt>
<rscale>  0 0.11928891E+03</rscale>
<asrwt>0</asrwt>
<pdfrwt beam="1">  1        1 0.10068057E+00 0.12877196E+03</pdfrwt>
<pdfrwt beam="2">  1       -1 0.29904357E-02 0.12877196E+03</pdfrwt>
<totfact> 0.11210597E+04</totfact>
</mgrwt>
</event>
<event>
 8    1  0.9424564E-006  0.2714871E+03  0.7546771E-02  0.1102411E+00
          1   -1    0    0  501    0  0.00000000000E+00  0.00000000000E+00  0.46935808575E+03  0.46935808575E+03  0.00000000000E+00 0. -1.
         -1   -1    0    0    0  501 -0.00000000000E+00 -0.00000000000E+00 -0.16150032090E+03  0.16150032090E+03  0.00000000000E+00 0.  1.
         23    2    1    2    0    0 -0.17144278608E+03 -0.16937280563E+03  0.70868858747E+02  0.28058446981E+03  0.12500189348E+03 0.  0.
         23    2    1    2    0    0  0.17144278608E+03  0.16937280563E+03  0.23698890610E+03  0.35027393683E+03  0.91914705149E+02 0.  0.
          5    1    3    3  502    0 -0.19107301172E+03 -0.15954032398E+03  0.66729529819E+02  0.25775362448E+03  0.47000000000E+01 0. -1.
         -5    1    3    3    0  502  0.19630225648E+02 -0.98324816533E+01  0.41393289281E+01  0.22830845329E+02  0.47000000000E+01 0. -1.
        -11    1    4    4    0    0  0.17895479212E+03  0.16186110896E+03  0.23881543586E+03  0.33949469601E+03  0.00000000000E+00 0. -1.
         11    1    4    4    0    0 -0.75120060438E+01  0.75116966714E+01 -0.18265297554E+01  0.10779240819E+02  0.00000000000E+00 0.  1.
<mgrwt>
<rscale>  0 0.26803255E+03</rscale>
<asrwt>0</asrwt>
<pdfrwt beam="1">  1        1 0.72208936E-01 0.27148711E+03</pdfrwt>
<pdfrwt beam="2">  1       -1 0.24846203E-01 0.27148711E+03</pdfrwt>
<totfact> 0.69377324E+02</totfact>
</mgrwt>
</event>
<event>
 8    1  0.9424564E-006  0.1277966E+03  0.7546771E-02  0.1249671E+00
         -1   -1    0    0    0  501 -0.00000000000E+00  0.00000000000E+00  0.14441142552E+02  0.14441142552E+02  0.00000000000E+00 0.  1.
          1   -1    0    0  501    0  0.00000000000E+00 -0.00000000000E+00 -0.81505123398E+03  0.81505123398E+03  0.00000000000E+00 0. -1.
         23    2    1    2    0    0  0.26294616699E+02  0.38293582095E+01 -0.41776801113E+03  0.43687766337E+03  0.12500364304E+03 0.  0.
         23    2    1    2    0    0 -0.26294616699E+02 -0.38293582095E+01 -0.38284208029E+03  0.39261471316E+03  0.82898635063E+02 0.  0.
          5    1    3    3  502    0 -0.61801535219E+01  0.39007725787E+02 -0.41259127087E+02  0.57307962245E+02  0.47000000000E+01 0. -1.
         -5    1    3    3    0  502  0.32474770221E+02 -0.35178367578E+02 -0.37650888404E+03  0.37956970112E+03  0.47000000000E+01 0. -1.
        -11    1    4    4    0    0 -0.43771499084E+02  0.26756513879E+02 -0.24770386463E+03  0.25296058926E+03  0.00000000000E+00 0.  1.
         11    1    4    4    0    0  0.17476882385E+02 -0.30585872089E+02 -0.13513821566E+03  0.13965412390E+03  0.00000000000E+00 0. -1.
<mgrwt>
<rscale>  0 0.11610094E+03</rscale>
<asrwt>0</asrwt>
<pdfrwt beam="2">  1        1 0.12539254E+00 0.12779664E+03</pdfrwt>
<pdfrwt beam="1">  1       -1 0.22217135E-02 0.12779664E+03</pdfrwt>
<totfact> 0.12532486E+04</totfact>
</mgrwt>
</event>
<event>
 8    1  0.9424564E-006  0.1253550E+03  0.7546771E-02  0.1249218E+00
          1   -1    0    0  501    0  0.00000000000E+00  0.00000000000E+00  0.40290410096E+03  0.40290410096E+03  0.00000000000E+00 0. -1.
         -1   -1    0    0    0  501 -0.00000000000E+00 -0.00000000000E+00 -0.30884090476E+02  0.30884090476E+02  0.00000000000E+00 0.  1.
         23    2    1    2    0    0  0.37581522053E+01 -0.86547021524E+01  0.25601563737E+03  0.28505770203E+03  0.12499943731E+03 0.  0.
         23    2    1    2    0    0 -0.37581522053E+01  0.86547021524E+01  0.11600437311E+03  0.14873048941E+03  0.92599764155E+02 0.  0.
          5    1    3    3  502    0 -0.58259173029E+02  0.90030078002E+01  0.14486925607E+03  0.15647484381E+03  0.47000000000E+01 0.  1.
         -5    1    3    3    0  502  0.62017325234E+02 -0.17657709953E+02  0.11114638130E+03  0.12858285821E+03  0.47000000000E+01 0.  1.
        -11    1    4    4    0    0 -0.39397160933E+02  0.30055941076E+02  0.47765197295E+02  0.68825939559E+02  0.00000000000E+00 0.  1.
         11    1    4    4    0    0  0.35639008728E+02 -0.21401238923E+02  0.68239175816E+02  0.79904549849E+02  0.00000000000E+00 0. -1.
<mgrwt>
<rscale>  0 0.11636425E+03</rscale>
<asrwt>0</asrwt>
<pdfrwt beam="1">  1        1 0.61985243E-01 0.12535504E+03</pdfrwt>
<pdfrwt beam="2">  1       -1 0.47513988E-02 0.12535504E+03</pdfrwt>
<totfact> 0.10747356E+04</totfact>
</mgrwt>
</event>
<event>
 8    1  0.9424564E-006  0.1392771E+03  0.7546771E-02  0.1228011E+00
          2   -1    0    0  501    0  0.00000000000E+00  0.00000000000E+00  0.50052482581E+03  0.50052482581E+03  0.00000000000E+00 0. -1.
         -2   -1    0    0    0  501 -0.00000000000E+00 -0.00000000000E+00 -0.45269727091E+02  0.45269727091E+02  0.00000000000E+00 0.  1.
         23    2    1    2    0    0  0.34437083534E+02 -0.50886807547E+02  0.89862709173E+02  0.16575104713E+03  0.12499089255E+03 0.  0.
         23    2    1    2    0    0 -0.34437083534E+02  0.50886807547E+02  0.36539238954E+03  0.38004350577E+03  0.84534537529E+02 0.  0.
          5    1    3    3  502    0  0.23278674968E+02  0.33280394920E+02  0.65645268884E+02  0.77336102314E+02  0.47000000000E+01 0. -1.
         -5    1    3    3    0  502  0.11158408566E+02 -0.84167202467E+02  0.24217440289E+02  0.88414944817E+02  0.47000000000E+01 0. -1.
        -11    1    4    4    0    0 -0.32346012484E+02 -0.60501483447E+01  0.52169257191E+02  0.61680630788E+02  0.00000000000E+00 0.  1.
         11    1    4    4    0    0 -0.20910710498E+01  0.56936955891E+02  0.31322313235E+03  0.31836287498E+03  0.00000000000E+00 0. -1.
<mgrwt>
<rscale>  0 0.12962682E+03</rscale>
<asrwt>0</asrwt>
<pdfrwt beam="1">  1        2 0.77003815E-01 0.13927707E+03</pdfrwt>
<pdfrwt beam="2">  1       -2 0.69645738E-02 0.13927707E+03</pdfrwt>
<totfact> 0.70096582E+03</totfact>
</mgrwt>
</event>
<event>
 8    1  0.9424564E-006  0.1474225E+03  0.7546771E-02  0.1213782E+00
         -2   -1    0    0    0  501 -0.00000000000E+00  0.00000000000E+00  0.20051533078E+03  0.20051533078E+03  0.00000000000E+00 0.  1.
          2   -1    0    0  501    0  0.00000000000E+00 -0.00000000000E+00 -0.11709420992E+03  0.11709420992E+03  0.00000000000E+00 0. -1.
         23    2    1    2    0    0  0.67756203076E-01 -0.78148617482E+02  0.12345854929E+03  0.19228992280E+03  0.12500475996E+03 0.  0.
         23    2    1    2    0    0 -0.67756203076E-01  0.78148617482E+02 -0.40037428434E+02  0.12531961790E+03  0.89413645212E+02 0.  0.
          5    1    3    3  502    0 -0.44242787169E+02 -0.60479293179E+01  0.30011942299E+01  0.45001098123E+02  0.47000000000E+01 0.  1.
         -5    1    3    3    0  502  0.44310543372E+02 -0.72100688164E+02  0.12045735506E+03  0.14728882468E+03  0.47000000000E+01 0.  1.
        -11    1    4    4    0    0  0.24484265432E+01  0.95617905642E+02 -0.18410585963E+02  0.97404970855E+02  0.00000000000E+00 0.  1.
         11    1    4    4    0    0 -0.25161827462E+01 -0.17469288160E+02 -0.21626842471E+02  0.27914647045E+02  0.00000000000E+00 0. -1.
<mgrwt>
<rscale>  0 0.13966353E+03</rscale>
<asrwt>0</asrwt>
<pdfrwt beam="2">  1        2 0.18014494E-01 0.14742253E+03</pdfrwt>
<pdfrwt beam="1">  1       -2 0.30848513E-01 0.14742253E+03</pdfrwt>
<totfact> 0.29487232E+03</totfact>
</mgrwt>
</event>
<event>
 8    1  0.9424564E-006  0.1245252E+03  0.7546771E-02  0.1244812E+00
         -1   -1    0    0    0  501 -0.00000000000E+00  0.00000000000E+00  0.62828356459E+02  0.62828356459E+02  0.00000000000E+00 0.  1.
          1   -1    0    0  501    0  0.00000000000E+00 -0.00000000000E+00 -0.32628681471E+03  0.32628681471E+03  0.00000000000E+00 0. -1.
         23    2    1    2    0    0  0.41107297349E+02  0.22712242143E+02 -0.22184480187E+02  0.12648588475E+03  0.11532940667E+03 0.  0.
         23    2    1    2    0    0 -0.41107297349E+02 -0.22712242143E+02 -0.24127397806E+03  0.26262928642E+03  0.92495155300E+02 0.  0.
          5    1    3    3  502    0 -0.31859371854E+02  0.17032667782E+01 -0.36892693619E+02  0.49000831983E+02  0.47000000000E+01 0. -1.
         -5    1    3    3    0  502  0.72966669203E+02  0.21008975365E+02  0.14708213431E+02  0.77485052770E+02  0.47000000000E+01 0.  1.
        -11    1    4    4    0    0  0.14818619221E+01 -0.29754827515E+02 -0.17128042448E+02  0.34364451303E+02  0.00000000000E+00 0. -1.
         11    1    4    4    0    0 -0.42589159271E+02  0.70425853720E+01 -0.22414593562E+03  0.22826483511E+03  0.00000000000E+00 0.  1.
<mgrwt>
<rscale>  0 0.11896647E+03</rscale>
<asrwt>0</asrwt>
<pdfrwt beam="2">  1        1 0.50197972E-01 0.12452521E+03</pdfrwt>
<pdfrwt beam="1">  1       -1 0.96659009E-02 0.12452521E+03</pdfrwt>
<totfact> 0.48340940E+03</totfact>
</mgrwt>
</event>
<event>
 8    1  0.9424564E-006  0.1808842E+03  0.7546771E-02  0.1170503E+00
          1   -1    0    0  501    0  0.00000000000E+00  0.00000000000E+00  0.19588303176E+03  0.19588303176E+03  0.00000000000E+00 0. -1.
         -1   -1    0    0    0  501 -0.00000000000E+00 -0.00000000000E+00 -0.38046736059E+03  0.38046736059E+03  0.00000000000E+00 0.  1.
         23    2    1    2    0    0  0.11834742338E+03 -0.73951391510E+02 -0.31596107029E+03  0.36407482198E+03  0.11508326176E+03 0.  0.
         23    2    1    2    0    0 -0.11834742338E+03  0.73951391510E+02  0.13137674146E+03  0.21227557037E+03  0.91247732314E+02 0.  0.
          5    1    3    3  502    0  0.17708388583E+02 -0.76774886199E+02 -0.15949078084E+03  0.17795327856E+03  0.47000000000E+01 0. -1.
         -5    1    3    3    0  502  0.10063903479E+03  0.28234946888E+01 -0.15647028945E+03  0.18612154343E+03  0.47000000000E+01 0.  1.
        -11    1    4    4    0    0 -0.84339741954E+02  0.58952712231E+02  0.14035824336E+03  0.17403749835E+03  0.00000000000E+00 0. -1.
         11    1    4    4    0    0 -0.34007681422E+02  0.14998679279E+02 -0.89815018944E+01  0.38238072023E+02  0.00000000000E+00 0.  1.
<mgrwt>
<rscale>  0 0.17723851E+03</rscale>
<asrwt>0</asrwt>
<pdfrwt beam="1">  1        1 0.30135851E-01 0.18088416E+03</pdfrwt>
<pdfrwt beam="2">  1       -1 0.58533439E-01 0.18088416E+03</pdfrwt>
<totfact> 0.46199656E+02</totfact>
</mgrwt>
</event>
<event>
 8    1  0.9424564E-006  0.1453066E+03  0.7546771E-02  0.1215986E+00
         -2   -1    0    0    0  501 -0.00000000000E+00  0.00000000000E+00  0.20251737388E+03  0.20251737388E+03  0.00000000000E+00 0.  1.
          2   -1    0    0  501    0  0.00000000000E+00 -0.00000000000E+00 -0.90425208473E+02  0.90425208473E+02  0.00000000000E+00 0. -1.
         23    2    1    2    0    0 -0.87342223481E+00 -0.74088927491E+02  0.94371466797E+02  0.17326279524E+03  0.12499636165E+03 0.  0.
         23    2    1    2    0    0  0.87342223481E+00  0.74088927491E+02  0.17720698613E+02  0.11967978712E+03  0.92300033813E+02 0.  0.
          5    1    3    3  502    0  0.29155351285E+01  0.73612027294E+01  0.91057708841E+02  0.91522041007E+02  0.47000000000E+01 0.  1.
         -5    1    3    3    0  502 -0.37889573633E+01 -0.81450130220E+02  0.33137579559E+01  0.81740754233E+02  0.47000000000E+01 0.  1.
        -11    1    4    4    0    0  0.32303619124E+02 -0.34669389726E+01 -0.52292444642E+01  0.32907270807E+02  0.00000000000E+00 0.  1.
         11    1    4    4    0    0 -0.31430196889E+02  0.77555866464E+02  0.22949943077E+02  0.86772516309E+02  0.00000000000E+00 0. -1.
<mgrwt>
<rscale>  0 0.13804348E+03</rscale>
<asrwt>0</asrwt>
<pdfrwt beam="2">  1        2 0.13911571E-01 0.14530665E+03</pdfrwt>
<pdfrwt beam="1">  1       -2 0.31156519E-01 0.14530665E+03</pdfrwt>
<totfact> 0.39112233E+03</totfact>
</mgrwt>
</event>
<event>
 8    1  0.9424564E-006  0.1893385E+03  0.7546771E-02  0.1163853E+00
         -2   -1    0    0    0  501 -0.00000000000E+00  0.00000000000E+00  0.46493146768E+03  0.46493146768E+03  0.00000000000E+00 0.  1.
          2   -1    0    0  501    0  0.00000000000E+00 -0.00000000000E+00 -0.71255696506E+02  0.71255696506E+02  0.00000000000E+00 0. -1.
         23    2    1    2    0    0  0.29377206522E+02  0.13914134917E+03  0.25294967361E+03  0.31596296755E+03  0.12500289665E+03 0.  0.
         23    2    1    2    0    0 -0.29377206522E+02 -0.13914134917E+03  0.14072609756E+03  0.22022419663E+03  0.92040898183E+02 0.  0.
          5    1    3    3  502    0  0.41636556949E+02  0.82660201131E+01  0.12646754175E+03  0.13348430275E+03  0.47000000000E+01 0. -1.
         -5    1    3    3    0  502 -0.12259350427E+02  0.13087532905E+03  0.12648213186E+03  0.18247866480E+03  0.47000000000E+01 0. -1.
        -11    1    4    4    0    0  0.10525518708E+02 -0.90740736682E+02  0.36077631017E+02  0.98215392365E+02  0.00000000000E+00 0.  1.
         11    1    4    4    0    0 -0.39902725230E+02 -0.48400612484E+02  0.10464846654E+03  0.12200880427E+03  0.00000000000E+00 0. -1.
<mgrwt>
<rscale>  0 0.18414277E+03</rscale>
<asrwt>0</asrwt>
<pdfrwt beam="2">  1        2 0.10962415E-01 0.18933848E+03</pdfrwt>
<pdfrwt beam="1">  1       -2 0.71527916E-01 0.18933848E+03</pdfrwt>
<totfact> 0.10282032E+03</totfact>
</mgrwt>
</event>
<event>
 8    1  0.9424564E-006  0.1299871E+03  0.7546771E-02  0.1241817E+00
         -1   -1    0    0    0  501 -0.00000000000E+00  0.00000000000E+00  0.21636457021E+02  0.21636457021E+02  0.00000000000E+00 0.  1.
          1   -1    0    0  501    0  0.00000000000E+00 -0.00000000000E+00 -0.60974063461E+03  0.60974063461E+03  0.00000000000E+00 0. -1.
         23    2    1    2    0    0 -0.25378640084E+02  0.25032667789E+02 -0.28690340685E+03  0.31497653209E+03  0.12500376427E+03 0.  0.
         23    2    1    2    0    0  0.25378640084E+02 -0.25032667789E+02 -0.30120077074E+03  0.31640055954E+03  0.90092729730E+02 0.  0.
          5    1    3    3  502    0 -0.49492382937E+02 -0.27510682617E+02 -0.21611542795E+03  0.22345984387E+03  0.47000000000E+01 0.  1.
         -5    1    3    3    0  502  0.24113742853E+02  0.52543350406E+02 -0.70787978899E+02  0.91516688221E+02  0.47000000000E+01 0.  1.
        -11    1    4    4    0    0 -0.16169101805E+02 -0.33123878977E+02 -0.52643225460E+02  0.64264612335E+02  0.00000000000E+00 0.  1.
         11    1    4    4    0    0  0.41547741889E+02  0.80912111881E+01 -0.24855754528E+03  0.25213594720E+03  0.00000000000E+00 0. -1.
<mgrwt>
<rscale>  0 0.12077956E+03</rscale>
<asrwt>0</asrwt>
<pdfrwt beam="2">  1        1 0.93806236E-01 0.12998712E+03</pdfrwt>
<pdfrwt beam="1">  1       -1 0.33286862E-02 0.12998712E+03</pdfrwt>
<totfact> 0.10580472E+04</totfact>
</mgrwt>
</event>
<event>
 8    1  0.9424564E-006  0.1829383E+03  0.7546771E-02  0.1170988E+00
          2   -1    0    0  501    0  0.00000000000E+00  0.00000000000E+00  0.14371593459E+03  0.14371593459E+03  0.00000000000E+00 0. -1.
         -2   -1    0    0    0  501 -0.00000000000E+00 -0.00000000000E+00 -0.21490828250E+03  0.21490828250E+03  0.00000000000E+00 0.  1.
         23    2    1    2    0    0  0.12929458614E+03  0.33532289985E+02 -0.78461833433E+02  0.19905443024E+03  0.12499960967E+03 0.  0.
         23    2    1    2    0    0 -0.12929458614E+03 -0.33532289985E+02  0.72694855276E+01  0.15956978685E+03  0.86995212393E+02 0.  0.
          5    1    3    3  502    0  0.10388567061E+03 -0.28001513379E+02 -0.76835457296E+02  0.13229548295E+03  0.47000000000E+01 0. -1.
         -5    1    3    3    0  502  0.25408915526E+02  0.61533803364E+02 -0.16263761366E+01  0.66758947295E+02  0.47000000000E+01 0. -1.
        -11    1    4    4    0    0 -0.12038653655E+03 -0.39816492322E+02  0.33511296590E+02  0.13115364365E+03  0.00000000000E+00 0. -1.
         11    1    4    4    0    0 -0.89080495858E+01  0.62842023367E+01 -0.26241811063E+02  0.28416143199E+02  0.00000000000E+00 0.  1.
<mgrwt>
<rscale>  0 0.17674750E+03</rscale>
<asrwt>0</asrwt>
<pdfrwt beam="1">  1        2 0.22110144E-01 0.18293826E+03</pdfrwt>
<pdfrwt beam="2">  1       -2 0.33062812E-01 0.18293826E+03</pdfrwt>
<totfact> 0.20785169E+03</totfact>
</mgrwt>
</event>
<event>
 8    1  0.9424564E-006  0.1903952E+03  0.7546771E-02  0.1162376E+00
         -3   -1    0    0    0  501 -0.00000000000E+00  0.00000000000E+00  0.10541238860E+03  0.10541238860E+03  0.00000000000E+00 0.  1.
          3   -1    0    0  501    0  0.00000000000E+00 -0.00000000000E+00 -0.42779954197E+03  0.42779954197E+03  0.00000000000E+00 0. -1.
         23    2    1    2    0    0 -0.14314214253E+03  0.11638348542E+02 -0.28526566305E+02  0.19252034881E+03  0.12500078237E+03 0.  0.
         23    2    1    2    0    0  0.14314214253E+03 -0.11638348542E+02 -0.29386058707E+03  0.34069158176E+03  0.95349804008E+02 0.  0.
          5    1    3    3  502    0 -0.20440527387E+02 -0.44061540381E+02 -0.30729382234E+02  0.57668183889E+02  0.47000000000E+01 0. -1.
         -5    1    3    3    0  502 -0.12270161514E+03  0.55699888923E+02  0.22028159289E+01  0.13485216492E+03  0.47000000000E+01 0. -1.
        -11    1    4    4    0    0  0.98005947458E+02 -0.52527629716E+02 -0.19912436254E+03  0.22806759826E+03  0.00000000000E+00 0. -1.
         11    1    4    4    0    0  0.45136195074E+02  0.40889281174E+02 -0.94736224534E+02  0.11262398350E+03  0.00000000000E+00 0.  1.
<mgrwt>
<rscale>  0 0.18572357E+03</rscale>
<asrwt>0</asrwt>
<pdfrwt beam="2">  1        3 0.65815314E-01 0.19039517E+03</pdfrwt>
<pdfrwt beam="1">  1       -3 0.16217291E-01 0.19039517E+03</pdfrwt>
<totfact> 0.17888570E+02</totfact>
</mgrwt>
</event>
<event>
 8    1  0.9424564E-006  0.1738901E+03  0.7546771E-02  0.1179568E+00
         -1   -1    0    0    0  501 -0.00000000000E+00  0.00000000000E+00  0.91732637868E+02  0.91732637868E+02  0.00000000000E+00 0.  1.
          1   -1    0    0  501    0  0.00000000000E+00 -0.00000000000E+00 -0.29092799902E+03  0.29092799902E+03  0.00000000000E+00 0. -1.
         23    2    1    2    0    0 -0.20709622211E+02  0.11909281683E+03 -0.10345654310E+03  0.20233890567E+03  0.12500315582E+03 0.  0.
         23    2    1    2    0    0  0.20709622211E+02 -0.11909281683E+03 -0.95738818046E+02  0.18032173121E+03  0.93477366210E+02 0.  0.
          5    1    3    3  502    0  0.10025656544E+02  0.13467895690E+03 -0.63330385589E+02  0.14923727068E+03  0.47000000000E+01 0. -1.
         -5    1    3    3    0  502 -0.30735278754E+02 -0.15586140067E+02 -0.40126157512E+02  0.53101634994E+02  0.47000000000E+01 0. -1.
        -11    1    4    4    0    0 -0.16406071907E+02 -0.44912310600E+02 -0.83851699892E+02  0.96526589154E+02  0.00000000000E+00 0. -1.
         11    1    4    4    0    0  0.37115694118E+02 -0.74180506231E+02 -0.11887118154E+02  0.83795142058E+02  0.00000000000E+00 0.  1.
<mgrwt>
<rscale>  0 0.16836122E+03</rscale>
<asrwt>0</asrwt>
<pdfrwt beam="2">  1        1 0.44758154E-01 0.17389013E+03</pdfrwt>
<pdfrwt beam="1">  1       -1 0.14112714E-01 0.17389013E+03</pdfrwt>
<totfact> 0.31591843E+03</totfact>
</mgrwt>
</event>
<event>
 7    1  0.9424564E-006  0.1881988E+03  0.7546771E-02  0.1172576E+00
         -3   -1    0    0    0  501 -0.00000000000E+00  0.00000000000E+00  0.30553693373E+03  0.30553693373E+03  0.00000000000E+00 0.  1.
          3   -1    0    0  501    0  0.00000000000E+00 -0.00000000000E+00 -0.96548124200E+02  0.96548124200E+02  0.00000000000E+00 0. -1.
         23    2    1    2    0    0  0.13208819542E+02  0.10646488756E+03  0.34303685831E+02  0.14530947716E+03  0.91808801833E+02 0.  0.
          5    1    1    2  502    0 -0.41918499143E+01 -0.91398742838E+02  0.11216504604E+02  0.92299522066E+02  0.47000000000E+01 0. -1.
         -5    1    1    2    0  502 -0.90169696277E+01 -0.15066144721E+02  0.16346861910E+03  0.16447605871E+03  0.47000000000E+01 0.  1.
        -11    1    3    3    0    0 -0.21537117114E+02  0.82543259514E+01 -0.17511435738E+02  0.28959138318E+02  0.00000000000E+00 0.  1.
         11    1    3    3    0    0  0.34745936656E+02  0.98210561608E+02  0.51815121569E+02  0.11635033884E+03  0.00000000000E+00 0. -1.
<mgrwt>
<rscale>  0 0.17515526E+03</rscale>
<asrwt>0</asrwt>
<pdfrwt beam="2">  1        3 0.14853558E-01 0.18819885E+03</pdfrwt>
<pdfrwt beam="1">  1       -3 0.47005682E-01 0.18819885E+03</pdfrwt>
<totfact> 0.41375765E+02</totfact>
</mgrwt>
</event>
<event>
 8    1  0.9424564E-006  0.1410959E+03  0.7546771E-02  0.1222985E+00
         -2   -1    0    0    0  501 -0.00000000000E+00  0.00000000000E+00  0.17009035006E+03  0.17009035006E+03  0.00000000000E+00 0.  1.
          2   -1    0    0  501    0  0.00000000000E+00 -0.00000000000E+00 -0.94792417264E+02  0.94792417264E+02  0.00000000000E+00 0. -1.
         23    2    1    2    0    0  0.35534156041E+02  0.54952247720E+02  0.28895108133E+02  0.14402420803E+03  0.12500247778E+03 0.  0.
         23    2    1    2    0    0 -0.35534156041E+02 -0.54952247720E+02  0.46402824666E+02  0.12085855929E+03  0.90394377274E+02 0.  0.
          5    1    3    3  502    0  0.16038361400E+02  0.62571529266E+01  0.73112930210E+02  0.75259361963E+02  0.47000000000E+01 0. -1.
         -5    1    3    3    0  502  0.19495794641E+02  0.48695094794E+02 -0.44217822078E+02  0.68764846069E+02  0.47000000000E+01 0. -1.
        -11    1    4    4    0    0  0.10260871388E+02 -0.26312555904E+02 -0.20482001263E+02  0.34887654774E+02  0.00000000000E+00 0. -1.
         11    1    4    4    0    0 -0.45795027429E+02 -0.28639691816E+02  0.66884825930E+02  0.85970904521E+02  0.00000000000E+00 0.  1.
<mgrwt>
<rscale>  0 0.13305998E+03</rscale>
<asrwt>0</asrwt>
<pdfrwt beam="2">  1        2 0.14583449E-01 0.14109587E+03</pdfrwt>
<pdfrwt beam="1">  1       -2 0.26167746E-01 0.14109587E+03</pdfrwt>
<totfact> 0.50428503E+03</totfact>
</mgrwt>
</event>
<event>
 8    1  0.9424564E-006  0.1803302E+03  0.7546771E-02  0.1173120E+00
          4   -1    0    0  501    0  0.00000000000E+00  0.00000000000E+00  0.42595213358E+03  0.42595213358E+03  0.00000000000E+00 0. -1.
         -4   -1    0    0    0  501 -0.00000000000E+00 -0.00000000000E+00 -0.92280264564E+02  0.92280264564E+02  0.00000000000E+00 0.  1.
         23    2    1    2    0    0  0.12929698481E+03 -0.13339250196E+02  0.40315974614E+02  0.18478195206E+03  0.12499338431E+03 0.  0.
         23    2    1    2    0    0 -0.12929698481E+03  0.13339250196E+02  0.29335589440E+03  0.33345044608E+03  0.90751712554E+02 0.  0.
          5    1    3    3  502    0 -0.90593524284E+01 -0.67570484722E+01 -0.27785037799E+02  0.30361618797E+02  0.47000000000E+01 0. -1.
         -5    1    3    3    0  502  0.13835633724E+03 -0.65822017236E+01  0.68101012413E+02  0.15442033327E+03  0.47000000000E+01 0. -1.
        -11    1    4    4    0    0 -0.52974754833E+02 -0.13608539980E+02  0.40784384556E+02  0.68226703230E+02  0.00000000000E+00 0.  1.
         11    1    4    4    0    0 -0.76322229982E+02  0.26947790176E+02  0.25257150984E+03  0.26522374285E+03  0.00000000000E+00 0. -1.
<mgrwt>
<rscale>  0 0.17461387E+03</rscale>
<asrwt>0</asrwt>
<pdfrwt beam="1">  1        4 0.65531097E-01 0.18033023E+03</pdfrwt>
<pdfrwt beam="2">  1       -4 0.14196964E-01 0.18033023E+03</pdfrwt>
<totfact> 0.15978198E+02</totfact>
</mgrwt>
</event>
<event>
 8    1  0.9424564E-006  0.1349516E+03  0.7546771E-02  0.1234010E+00
          2   -1    0    0  501    0  0.00000000000E+00  0.00000000000E+00  0.38442030958E+03  0.38442030958E+03  0.00000000000E+00 0. -1.
         -2   -1    0    0    0  501 -0.00000000000E+00 -0.00000000000E+00 -0.36650046307E+02  0.36650046307E+02  0.00000000000E+00 0.  1.
         23    2    1    2    0    0  0.46807299409E+02  0.19902108906E+02  0.21667325882E+03  0.25526309499E+03  0.12499971743E+03 0.  0.
         23    2    1    2    0    0 -0.46807299409E+02 -0.19902108906E+02  0.13109700445E+03  0.16580726090E+03  0.87855597280E+02 0.  0.
          5    1    3    3  502    0 -0.18308719878E+02 -0.35266281747E+02  0.11861375193E+03  0.12518079724E+03  0.47000000000E+01 0.  1.
         -5    1    3    3    0  502  0.65116019287E+02  0.55168390653E+02  0.98059506896E+02  0.13008229775E+03  0.47000000000E+01 0.  1.
        -11    1    4    4    0    0  0.39611850922E+01  0.29961606292E+02  0.35257450888E+02  0.46437879819E+02  0.00000000000E+00 0. -1.
         11    1    4    4    0    0 -0.50768484501E+02 -0.49863715199E+02  0.95839553566E+02  0.11936938108E+03  0.00000000000E+00 0.  1.
<mgrwt>
<rscale>  0 0.12568051E+03</rscale>
<asrwt>0</asrwt>
<pdfrwt beam="1">  1        2 0.59141583E-01 0.13495165E+03</pdfrwt>
<pdfrwt beam="2">  1       -2 0.56384689E-02 0.13495165E+03</pdfrwt>
<totfact> 0.12824722E+04</totfact>
</mgrwt>
</event>
<event>
 8    1  0.9424564E-006  0.1270502E+03  0.7546771E-02  0.1246949E+00
          3   -1    0    0  501    0  0.00000000000E+00  0.00000000000E+00  0.13200347021E+03  0.13200347021E+03  0.00000000000E+00 0. -1.
         -3   -1    0    0    0  501 -0.00000000000E+00 -0.00000000000E+00 -0.97145779556E+02  0.97145779556E+02  0.00000000000E+00 0.  1.
         23    2    1    2    0    0  0.22447986162E+02  0.34495154898E+01 -0.56926270469E+01  0.12717763769E+03  0.12500373709E+03 0.  0.
         23    2    1    2    0    0 -0.22447986162E+02 -0.34495154898E+01  0.40550317706E+02  0.10197161208E+03  0.90763815281E+02 0.  0.
          5    1    3    3  502    0  0.16263462861E+02  0.62382951157E+02 -0.16612559379E+02  0.66739792840E+02  0.47000000000E+01 0. -1.
         -5    1    3    3    0  502  0.61845233013E+01 -0.58933435667E+02  0.10919932332E+02  0.60437844850E+02  0.47000000000E+01 0. -1.
        -11    1    4    4    0    0 -0.10616033995E+02 -0.91769666375E+01  0.69116167233E+02  0.70526317552E+02  0.00000000000E+00 0. -1.
         11    1    4    4    0    0 -0.11831952167E+02  0.57274511477E+01 -0.28565849528E+02  0.31445294528E+02  0.00000000000E+00 0.  1.
<mgrwt>
<rscale>  0 0.11769459E+03</rscale>
<asrwt>0</asrwt>
<pdfrwt beam="1">  1        3 0.20308226E-01 0.12705017E+03</pdfrwt>
<pdfrwt beam="2">  1       -3 0.14945504E-01 0.12705017E+03</pdfrwt>
<totfact> 0.18497405E+03</totfact>
</mgrwt>
</event>
<event>
 8    1  0.9424564E-006  0.1668046E+03  0.7546771E-02  0.1188210E+00
         -2   -1    0    0    0  501 -0.00000000000E+00  0.00000000000E+00  0.90227653040E+02  0.90227653040E+02  0.00000000000E+00 0. -1.
          2   -1    0    0  501    0  0.00000000000E+00 -0.00000000000E+00 -0.26938133677E+03  0.26938133677E+03  0.00000000000E+00 0.  1.
         23    2    1    2    0    0 -0.60643111106E+02  0.92310049009E+02 -0.74882275819E+02  0.18284177941E+03  0.12500011598E+03 0.  0.
         23    2    1    2    0    0  0.60643111106E+02 -0.92310049009E+02 -0.10427140791E+03  0.17676721040E+03  0.90417852725E+02 0.  0.
          5    1    3    3  502    0  0.34077724854E+02  0.13111584164E+02 -0.40197279989E+02  0.54507947027E+02  0.47000000000E+01 0.  1.
         -5    1    3    3    0  502 -0.94720835961E+02  0.79198464845E+02 -0.34684995829E+02  0.12833383239E+03  0.47000000000E+01 0.  1.
        -11    1    4    4    0    0  0.83036050409E+02 -0.85640467612E+02 -0.84874167674E+02  0.14639979405E+03  0.00000000000E+00 0. -1.
         11    1    4    4    0    0 -0.22392939303E+02 -0.66695813971E+01 -0.19397240238E+02  0.30367416345E+02  0.00000000000E+00 0.  1.
<mgrwt>
<rscale>  0 0.16043193E+03</rscale>
<asrwt>0</asrwt>
<pdfrwt beam="2">  1        2 0.41443281E-01 0.16680456E+03</pdfrwt>
<pdfrwt beam="1">  1       -2 0.13881178E-01 0.16680456E+03</pdfrwt>
<totfact> 0.46449517E+03</totfact>
</mgrwt>
</event>
<event>
 8    1  0.1109342E-005  0.2102681E+03  0.7546771E-02  0.1145153E+00
         -1   -1    0    0    0  501 -0.00000000000E+00  0.00000000000E+00  0.55624965167E+02  0.55624965167E+02  0.00000000000E+00 0.  1.
          1   -1    0    0  501    0  0.00000000000E+00 -0.00000000000E+00 -0.73764683313E+03  0.73764683313E+03  0.00000000000E+00 0. -1.
         23    2    1    2    0    0 -0.14441718977E+03 -0.87930987323E+02 -0.30898982906E+03  0.37374774162E+03  0.12499790666E+03 0.  0.
         23    2    1    2    0    0  0.14441718977E+03  0.87930987323E+02 -0.37303203890E+03  0.41952405668E+03  0.90880959799E+02 0.  0.
          5    1    3    3  502    0 -0.89659594877E+00 -0.17485774555E+02  0.71197651867E+01  0.19476582154E+02  0.47000000000E+01 0.  1.
         -5    1    3    3    0  502 -0.14352059382E+03 -0.70445212768E+02 -0.31610959425E+03  0.35427115946E+03  0.47000000000E+01 0.  1.
        -11    1    4    4    0    0  0.52282338313E+02  0.75677358476E+02 -0.24185944432E+03  0.25875953373E+03  0.00000000000E+00 0.  1.
         11    1    4    4    0    0  0.92134851453E+02  0.12253628847E+02 -0.13117259458E+03  0.16076452295E+03  0.00000000000E+00 0. -1.
<mgrwt>
<rscale>  0 0.20553275E+03</rscale>
<asrwt>0</asrwt>
<pdfrwt beam="2">  1        1 0.11348412E+00 0.21026807E+03</pdfrwt>
<pdfrwt beam="1">  1       -1 0.85576876E-02 0.21026807E+03</pdfrwt>
<totfact> 0.20144331E+03</totfact>
</mgrwt>
</event>
<event>
 8    1  0.9424564E-006  0.1458577E+03  0.7546771E-02  0.1215587E+00
          2   -1    0    0  501    0  0.00000000000E+00  0.00000000000E+00  0.64946032049E+03  0.64946032049E+03  0.00000000000E+00 0. -1.
         -2   -1    0    0    0  501 -0.00000000000E+00 -0.00000000000E+00 -0.28683138921E+02  0.28683138921E+02  0.00000000000E+00 0.  1.
         23    2    1    2    0    0 -0.28642682647E+02  0.69515375348E+02  0.25462844961E+03  0.29344525016E+03  0.12498670654E+03 0.  0.
         23    2    1    2    0    0  0.28642682647E+02 -0.69515375348E+02  0.36614873195E+03  0.38469820925E+03  0.90967178742E+02 0.  0.
          5    1    3    3  502    0  0.24157610012E+02  0.64020526072E+02  0.58317598395E+02  0.90029162845E+02  0.47000000000E+01 0. -1.
         -5    1    3    3    0  502 -0.52800292658E+02  0.54948492760E+01  0.19631085122E+03  0.20341608732E+03  0.47000000000E+01 0. -1.
        -11    1    4    4    0    0 -0.18477329168E+02 -0.40443422867E+02  0.66622068242E+02  0.80097329064E+02  0.00000000000E+00 0.  1.
         11    1    4    4    0    0  0.47120011814E+02 -0.29071952480E+02  0.29952666371E+03  0.30460088018E+03  0.00000000000E+00 0. -1.
<mgrwt>
<rscale>  0 0.13833510E+03</rscale>
<asrwt>0</asrwt>
<pdfrwt beam="1">  1        2 0.99916962E-01 0.14585770E+03</pdfrwt>
<pdfrwt beam="2">  1       -2 0.44127911E-02 0.14585770E+03</pdfrwt>
<totfact> 0.10444612E+04</totfact>
</mgrwt>
</event>
<event>
 8    1  0.9424564E-006  0.1295400E+03  0.7546771E-02  0.1241621E+00
          3   -1    0    0  501    0  0.00000000000E+00  0.00000000000E+00  0.29616114801E+02  0.29616114801E+02  0.00000000000E+00 0. -1.
         -3   -1    0    0    0  501 -0.00000000000E+00 -0.00000000000E+00 -0.99300049156E+03  0.99300049156E+03  0.00000000000E+00 0.  1.
         23    2    1    2    0    0 -0.16885058084E+02  0.29507687489E+02 -0.89146824880E+03  0.90083086716E+03  0.12499921521E+03 0.  0.
         23    2    1    2    0    0  0.16885058084E+02 -0.29507687489E+02 -0.71916127964E+02  0.12178573921E+03  0.92217286910E+02 0.  0.
          5    1    3    3  502    0 -0.46715923069E+00 -0.30800181792E+02 -0.65996220369E+02  0.72982604360E+02  0.47000000000E+01 0. -1.
         -5    1    3    3    0  502 -0.16417898853E+02  0.60307869281E+02 -0.82547202843E+03  0.82784826280E+03  0.47000000000E+01 0. -1.
        -11    1    4    4    0    0  0.18160582676E+02  0.31647917166E+02 -0.20337683067E+02  0.41773421893E+02  0.00000000000E+00 0.  1.
         11    1    4    4    0    0 -0.12755245918E+01 -0.61155604655E+02 -0.51578444897E+02  0.80012317313E+02  0.00000000000E+00 0. -1.
<mgrwt>
<rscale>  0 0.12089940E+03</rscale>
<asrwt>0</asrwt>
<pdfrwt beam="1">  1        3 0.45563252E-02 0.12954000E+03</pdfrwt>
<pdfrwt beam="2">  1       -3 0.15276931E+00 0.12954000E+03</pdfrwt>
<totfact> 0.20127907E+02</totfact>
</mgrwt>
</event>
<event>
 8    1  0.9424564E-006  0.1367107E+03  0.7546771E-02  0.1229138E+00
         -1   -1    0    0    0  501 -0.00000000000E+00  0.00000000000E+00  0.47600708040E+02  0.47600708040E+02  0.00000000000E+00 0.  1.
          1   -1    0    0  501    0  0.00000000000E+00 -0.00000000000E+00 -0.34741669068E+03  0.34741669068E+03  0.00000000000E+00 0. -1.
         23    2    1    2    0    0 -0.65292107118E+01 -0.54967825782E+02 -0.10533799964E+03  0.17258596445E+03  0.12500291394E+03 0.  0.
         23    2    1    2    0    0  0.65292107118E+01  0.54967825782E+02 -0.19447798301E+03  0.22243143427E+03  0.92682061987E+02 0.  0.
          5    1    3    3  502    0 -0.93892534188E+00 -0.93281349981E+02 -0.53262104041E+02  0.10752317686E+03  0.47000000000E+01 0.  1.
         -5    1    3    3    0  502 -0.55902853699E+01  0.38313524199E+02 -0.52075895597E+02  0.65062787592E+02  0.47000000000E+01 0.  1.
        -11    1    4    4    0    0 -0.34559145599E+02  0.29187399664E+02 -0.39548243854E+02  0.60085792295E+02  0.00000000000E+00 0.  1.
         11    1    4    4    0    0  0.41088356311E+02  0.25780426118E+02 -0.15492973915E+03  0.16234564198E+03  0.00000000000E+00 0. -1.
<mgrwt>
<rscale>  0 0.12887289E+03</rscale>
<asrwt>0</asrwt>
<pdfrwt beam="2">  1        1 0.53448723E-01 0.13671072E+03</pdfrwt>
<pdfrwt beam="1">  1       -1 0.73231856E-02 0.13671072E+03</pdfrwt>
<totfact> 0.68400432E+03</totfact>
</mgrwt>
</event>
<event>
 7    1  0.9424564E-006  0.5793271E+03  0.7546771E-02  0.1022441E+00
          2   -1    0    0  501    0  0.00000000000E+00  0.00000000000E+00  0.26134792168E+03  0.26134792168E+03  0.00000000000E+00 0. -1.
         -2   -1    0    0    0  501 -0.00000000000E+00 -0.00000000000E+00 -0.70023807666E+03  0.70023807666E+03  0.00000000000E+00 0.  1.
         23    2    1    2    0    0 -0.14543801011E+03  0.17919151060E+03 -0.22381638516E+02  0.24807413174E+03  0.88193111062E+02 0.  0.
          5    1    1    2  502    0  0.22367246949E+03  0.49265333313E+02  0.33877012131E+01  0.22910699071E+03  0.47000000000E+01 0. -1.
         -5    1    1    2    0  502 -0.78234459377E+02 -0.22845684391E+03 -0.41989621767E+03  0.48440487588E+03  0.47000000000E+01 0.  1.
        -11    1    3    3    0    0  0.94573316460E+01  0.16716796958E+02  0.93542290349E+01  0.21363380426E+02  0.00000000000E+00 0. -1.
         11    1    3    3    0    0 -0.15489534176E+03  0.16247471364E+03 -0.31735867551E+02  0.22671075131E+03  0.00000000000E+00 0.  1.
<mgrwt>
<rscale>  0 0.46816024E+03</rscale>
<asrwt>0</asrwt>
<pdfrwt beam="1">  1        2 0.40207374E-01 0.57932706E+03</pdfrwt>
<pdfrwt beam="2">  1       -2 0.10772893E+00 0.57932706E+03</pdfrwt>
<totfact> 0.90095814E+01</totfact>
</mgrwt>
</event>
<event>
 8    1  0.9424564E-006  0.3310127E+03  0.7546771E-02  0.1071928E+00
          1   -1    0    0  501    0  0.00000000000E+00  0.00000000000E+00  0.69355201533E+03  0.69355201533E+03  0.00000000000E+00 0. -1.
         -1   -1    0    0    0  501 -0.00000000000E+00 -0.00000000000E+00 -0.15954565270E+03  0.15954565270E+03  0.00000000000E+00 0.  1.
         23    2    1    2    0    0 -0.65773909650E+02  0.29937017582E+03  0.18337935795E+03  0.37841431161E+03  0.12498277059E+03 0.  0.
         23    2    1    2    0    0  0.65773909650E+02 -0.29937017582E+03  0.35062700467E+03  0.47468335642E+03  0.91849241141E+02 0.  0.
          5    1    3    3  502    0 -0.41826042406E+02  0.52800252336E+02 -0.41851676316E+01  0.67652716858E+02  0.47000000000E+01 0.  1.
         -5    1    3    3    0  502 -0.23947867243E+02  0.24656992349E+03  0.18756452558E+03  0.31076159475E+03  0.47000000000E+01 0.  1.
        -11    1    4    4    0    0  0.57711030806E+02 -0.15698524334E+03  0.24739322013E+03  0.29862741848E+03  0.00000000000E+00 0. -1.
         11    1    4    4    0    0  0.80628788438E+01 -0.14238493249E+03  0.10323378454E+03  0.17605593794E+03  0.00000000000E+00 0.  1.
<mgrwt>
<rscale>  0 0.32821847E+03</rscale>
<asrwt>0</asrwt>
<pdfrwt beam="1">  1        1 0.10670031E+00 0.33101269E+03</pdfrwt>
<pdfrwt beam="2">  1       -1 0.24545485E-01 0.33101269E+03</pdfrwt>
<totfact> 0.41109394E+02</totfact>
</mgrwt>
</event>
<event>
 8    1  0.9424564E-006  0.1405823E+03  0.7546771E-02  0.1218840E+00
         -2   -1    0    0    0  501 -0.00000000000E+00  0.00000000000E+00  0.13483045271E+02  0.13483045271E+02  0.00000000000E+00 0.  1.
          2   -1    0    0  501    0  0.00000000000E+00 -0.00000000000E+00 -0.12903748557E+04  0.12903748557E+04  0.00000000000E+00 0. -1.
         23    2    1    2    0    0 -0.79995939926E+02  0.15203725194E+02 -0.65843829662E+03  0.67327881595E+03  0.11459873422E+03 0.  0.
         23    2    1    2    0    0  0.79995939926E+02 -0.15203725194E+02 -0.61845351382E+03  0.63057908503E+03  0.92275294955E+02 0.  0.
          5    1    3    3  502    0  0.16473623060E+02 -0.22320557309E+02 -0.26261300860E+03  0.26411601583E+03  0.47000000000E+01 0. -1.
         -5    1    3    3    0  502 -0.96469562986E+02  0.37524282503E+02 -0.39582528802E+03  0.40916280011E+03  0.47000000000E+01 0.  1.
        -11    1    4    4    0    0  0.72862711727E+01 -0.43985385613E+02 -0.20443021708E+03  0.20923555517E+03  0.00000000000E+00 0. -1.
         11    1    4    4    0    0  0.72709668753E+02  0.28781660419E+02 -0.41402329674E+03  0.42134352986E+03  0.00000000000E+00 0.  1.
<mgrwt>
<rscale>  0 0.13598231E+03</rscale>
<asrwt>0</asrwt>
<pdfrwt beam="2">  1        2 0.19851920E+00 0.14058227E+03</pdfrwt>
<pdfrwt beam="1">  1       -2 0.20743147E-02 0.14058227E+03</pdfrwt>
<totfact> 0.12611904E+04</totfact>
</mgrwt>
</event>
<event>
 8    1  0.9424564E-006  0.1270552E+03  0.7546771E-02  0.1246446E+00
         -3   -1    0    0    0  501 -0.00000000000E+00  0.00000000000E+00  0.15660935819E+03  0.15660935819E+03  0.00000000000E+00 0.  1.
          3   -1    0    0  501    0  0.00000000000E+00 -0.00000000000E+00 -0.99933324379E+02  0.99933324379E+02  0.00000000000E+00 0. -1.
         23    2    1    2    0    0  0.43822557301E+01 -0.22313756433E+02  0.90695183554E+02  0.15610455267E+03  0.12500362856E+03 0.  0.
         23    2    1    2    0    0 -0.43822557301E+01  0.22313756433E+02 -0.34019149743E+02  0.10043812990E+03  0.91724628629E+02 0.  0.
          5    1    3    3  502    0  0.11812150477E+02  0.45948152190E+02  0.77128093813E+01  0.48294275200E+02  0.47000000000E+01 0.  1.
         -5    1    3    3    0  502 -0.74298947465E+01 -0.68261908623E+02  0.82982374173E+02  0.10781027747E+03  0.47000000000E+01 0.  1.
        -11    1    4    4    0    0 -0.15855648109E+02 -0.11173694168E+02 -0.55663808643E+02  0.58946692960E+02  0.00000000000E+00 0. -1.
         11    1    4    4    0    0  0.11473392379E+02  0.33487450601E+02  0.21644658899E+02  0.41491436940E+02  0.00000000000E+00 0.  1.
<mgrwt>
<rscale>  0 0.11799234E+03</rscale>
<asrwt>0</asrwt>
<pdfrwt beam="2">  1        3 0.15374358E-01 0.12705517E+03</pdfrwt>
<pdfrwt beam="1">  1       -3 0.24093747E-01 0.12705517E+03</pdfrwt>
<totfact> 0.13004509E+03</totfact>
</mgrwt>
</event>
<event>
 8    1  0.9424564E-006  0.1264872E+03  0.7546771E-02  0.1247476E+00
         -1   -1    0    0    0  501 -0.00000000000E+00  0.00000000000E+00  0.16258854588E+02  0.16258854588E+02  0.00000000000E+00 0.  1.
          1   -1    0    0  501    0  0.00000000000E+00 -0.00000000000E+00 -0.75447774480E+03  0.75447774480E+03  0.00000000000E+00 0. -1.
         23    2    1    2    0    0  0.16168535261E+02 -0.10655264886E+02 -0.38355236614E+03  0.40387054819E+03  0.12499618362E+03 0.  0.
         23    2    1    2    0    0 -0.16168535261E+02  0.10655264886E+02 -0.35466652407E+03  0.36686605120E+03  0.91800871578E+02 0.  0.
          5    1    3    3  502    0  0.32315331596E+02  0.47746093078E+02 -0.25769997383E+03  0.26411235596E+03  0.47000000000E+01 0. -1.
         -5    1    3    3    0  502 -0.16146796336E+02 -0.58401357964E+02 -0.12585239231E+03  0.13975819222E+03  0.47000000000E+01 0. -1.
        -11    1    4    4    0    0  0.35272957204E+02  0.14383045892E+02 -0.20637872431E+03  0.20986479306E+03  0.00000000000E+00 0. -1.
         11    1    4    4    0    0 -0.51441492465E+02 -0.37277810064E+01 -0.14828779977E+03  0.15700125814E+03  0.00000000000E+00 0.  1.
<mgrwt>
<rscale>  0 0.11738422E+03</rscale>
<asrwt>0</asrwt>
<pdfrwt beam="2">  1        1 0.11607349E+00 0.12648716E+03</pdfrwt>
<pdfrwt beam="1">  1       -1 0.25013625E-02 0.12648716E+03</pdfrwt>
<totfact> 0.11838551E+04</totfact>
</mgrwt>
</event>
<event>
 8    1  0.9424564E-006  0.2588899E+03  0.7546771E-02  0.1110054E+00
         -1   -1    0    0    0  501 -0.00000000000E+00  0.00000000000E+00  0.12803165057E+03  0.12803165057E+03  0.00000000000E+00 0.  1.
          1   -1    0    0  501    0  0.00000000000E+00 -0.00000000000E+00 -0.51008013561E+03  0.51008013561E+03  0.00000000000E+00 0. -1.
         23    2    1    2    0    0 -0.16916098725E+03  0.15094216180E+03 -0.14109910580E+03  0.29484390497E+03  0.12499997930E+03 0.  0.
         23    2    1    2    0    0  0.16916098725E+03 -0.15094216180E+03 -0.24094937924E+03  0.34326788122E+03  0.91527368077E+02 0.  0.
          5    1    3    3  502    0 -0.31511324232E+02  0.10736850278E+03 -0.81802754659E+02  0.13868936374E+03  0.47000000000E+01 0.  1.
         -5    1    3    3    0  502 -0.13764966301E+03  0.43573659014E+02 -0.59296351138E+02  0.15615454123E+03  0.47000000000E+01 0.  1.
        -11    1    4    4    0    0  0.59160125558E+02 -0.98771682681E+01 -0.95226830382E+02  0.11254167288E+03  0.00000000000E+00 0.  1.
         11    1    4    4    0    0  0.11000086169E+03 -0.14106499353E+03 -0.14572254886E+03  0.23072620834E+03  0.00000000000E+00 0. -1.
<mgrwt>
<rscale>  0 0.25521276E+03</rscale>
<asrwt>0</asrwt>
<pdfrwt beam="2">  1        1 0.78473867E-01 0.25888988E+03</pdfrwt>
<pdfrwt beam="1">  1       -1 0.19697177E-01 0.25888988E+03</pdfrwt>
<totfact> 0.91090459E+02</totfact>
</mgrwt>
</event>
<event>
 8    1  0.9549612E-006  0.2185647E+03  0.7546771E-02  0.1138029E+00
         -1   -1    0    0    0  501 -0.00000000000E+00  0.00000000000E+00  0.42643205812E+03  0.42643205812E+03  0.00000000000E+00 0.  1.
          1   -1    0    0  501    0  0.00000000000E+00 -0.00000000000E+00 -0.10461025327E+03  0.10461025327E+03  0.00000000000E+00 0. -1.
         23    2    1    2    0    0 -0.17902767140E+03  0.97465401348E+01  0.18505577004E+03  0.28638465283E+03  0.12499851669E+03 0.  0.
         23    2    1    2    0    0  0.17902767140E+03 -0.97465401348E+01  0.13676603481E+03  0.24465765856E+03  0.94902684061E+02 0.  0.
          5    1    3    3  502    0 -0.14771488407E+03  0.42414926305E+02  0.18543519505E+03  0.24088797088E+03  0.47000000000E+01 0. -1.
         -5    1    3    3    0  502 -0.31312787328E+02 -0.32668386170E+02 -0.37942500175E+00  0.45496681951E+02  0.47000000000E+01 0. -1.
        -11    1    4    4    0    0  0.46094877054E+02 -0.32592649499E+02  0.59624754401E+01  0.56767680994E+02  0.00000000000E+00 0. -1.
         11    1    4    4    0    0  0.13293279435E+03  0.22846109364E+02  0.13080355937E+03  0.18788997756E+03  0.00000000000E+00 0.  1.
<mgrwt>
<rscale>  0 0.21452823E+03</rscale>
<asrwt>0</asrwt>
<pdfrwt beam="2">  1        1 0.16093885E-01 0.21856471E+03</pdfrwt>
<pdfrwt beam="1">  1       -1 0.65604931E-01 0.21856471E+03</pdfrwt>
<totfact> 0.82709176E+02</totfact>
</mgrwt>
</event>
<event>
 8    1  0.9424564E-006  0.1286113E+03  0.7546771E-02  0.1242311E+00
          2   -1    0    0  501    0  0.00000000000E+00  0.00000000000E+00  0.66298879561E+02  0.66298879561E+02  0.00000000000E+00 0. -1.
         -2   -1    0    0    0  501 -0.00000000000E+00 -0.00000000000E+00 -0.19864482629E+03  0.19864482629E+03  0.00000000000E+00 0.  1.
         23    2    1    2    0    0  0.23829884800E+02 -0.18669238409E+02 -0.91385722254E+02  0.15777268671E+03  0.12499786625E+03 0.  0.
         23    2    1    2    0    0 -0.23829884800E+02  0.18669238409E+02 -0.40960224475E+02  0.10717101914E+03  0.94294663064E+02 0.  0.
          5    1    3    3  502    0  0.60081417502E+02 -0.45351984724E+02 -0.29237206764E+02  0.80891801233E+02  0.47000000000E+01 0.  1.
         -5    1    3    3    0  502 -0.36251532701E+02  0.26682746315E+02 -0.62148515491E+02  0.76880885477E+02  0.47000000000E+01 0.  1.
        -11    1    4    4    0    0  0.32304903658E+02  0.26784996113E+02 -0.21900758297E+02  0.47335885236E+02  0.00000000000E+00 0.  1.
         11    1    4    4    0    0 -0.56134788459E+02 -0.81157577037E+01 -0.19059466178E+02  0.59835133905E+02  0.00000000000E+00 0. -1.
<mgrwt>
<rscale>  0 0.12047760E+03</rscale>
<asrwt>0</asrwt>
<pdfrwt beam="1">  1        2 0.10199828E-01 0.12861132E+03</pdfrwt>
<pdfrwt beam="2">  1       -2 0.30560742E-01 0.12861132E+03</pdfrwt>
<totfact> 0.58354621E+03</totfact>
</mgrwt>
</event>
<event>
 8    1  0.9424564E-006  0.2251582E+03  0.7546771E-02  0.1133287E+00
          2   -1    0    0  501    0  0.00000000000E+00  0.00000000000E+00  0.12933275152E+04  0.12933275152E+04  0.00000000000E+00 0. -1.
         -2   -1    0    0    0  501 -0.00000000000E+00 -0.00000000000E+00 -0.36989945316E+02  0.36989945316E+02  0.00000000000E+00 0.  1.
         23    2    1    2    0    0  0.17375167308E+03  0.69851560905E+02  0.56192396244E+03  0.60535507147E+03  0.12500935377E+03 0.  0.
         23    2    1    2    0    0 -0.17375167308E+03 -0.69851560905E+02  0.69441360747E+03  0.72496238908E+03  0.91056701410E+02 0.  0.
          5    1    3    3  502    0  0.25651861842E+01  0.52078301498E+02  0.15109518382E+03  0.15990801807E+03  0.47000000000E+01 0.  1.
         -5    1    3    3    0  502  0.17118648690E+03  0.17773259407E+02  0.41082877861E+03  0.44544705340E+03  0.47000000000E+01 0.  1.
        -11    1    4    4    0    0 -0.16084056048E+02  0.60470155702E+01  0.13296692652E+02  0.21727063579E+02  0.00000000000E+00 0. -1.
         11    1    4    4    0    0 -0.15766761703E+03 -0.75898576475E+02  0.68111691482E+03  0.70323532550E+03  0.00000000000E+00 0.  1.
<mgrwt>
<rscale>  0 0.22080163E+03</rscale>
<asrwt>0</asrwt>
<pdfrwt beam="1">  1        2 0.19897343E+00 0.22515822E+03</pdfrwt>
<pdfrwt beam="2">  1       -2 0.56907618E-02 0.22515822E+03</pdfrwt>
<totfact> 0.28365495E+03</totfact>
</mgrwt>
</event>
<event>
 7    1  0.9424564E-006  0.1457166E+03  0.7546771E-02  0.1220234E+00
         -2   -1    0    0    0  501 -0.00000000000E+00  0.00000000000E+00  0.16831433701E+03  0.16831433701E+03  0.00000000000E+00 0.  1.
          2   -1    0    0  501    0  0.00000000000E+00 -0.00000000000E+00 -0.11827193118E+03  0.11827193118E+03  0.00000000000E+00 0. -1.
         23    2    1    2    0    0  0.33193740622E+02  0.33211127410E+02 -0.40867473245E+02  0.11483664184E+03  0.96501298125E+02 0.  0.
          5    1    1    2  502    0 -0.53253311717E+02 -0.15137598133E+02 -0.18809094825E+02  0.58659476082E+02  0.47000000000E+01 0. -1.
         -5    1    1    2    0  502  0.20059571095E+02 -0.18073529276E+02  0.10971897390E+03  0.11309015027E+03  0.47000000000E+01 0.  1.
        -11    1    3    3    0    0 -0.29078833905E+01 -0.32242589203E+02 -0.91967086674E+01  0.33654417164E+02  0.00000000000E+00 0.  1.
         11    1    3    3    0    0  0.36101624012E+02  0.65453716613E+02 -0.31670764577E+02  0.81182224678E+02  0.00000000000E+00 0. -1.
<mgrwt>
<rscale>  0 0.13498970E+03</rscale>
<asrwt>0</asrwt>
<pdfrwt beam="2">  1        2 0.18195682E-01 0.14571660E+03</pdfrwt>
<pdfrwt beam="1">  1       -2 0.25894513E-01 0.14571660E+03</pdfrwt>
<totfact> 0.39808461E+03</totfact>
</mgrwt>
</event>
<event>
 8    1  0.9424564E-006  0.1370815E+03  0.7546771E-02  0.1228899E+00
          1   -1    0    0  501    0  0.00000000000E+00  0.00000000000E+00  0.28186514216E+03  0.28186514216E+03  0.00000000000E+00 0. -1.
         -1   -1    0    0    0  501 -0.00000000000E+00 -0.00000000000E+00 -0.82718072151E+02  0.82718072151E+02  0.00000000000E+00 0.  1.
         23    2    1    2    0    0  0.48681495245E+02 -0.28140163780E+02 -0.12879903307E+01  0.13708757869E+03  0.12501835271E+03 0.  0.
         23    2    1    2    0    0 -0.48681495245E+02  0.28140163780E+02  0.20043506034E+03  0.22749563563E+03  0.91751261672E+02 0.  0.
          5    1    3    3  502    0  0.90002357371E+02 -0.27951324732E+02 -0.90097304998E+01  0.94789061238E+02  0.47000000000E+01 0. -1.
         -5    1    3    3    0  502 -0.41320862127E+02 -0.18883904870E+00  0.77217401691E+01  0.42298517448E+02  0.47000000000E+01 0. -1.
        -11    1    4    4    0    0  0.23648424792E+02 -0.86015173822E+01  0.63907440789E+02  0.68683295528E+02  0.00000000000E+00 0. -1.
         11    1    4    4    0    0 -0.72329920036E+02  0.36741681162E+02  0.13652761956E+03  0.15881234010E+03  0.00000000000E+00 0.  1.
<mgrwt>
<rscale>  0 0.12903217E+03</rscale>
<asrwt>0</asrwt>
<pdfrwt beam="1">  1        1 0.43363868E-01 0.13708153E+03</pdfrwt>
<pdfrwt beam="2">  1       -1 0.12725857E-01 0.13708153E+03</pdfrwt>
<totfact> 0.38192232E+03</totfact>
</mgrwt>
</event>
<event>
 8    1  0.9424564E-006  0.1279042E+03  0.7546771E-02  0.1245024E+00
          2   -1    0    0  501    0  0.00000000000E+00  0.00000000000E+00  0.22463750295E+03  0.22463750295E+03  0.00000000000E+00 0. -1.
         -2   -1    0    0    0  501 -0.00000000000E+00 -0.00000000000E+00 -0.55977099914E+02  0.55977099914E+02  0.00000000000E+00 0.  1.
         23    2    1    2    0    0 -0.26937684281E+02 -0.31152127807E+01  0.83126275783E+02  0.15254327186E+03  0.12499651467E+03 0.  0.
         23    2    1    2    0    0  0.26937684281E+02  0.31152127807E+01  0.85534127249E+02  0.12807133100E+03  0.91382906025E+02 0.  0.
          5    1    3    3  502    0 -0.35098938304E+02 -0.31911475228E+02  0.10490694626E+03  0.11522948883E+03  0.47000000000E+01 0. -1.
         -5    1    3    3    0  502  0.81612540228E+01  0.28796262447E+02 -0.21780670478E+02  0.37313783038E+02  0.47000000000E+01 0. -1.
        -11    1    4    4    0    0  0.20512607110E+02  0.43043893343E+02  0.70109679052E+02  0.84787445423E+02  0.00000000000E+00 0. -1.
         11    1    4    4    0    0  0.64250771716E+01 -0.39928680562E+02  0.15424448197E+02  0.43283885573E+02  0.00000000000E+00 0.  1.
<mgrwt>
<rscale>  0 0.11883959E+03</rscale>
<asrwt>0</asrwt>
<pdfrwt beam="1">  1        2 0.34559615E-01 0.12790415E+03</pdfrwt>
<pdfrwt beam="2">  1       -2 0.86118617E-02 0.12790415E+03</pdfrwt>
<totfact> 0.11819559E+04</totfact>
</mgrwt>
</event>
<event>
 8    1  0.9424564E-006  0.1300879E+03  0.7546771E-02  0.1241133E+00
         -3   -1    0    0    0  501 -0.00000000000E+00  0.00000000000E+00  0.19202246995E+03  0.19202246995E+03  0.00000000000E+00 0.  1.
          3   -1    0    0  501    0  0.00000000000E+00 -0.00000000000E+00 -0.68918833796E+02  0.68918833796E+02  0.00000000000E+00 0. -1.
         23    2    1    2    0    0  0.35910325209E+02  0.27228527265E+01  0.86967320676E+02  0.15648060758E+03  0.12500360115E+03 0.  0.
         23    2    1    2    0    0 -0.35910325209E+02 -0.27228527265E+01  0.36136315473E+02  0.10446069616E+03  0.91155023793E+02 0.  0.
          5    1    3    3  502    0 -0.33361969139E+02 -0.13443109561E+02  0.76186489232E+02  0.84381332775E+02  0.47000000000E+01 0.  1.
         -5    1    3    3    0  502  0.69272294348E+02  0.16165962288E+02  0.10780831445E+02  0.72099274806E+02  0.47000000000E+01 0.  1.
        -11    1    4    4    0    0 -0.18073822430E+02 -0.88434202857E+01  0.66079060518E+02  0.69074679721E+02  0.00000000000E+00 0.  1.
         11    1    4    4    0    0 -0.17836502779E+02  0.61205675592E+01 -0.29942745045E+02  0.35386016439E+02  0.00000000000E+00 0. -1.
<mgrwt>
<rscale>  0 0.12119835E+03</rscale>
<asrwt>0</asrwt>
<pdfrwt beam="2">  1        3 0.10602898E-01 0.13008792E+03</pdfrwt>
<pdfrwt beam="1">  1       -3 0.29541918E-01 0.13008792E+03</pdfrwt>
<totfact> 0.16847587E+03</totfact>
</mgrwt>
</event>
<event>
 8    1  0.9424564E-006  0.1272099E+03  0.7546771E-02  0.1243075E+00
         -1   -1    0    0    0  501 -0.00000000000E+00  0.00000000000E+00  0.34251698384E+03  0.34251698384E+03  0.00000000000E+00 0.  1.
          1   -1    0    0  501    0  0.00000000000E+00 -0.00000000000E+00 -0.44536082291E+02  0.44536082291E+02  0.00000000000E+00 0. -1.
         23    2    1    2    0    0  0.19321328400E+02 -0.13615312935E+02  0.23776977714E+03  0.26966057811E+03  0.12499467983E+03 0.  0.
         23    2    1    2    0    0 -0.19321328400E+02  0.13615312935E+02  0.60211124411E+02  0.11739248803E+03  0.97963902868E+02 0.  0.
          5    1    3    3  502    0  0.41550969842E+02  0.15939860965E+02  0.22626249039E+03  0.23064554368E+03  0.47000000000E+01 0.  1.
         -5    1    3    3    0  502 -0.22229641443E+02 -0.29555173900E+02  0.11507286753E+02  0.39015034427E+02  0.47000000000E+01 0.  1.
        -11    1    4    4    0    0 -0.45867483757E+02  0.26836805783E+01 -0.49260766371E+01  0.46209246247E+02  0.00000000000E+00 0. -1.
         11    1    4    4    0    0  0.26546155357E+02  0.10931632356E+02  0.65137201048E+02  0.71183241782E+02  0.00000000000E+00 0.  1.
<mgrwt>
<rscale>  0 0.12001319E+03</rscale>
<asrwt>0</asrwt>
<pdfrwt beam="2">  1        1 0.68517052E-02 0.12720991E+03</pdfrwt>
<pdfrwt beam="1">  1       -1 0.52694919E-01 0.12720991E+03</pdfrwt>
<totfact> 0.38265526E+03</totfact>
</mgrwt>
</event>
<event>
 8    1  0.9424564E-006  0.1561275E+03  0.7546771E-02  0.1201921E+00
          2   -1    0    0  501    0  0.00000000000E+00  0.00000000000E+00  0.39409150720E+03  0.39409150720E+03  0.00000000000E+00 0. -1.
         -2   -1    0    0    0  501 -0.00000000000E+00 -0.00000000000E+00 -0.59196457477E+02  0.59196457477E+02  0.00000000000E+00 0.  1.
         23    2    1    2    0    0  0.22659157543E+02 -0.90761166668E+02  0.10018935919E+03  0.18550927376E+03  0.12499902464E+03 0.  0.
         23    2    1    2    0    0 -0.22659157543E+02  0.90761166668E+02  0.23470569054E+03  0.26777869092E+03  0.88699714459E+02 0.  0.
          5    1    3    3  502    0 -0.31529188633E+02  0.20989899546E+01  0.64758193717E+02  0.72209481014E+02  0.47000000000E+01 0.  1.
         -5    1    3    3    0  502  0.54188346176E+02 -0.92860156622E+02  0.35431165469E+02  0.11329979274E+03  0.47000000000E+01 0.  1.
        -11    1    4    4    0    0  0.52813730408E+01  0.14507782490E+02 -0.37374257989E+01  0.15885118998E+02  0.00000000000E+00 0.  1.
         11    1    4    4    0    0 -0.27940530583E+02  0.76253384178E+02  0.23844311634E+03  0.25189357192E+03  0.00000000000E+00 0. -1.
<mgrwt>
<rscale>  0 0.14882777E+03</rscale>
<asrwt>0</asrwt>
<pdfrwt beam="1">  1        2 0.60629461E-01 0.15612746E+03</pdfrwt>
<pdfrwt beam="2">  1       -2 0.91071476E-02 0.15612746E+03</pdfrwt>
<totfact> 0.60382301E+03</totfact>
</mgrwt>
</event>
<event>
 8    1  0.9424564E-006  0.1282459E+03  0.7546771E-02  0.1243861E+00
         -2   -1    0    0    0  501 -0.00000000000E+00  0.00000000000E+00  0.14764546392E+02  0.14764546392E+02  0.00000000000E+00 0.  1.
          2   -1    0    0  501    0  0.00000000000E+00 -0.00000000000E+00 -0.86207782395E+03  0.86207782395E+03  0.00000000000E+00 0. -1.
         23    2    1    2    0    0 -0.27258113450E+02  0.89434577572E+01 -0.51385898760E+03  0.52962069689E+03  0.12499613293E+03 0.  0.
         23    2    1    2    0    0  0.27258113450E+02 -0.89434577572E+01 -0.33345428996E+03  0.34722167346E+03  0.92456134687E+02 0.  0.
          5    1    3    3  502    0 -0.10350596862E+02 -0.54902971884E+02 -0.15797953726E+03  0.16763381333E+03  0.47000000000E+01 0.  1.
         -5    1    3    3    0  502 -0.16907516588E+02  0.63846429641E+02 -0.35587945034E+03  0.36198688356E+03  0.47000000000E+01 0.  1.
        -11    1    4    4    0    0  0.31100266033E+02 -0.42738421685E+02 -0.27099781269E+03  0.27610435295E+03  0.00000000000E+00 0.  1.
         11    1    4    4    0    0 -0.38421525832E+01  0.33794963928E+02 -0.62456477273E+02  0.71117320511E+02  0.00000000000E+00 0. -1.
<mgrwt>
<rscale>  0 0.11953820E+03</rscale>
<asrwt>0</asrwt>
<pdfrwt beam="2">  1        2 0.13262735E+00 0.12824595E+03</pdfrwt>
<pdfrwt beam="1">  1       -2 0.22714687E-02 0.12824595E+03</pdfrwt>
<totfact> 0.19510990E+04</totfact>
</mgrwt>
</event>
<event>
 8    1  0.9424564E-006  0.1523817E+03  0.7546771E-02  0.1206236E+00
         -1   -1    0    0    0  501 -0.00000000000E+00  0.00000000000E+00  0.28912488172E+03  0.28912488172E+03  0.00000000000E+00 0.  1.
          1   -1    0    0  501    0  0.00000000000E+00 -0.00000000000E+00 -0.70533575999E+02  0.70533575999E+02  0.00000000000E+00 0. -1.
         23    2    1    2    0    0  0.72572883011E+02  0.48266456046E+02  0.15812877508E+03  0.21960166844E+03  0.12499483649E+03 0.  0.
         23    2    1    2    0    0 -0.72572883011E+02 -0.48266456046E+02  0.60462530640E+02  0.14005678927E+03  0.91453334995E+02 0.  0.
          5    1    3    3  502    0  0.11796125990E+02 -0.40802229948E+02  0.60477875247E+02  0.74051562789E+02  0.47000000000E+01 0.  1.
         -5    1    3    3    0  502  0.60776757021E+02  0.89068685995E+02  0.97650899830E+02  0.14555010566E+03  0.47000000000E+01 0.  1.
        -11    1    4    4    0    0  0.99134245531E+01 -0.95649031448E+01  0.45729252876E+02  0.47759061205E+02  0.00000000000E+00 0.  1.
         11    1    4    4    0    0 -0.82486307564E+02 -0.38701552902E+02  0.14733277764E+02  0.92297728066E+02  0.00000000000E+00 0. -1.
<mgrwt>
<rscale>  0 0.14540501E+03</rscale>
<asrwt>0</asrwt>
<pdfrwt beam="2">  1        1 0.10851320E-01 0.15238170E+03</pdfrwt>
<pdfrwt beam="1">  1       -1 0.44480750E-01 0.15238170E+03</pdfrwt>
<totfact> 0.28434129E+03</totfact>
</mgrwt>
</event>
<event>
 8    1  0.9424564E-006  0.1257845E+03  0.7546771E-02  0.1249415E+00
         -1   -1    0    0    0  501 -0.00000000000E+00  0.00000000000E+00  0.40901129302E+02  0.40901129302E+02  0.00000000000E+00 0.  1.
          1   -1    0    0  501    0  0.00000000000E+00 -0.00000000000E+00 -0.29634631189E+03  0.29634631189E+03  0.00000000000E+00 0. -1.
         23    2    1    2    0    0  0.10128494449E+02  0.97290724711E+01 -0.12150736100E+03  0.17488788345E+03  0.12499796699E+03 0.  0.
         23    2    1    2    0    0 -0.10128494449E+02 -0.97290724711E+01 -0.13393782159E+03  0.16235955774E+03  0.90686518762E+02 0.  0.
          5    1    3    3  502    0 -0.60480490689E+01  0.49921306852E+02 -0.53061630660E+01  0.50783473117E+02  0.47000000000E+01 0.  1.
         -5    1    3    3    0  502  0.16176543518E+02 -0.40192234381E+02 -0.11620119793E+03  0.12410441034E+03  0.47000000000E+01 0.  1.
        -11    1    4    4    0    0 -0.84003315733E+01  0.38276166273E+02 -0.35719484008E+02  0.53023692939E+02  0.00000000000E+00 0.  1.
         11    1    4    4    0    0 -0.17281628762E+01 -0.48005238744E+02 -0.98218337582E+02  0.10933586480E+03  0.00000000000E+00 0. -1.
<mgrwt>
<rscale>  0 0.11624990E+03</rscale>
<asrwt>0</asrwt>
<pdfrwt beam="2">  1        1 0.45591741E-01 0.12578447E+03</pdfrwt>
<pdfrwt beam="1">  1       -1 0.62924813E-02 0.12578447E+03</pdfrwt>
<totfact> 0.10390849E+04</totfact>
</mgrwt>
</event>
<event>
 8    1  0.9424564E-006  0.1513283E+03  0.7546771E-02  0.1207473E+00
         -2   -1    0    0    0  501 -0.00000000000E+00  0.00000000000E+00  0.40353574919E+03  0.40353574919E+03  0.00000000000E+00 0.  1.
          2   -1    0    0  501    0  0.00000000000E+00 -0.00000000000E+00 -0.57905886363E+02  0.57905886363E+02  0.00000000000E+00 0. -1.
         23    2    1    2    0    0 -0.82184195354E+02  0.22806801982E+02  0.28337726852E+03  0.32125211015E+03  0.12500339907E+03 0.  0.
         23    2    1    2    0    0  0.82184195354E+02 -0.22806801982E+02  0.62252594301E+02  0.14018952540E+03  0.92213477060E+02 0.  0.
          5    1    3    3  502    0 -0.65783751611E+02  0.61844912423E+02  0.10836434182E+03  0.14112836620E+03  0.47000000000E+01 0. -1.
         -5    1    3    3    0  502 -0.16400443743E+02 -0.39038110441E+02  0.17501292671E+03  0.18012374396E+03  0.47000000000E+01 0. -1.
        -11    1    4    4    0    0  0.40397024226E+02 -0.10214207912E+01  0.80165712995E+02  0.89774742588E+02  0.00000000000E+00 0.  1.
         11    1    4    4    0    0  0.41787171127E+02 -0.21785381190E+02 -0.17913118694E+02  0.50414782810E+02  0.00000000000E+00 0. -1.
<mgrwt>
<rscale>  0 0.14444268E+03</rscale>
<asrwt>0</asrwt>
<pdfrwt beam="2">  1        2 0.89085982E-02 0.15132826E+03</pdfrwt>
<pdfrwt beam="1">  1       -2 0.62082421E-01 0.15132826E+03</pdfrwt>
<totfact> 0.17751042E+03</totfact>
</mgrwt>
</event>
<event>
 7    1  0.9424564E-006  0.3114211E+03  0.7546771E-02  0.1127026E+00
         -1   -1    0    0    0  501 -0.00000000000E+00  0.00000000000E+00  0.23491689406E+03  0.23491689406E+03  0.00000000000E+00 0.  1.
          1   -1    0    0  501    0  0.00000000000E+00 -0.00000000000E+00 -0.35730533898E+03  0.35730533898E+03  0.00000000000E+00 0. -1.
         23    2    1    2    0    0 -0.14734260629E+02  0.96967526264E+01 -0.24184760983E+03  0.25867528182E+03  0.90063919487E+02 0.  0.
          5    1    1    2  502    0 -0.63465712730E+00  0.10860985241E+03 -0.55243262309E+02  0.12194429409E+03  0.47000000000E+01 0. -1.
         -5    1    1    2    0  502  0.15368917757E+02 -0.11830660503E+03  0.17470242722E+03  0.21160265713E+03  0.47000000000E+01 0.  1.
        -11    1    3    3    0    0 -0.32891616709E+02 -0.24584036007E+02 -0.18724816346E+03  0.19169796033E+03  0.00000000000E+00 0. -1.
         11    1    3    3    0    0  0.18157356080E+02  0.34280788634E+02 -0.54599446376E+02  0.66977321488E+02  0.00000000000E+00 0.  1.
<mgrwt>
<rscale>  0 0.22945207E+03</rscale>
<asrwt>0</asrwt>
<pdfrwt beam="2">  1        1 0.54970052E-01 0.31142106E+03</pdfrwt>
<pdfrwt beam="1">  1       -1 0.36141061E-01 0.31142106E+03</pdfrwt>
<totfact> 0.51992387E+02</totfact>
</mgrwt>
</event>
<event>
 7    1  0.9424564E-006  0.1651271E+03  0.7546771E-02  0.1197098E+00
          2   -1    0    0  501    0  0.00000000000E+00  0.00000000000E+00  0.40882574193E+03  0.40882574193E+03  0.00000000000E+00 0. -1.
         -2   -1    0    0    0  501 -0.00000000000E+00 -0.00000000000E+00 -0.15533085835E+03  0.15533085835E+03  0.00000000000E+00 0.  1.
         23    2    1    2    0    0 -0.69959688526E+02  0.38478631957E+02  0.35176797199E+03  0.37199891774E+03  0.90925934390E+02 0.  0.
          5    1    1    2  502    0  0.97952455984E+02  0.19466034208E+02 -0.51488605005E+02  0.11245788797E+03  0.47000000000E+01 0. -1.
         -5    1    1    2    0  502 -0.27992767458E+02 -0.57944666165E+02 -0.46784483405E+02  0.79699794570E+02  0.47000000000E+01 0.  1.
        -11    1    3    3    0    0 -0.30933755728E+02 -0.13549193321E+02  0.35050045758E+02  0.48672205526E+02  0.00000000000E+00 0.  1.
         11    1    3    3    0    0 -0.39025932798E+02  0.52027825278E+02  0.31671792623E+03  0.32332671221E+03  0.00000000000E+00 0. -1.
<mgrwt>
<rscale>  0 0.15277972E+03</rscale>
<asrwt>0</asrwt>
<pdfrwt beam="1">  1        2 0.62896267E-01 0.16512715E+03</pdfrwt>
<pdfrwt beam="2">  1       -2 0.23897055E-01 0.16512715E+03</pdfrwt>
<totfact> 0.11924770E+03</totfact>
</mgrwt>
</event>
<event>
 8    1  0.9424564E-006  0.1284430E+03  0.7546771E-02  0.1243902E+00
          2   -1    0    0  501    0  0.00000000000E+00  0.00000000000E+00  0.93542674002E+03  0.93542674002E+03  0.00000000000E+00 0. -1.
         -2   -1    0    0    0  501 -0.00000000000E+00 -0.00000000000E+00 -0.13533787275E+02  0.13533787275E+02  0.00000000000E+00 0.  1.
         23    2    1    2    0    0  0.29058939145E+02 -0.53409278731E+01  0.50209815906E+03  0.51826648987E+03  0.12499858292E+03 0.  0.
         23    2    1    2    0    0 -0.29058939145E+02  0.53409278731E+01  0.41979479368E+03  0.43069403743E+03  0.91633714418E+02 0.  0.
          5    1    3    3  502    0 -0.90200946489E+01  0.15685469335E+02  0.51429648039E+01  0.19389072766E+02  0.47000000000E+01 0.  1.
         -5    1    3    3    0  502  0.38079033794E+02 -0.21026397208E+02  0.49695519426E+03  0.49887741710E+03  0.47000000000E+01 0.  1.
        -11    1    4    4    0    0 -0.33319814584E+02 -0.38745911444E+02  0.25365844327E+03  0.25875482902E+03  0.00000000000E+00 0. -1.
         11    1    4    4    0    0  0.42608754395E+01  0.44086839317E+02  0.16613635041E+03  0.17193920841E+03  0.00000000000E+00 0.  1.
<mgrwt>
<rscale>  0 0.11951319E+03</rscale>
<asrwt>0</asrwt>
<pdfrwt beam="1">  1        2 0.14391176E+00 0.12844296E+03</pdfrwt>
<pdfrwt beam="2">  1       -2 0.20821218E-02 0.12844296E+03</pdfrwt>
<totfact> 0.19910037E+04</totfact>
</mgrwt>
</event>
<event>
 8    1  0.9424564E-006  0.1884168E+03  0.7546771E-02  0.1164553E+00
         -1   -1    0    0    0  501 -0.00000000000E+00  0.00000000000E+00  0.20886008220E+02  0.20886008220E+02  0.00000000000E+00 0.  1.
          1   -1    0    0  501    0  0.00000000000E+00 -0.00000000000E+00 -0.15312837947E+04  0.15312837947E+04  0.00000000000E+00 0. -1.
         23    2    1    2    0    0  0.76643985444E+02 -0.11831129849E+03 -0.77577430816E+03  0.79832740832E+03  0.12501603821E+03 0.  0.
         23    2    1    2    0    0 -0.76643985444E+02  0.11831129849E+03 -0.73462347828E+03  0.75384239457E+03  0.93460350664E+02 0.  0.
          5    1    3    3  502    0 -0.79740439221E+00 -0.53799102981E+02 -0.88449884394E+02  0.10363614902E+03  0.47000000000E+01 0. -1.
         -5    1    3    3    0  502  0.77441389836E+02 -0.64512195513E+02 -0.68732442377E+03  0.69469125929E+03  0.47000000000E+01 0. -1.
        -11    1    4    4    0    0 -0.53745692518E+02  0.12360781968E+03 -0.69349588433E+03  0.70647295357E+03  0.00000000000E+00 0. -1.
         11    1    4    4    0    0 -0.22898292927E+02 -0.52965211846E+01 -0.41127593955E+02  0.47369440994E+02  0.00000000000E+00 0.  1.
<mgrwt>
<rscale>  0 0.18339949E+03</rscale>
<asrwt>0</asrwt>
<pdfrwt beam="2">  1        1 0.23558224E+00 0.18841676E+03</pdfrwt>
<pdfrwt beam="1">  1       -1 0.32132304E-02 0.18841676E+03</pdfrwt>
<totfact> 0.23222022E+03</totfact>
</mgrwt>
</event>
<event>
 8    1  0.9424564E-006  0.1373834E+03  0.7546771E-02  0.1227094E+00
          1   -1    0    0  501    0  0.00000000000E+00  0.00000000000E+00  0.42666505938E+03  0.42666505938E+03  0.00000000000E+00 0. -1.
         -1   -1    0    0    0  501 -0.00000000000E+00 -0.00000000000E+00 -0.42750068724E+02  0.42750068724E+02  0.00000000000E+00 0.  1.
         23    2    1    2    0    0 -0.19365581869E+02 -0.53579840958E+02  0.11738007574E+03  0.18069941087E+03  0.12501347843E+03 0.  0.
         23    2    1    2    0    0  0.19365581869E+02  0.53579840958E+02  0.26653491492E+03  0.28871571724E+03  0.95236964419E+02 0.  0.
          5    1    3    3  502    0  0.22751198852E+02 -0.26672491819E+02  0.12501566317E+03  0.12992322697E+03  0.47000000000E+01 0.  1.
         -5    1    3    3    0  502 -0.42116780722E+02 -0.26907349139E+02 -0.76355874263E+01  0.50776183899E+02  0.47000000000E+01 0.  1.
        -11    1    4    4    0    0  0.88871626950E+01 -0.14292818777E+02  0.39356266423E+01  0.17284544727E+02  0.00000000000E+00 0.  1.
         11    1    4    4    0    0  0.10478419174E+02  0.67872659734E+02  0.26259928828E+03  0.27143117251E+03  0.00000000000E+00 0. -1.
<mgrwt>
<rscale>  0 0.13024437E+03</rscale>
<asrwt>0</asrwt>
<pdfrwt beam="1">  1        1 0.65640775E-01 0.13738339E+03</pdfrwt>
<pdfrwt beam="2">  1       -1 0.65769339E-02 0.13738339E+03</pdfrwt>
<totfact> 0.62080886E+03</totfact>
</mgrwt>
</event>
<event>
 8    1  0.9424564E-006  0.1490925E+03  0.7546771E-02  0.1213087E+00
          1   -1    0    0  501    0  0.00000000000E+00  0.00000000000E+00  0.45799839474E+03  0.45799839474E+03  0.00000000000E+00 0. -1.
         -1   -1    0    0    0  501 -0.00000000000E+00 -0.00000000000E+00 -0.90790601286E+02  0.90790601286E+02  0.00000000000E+00 0.  1.
         23    2    1    2    0    0 -0.80864329170E+02  0.80205420305E+01 -0.14403547252E+02  0.14978664799E+03  0.12500083566E+03 0.  0.
         23    2    1    2    0    0  0.80864329170E+02 -0.80205420305E+01  0.38161134070E+03  0.39900234803E+03  0.83500236856E+02 0.  0.
          5    1    3    3  502    0 -0.70958865145E+02 -0.10654254297E+02  0.46172851876E+02  0.85455812720E+02  0.47000000000E+01 0.  1.
         -5    1    3    3    0  502 -0.99054640250E+01  0.18674796328E+02 -0.60576399128E+02  0.64330835272E+02  0.47000000000E+01 0.  1.
        -11    1    4    4    0    0  0.63667201807E+02  0.66265039799E+01  0.36597125847E+03  0.37152709883E+03  0.00000000000E+00 0. -1.
         11    1    4    4    0    0  0.17197127363E+02 -0.14647046010E+02  0.15640082237E+02  0.27475249202E+02  0.00000000000E+00 0.  1.
<mgrwt>
<rscale>  0 0.14018030E+03</rscale>
<asrwt>0</asrwt>
<pdfrwt beam="1">  1        1 0.70461290E-01 0.14909251E+03</pdfrwt>
<pdfrwt beam="2">  1       -1 0.13967785E-01 0.14909251E+03</pdfrwt>
<totfact> 0.18024804E+03</totfact>
</mgrwt>
</event>
<event>
 8    1  0.1245575E-005  0.4305227E+03  0.7546771E-02  0.1034371E+00
         -2   -1    0    0    0  501 -0.00000000000E+00  0.00000000000E+00  0.70078717819E+03  0.70078717819E+03  0.00000000000E+00 0.  1.
          2   -1    0    0  501    0  0.00000000000E+00 -0.00000000000E+00 -0.28884937381E+03  0.28884937381E+03  0.00000000000E+00 0. -1.
         23    2    1    2    0    0  0.93977228167E+02 -0.40111501005E+03  0.36605454389E+03  0.56510680033E+03  0.12499918390E+03 0.  0.
         23    2    1    2    0    0 -0.93977228167E+02  0.40111501005E+03  0.45883260479E+02  0.42452975167E+03  0.91625682845E+02 0.  0.
          5    1    3    3  502    0  0.11566678665E+03 -0.22518032737E+03  0.21520832307E+03  0.33229760410E+03  0.47000000000E+01 0.  1.
         -5    1    3    3    0  502 -0.21689558479E+02 -0.17593468268E+03  0.15084622082E+03  0.23280919624E+03  0.47000000000E+01 0.  1.
        -11    1    4    4    0    0 -0.12254541326E+02  0.19396730226E+03  0.53934694928E+02  0.20169888310E+03  0.00000000000E+00 0.  1.
         11    1    4    4    0    0 -0.81722686841E+02  0.20714770779E+03 -0.80514344484E+01  0.22283086857E+03  0.00000000000E+00 0. -1.
<mgrwt>
<rscale>  0 0.42838689E+03</rscale>
<asrwt>0</asrwt>
<pdfrwt beam="2">  1        2 0.44438365E-01 0.43052267E+03</pdfrwt>
<pdfrwt beam="1">  1       -2 0.10781341E+00 0.43052267E+03</pdfrwt>
<totfact> 0.81336614E+01</totfact>
</mgrwt>
</event>
<event>
 8    1  0.9424564E-006  0.1776707E+03  0.7546771E-02  0.1176312E+00
          2   -1    0    0  501    0  0.00000000000E+00  0.00000000000E+00  0.39016465855E+03  0.39016465855E+03  0.00000000000E+00 0. -1.
         -2   -1    0    0    0  501 -0.00000000000E+00 -0.00000000000E+00 -0.10007224883E+03  0.10007224883E+03  0.00000000000E+00 0.  1.
         23    2    1    2    0    0  0.11381518181E+03  0.54643583887E+02  0.19412982610E+02  0.17872811333E+03  0.12500823065E+03 0.  0.
         23    2    1    2    0    0 -0.11381518181E+03 -0.54643583887E+02  0.27067942711E+03  0.31150879405E+03  0.88490449407E+02 0.  0.
          5    1    3    3  502    0  0.13769811518E+03  0.63540958672E+02  0.15417881350E+02  0.15250582093E+03  0.47000000000E+01 0.  1.
         -5    1    3    3    0  502 -0.23882933372E+02 -0.88973747853E+01  0.39951012594E+01  0.26222292398E+02  0.47000000000E+01 0.  1.
        -11    1    4    4    0    0 -0.40859525055E+02 -0.52964766341E+01  0.18168557173E+03  0.18629868606E+03  0.00000000000E+00 0.  1.
         11    1    4    4    0    0 -0.72955656750E+02 -0.49347107253E+02  0.88993855383E+02  0.12521010799E+03  0.00000000000E+00 0. -1.
<mgrwt>
<rscale>  0 0.17148114E+03</rscale>
<asrwt>0</asrwt>
<pdfrwt beam="1">  1        2 0.60025331E-01 0.17767069E+03</pdfrwt>
<pdfrwt beam="2">  1       -2 0.15395731E-01 0.17767069E+03</pdfrwt>
<totfact> 0.26446387E+03</totfact>
</mgrwt>
</event>
<event>
 8    1  0.9424564E-006  0.1251055E+03  0.7546771E-02  0.1249136E+00
          3   -1    0    0  501    0  0.00000000000E+00  0.00000000000E+00  0.57021069566E+02  0.57021069566E+02  0.00000000000E+00 0. -1.
         -3   -1    0    0    0  501 -0.00000000000E+00 -0.00000000000E+00 -0.21026735262E+03  0.21026735262E+03  0.00000000000E+00 0.  1.
         23    2    1    2    0    0 -0.29640037487E+01 -0.43308067306E+01 -0.83613339847E+02  0.15047454018E+03  0.12499542166E+03 0.  0.
         23    2    1    2    0    0  0.29640037487E+01  0.43308067306E+01 -0.69632943207E+02  0.11681388201E+03  0.93643980293E+02 0.  0.
          5    1    3    3  502    0  0.37667578716E+01  0.25495331445E+02 -0.10796922354E+03  0.11110195148E+03  0.47000000000E+01 0.  1.
         -5    1    3    3    0  502 -0.67307616203E+01 -0.29826138176E+02  0.24355883694E+02  0.39372588700E+02  0.47000000000E+01 0.  1.
        -11    1    4    4    0    0  0.11689196365E+02 -0.23442592011E+02 -0.81326712656E+02  0.85441363656E+02  0.00000000000E+00 0.  1.
         11    1    4    4    0    0 -0.87251926167E+01  0.27773398742E+02  0.11693769449E+02  0.31372518353E+02  0.00000000000E+00 0. -1.
<mgrwt>
<rscale>  0 0.11641196E+03</rscale>
<asrwt>0</asrwt>
<pdfrwt beam="1">  1        3 0.87724722E-02 0.12510554E+03</pdfrwt>
<pdfrwt beam="2">  1       -3 0.32348824E-01 0.12510554E+03</pdfrwt>
<totfact> 0.19315226E+03</totfact>
</mgrwt>
</event>
<event>
 8    1  0.9424564E-006  0.1253186E+03  0.7546771E-02  0.1250141E+00
          1   -1    0    0  501    0  0.00000000000E+00  0.00000000000E+00  0.24526917670E+03  0.24526917670E+03  0.00000000000E+00 0. -1.
         -1   -1    0    0    0  501 -0.00000000000E+00 -0.00000000000E+00 -0.60990394303E+02  0.60990394303E+02  0.00000000000E+00 0.  1.
         23    2    1    2    0    0 -0.87418654051E+01  0.52494132820E+00  0.33179630776E+02  0.12963656481E+03  0.12501222046E+03 0.  0.
         23    2    1    2    0    0  0.87418654051E+01 -0.52494132820E+00  0.15109915162E+03  0.17662300619E+03  0.91038656189E+02 0.  0.
          5    1    3    3  502    0  0.91577339249E+01  0.61087157263E+02  0.14697856919E+02  0.63668060055E+02  0.47000000000E+01 0. -1.
         -5    1    3    3    0  502 -0.17899599330E+02 -0.60562215935E+02  0.18481773856E+02  0.65968504758E+02  0.47000000000E+01 0. -1.
        -11    1    4    4    0    0 -0.28066974887E+02  0.17833359635E+02  0.12144451119E+03  0.12591486447E+03  0.00000000000E+00 0. -1.
         11    1    4    4    0    0  0.36808840292E+02 -0.18358300963E+02  0.29654640426E+02  0.50708141720E+02  0.00000000000E+00 0.  1.
<mgrwt>
<rscale>  0 0.11582923E+03</rscale>
<asrwt>0</asrwt>
<pdfrwt beam="1">  1        1 0.37733719E-01 0.12531860E+03</pdfrwt>
<pdfrwt beam="2">  1       -1 0.93831377E-02 0.12531860E+03</pdfrwt>
<totfact> 0.71949264E+03</totfact>
</mgrwt>
</event>
<event>
 8    1  0.9424564E-006  0.1381192E+03  0.7546771E-02  0.1228759E+00
         -4   -1    0    0    0  501 -0.00000000000E+00  0.00000000000E+00  0.75816074327E+03  0.75816074327E+03  0.00000000000E+00 0.  1.
          4   -1    0    0  501    0  0.00000000000E+00 -0.00000000000E+00 -0.22740337979E+02  0.22740337979E+02  0.00000000000E+00 0. -1.
         23    2    1    2    0    0  0.37412867134E+02  0.45298355756E+02  0.55468954578E+03  0.57162698592E+03  0.12500102070E+03 0.  0.
         23    2    1    2    0    0 -0.37412867134E+02 -0.45298355756E+02  0.18073085952E+03  0.20927409533E+03  0.87637547516E+02 0.  0.
          5    1    3    3  502    0 -0.17857253828E+02 -0.26267319509E+02  0.54069401058E+02  0.62884367845E+02  0.47000000000E+01 0.  1.
         -5    1    3    3    0  502  0.55270120961E+02  0.71565675265E+02  0.50062014472E+03  0.50874261808E+03  0.47000000000E+01 0.  1.
        -11    1    4    4    0    0 -0.12617117632E+02  0.21797567705E+02  0.16413048680E+02  0.30061832649E+02  0.00000000000E+00 0. -1.
         11    1    4    4    0    0 -0.24795749501E+02 -0.67095923461E+02  0.16431781084E+03  0.17921226269E+03  0.00000000000E+00 0.  1.
<mgrwt>
<rscale>  0 0.12912557E+03</rscale>
<asrwt>0</asrwt>
<pdfrwt beam="2">  1        4 0.34985141E-02 0.13811922E+03</pdfrwt>
<pdfrwt beam="1">  1       -4 0.11664009E+00 0.13811922E+03</pdfrwt>
<totfact> 0.42004239E+02</totfact>
</mgrwt>
</event>
<event>
 8    1  0.9424564E-006  0.1544242E+03  0.7546771E-02  0.1206269E+00
          2   -1    0    0  501    0  0.00000000000E+00  0.00000000000E+00  0.54497388878E+03  0.54497388878E+03  0.00000000000E+00 0. -1.
         -2   -1    0    0    0  501 -0.00000000000E+00 -0.00000000000E+00 -0.37208641802E+02  0.37208641802E+02  0.00000000000E+00 0.  1.
         23    2    1    2    0    0 -0.31254166997E+02  0.85079177857E+02  0.21006390053E+03  0.26071759327E+03  0.12502612398E+03 0.  0.
         23    2    1    2    0    0  0.31254166997E+02 -0.85079177857E+02  0.29770134646E+03  0.32146493731E+03  0.80612187553E+02 0.  0.
          5    1    3    3  502    0  0.38025667988E+02  0.55517717995E+02  0.14928192791E+03  0.16381499454E+03  0.47000000000E+01 0.  1.
         -5    1    3    3    0  502 -0.69279834985E+02  0.29561459862E+02  0.60781972620E+02  0.96902598728E+02  0.47000000000E+01 0.  1.
        -11    1    4    4    0    0  0.26170969819E+02 -0.73069878921E+02  0.29847477959E+03  0.30840123366E+03  0.00000000000E+00 0. -1.
         11    1    4    4    0    0  0.50831971785E+01 -0.12009298936E+02 -0.77343313807E+00  0.13063703659E+02  0.00000000000E+00 0.  1.
<mgrwt>
<rscale>  0 0.14537889E+03</rscale>
<asrwt>0</asrwt>
<pdfrwt beam="1">  1        2 0.83842131E-01 0.15442416E+03</pdfrwt>
<pdfrwt beam="2">  1       -2 0.57244068E-02 0.15442416E+03</pdfrwt>
<totfact> 0.86531152E+03</totfact>
</mgrwt>
</event>
<event>
 8    1  0.9424564E-006  0.2841867E+03  0.7546771E-02  0.1095183E+00
          2   -1    0    0  501    0  0.00000000000E+00  0.00000000000E+00  0.61221129653E+03  0.61221129653E+03  0.00000000000E+00 0. -1.
         -2   -1    0    0    0  501 -0.00000000000E+00 -0.00000000000E+00 -0.12981274241E+03  0.12981274241E+03  0.00000000000E+00 0.  1.
         23    2    1    2    0    0  0.25484352975E+03  0.13882506436E+02  0.18335965989E+03  0.33820533661E+03  0.12499654474E+03 0.  0.
         23    2    1    2    0    0 -0.25484352975E+03 -0.13882506436E+02  0.29903889424E+03  0.40381870233E+03  0.92235218030E+02 0.  0.
          5    1    3    3  502    0  0.11484081887E+03  0.38421477136E+02  0.14869809977E+03  0.19182762694E+03  0.47000000000E+01 0.  1.
         -5    1    3    3    0  502  0.14000271088E+03 -0.24538970700E+02  0.34661560119E+02  0.14637770966E+03  0.47000000000E+01 0.  1.
        -11    1    4    4    0    0 -0.12530340778E+03  0.11390104922E+02  0.83251863128E+02  0.15086931830E+03  0.00000000000E+00 0.  1.
         11    1    4    4    0    0 -0.12954012197E+03 -0.25272611359E+02  0.21578703111E+03  0.25294938403E+03  0.00000000000E+00 0. -1.
<mgrwt>
<rscale>  0 0.28092859E+03</rscale>
<asrwt>0</asrwt>
<pdfrwt beam="1">  1        2 0.94186352E-01 0.28418671E+03</pdfrwt>
<pdfrwt beam="2">  1       -2 0.19971191E-01 0.28418671E+03</pdfrwt>
<totfact> 0.10401882E+03</totfact>
</mgrwt>
</event>
<event>
 8    1  0.9424564E-006  0.1355917E+03  0.7546771E-02  0.1231485E+00
          1   -1    0    0  501    0  0.00000000000E+00  0.00000000000E+00  0.57517211773E+03  0.57517211773E+03  0.00000000000E+00 0. -1.
         -1   -1    0    0    0  501 -0.00000000000E+00 -0.00000000000E+00 -0.34653732831E+02  0.34653732831E+02  0.00000000000E+00 0.  1.
         23    2    1    2    0    0  0.31795257987E+02  0.41681685193E+02  0.13695724938E+03  0.19272362554E+03  0.12504721658E+03 0.  0.
         23    2    1    2    0    0 -0.31795257987E+02 -0.41681685193E+02  0.40356113553E+03  0.41710222502E+03  0.91456955441E+02 0.  0.
          5    1    3    3  502    0  0.24880718227E+02 -0.43174089789E+02  0.56638483780E+02  0.75584786918E+02  0.47000000000E+01 0. -1.
         -5    1    3    3    0  502  0.69145397601E+01  0.84855774982E+02  0.80318765595E+02  0.11713883863E+03  0.47000000000E+01 0. -1.
        -11    1    4    4    0    0  0.28663367346E+02 -0.88597281940E+01  0.64546660668E+02  0.71178331075E+02  0.00000000000E+00 0.  1.
         11    1    4    4    0    0 -0.60458625333E+02 -0.32821956999E+02  0.33901447486E+03  0.34592389394E+03  0.00000000000E+00 0. -1.
<mgrwt>
<rscale>  0 0.12732162E+03</rscale>
<asrwt>0</asrwt>
<pdfrwt beam="1">  1        1 0.88488011E-01 0.13559169E+03</pdfrwt>
<pdfrwt beam="2">  1       -1 0.53313439E-02 0.13559169E+03</pdfrwt>
<totfact> 0.57445667E+03</totfact>
</mgrwt>
</event>
<event>
 8    1  0.9424564E-006  0.1654312E+03  0.7546771E-02  0.1189820E+00
         -1   -1    0    0    0  501 -0.00000000000E+00  0.00000000000E+00  0.44773347557E+03  0.44773347557E+03  0.00000000000E+00 0.  1.
          1   -1    0    0  501    0  0.00000000000E+00 -0.00000000000E+00 -0.67771283809E+02  0.67771283809E+02  0.00000000000E+00 0. -1.
         23    2    1    2    0    0  0.32805429610E+02 -0.10328018680E+03  0.32367118214E+03  0.36349762295E+03  0.12499797816E+03 0.  0.
         23    2    1    2    0    0 -0.32805429610E+02  0.10328018680E+03  0.56291009622E+02  0.15200713643E+03  0.90523469689E+02 0.  0.
          5    1    3    3  502    0  0.43403488498E+02 -0.10037148673E+02  0.21598529287E+03  0.22058183040E+03  0.47000000000E+01 0. -1.
         -5    1    3    3    0  502 -0.10598058887E+02 -0.93243038126E+02  0.10768588926E+03  0.14291579254E+03  0.47000000000E+01 0. -1.
        -11    1    4    4    0    0 -0.54209399969E+02  0.34230780375E+02  0.46180200696E+02  0.79012760403E+02  0.00000000000E+00 0.  1.
         11    1    4    4    0    0  0.21403970359E+02  0.69049406424E+02  0.10110808925E+02  0.72994376028E+02  0.00000000000E+00 0. -1.
<mgrwt>
<rscale>  0 0.15900908E+03</rscale>
<asrwt>0</asrwt>
<pdfrwt beam="2">  1        1 0.10426352E-01 0.16543122E+03</pdfrwt>
<pdfrwt beam="1">  1       -1 0.68882071E-01 0.16543122E+03</pdfrwt>
<totfact> 0.13244442E+03</totfact>
</mgrwt>
</event>
<event>
 8    1  0.9424564E-006  0.1305092E+03  0.7546771E-02  0.1240611E+00
         -2   -1    0    0    0  501 -0.00000000000E+00  0.00000000000E+00  0.15358196378E+02  0.15358196378E+02  0.00000000000E+00 0.  1.
          2   -1    0    0  501    0  0.00000000000E+00 -0.00000000000E+00 -0.90382972516E+03  0.90382972516E+03  0.00000000000E+00 0. -1.
         23    2    1    2    0    0  0.74017302545E+01 -0.36769926055E+02 -0.39315009504E+03  0.41424588677E+03  0.12500337758E+03 0.  0.
         23    2    1    2    0    0 -0.74017302545E+01  0.36769926055E+02 -0.49532143374E+03  0.50494203476E+03  0.90643933468E+02 0.  0.
          5    1    3    3  502    0  0.39934297528E+02 -0.16387102817E+02 -0.40167616955E+02  0.59150762545E+02  0.47000000000E+01 0.  1.
         -5    1    3    3    0  502 -0.32532567274E+02 -0.20382823239E+02 -0.35298247808E+03  0.35509512423E+03  0.47000000000E+01 0.  1.
        -11    1    4    4    0    0  0.22609099148E+02  0.57196217018E+02 -0.32991232181E+03  0.33559606477E+03  0.00000000000E+00 0. -1.
         11    1    4    4    0    0 -0.30010829403E+02 -0.20426290962E+02 -0.16540911193E+03  0.16934596999E+03  0.00000000000E+00 0.  1.
<mgrwt>
<rscale>  0 0.12151936E+03</rscale>
<asrwt>0</asrwt>
<pdfrwt beam="2">  1        2 0.13905076E+00 0.13050922E+03</pdfrwt>
<pdfrwt beam="1">  1       -2 0.23627989E-02 0.13050922E+03</pdfrwt>
<totfact> 0.17353154E+04</totfact>
</mgrwt>
</event>
<event>
 8    1  0.9424564E-006  0.1959611E+03  0.7546771E-02  0.1157484E+00
         -2   -1    0    0    0  501 -0.00000000000E+00  0.00000000000E+00  0.20263292653E+03  0.20263292653E+03  0.00000000000E+00 0.  1.
          2   -1    0    0  501    0  0.00000000000E+00 -0.00000000000E+00 -0.23127221459E+03  0.23127221459E+03  0.00000000000E+00 0. -1.
         23    2    1    2    0    0  0.41336161515E+02  0.14514311679E+03  0.95074945270E+02  0.21780725210E+03  0.12500220498E+03 0.  0.
         23    2    1    2    0    0 -0.41336161515E+02 -0.14514311679E+03 -0.12371423333E+03  0.21609788903E+03  0.92832556321E+02 0.  0.
          5    1    3    3  502    0  0.75345931440E+02  0.46116406104E+02  0.61539462811E+02  0.10776329514E+03  0.47000000000E+01 0. -1.
         -5    1    3    3    0  502 -0.34009769925E+02  0.99026710686E+02  0.33535482459E+02  0.11004395696E+03  0.47000000000E+01 0. -1.
        -11    1    4    4    0    0 -0.59572743020E+02 -0.12107436577E+03 -0.64351323419E+02  0.14949584136E+03  0.00000000000E+00 0.  1.
         11    1    4    4    0    0  0.18236581505E+02 -0.24068751020E+02 -0.59362909909E+02  0.66602047668E+02  0.00000000000E+00 0. -1.
<mgrwt>
<rscale>  0 0.19108723E+03</rscale>
<asrwt>0</asrwt>
<pdfrwt beam="2">  1        2 0.35580341E-01 0.19596110E+03</pdfrwt>
<pdfrwt beam="1">  1       -2 0.31174296E-01 0.19596110E+03</pdfrwt>
<totfact> 0.13733746E+03</totfact>
</mgrwt>
</event>
<event>
 8    1  0.9424564E-006  0.2023908E+03  0.7546771E-02  0.1151125E+00
          2   -1    0    0  501    0  0.00000000000E+00  0.00000000000E+00  0.12780782742E+03  0.12780782742E+03  0.00000000000E+00 0. -1.
         -2   -1    0    0    0  501 -0.00000000000E+00 -0.00000000000E+00 -0.29938561147E+03  0.29938561147E+03  0.00000000000E+00 0.  1.
         23    2    1    2    0    0 -0.59156487874E+02 -0.14785805916E+03 -0.11110500620E+03  0.23088169419E+03  0.12490211605E+03 0.  0.
         23    2    1    2    0    0  0.59156487874E+02  0.14785805916E+03 -0.60472777845E+02  0.19631174470E+03  0.97569711137E+02 0.  0.
          5    1    3    3  502    0  0.29255368942E+02 -0.91114820783E+02 -0.39370666853E+02  0.10358535894E+03  0.47000000000E+01 0. -1.
         -5    1    3    3    0  502 -0.88411856816E+02 -0.56743238373E+02 -0.71734339347E+02  0.12729633525E+03  0.47000000000E+01 0. -1.
        -11    1    4    4    0    0  0.25532232991E+02  0.12155353139E+03 -0.81666809269E+02  0.14864933115E+03  0.00000000000E+00 0.  1.
         11    1    4    4    0    0  0.33624254883E+02  0.26304527767E+02  0.21194031424E+02  0.47662413550E+02  0.00000000000E+00 0. -1.
<mgrwt>
<rscale>  0 0.19836599E+03</rscale>
<asrwt>0</asrwt>
<pdfrwt beam="1">  1        2 0.19662743E-01 0.20239080E+03</pdfrwt>
<pdfrwt beam="2">  1       -2 0.46059325E-01 0.20239080E+03</pdfrwt>
<totfact> 0.12703372E+03</totfact>
</mgrwt>
</event>
<event>
 8    1  0.9424564E-006  0.1424928E+03  0.7546771E-02  0.1220593E+00
          1   -1    0    0  501    0  0.00000000000E+00  0.00000000000E+00  0.35821265235E+02  0.35821265235E+02  0.00000000000E+00 0. -1.
         -1   -1    0    0    0  501 -0.00000000000E+00 -0.00000000000E+00 -0.52558999632E+03  0.52558999632E+03  0.00000000000E+00 0.  1.
         23    2    1    2    0    0 -0.59906887331E+00  0.68410899582E+02 -0.36822442305E+03  0.39483342231E+03  0.12499518220E+03 0.  0.
         23    2    1    2    0    0  0.59906887331E+00 -0.68410899582E+02 -0.12154430803E+03  0.16657783925E+03  0.91075505205E+02 0.  0.
          5    1    3    3  502    0  0.46311159083E+01  0.10472409867E+03 -0.28709893840E+03  0.30567380409E+03  0.47000000000E+01 0. -1.
         -5    1    3    3    0  502 -0.52301847816E+01 -0.36313199086E+02 -0.81125484654E+02  0.89159618219E+02  0.47000000000E+01 0. -1.
        -11    1    4    4    0    0 -0.40157978826E+02 -0.19302220330E+02 -0.25718767109E+02  0.51446029532E+02  0.00000000000E+00 0. -1.
         11    1    4    4    0    0  0.40757047699E+02 -0.49108679252E+02 -0.95825540926E+02  0.11513180972E+03  0.00000000000E+00 0.  1.
<mgrwt>
<rscale>  0 0.13473606E+03</rscale>
<asrwt>0</asrwt>
<pdfrwt beam="1">  1        1 0.55109639E-02 0.14249283E+03</pdfrwt>
<pdfrwt beam="2">  1       -1 0.80859999E-01 0.14249283E+03</pdfrwt>
<totfact> 0.22529385E+03</totfact>
</mgrwt>
</event>
<event>
 7    1  0.9424564E-006  0.1525331E+03  0.7546771E-02  0.1221312E+00
         -1   -1    0    0    0  501 -0.00000000000E+00  0.00000000000E+00  0.19213620598E+02  0.19213620598E+02  0.00000000000E+00 0.  1.
          1   -1    0    0  501    0  0.00000000000E+00 -0.00000000000E+00 -0.79855704082E+03  0.79855704082E+03  0.00000000000E+00 0. -1.
         23    2    1    2    0    0  0.83058549487E+02  0.27247466593E+02 -0.41576950644E+03  0.44286638182E+03  0.12500081035E+03 0.  0.
          5    1    3    3  502    0  0.16152954021E+02  0.70662452023E+02 -0.19825260465E+03  0.21114043976E+03  0.47000000000E+01 0.  1.
         -5    1    3    3    0  502  0.66905595466E+02 -0.43414985430E+02 -0.21751690179E+03  0.23172594207E+03  0.47000000000E+01 0.  1.
        -11    1    1    2    0    0 -0.13943638616E+02 -0.15376377994E+02 -0.66432598966E+02  0.69599915686E+02  0.00000000000E+00 0.  1.
         11    1    1    2    0    0 -0.69114910871E+02 -0.11871088598E+02 -0.29714131482E+03  0.30530436391E+03  0.00000000000E+00 0. -1.
<mgrwt>
<rscale>  0 0.13422883E+03</rscale>
<asrwt>0</asrwt>
<pdfrwt beam="2">  1        1 0.12285494E+00 0.15253311E+03</pdfrwt>
<pdfrwt beam="1">  1       -1 0.29559413E-02 0.15253311E+03</pdfrwt>
<totfact> 0.86355165E+03</totfact>
</mgrwt>
</event>
<event>
 8    1  0.9424564E-006  0.1253106E+03  0.7546771E-02  0.1250469E+00
         -1   -1    0    0    0  501 -0.00000000000E+00  0.00000000000E+00  0.97929605336E+02  0.97929605336E+02  0.00000000000E+00 0.  1.
          1   -1    0    0  501    0  0.00000000000E+00 -0.00000000000E+00 -0.11946426736E+03  0.11946426736E+03  0.00000000000E+00 0. -1.
         23    2    1    2    0    0  0.87566271963E+01  0.11455417453E+01 -0.86742482606E+01  0.12561048709E+03  0.12499904439E+03 0.  0.
         23    2    1    2    0    0 -0.87566271963E+01 -0.11455417453E+01 -0.12860413761E+02  0.91783385605E+02  0.90447823883E+02 0.  0.
          5    1    3    3  502    0  0.65203004422E+02 -0.97487668997E+01  0.51553657038E+01  0.66295837254E+02  0.47000000000E+01 0.  1.
         -5    1    3    3    0  502 -0.56446377225E+02  0.10894308645E+02 -0.13829613964E+02  0.59314649836E+02  0.47000000000E+01 0.  1.
        -11    1    4    4    0    0 -0.23911965266E+02  0.28201333189E+02  0.22591390147E+02  0.43329760965E+02  0.00000000000E+00 0.  1.
         11    1    4    4    0    0  0.15155338069E+02 -0.29346874934E+02 -0.35451803908E+02  0.48453624640E+02  0.00000000000E+00 0. -1.
<mgrwt>
<rscale>  0 0.11563932E+03</rscale>
<asrwt>0</asrwt>
<pdfrwt beam="2">  1        1 0.18379118E-01 0.12531062E+03</pdfrwt>
<pdfrwt beam="1">  1       -1 0.15066093E-01 0.12531062E+03</pdfrwt>
<totfact> 0.85313864E+03</totfact>
</mgrwt>
</event>
<event>
 8    1  0.9424564E-006  0.1557024E+03  0.7546771E-02  0.1201861E+00
          3   -1    0    0  501    0  0.00000000000E+00  0.00000000000E+00  0.38398319835E+02  0.38398319835E+02  0.00000000000E+00 0. -1.
         -3   -1    0    0    0  501 -0.00000000000E+00 -0.00000000000E+00 -0.85224981856E+03  0.85224981856E+03  0.00000000000E+00 0.  1.
         23    2    1    2    0    0 -0.42872678100E+02 -0.82346855578E+02 -0.70195762297E+03  0.71901860564E+03  0.12499671862E+03 0.  0.
         23    2    1    2    0    0  0.42872678100E+02  0.82346855578E+02 -0.11189387576E+03  0.17162953276E+03  0.91199703568E+02 0.  0.
          5    1    3    3  502    0 -0.57918268909E+02  0.98875710776E+01 -0.20396675618E+03  0.21231301788E+03  0.47000000000E+01 0. -1.
         -5    1    3    3    0  502  0.15045590810E+02 -0.92234426655E+02 -0.49799086679E+03  0.50670558776E+03  0.47000000000E+01 0. -1.
        -11    1    4    4    0    0  0.22081451282E+02  0.51995141987E+02 -0.28665928862E+01  0.56562378272E+02  0.00000000000E+00 0. -1.
         11    1    4    4    0    0  0.20791226817E+02  0.30351713591E+02 -0.10902728288E+03  0.11506715449E+03  0.00000000000E+00 0.  1.
<mgrwt>
<rscale>  0 0.14887590E+03</rscale>
<asrwt>0</asrwt>
<pdfrwt beam="1">  1        3 0.59074346E-02 0.15570244E+03</pdfrwt>
<pdfrwt beam="2">  1       -3 0.13111534E+00 0.15570244E+03</pdfrwt>
<totfact> 0.19829457E+02</totfact>
</mgrwt>
</event>
<event>
 7    1  0.9424564E-006  0.2030520E+03  0.7546771E-02  0.1183893E+00
          1   -1    0    0  501    0  0.00000000000E+00  0.00000000000E+00  0.41687317320E+03  0.41687317320E+03  0.00000000000E+00 0. -1.
         -1   -1    0    0    0  501 -0.00000000000E+00 -0.00000000000E+00 -0.52864876824E+02  0.52864876824E+02  0.00000000000E+00 0.  1.
         23    2    1    2    0    0 -0.35082994902E+02  0.10267796002E+02  0.15837065944E+03  0.18074508358E+03  0.79065006799E+02 0.  0.
          5    1    1    2  502    0  0.43543233280E+02 -0.71307865050E+02  0.21096988881E+03  0.22696080887E+03  0.47000000000E+01 0. -1.
         -5    1    1    2    0  502 -0.84602383776E+01  0.61040069048E+02 -0.53322518709E+01  0.62032157570E+02  0.47000000000E+01 0.  1.
        -11    1    3    3    0    0  0.21640863926E+02  0.12112094666E+01  0.84126483780E+02  0.86873812470E+02  0.00000000000E+00 0.  1.
         11    1    3    3    0    0 -0.56723858828E+02  0.90565865357E+01  0.74244175659E+02  0.93871271107E+02  0.00000000000E+00 0. -1.
<mgrwt>
<rscale>  0 0.16433038E+03</rscale>
<asrwt>0</asrwt>
<pdfrwt beam="1">  1        1 0.64134332E-01 0.20305196E+03</pdfrwt>
<pdfrwt beam="2">  1       -1 0.81330583E-02 0.20305196E+03</pdfrwt>
<totfact> 0.47351149E+03</totfact>
</mgrwt>
</event>
<event>
 8    1  0.9424564E-006  0.1928314E+03  0.7546771E-02  0.1160575E+00
          1   -1    0    0  501    0  0.00000000000E+00  0.00000000000E+00  0.41559554074E+03  0.41559554074E+03  0.00000000000E+00 0. -1.
         -1   -1    0    0    0  501 -0.00000000000E+00 -0.00000000000E+00 -0.89585632104E+02  0.89585632104E+02  0.00000000000E+00 0.  1.
         23    2    1    2    0    0 -0.14388096446E+03 -0.29269971209E+02  0.90668281871E+02  0.21308376990E+03  0.12500197003E+03 0.  0.
         23    2    1    2    0    0  0.14388096446E+03  0.29269971209E+02  0.23534162676E+03  0.29209740294E+03  0.91524577948E+02 0.  0.
          5    1    3    3  502    0 -0.52896459855E+02  0.93447079625E+00 -0.28333735349E+02  0.60198000463E+02  0.47000000000E+01 0. -1.
         -5    1    3    3    0  502 -0.90984504603E+02 -0.30204442005E+02  0.11900201722E+03  0.15288576944E+03  0.47000000000E+01 0. -1.
        -11    1    4    4    0    0  0.12344228878E+03  0.59044716744E+02  0.18285354719E+03  0.22838497532E+03  0.00000000000E+00 0.  1.
         11    1    4    4    0    0  0.20438675678E+02 -0.29774745535E+02  0.52488079575E+02  0.63712427615E+02  0.00000000000E+00 0. -1.
<mgrwt>
<rscale>  0 0.18767488E+03</rscale>
<asrwt>0</asrwt>
<pdfrwt beam="1">  1        1 0.63937775E-01 0.19283142E+03</pdfrwt>
<pdfrwt beam="2">  1       -1 0.13782405E-01 0.19283142E+03</pdfrwt>
<totfact> 0.20991921E+03</totfact>
</mgrwt>
</event>
<event>
 8    1  0.9424564E-006  0.1520633E+03  0.7546771E-02  0.1207094E+00
         -1   -1    0    0    0  501 -0.00000000000E+00  0.00000000000E+00  0.88571374015E+02  0.88571374015E+02  0.00000000000E+00 0.  1.
          1   -1    0    0  501    0  0.00000000000E+00 -0.00000000000E+00 -0.30396052440E+03  0.30396052440E+03  0.00000000000E+00 0. -1.
         23    2    1    2    0    0 -0.15112207172E+02 -0.85258097386E+02 -0.10248147328E+02  0.15240825812E+03  0.12500372252E+03 0.  0.
         23    2    1    2    0    0  0.15112207172E+02  0.85258097386E+02 -0.20514100305E+03  0.24012364029E+03  0.89884423120E+02 0.  0.
          5    1    3    3  502    0 -0.18122679274E+01  0.31881633328E+02 -0.11927157953E+02  0.34410317574E+02  0.47000000000E+01 0.  1.
         -5    1    3    3    0  502 -0.13299939245E+02 -0.11713973071E+03  0.16790106250E+01  0.11799794054E+03  0.47000000000E+01 0.  1.
        -11    1    4    4    0    0 -0.33570519219E+02  0.16093604894E+02 -0.40390844225E+02  0.54930903655E+02  0.00000000000E+00 0.  1.
         11    1    4    4    0    0  0.48682726392E+02  0.69164492492E+02 -0.16475015883E+03  0.18519273664E+03  0.00000000000E+00 0. -1.
<mgrwt>
<rscale>  0 0.14473621E+03</rscale>
<asrwt>0</asrwt>
<pdfrwt beam="2">  1        1 0.46763157E-01 0.15206332E+03</pdfrwt>
<pdfrwt beam="1">  1       -1 0.13626365E-01 0.15206332E+03</pdfrwt>
<totfact> 0.31425655E+03</totfact>
</mgrwt>
</event>
<event>
 8    1  0.9424564E-006  0.1359719E+03  0.7546771E-02  0.1230797E+00
         -1   -1    0    0    0  501 -0.00000000000E+00  0.00000000000E+00  0.63708938098E+02  0.63708938098E+02  0.00000000000E+00 0.  1.
          1   -1    0    0  501    0  0.00000000000E+00 -0.00000000000E+00 -0.23504527505E+03  0.23504527505E+03  0.00000000000E+00 0. -1.
         23    2    1    2    0    0 -0.39253027181E+02  0.36344853627E+02 -0.73905846255E+02  0.15475922751E+03  0.12500638328E+03 0.  0.
         23    2    1    2    0    0  0.39253027181E+02 -0.36344853627E+02 -0.97430490694E+02  0.14399498563E+03  0.91542923497E+02 0.  0.
          5    1    3    3  502    0 -0.27972977973E+02 -0.31267770759E+02 -0.74974158930E+02  0.86042870083E+02  0.47000000000E+01 0.  1.
         -5    1    3    3    0  502 -0.11280049208E+02  0.67612624386E+02  0.10683126742E+01  0.68716357430E+02  0.47000000000E+01 0.  1.
        -11    1    4    4    0    0  0.13728533978E+02 -0.15007585370E+02 -0.10736534343E+03  0.10927496160E+03  0.00000000000E+00 0. -1.
         11    1    4    4    0    0  0.25524493203E+02 -0.21337268257E+02  0.99348527325E+01  0.34720024032E+02  0.00000000000E+00 0.  1.
<mgrwt>
<rscale>  0 0.12777371E+03</rscale>
<asrwt>0</asrwt>
<pdfrwt beam="2">  1        1 0.36160812E-01 0.13597185E+03</pdfrwt>
<pdfrwt beam="1">  1       -1 0.98013750E-02 0.13597185E+03</pdfrwt>
<totfact> 0.71374205E+03</totfact>
</mgrwt>
</event>
<event>
 8    1  0.9424564E-006  0.1499243E+03  0.7546771E-02  0.1207849E+00
          4   -1    0    0  501    0  0.00000000000E+00  0.00000000000E+00  0.38327659417E+02  0.38327659417E+02  0.00000000000E+00 0.  1.
         -4   -1    0    0    0  501 -0.00000000000E+00 -0.00000000000E+00 -0.50742244484E+03  0.50742244484E+03  0.00000000000E+00 0. -1.
         23    2    1    2    0    0 -0.73490609060E+02  0.38081288569E+02 -0.23153082248E+03  0.27583294710E+03  0.12500495506E+03 0.  0.
         23    2    1    2    0    0  0.73490609060E+02 -0.38081288569E+02 -0.23756396294E+03  0.26991715715E+03  0.97814012697E+02 0.  0.
          5    1    3    3  502    0 -0.72686355110E+02  0.42920276738E+02 -0.24585194783E+03  0.25998216598E+03  0.47000000000E+01 0. -1.
         -5    1    3    3    0  502 -0.80425394966E+00 -0.48389881694E+01  0.14321125350E+02  0.15850781123E+02  0.47000000000E+01 0. -1.
        -11    1    4    4    0    0  0.66001895701E+02 -0.20200305576E+02 -0.24059093895E+03  0.25029642923E+03  0.00000000000E+00 0. -1.
         11    1    4    4    0    0  0.74887133587E+01 -0.17880982993E+02  0.30269760082E+01  0.19620727925E+02  0.00000000000E+00 0.  1.
<mgrwt>
<rscale>  0 0.14415215E+03</rscale>
<asrwt>0</asrwt>
<pdfrwt beam="1">  1        4 0.58965633E-02 0.14992429E+03</pdfrwt>
<pdfrwt beam="2">  1       -4 0.78064988E-01 0.14992429E+03</pdfrwt>
<totfact> 0.46416414E+02</totfact>
</mgrwt>
</event>
<event>
 7    1  0.9424564E-006  0.1728786E+03  0.7546771E-02  0.1188818E+00
         -1   -1    0    0    0  501 -0.00000000000E+00  0.00000000000E+00  0.18295243622E+03  0.18295243622E+03  0.00000000000E+00 0.  1.
          1   -1    0    0  501    0  0.00000000000E+00 -0.00000000000E+00 -0.18832318263E+03  0.18832318263E+03  0.00000000000E+00 0. -1.
         23    2    1    2    0    0  0.23117157994E+02  0.85132161889E+02 -0.11132614320E+03  0.16851080461E+03  0.90666935155E+02 0.  0.
          5    1    1    2  502    0  0.20667129020E+02 -0.84122840303E+02  0.12711680872E+03  0.15389787374E+03  0.47000000000E+01 0. -1.
         -5    1    1    2    0  502 -0.43784287014E+02 -0.10093215860E+01 -0.21161411926E+02  0.48866940502E+02  0.47000000000E+01 0.  1.
        -11    1    3    3    0    0  0.40233432412E+02  0.64054480516E+02 -0.11835642670E+03  0.14046333792E+03  0.00000000000E+00 0. -1.
         11    1    3    3    0    0 -0.17116274418E+02  0.21077681373E+02  0.70302834996E+01  0.28047466697E+02  0.00000000000E+00 0.  1.
<mgrwt>
<rscale>  0 0.15989286E+03</rscale>
<asrwt>0</asrwt>
<pdfrwt beam="2">  1        1 0.28972797E-01 0.17287864E+03</pdfrwt>
<pdfrwt beam="1">  1       -1 0.28146529E-01 0.17287864E+03</pdfrwt>
<totfact> 0.17793005E+03</totfact>
</mgrwt>
</event>
<event>
 8    1  0.9424564E-006  0.1451022E+03  0.7546771E-02  0.1216729E+00
         -1   -1    0    0    0  501 -0.00000000000E+00  0.00000000000E+00  0.45218754578E+02  0.45218754578E+02  0.00000000000E+00 0.  1.
          1   -1    0    0  501    0  0.00000000000E+00 -0.00000000000E+00 -0.47984972440E+03  0.47984972440E+03  0.00000000000E+00 0. -1.
         23    2    1    2    0    0  0.67752431341E+02 -0.28980911654E+02 -0.11644210761E+03  0.18604677330E+03  0.12499740893E+03 0.  0.
         23    2    1    2    0    0 -0.67752431341E+02  0.28980911654E+02 -0.31818886221E+03  0.33902170567E+03  0.90891582042E+02 0.  0.
          5    1    3    3  502    0 -0.27542332605E+02 -0.25816191355E+02 -0.35556698189E+01  0.38207180075E+02  0.47000000000E+01 0. -1.
         -5    1    3    3    0  502  0.95294763946E+02 -0.31647202983E+01 -0.11288643779E+03  0.14783959323E+03  0.47000000000E+01 0. -1.
        -11    1    4    4    0    0 -0.33947572444E+02 -0.26307887332E+02 -0.19665028222E+03  0.20128555861E+03  0.00000000000E+00 0.  1.
         11    1    4    4    0    0 -0.33804858897E+02  0.55288798985E+02 -0.12153858000E+03  0.13773614706E+03  0.00000000000E+00 0. -1.
<mgrwt>
<rscale>  0 0.13750296E+03</rscale>
<asrwt>0</asrwt>
<pdfrwt beam="2">  1        1 0.73823035E-01 0.14510216E+03</pdfrwt>
<pdfrwt beam="1">  1       -1 0.69567314E-02 0.14510216E+03</pdfrwt>
<totfact> 0.49230016E+03</totfact>
</mgrwt>
</event>
<event>
 8    1  0.9424564E-006  0.1452057E+03  0.7546771E-02  0.1215904E+00
         -2   -1    0    0    0  501 -0.00000000000E+00  0.00000000000E+00  0.41535187324E+03  0.41535187324E+03  0.00000000000E+00 0.  1.
          2   -1    0    0  501    0  0.00000000000E+00 -0.00000000000E+00 -0.45006362353E+02  0.45006362353E+02  0.00000000000E+00 0. -1.
         23    2    1    2    0    0  0.21482458589E-01 -0.73889669055E+02  0.26207541130E+03  0.29961344930E+03  0.12500005657E+03 0.  0.
         23    2    1    2    0    0 -0.21482458589E-01  0.73889669055E+02  0.10827009959E+03  0.16074478630E+03  0.93041862623E+02 0.  0.
          5    1    3    3  502    0  0.30363442542E+02 -0.71757795558E+02  0.69256429090E+02  0.10435354731E+03  0.47000000000E+01 0. -1.
         -5    1    3    3    0  502 -0.30341960083E+02 -0.21318734971E+01  0.19281898221E+03  0.19525990199E+03  0.47000000000E+01 0. -1.
        -11    1    4    4    0    0  0.21676673710E+02  0.44680322719E+02  0.11358984388E+03  0.12397121462E+03  0.00000000000E+00 0.  1.
         11    1    4    4    0    0 -0.21698156169E+02  0.29209346336E+02 -0.53197442859E+01  0.36773571676E+02  0.00000000000E+00 0. -1.
<mgrwt>
<rscale>  0 0.13810314E+03</rscale>
<asrwt>0</asrwt>
<pdfrwt beam="2">  1        2 0.69240560E-02 0.14520571E+03</pdfrwt>
<pdfrwt beam="1">  1       -2 0.63900286E-01 0.14520571E+03</pdfrwt>
<totfact> 0.22917628E+03</totfact>
</mgrwt>
</event>
<event>
 8    1  0.9424564E-006  0.1461182E+03  0.7546771E-02  0.1217354E+00
         -1   -1    0    0    0  501 -0.00000000000E+00  0.00000000000E+00  0.77037313694E+02  0.77037313694E+02  0.00000000000E+00 0.  1.
          1   -1    0    0  501    0  0.00000000000E+00 -0.00000000000E+00 -0.24389965482E+03  0.24389965482E+03  0.00000000000E+00 0. -1.
         23    2    1    2    0    0 -0.86662986209E+01  0.75173480333E+02 -0.41058279443E+02  0.15177719620E+03  0.12499751237E+03 0.  0.
         23    2    1    2    0    0  0.86662986209E+01 -0.75173480333E+02 -0.12580406168E+03  0.16915977231E+03  0.84036954697E+02 0.  0.
          5    1    3    3  502    0 -0.45728112016E+02  0.19096523097E+02 -0.63564841837E+02  0.80736091934E+02  0.47000000000E+01 0.  1.
         -5    1    3    3    0  502  0.37061813396E+02  0.56076957236E+02  0.22506562394E+02  0.71041104269E+02  0.47000000000E+01 0.  1.
        -11    1    4    4    0    0  0.30292237073E+02 -0.80179956374E+02 -0.11754325609E+03  0.14547460975E+03  0.00000000000E+00 0. -1.
         11    1    4    4    0    0 -0.21625938452E+02  0.50064760406E+01 -0.82608055940E+01  0.23685162557E+02  0.00000000000E+00 0.  1.
<mgrwt>
<rscale>  0 0.13705036E+03</rscale>
<asrwt>0</asrwt>
<pdfrwt beam="2">  1        1 0.37523024E-01 0.14611822E+03</pdfrwt>
<pdfrwt beam="1">  1       -1 0.11851894E-01 0.14611822E+03</pdfrwt>
<totfact> 0.51169804E+03</totfact>
</mgrwt>
</event>
<event>
 8    1  0.9424564E-006  0.1654312E+03  0.7546771E-02  0.1190899E+00
          2   -1    0    0  501    0  0.00000000000E+00  0.00000000000E+00  0.16937310394E+03  0.16937310394E+03  0.00000000000E+00 0. -1.
         -2   -1    0    0    0  501 -0.00000000000E+00 -0.00000000000E+00 -0.18372084459E+03  0.18372084459E+03  0.00000000000E+00 0.  1.
         23    2    1    2    0    0 -0.10812095846E+03 -0.72684645996E+01 -0.97558121263E+02  0.19205486572E+03  0.12499804874E+03 0.  0.
         23    2    1    2    0    0  0.10812095846E+03  0.72684645996E+01  0.83210380606E+02  0.16103908281E+03  0.85244627485E+02 0.  0.
          5    1    3    3  502    0 -0.48576033540E+02  0.29530906114E+02 -0.10701097201E+03  0.12126476645E+03  0.47000000000E+01 0. -1.
         -5    1    3    3    0  502 -0.59544924918E+02 -0.36799370714E+02  0.94528507472E+01  0.70790099278E+02  0.47000000000E+01 0. -1.
        -11    1    4    4    0    0  0.23721588993E+02 -0.35501485198E+02  0.32718639163E+02  0.53791993682E+02  0.00000000000E+00 0. -1.
         11    1    4    4    0    0  0.84399369466E+02  0.42769949797E+02  0.50491741443E+02  0.10724708913E+03  0.00000000000E+00 0.  1.
<mgrwt>
<rscale>  0 0.15806465E+03</rscale>
<asrwt>0</asrwt>
<pdfrwt beam="1">  1        2 0.26057401E-01 0.16543121E+03</pdfrwt>
<pdfrwt beam="2">  1       -2 0.28264745E-01 0.16543121E+03</pdfrwt>
<totfact> 0.22903260E+03</totfact>
</mgrwt>
</event>
<event>
 7    1  0.9424564E-006  0.3347103E+03  0.7546771E-02  0.1096249E+00
          1   -1    0    0  501    0  0.00000000000E+00  0.00000000000E+00  0.59124967719E+03  0.59124967719E+03  0.00000000000E+00 0. -1.
         -1   -1    0    0    0  501 -0.00000000000E+00 -0.00000000000E+00 -0.27857270288E+03  0.27857270288E+03  0.00000000000E+00 0.  1.
         23    2    1    2    0    0  0.51395318147E+02 -0.12983474996E+03  0.47218241442E+03  0.49904891484E+03  0.81209887898E+02 0.  0.
          5    1    1    2  502    0  0.12462694586E+03  0.54775247064E+02 -0.29466783465E+02  0.13936493337E+03  0.47000000000E+01 0. -1.
         -5    1    1    2    0  502 -0.17602226401E+03  0.75059502894E+02 -0.13003865665E+03  0.23140853187E+03  0.47000000000E+01 0.  1.
        -11    1    3    3    0    0  0.13230271446E+02  0.95108715794E+01  0.64375418326E+02  0.66405506138E+02  0.00000000000E+00 0.  1.
         11    1    3    3    0    0  0.38165046701E+02 -0.13934562154E+03  0.40780699609E+03  0.43264340870E+03  0.00000000000E+00 0. -1.
<mgrwt>
<rscale>  0 0.27897708E+03</rscale>
<asrwt>0</asrwt>
<pdfrwt beam="1">  1        1 0.90961488E-01 0.33471029E+03</pdfrwt>
<pdfrwt beam="2">  1       -1 0.42857339E-01 0.33471029E+03</pdfrwt>
<totfact> 0.19623429E+02</totfact>
</mgrwt>
</event>
<event>
 8    1  0.9424564E-006  0.1289186E+03  0.7546771E-02  0.1244635E+00
         -2   -1    0    0    0  501 -0.00000000000E+00  0.00000000000E+00  0.28990841737E+02  0.28990841737E+02  0.00000000000E+00 0.  1.
          2   -1    0    0  501    0  0.00000000000E+00 -0.00000000000E+00 -0.42784811133E+03  0.42784811133E+03  0.00000000000E+00 0. -1.
         23    2    1    2    0    0  0.21534527007E+01 -0.31469934550E+02 -0.23213228934E+03  0.26552851895E+03  0.12500000193E+03 0.  0.
         23    2    1    2    0    0 -0.21534527007E+01  0.31469934550E+02 -0.16672498026E+03  0.19131043412E+03  0.88359883554E+02 0.  0.
          5    1    3    3  502    0  0.20776245527E+02 -0.10422609978E+02  0.69832881919E+01  0.24721235627E+02  0.47000000000E+01 0.  1.
         -5    1    3    3    0  502 -0.18622792826E+02 -0.21047324572E+02 -0.23911557753E+03  0.24080728332E+03  0.47000000000E+01 0.  1.
        -11    1    4    4    0    0 -0.39068028496E+02  0.26722723717E+02 -0.13267778503E+03  0.14086805690E+03  0.00000000000E+00 0. -1.
         11    1    4    4    0    0  0.36914575796E+02  0.47472108336E+01 -0.34047195227E+02  0.50442377221E+02  0.00000000000E+00 0.  1.
<mgrwt>
<rscale>  0 0.11907267E+03</rscale>
<asrwt>0</asrwt>
<pdfrwt beam="2">  1        2 0.65822784E-01 0.12891856E+03</pdfrwt>
<pdfrwt beam="1">  1       -2 0.44601297E-02 0.12891856E+03</pdfrwt>
<totfact> 0.16200322E+04</totfact>
</mgrwt>
</event>
<event>
 8    1  0.9424564E-006  0.1792695E+03  0.7546771E-02  0.1174235E+00
         -1   -1    0    0    0  501 -0.00000000000E+00  0.00000000000E+00  0.11994390896E+03  0.11994390896E+03  0.00000000000E+00 0.  1.
          1   -1    0    0  501    0  0.00000000000E+00 -0.00000000000E+00 -0.24359758322E+03  0.24359758322E+03  0.00000000000E+00 0. -1.
         23    2    1    2    0    0  0.12635304549E+03 -0.23416441981E+02 -0.33994228220E+02  0.18246409602E+03  0.12499646765E+03 0.  0.
         23    2    1    2    0    0 -0.12635304549E+03  0.23416441981E+02 -0.89659446048E+02  0.18107739616E+03  0.90756736799E+02 0.  0.
          5    1    3    3  502    0  0.26586895486E+02 -0.64369367153E+02 -0.18263991295E+01  0.69826242725E+02  0.47000000000E+01 0.  1.
         -5    1    3    3    0  502  0.99766150005E+02  0.40952925173E+02 -0.32167829090E+02  0.11263785330E+03  0.47000000000E+01 0.  1.
        -11    1    4    4    0    0 -0.62639579681E+02  0.52166373007E+02 -0.23510141390E+02  0.84839696861E+02  0.00000000000E+00 0. -1.
         11    1    4    4    0    0 -0.63713465810E+02 -0.28749931026E+02 -0.66149304658E+02  0.96237699298E+02  0.00000000000E+00 0.  1.
<mgrwt>
<rscale>  0 0.17351103E+03</rscale>
<asrwt>0</asrwt>
<pdfrwt beam="2">  1        1 0.37476551E-01 0.17926946E+03</pdfrwt>
<pdfrwt beam="1">  1       -1 0.18452909E-01 0.17926946E+03</pdfrwt>
<totfact> 0.25787999E+03</totfact>
</mgrwt>
</event>
<event>
 7    1  0.9424564E-006  0.1921114E+03  0.7546771E-02  0.1173633E+00
         -2   -1    0    0    0  501 -0.00000000000E+00  0.00000000000E+00  0.26859317022E+03  0.26859317022E+03  0.00000000000E+00 0.  1.
          2   -1    0    0  501    0  0.00000000000E+00 -0.00000000000E+00 -0.37659430846E+03  0.37659430846E+03  0.00000000000E+00 0. -1.
         23    2    1    2    0    0 -0.66663592131E+02 -0.66217170124E+02 -0.32826199050E+03  0.35291769818E+03  0.89253678621E+02 0.  0.
          5    1    1    2  502    0  0.82150261399E+02  0.23697251300E+02  0.21388464917E+02  0.88259739398E+02  0.47000000000E+01 0. -1.
         -5    1    1    2    0  502 -0.15486669268E+02  0.42519918825E+02  0.19887238735E+03  0.20401004110E+03  0.47000000000E+01 0.  1.
        -11    1    3    3    0    0 -0.38232480122E+02 -0.25853098190E+02 -0.41915190518E+02  0.62345716922E+02  0.00000000000E+00 0.  1.
         11    1    3    3    0    0 -0.28431112009E+02 -0.40364071934E+02 -0.28634679998E+03  0.29057198126E+03  0.00000000000E+00 0. -1.
<mgrwt>
<rscale>  0 0.17410539E+03</rscale>
<asrwt>0</asrwt>
<pdfrwt beam="2">  1        2 0.57937586E-01 0.19211138E+03</pdfrwt>
<pdfrwt beam="1">  1       -2 0.41322026E-01 0.19211138E+03</pdfrwt>
<totfact> 0.48020589E+02</totfact>
</mgrwt>
</event>
<event>
 8    1  0.9424564E-006  0.1354134E+03  0.7546771E-02  0.1231664E+00
          1   -1    0    0  501    0  0.00000000000E+00  0.00000000000E+00  0.20076505329E+03  0.20076505329E+03  0.00000000000E+00 0. -1.
         -1   -1    0    0    0  501 -0.00000000000E+00 -0.00000000000E+00 -0.92813432373E+02  0.92813432373E+02  0.00000000000E+00 0.  1.
         23    2    1    2    0    0 -0.50406849534E+02 -0.13416982052E+02 -0.94913452530E+01  0.13574567169E+03  0.12496373818E+03 0.  0.
         23    2    1    2    0    0  0.50406849534E+02  0.13416982052E+02  0.11744296617E+03  0.15783281397E+03  0.91637770472E+02 0.  0.
          5    1    3    3  502    0 -0.12149028764E+02 -0.66985542880E+02 -0.13755777420E+02  0.69613025127E+02  0.47000000000E+01 0. -1.
         -5    1    3    3    0  502 -0.38257820770E+02  0.53568560829E+02  0.42644321669E+01  0.66132646560E+02  0.47000000000E+01 0. -1.
        -11    1    4    4    0    0  0.46831198805E+02 -0.29834838099E+02  0.37925850668E+02  0.67243207054E+02  0.00000000000E+00 0.  1.
         11    1    4    4    0    0  0.35756507286E+01  0.43251820151E+02  0.79517115498E+02  0.90589606919E+02  0.00000000000E+00 0. -1.
<mgrwt>
<rscale>  0 0.12720418E+03</rscale>
<asrwt>0</asrwt>
<pdfrwt beam="1">  1        1 0.30886931E-01 0.13541345E+03</pdfrwt>
<pdfrwt beam="2">  1       -1 0.14278990E-01 0.13541345E+03</pdfrwt>
<totfact> 0.48566249E+03</totfact>
</mgrwt>
</event>
<event>
 8    1  0.9424564E-006  0.1366463E+03  0.7546771E-02  0.1229721E+00
         -1   -1    0    0    0  501 -0.00000000000E+00  0.00000000000E+00  0.13524620809E+04  0.13524620809E+04  0.00000000000E+00 0.  1.
          1   -1    0    0  501    0  0.00000000000E+00 -0.00000000000E+00 -0.13584558260E+02  0.13584558260E+02  0.00000000000E+00 0. -1.
         23    2    1    2    0    0 -0.46826741044E+02  0.29252670867E+02  0.10342128510E+04  0.10432010484E+04  0.12499497500E+03 0.  0.
         23    2    1    2    0    0  0.46826741044E+02 -0.29252670867E+02  0.30466467164E+03  0.32284559076E+03  0.91434407634E+02 0.  0.
          5    1    3    3  502    0  0.89038089968E+01 -0.43150030809E+02  0.28519911682E+03  0.28862056269E+03  0.47000000000E+01 0.  1.
         -5    1    3    3    0  502 -0.55730550041E+02  0.72402701676E+02  0.74901373417E+03  0.75458048570E+03  0.47000000000E+01 0.  1.
        -11    1    4    4    0    0  0.69005980684E+02 -0.41607855239E+02  0.21308514996E+03  0.22781202804E+03  0.00000000000E+00 0. -1.
         11    1    4    4    0    0 -0.22179239640E+02  0.12355184371E+02  0.91579521682E+02  0.95033562721E+02  0.00000000000E+00 0.  1.
<mgrwt>
<rscale>  0 0.12848515E+03</rscale>
<asrwt>0</asrwt>
<pdfrwt beam="2">  1        1 0.20899331E-02 0.13664628E+03</pdfrwt>
<pdfrwt beam="1">  1       -1 0.20807098E+00 0.13664628E+03</pdfrwt>
<totfact> 0.82572446E+02</totfact>
</mgrwt>
</event>
<event>
 8    1  0.9424564E-006  0.1766859E+03  0.7546771E-02  0.1176916E+00
          1   -1    0    0  501    0  0.00000000000E+00  0.00000000000E+00  0.27855539322E+02  0.27855539322E+02  0.00000000000E+00 0. -1.
         -1   -1    0    0    0  501 -0.00000000000E+00 -0.00000000000E+00 -0.13201316304E+04  0.13201316304E+04  0.00000000000E+00 0.  1.
         23    2    1    2    0    0  0.12066694955E+03 -0.32122269709E+02 -0.10171280681E+04  0.10323601192E+04  0.12500222360E+03 0.  0.
         23    2    1    2    0    0 -0.12066694955E+03  0.32122269709E+02 -0.27514802305E+03  0.31562705057E+03  0.91223064758E+02 0.  0.
          5    1    3    3  502    0  0.37451148174E+02  0.17511108578E+02 -0.79530640655E+02  0.89757675027E+02  0.47000000000E+01 0. -1.
         -5    1    3    3    0  502  0.83215801373E+02 -0.49633378288E+02 -0.93759742742E+03  0.94260244417E+03  0.47000000000E+01 0. -1.
        -11    1    4    4    0    0 -0.84165898238E+02 -0.20029212133E+02 -0.12007155701E+03  0.14799407613E+03  0.00000000000E+00 0. -1.
         11    1    4    4    0    0 -0.36501051309E+02  0.52151481842E+02 -0.15507646603E+03  0.16763297445E+03  0.00000000000E+00 0.  1.
<mgrwt>
<rscale>  0 0.17089642E+03</rscale>
<asrwt>0</asrwt>
<pdfrwt beam="1">  1        1 0.42854672E-02 0.17668590E+03</pdfrwt>
<pdfrwt beam="2">  1       -1 0.20309719E+00 0.17668590E+03</pdfrwt>
<totfact> 0.32919736E+02</totfact>
</mgrwt>
</event>
<event>
 8    1  0.9424564E-006  0.1504294E+03  0.7546771E-02  0.1209367E+00
         -3   -1    0    0    0  501 -0.00000000000E+00  0.00000000000E+00  0.19454479660E+03  0.19454479660E+03  0.00000000000E+00 0.  1.
          3   -1    0    0  501    0  0.00000000000E+00 -0.00000000000E+00 -0.13247231012E+03  0.13247231012E+03  0.00000000000E+00 0. -1.
         23    2    1    2    0    0  0.19472601607E+02  0.81404342909E+02  0.11886769533E+03  0.19172512290E+03  0.12499257779E+03 0.  0.
         23    2    1    2    0    0 -0.19472601607E+02 -0.81404342909E+02 -0.56795208845E+02  0.13529198382E+03  0.89846401606E+02 0.  0.
          5    1    3    3  502    0 -0.39470252708E+02  0.79521156227E+02  0.54394809782E+02  0.10422284043E+03  0.47000000000E+01 0.  1.
         -5    1    3    3    0  502  0.58942854315E+02  0.18831866824E+01  0.64472885545E+02  0.87502282470E+02  0.47000000000E+01 0.  1.
        -11    1    4    4    0    0 -0.25354298095E+02 -0.85340835453E+01 -0.56132858179E+02  0.62181739934E+02  0.00000000000E+00 0. -1.
         11    1    4    4    0    0  0.58816964883E+01 -0.72870259364E+02 -0.66235066584E+00  0.73110243891E+02  0.00000000000E+00 0.  1.
<mgrwt>
<rscale>  0 0.14298591E+03</rscale>
<asrwt>0</asrwt>
<pdfrwt beam="2">  1        3 0.20380355E-01 0.15042936E+03</pdfrwt>
<pdfrwt beam="1">  1       -3 0.29929969E-01 0.15042936E+03</pdfrwt>
<totfact> 0.55030991E+02</totfact>
</mgrwt>
</event>
<event>
 8    1  0.9424564E-006  0.1676146E+03  0.7546771E-02  0.1187023E+00
          1   -1    0    0  501    0  0.00000000000E+00  0.00000000000E+00  0.31881272255E+03  0.31881272255E+03  0.00000000000E+00 0. -1.
         -1   -1    0    0    0  501 -0.00000000000E+00 -0.00000000000E+00 -0.83662253418E+02  0.83662253418E+02  0.00000000000E+00 0.  1.
         23    2    1    2    0    0 -0.88477635241E+02 -0.68125713505E+02  0.66226548601E+02  0.18022376670E+03  0.12500098227E+03 0.  0.
         23    2    1    2    0    0  0.88477635241E+02  0.68125713505E+02  0.16892392053E+03  0.22225120926E+03  0.91601879417E+02 0.  0.
          5    1    3    3  502    0 -0.15411902948E+02  0.26987855887E+02  0.50059774196E+02  0.59109577146E+02  0.47000000000E+01 0.  1.
         -5    1    3    3    0  502 -0.73065732293E+02 -0.95113569391E+02  0.16166774405E+02  0.12111418956E+03  0.47000000000E+01 0.  1.
        -11    1    4    4    0    0  0.48098692860E+02  0.43924869718E+02  0.23254537310E+02  0.69163949714E+02  0.00000000000E+00 0.  1.
         11    1    4    4    0    0  0.40378942381E+02  0.24200843786E+02  0.14566938322E+03  0.15308725955E+03  0.00000000000E+00 0. -1.
<mgrwt>
<rscale>  0 0.16149123E+03</rscale>
<asrwt>0</asrwt>
<pdfrwt beam="1">  1        1 0.49048110E-01 0.16761459E+03</pdfrwt>
<pdfrwt beam="2">  1       -1 0.12871116E-01 0.16761459E+03</pdfrwt>
<totfact> 0.32499958E+03</totfact>
</mgrwt>
</event>
<event>
 8    1  0.1050553E-005  0.1855989E+03  0.7546771E-02  0.1167169E+00
          1   -1    0    0  501    0  0.00000000000E+00  0.00000000000E+00  0.75311159811E+03  0.75311159811E+03  0.00000000000E+00 0. -1.
         -1   -1    0    0    0  501 -0.00000000000E+00 -0.00000000000E+00 -0.41588235558E+02  0.41588235558E+02  0.00000000000E+00 0.  1.
         23    2    1    2    0    0  0.13562951109E+03  0.20674887217E+02  0.33536240752E+03  0.38329481128E+03  0.12499661090E+03 0.  0.
         23    2    1    2    0    0 -0.13562951109E+03 -0.20674887217E+02  0.37616095503E+03  0.41140502238E+03  0.94520966536E+02 0.  0.
          5    1    3    3  502    0  0.11752717620E+03  0.21125155385E+02  0.34289863481E+03  0.36312597413E+03  0.47000000000E+01 0.  1.
         -5    1    3    3    0  502  0.18102334894E+02 -0.45026816850E+00 -0.75362272913E+01  0.20168837146E+02  0.47000000000E+01 0.  1.
        -11    1    4    4    0    0 -0.64030670974E+02 -0.14595177698E+02  0.66294833390E+02  0.93316402479E+02  0.00000000000E+00 0.  1.
         11    1    4    4    0    0 -0.71598840119E+02 -0.60797095185E+01  0.30986612164E+03  0.31808861991E+03  0.00000000000E+00 0. -1.
<mgrwt>
<rscale>  0 0.18065636E+03</rscale>
<asrwt>0</asrwt>
<pdfrwt beam="1">  1        1 0.11586331E+00 0.18559894E+03</pdfrwt>
<pdfrwt beam="2">  1       -1 0.63981906E-02 0.18559894E+03</pdfrwt>
<totfact> 0.30288061E+03</totfact>
</mgrwt>
</event>
<event>
 8    1  0.9424564E-006  0.1299034E+03  0.7546771E-02  0.1240439E+00
         -1   -1    0    0    0  501 -0.00000000000E+00  0.00000000000E+00  0.27201015991E+03  0.27201015991E+03  0.00000000000E+00 0.  1.
          1   -1    0    0  501    0  0.00000000000E+00 -0.00000000000E+00 -0.48519235251E+02  0.48519235251E+02  0.00000000000E+00 0. -1.
         23    2    1    2    0    0  0.35333050732E+02  0.11483735343E+01  0.12363478132E+03  0.17933337384E+03  0.12500062634E+03 0.  0.
         23    2    1    2    0    0 -0.35333050732E+02 -0.11483735343E+01  0.99856143343E+02  0.14119602132E+03  0.93355898787E+02 0.  0.
          5    1    3    3  502    0  0.59114521898E+01  0.58024456400E+02  0.88631108144E+02  0.10620426610E+03  0.47000000000E+01 0.  1.
         -5    1    3    3    0  502  0.29421598542E+02 -0.56876082866E+02  0.35003673174E+02  0.73129107739E+02  0.47000000000E+01 0.  1.
        -11    1    4    4    0    0  0.96725341450E+01  0.13719057957E+02  0.91549809345E+02  0.93075980033E+02  0.00000000000E+00 0.  1.
         11    1    4    4    0    0 -0.45005584877E+02 -0.14867431491E+02  0.83063339982E+01  0.48120041290E+02  0.00000000000E+00 0. -1.
<mgrwt>
<rscale>  0 0.12162574E+03</rscale>
<asrwt>0</asrwt>
<pdfrwt beam="2">  1        1 0.74644979E-02 0.12990342E+03</pdfrwt>
<pdfrwt beam="1">  1       -1 0.41847716E-01 0.12990342E+03</pdfrwt>
<totfact> 0.51724230E+03</totfact>
</mgrwt>
</event>
<event>
 8    1  0.9424564E-006  0.1388757E+03  0.7546771E-02  0.1226443E+00
          2   -1    0    0  501    0  0.00000000000E+00  0.00000000000E+00  0.34484713329E+03  0.34484713329E+03  0.00000000000E+00 0. -1.
         -2   -1    0    0    0  501 -0.00000000000E+00 -0.00000000000E+00 -0.45211896645E+02  0.45211896645E+02  0.00000000000E+00 0.  1.
         23    2    1    2    0    0  0.39665510161E+02  0.45699853929E+02  0.19183465330E+03  0.23682690643E+03  0.12499848022E+03 0.  0.
         23    2    1    2    0    0 -0.39665510161E+02 -0.45699853929E+02  0.10780058335E+03  0.15323212351E+03  0.90538878714E+02 0.  0.
          5    1    3    3  502    0  0.46220156610E+02  0.55966086743E+01  0.19021739172E+03  0.19588866996E+03  0.47000000000E+01 0. -1.
         -5    1    3    3    0  502 -0.65546464493E+01  0.40103245255E+02  0.16172615758E+01  0.40938236467E+02  0.47000000000E+01 0. -1.
        -11    1    4    4    0    0  0.18998022144E+02 -0.42629117336E+02  0.29007328664E+02  0.54950810790E+02  0.00000000000E+00 0.  1.
         11    1    4    4    0    0 -0.58663532305E+02 -0.30707365926E+01  0.78793254683E+02  0.98281312716E+02  0.00000000000E+00 0. -1.
<mgrwt>
<rscale>  0 0.13068512E+03</rscale>
<asrwt>0</asrwt>
<pdfrwt beam="1">  1        2 0.53053403E-01 0.13887566E+03</pdfrwt>
<pdfrwt beam="2">  1       -2 0.69556766E-02 0.13887566E+03</pdfrwt>
<totfact> 0.10484640E+04</totfact>
</mgrwt>
</event>
<event>
 8    1  0.9424564E-006  0.1461679E+03  0.7546771E-02  0.1214735E+00
         -2   -1    0    0    0  501 -0.00000000000E+00  0.00000000000E+00  0.21876440847E+02  0.21876440847E+02  0.00000000000E+00 0.  1.
          2   -1    0    0  501    0  0.00000000000E+00 -0.00000000000E+00 -0.81062956521E+03  0.81062956521E+03  0.00000000000E+00 0. -1.
         23    2    1    2    0    0  0.22649628175E+02  0.72299052190E+02 -0.40246490456E+03  0.42818575745E+03  0.12499953951E+03 0.  0.
         23    2    1    2    0    0 -0.22649628175E+02 -0.72299052190E+02 -0.38628821981E+03  0.40432024861E+03  0.92282804843E+02 0.  0.
          5    1    3    3  502    0  0.20964124397E+02  0.10597575975E+03 -0.34327821276E+03  0.35990606764E+03  0.47000000000E+01 0.  1.
         -5    1    3    3    0  502  0.16855037775E+01 -0.33676707560E+02 -0.59186691797E+02  0.68279689813E+02  0.47000000000E+01 0.  1.
        -11    1    4    4    0    0  0.15648682398E+02 -0.54529789547E+02 -0.32489618816E+03  0.32981193473E+03  0.00000000000E+00 0. -1.
         11    1    4    4    0    0 -0.38298310573E+02 -0.17769262642E+02 -0.61392031651E+02  0.74508313884E+02  0.00000000000E+00 0.  1.
<mgrwt>
<rscale>  0 0.13895996E+03</rscale>
<asrwt>0</asrwt>
<pdfrwt beam="2">  1        2 0.12471222E+00 0.14616786E+03</pdfrwt>
<pdfrwt beam="1">  1       -2 0.33656069E-02 0.14616786E+03</pdfrwt>
<totfact> 0.11959902E+04</totfact>
</mgrwt>
</event>
<event>
 8    1  0.9424564E-006  0.2005186E+03  0.7546771E-02  0.1154849E+00
         -2   -1    0    0    0  501 -0.00000000000E+00  0.00000000000E+00  0.17029468839E+03  0.17029468839E+03  0.00000000000E+00 0. -1.
          2   -1    0    0  501    0  0.00000000000E+00 -0.00000000000E+00 -0.23010182694E+03  0.23010182694E+03  0.00000000000E+00 0.  1.
         23    2    1    2    0    0 -0.51896825342E+02  0.14795069747E+03  0.30231451058E+02  0.20278473661E+03  0.12500007762E+03 0.  0.
         23    2    1    2    0    0  0.51896825342E+02 -0.14795069747E+03 -0.90038589604E+02  0.19761177873E+03  0.79754486464E+02 0.  0.
          5    1    3    3  502    0 -0.85497783519E+02  0.12904266817E+03  0.44933277541E+02  0.16125436622E+03  0.47000000000E+01 0.  1.
         -5    1    3    3    0  502  0.33600958178E+02  0.18908029304E+02 -0.14701826483E+02  0.41530370388E+02  0.47000000000E+01 0.  1.
        -11    1    4    4    0    0  0.37135345514E+02 -0.12005357654E+02 -0.16807157838E+02  0.42492858853E+02  0.00000000000E+00 0. -1.
         11    1    4    4    0    0  0.14761479827E+02 -0.13594533982E+03 -0.73231431766E+02  0.15511891987E+03  0.00000000000E+00 0.  1.
<mgrwt>
<rscale>  0 0.19406049E+03</rscale>
<asrwt>0</asrwt>
<pdfrwt beam="2">  1        2 0.35400281E-01 0.20051860E+03</pdfrwt>
<pdfrwt beam="1">  1       -2 0.26199183E-01 0.20051860E+03</pdfrwt>
<totfact> 0.18889365E+03</totfact>
</mgrwt>
</event>
<event>
 8    1  0.9424564E-006  0.1359145E+03  0.7546771E-02  0.1230844E+00
          1   -1    0    0  501    0  0.00000000000E+00  0.00000000000E+00  0.32037184535E+03  0.32037184535E+03  0.00000000000E+00 0. -1.
         -1   -1    0    0    0  501 -0.00000000000E+00 -0.00000000000E+00 -0.79184782780E+02  0.79184782780E+02  0.00000000000E+00 0.  1.
         23    2    1    2    0    0  0.49725085495E+02 -0.19335003774E+02 -0.18145995736E+00  0.13591457467E+03  0.12500524861E+03 0.  0.
         23    2    1    2    0    0 -0.49725085495E+02  0.19335003774E+02  0.24136852252E+03  0.26364205346E+03  0.91662108798E+02 0.  0.
          5    1    3    3  502    0  0.50484389210E+02  0.47135960840E+02  0.16533411403E+01  0.69248075029E+02  0.47000000000E+01 0. -1.
         -5    1    3    3    0  502 -0.75930371572E+00 -0.66470964614E+02 -0.18348010977E+01  0.66666499638E+02  0.47000000000E+01 0. -1.
        -11    1    4    4    0    0 -0.31583617670E+02 -0.32569960374E+02  0.15280960722E+03  0.15940233148E+03  0.00000000000E+00 0. -1.
         11    1    4    4    0    0 -0.18141467824E+02  0.51904964148E+02  0.88558915309E+02  0.10423972198E+03  0.00000000000E+00 0.  1.
<mgrwt>
<rscale>  0 0.12774250E+03</rscale>
<asrwt>0</asrwt>
<pdfrwt beam="1">  1        1 0.49287976E-01 0.13591445E+03</pdfrwt>
<pdfrwt beam="2">  1       -1 0.12182274E-01 0.13591445E+03</pdfrwt>
<totfact> 0.34854099E+03</totfact>
</mgrwt>
</event>
<event>
 8    1  0.9424564E-006  0.1688470E+03  0.7546771E-02  0.1188268E+00
         -1   -1    0    0    0  501 -0.00000000000E+00  0.00000000000E+00  0.84574522122E+02  0.84574522122E+02  0.00000000000E+00 0.  1.
          1   -1    0    0  501    0  0.00000000000E+00 -0.00000000000E+00 -0.29972290806E+03  0.29972290806E+03  0.00000000000E+00 0. -1.
         23    2    1    2    0    0  0.99661125964E+02  0.54338230546E+02 -0.65493913730E+02  0.18110425955E+03  0.12499726703E+03 0.  0.
         23    2    1    2    0    0 -0.99661125964E+02 -0.54338230546E+02 -0.14965447221E+03  0.20319317063E+03  0.77498517478E+02 0.  0.
          5    1    3    3  502    0  0.12170154165E+03  0.66134808511E+02 -0.38121212776E+02  0.14373724291E+03  0.47000000000E+01 0.  1.
         -5    1    3    3    0  502 -0.22040415683E+02 -0.11796577965E+02 -0.27372700953E+02  0.37367016641E+02  0.47000000000E+01 0.  1.
        -11    1    4    4    0    0 -0.37960770179E+02 -0.43392757333E+02 -0.23358449423E+02  0.62205856806E+02  0.00000000000E+00 0.  1.
         11    1    4    4    0    0 -0.61700355785E+02 -0.10945473213E+02 -0.12629602278E+03  0.14098731382E+03  0.00000000000E+00 0. -1.
<mgrwt>
<rscale>  0 0.16038060E+03</rscale>
<asrwt>0</asrwt>
<pdfrwt beam="2">  1        1 0.46111216E-01 0.16884697E+03</pdfrwt>
<pdfrwt beam="1">  1       -1 0.13011465E-01 0.16884697E+03</pdfrwt>
<totfact> 0.34524707E+03</totfact>
</mgrwt>
</event>
<event>
 8    1  0.9424564E-006  0.1452868E+03  0.7546771E-02  0.1216830E+00
          1   -1    0    0  501    0  0.00000000000E+00  0.00000000000E+00  0.65753138241E+03  0.65753138241E+03  0.00000000000E+00 0. -1.
         -1   -1    0    0    0  501 -0.00000000000E+00 -0.00000000000E+00 -0.28463319100E+02  0.28463319100E+02  0.00000000000E+00 0.  1.
         23    2    1    2    0    0 -0.46152128364E+02 -0.58001962037E+02  0.24645049099E+03  0.28608758518E+03  0.12495605360E+03 0.  0.
         23    2    1    2    0    0  0.46152128364E+02  0.58001962037E+02  0.38261757232E+03  0.39990711633E+03  0.89639547603E+02 0.  0.
          5    1    3    3  502    0  0.69088844331E+01 -0.63774405075E+01  0.19621920931E+03  0.19650056624E+03  0.47000000000E+01 0. -1.
         -5    1    3    3    0  502 -0.53061012797E+02 -0.51624521529E+02  0.50231281681E+02  0.89587018934E+02  0.47000000000E+01 0. -1.
        -11    1    4    4    0    0  0.76215731566E+01 -0.10486953264E+02  0.45196808060E+01  0.13729241812E+02  0.00000000000E+00 0.  1.
         11    1    4    4    0    0  0.38530555208E+02  0.68488915301E+02  0.37809789151E+03  0.38617787452E+03  0.00000000000E+00 0. -1.
<mgrwt>
<rscale>  0 0.13742947E+03</rscale>
<asrwt>0</asrwt>
<pdfrwt beam="1">  1        1 0.10115866E+00 0.14528683E+03</pdfrwt>
<pdfrwt beam="2">  1       -1 0.43789727E-02 0.14528683E+03</pdfrwt>
<totfact> 0.64184531E+03</totfact>
</mgrwt>
</event>
<event>
 8    1  0.9424564E-006  0.1238816E+03  0.7546771E-02  0.1245923E+00
         -3   -1    0    0    0  501 -0.00000000000E+00  0.00000000000E+00  0.12246422040E+03  0.12246422040E+03  0.00000000000E+00 0.  1.
          3   -1    0    0  501    0  0.00000000000E+00 -0.00000000000E+00 -0.10842824142E+03  0.10842824142E+03  0.00000000000E+00 0. -1.
         23    2    1    2    0    0  0.69910066986E+01  0.45996247257E+02  0.27758753400E+02  0.12695351984E+03  0.11481340895E+03 0.  0.
         23    2    1    2    0    0 -0.69910066986E+01 -0.45996247257E+02 -0.13722774416E+02  0.10393894198E+03  0.91926384596E+02 0.  0.
          5    1    3    3  502    0  0.23837126026E+02  0.41695509829E+02  0.67700166629E+02  0.83139200613E+02  0.47000000000E+01 0.  1.
         -5    1    3    3    0  502 -0.16846119327E+02  0.43007374279E+01 -0.39941413229E+02  0.43814319229E+02  0.47000000000E+01 0. -1.
        -11    1    4    4    0    0  0.11722138932E+02 -0.13567709398E+02 -0.49196476884E+02  0.52362053218E+02  0.00000000000E+00 0.  1.
         11    1    4    4    0    0 -0.18713145630E+02 -0.32428537858E+02  0.35473702468E+02  0.51576888757E+02  0.00000000000E+00 0. -1.
<mgrwt>
<rscale>  0 0.11830280E+03</rscale>
<asrwt>0</asrwt>
<pdfrwt beam="2">  1        3 0.16681268E-01 0.12388159E+03</pdfrwt>
<pdfrwt beam="1">  1       -3 0.18840649E-01 0.12388159E+03</pdfrwt>
<totfact> 0.17394715E+03</totfact>
</mgrwt>
</event>
<event>
 8    1  0.1235931E-005  0.3241790E+03  0.7546771E-02  0.1074649E+00
          2   -1    0    0  501    0  0.00000000000E+00  0.00000000000E+00  0.33138128883E+03  0.33138128883E+03  0.00000000000E+00 0. -1.
         -2   -1    0    0    0  501 -0.00000000000E+00 -0.00000000000E+00 -0.30946663901E+03  0.30946663901E+03  0.00000000000E+00 0.  1.
         23    2    1    2    0    0 -0.18020920237E+03 -0.23872992104E+03  0.14072039110E+02  0.32448430726E+03  0.12499884622E+03 0.  0.
         23    2    1    2    0    0  0.18020920237E+03  0.23872992104E+03  0.78426107032E+01  0.31636362058E+03  0.10274775941E+03 0.  0.
          5    1    3    3  502    0 -0.13521131203E+03 -0.93720544654E+02 -0.27801796261E+02  0.16691515589E+03  0.47000000000E+01 0.  1.
         -5    1    3    3    0  502 -0.44997890342E+02 -0.14500937639E+03  0.41873835371E+02  0.15756915137E+03  0.47000000000E+01 0.  1.
        -11    1    4    4    0    0  0.41279666916E+02  0.13501062449E+03  0.19868025645E+02  0.14257144900E+03  0.00000000000E+00 0. -1.
         11    1    4    4    0    0  0.13892953545E+03  0.10371929655E+03 -0.12025414942E+02  0.17379217158E+03  0.00000000000E+00 0.  1.
<mgrwt>
<rscale>  0 0.32218250E+03</rscale>
<asrwt>0</asrwt>
<pdfrwt beam="1">  1        2 0.50981737E-01 0.32417903E+03</pdfrwt>
<pdfrwt beam="2">  1       -2 0.47610252E-01 0.32417903E+03</pdfrwt>
<totfact> 0.41731250E+02</totfact>
</mgrwt>
</event>
<event>
 8    1  0.9424564E-006  0.1250462E+03  0.7546771E-02  0.1250571E+00
         -1   -1    0    0    0  501 -0.00000000000E+00  0.00000000000E+00  0.31186638712E+03  0.31186638712E+03  0.00000000000E+00 0.  1.
          1   -1    0    0  501    0  0.00000000000E+00 -0.00000000000E+00 -0.46652309121E+02  0.46652309121E+02  0.00000000000E+00 0. -1.
         23    2    1    2    0    0  0.21060372300E+01  0.27280275198E+01  0.22782760887E+03  0.25988836386E+03  0.12499865912E+03 0.  0.
         23    2    1    2    0    0 -0.21060372300E+01 -0.27280275198E+01  0.37386469123E+02  0.98630332372E+02  0.91204807238E+02 0.  0.
          5    1    3    3  502    0  0.57410482496E+02 -0.13745863716E+02  0.69509008489E+02  0.91315412340E+02  0.47000000000E+01 0.  1.
         -5    1    3    3    0  502 -0.55304445266E+02  0.16473891235E+02  0.15831860038E+03  0.16857295152E+03  0.47000000000E+01 0.  1.
        -11    1    4    4    0    0 -0.15650039120E+02  0.11174581619E+02  0.63355405293E+02  0.66209533895E+02  0.00000000000E+00 0.  1.
         11    1    4    4    0    0  0.13544001890E+02 -0.13902609138E+02 -0.25968936170E+02  0.32420798476E+02  0.00000000000E+00 0. -1.
<mgrwt>
<rscale>  0 0.11558053E+03</rscale>
<asrwt>0</asrwt>
<pdfrwt beam="2">  1        1 0.71772785E-02 0.12504616E+03</pdfrwt>
<pdfrwt beam="1">  1       -1 0.47979443E-01 0.12504616E+03</pdfrwt>
<totfact> 0.42603849E+03</totfact>
</mgrwt>
</event>
<event>
 8    1  0.9424564E-006  0.1511514E+03  0.7546771E-02  0.1208626E+00
         -1   -1    0    0    0  501 -0.00000000000E+00  0.00000000000E+00  0.17394503995E+03  0.17394503995E+03  0.00000000000E+00 0.  1.
          1   -1    0    0  501    0  0.00000000000E+00 -0.00000000000E+00 -0.10928016940E+03  0.10928016940E+03  0.00000000000E+00 0. -1.
         23    2    1    2    0    0 -0.84367483025E+02 -0.10418856470E+02  0.50848615586E+02  0.15947511514E+03  0.12498122211E+03 0.  0.
         23    2    1    2    0    0  0.84367483025E+02  0.10418856470E+02  0.13816254963E+02  0.12375009422E+03  0.88863784279E+02 0.  0.
          5    1    3    3  502    0 -0.11241253422E+02 -0.40297899374E+02 -0.25742031561E+02  0.49346009579E+02  0.47000000000E+01 0. -1.
         -5    1    3    3    0  502 -0.73126229603E+02  0.29879042904E+02  0.76590647147E+02  0.11012910556E+03  0.47000000000E+01 0. -1.
        -11    1    4    4    0    0  0.71490460096E+02 -0.28408621406E+02 -0.80802299629E+01  0.77351313959E+02  0.00000000000E+00 0.  1.
         11    1    4    4    0    0  0.12877022929E+02  0.38827477876E+02  0.21896484926E+02  0.46398780262E+02  0.00000000000E+00 0. -1.
<mgrwt>
<rscale>  0 0.14355373E+03</rscale>
<asrwt>0</asrwt>
<pdfrwt beam="2">  1        1 0.16812334E-01 0.15115135E+03</pdfrwt>
<pdfrwt beam="1">  1       -1 0.26760775E-01 0.15115135E+03</pdfrwt>
<totfact> 0.38435783E+03</totfact>
</mgrwt>
</event>
<event>
 8    1  0.9424564E-006  0.1976262E+03  0.7546771E-02  0.1151927E+00
         -2   -1    0    0    0  501 -0.00000000000E+00  0.00000000000E+00  0.23706842783E+03  0.23706842783E+03  0.00000000000E+00 0. -1.
          2   -1    0    0  501    0  0.00000000000E+00 -0.00000000000E+00 -0.26816532022E+03  0.26816532022E+03  0.00000000000E+00 0.  1.
         23    2    1    2    0    0  0.64503221771E+02 -0.13882305500E+03  0.14180717095E+03  0.24323933052E+03  0.12499436771E+03 0.  0.
         23    2    1    2    0    0 -0.64503221771E+02  0.13882305500E+03 -0.17290406335E+03  0.26199441753E+03  0.12374471090E+03 0.  0.
          5    1    3    3  502    0  0.12685787417E+02  0.23046240556E+02  0.11838222378E+02  0.29228272532E+02  0.47000000000E+01 0. -1.
         -5    1    3    3    0  502  0.51817434354E+02 -0.16186929556E+03  0.12996894858E+03  0.21401105799E+03  0.47000000000E+01 0. -1.
        -11    1    4    4    0    0 -0.87279322039E+02  0.13948388535E+03 -0.17361475279E+03  0.23919765198E+03  0.00000000000E+00 0.  1.
         11    1    4    4    0    0  0.22776100268E+02 -0.66083034449E+00  0.71068943875E+00  0.22796765552E+02  0.00000000000E+00 0. -1.
<mgrwt>
<rscale>  0 0.19742886E+03</rscale>
<asrwt>0</asrwt>
<pdfrwt beam="2">  1        2 0.41256203E-01 0.19762616E+03</pdfrwt>
<pdfrwt beam="1">  1       -2 0.36472066E-01 0.19762616E+03</pdfrwt>
<totfact> 0.87615221E+02</totfact>
</mgrwt>
</event>
<event>
 8    1  0.9424564E-006  0.1497795E+03  0.7546771E-02  0.1209735E+00
         -2   -1    0    0    0  501 -0.00000000000E+00  0.00000000000E+00  0.42085084738E+02  0.42085084738E+02  0.00000000000E+00 0.  1.
          2   -1    0    0  501    0  0.00000000000E+00 -0.00000000000E+00 -0.47611245724E+03  0.47611245724E+03  0.00000000000E+00 0. -1.
         23    2    1    2    0    0 -0.31509936164E+02 -0.76267742781E+02 -0.16887883301E+03  0.22572986478E+03  0.12499706776E+03 0.  0.
         23    2    1    2    0    0  0.31509936164E+02  0.76267742781E+02 -0.26514853949E+03  0.29246767720E+03  0.91782076383E+02 0.  0.
          5    1    3    3  502    0  0.21193836073E+02 -0.90508494408E+02 -0.12310730964E+03  0.15433232304E+03  0.47000000000E+01 0.  1.
         -5    1    3    3    0  502 -0.52703772237E+02  0.14240751626E+02 -0.45771523368E+02  0.71397541739E+02  0.47000000000E+01 0.  1.
        -11    1    4    4    0    0  0.14783231736E+02 -0.56248594099E+01 -0.15010372748E+01  0.15888237688E+02  0.00000000000E+00 0.  1.
         11    1    4    4    0    0  0.16726704428E+02  0.81892602191E+02 -0.26364750221E+03  0.27657943951E+03  0.00000000000E+00 0. -1.
<mgrwt>
<rscale>  0 0.14270516E+03</rscale>
<asrwt>0</asrwt>
<pdfrwt beam="2">  1        2 0.73248070E-01 0.14977954E+03</pdfrwt>
<pdfrwt beam="1">  1       -2 0.64746285E-02 0.14977954E+03</pdfrwt>
<totfact> 0.83150397E+03</totfact>
</mgrwt>
</event>
<event>
 8    1  0.9424564E-006  0.1390352E+03  0.7546771E-02  0.1225210E+00
          2   -1    0    0  501    0  0.00000000000E+00  0.00000000000E+00  0.13119972022E+03  0.13119972022E+03  0.00000000000E+00 0. -1.
         -2   -1    0    0    0  501 -0.00000000000E+00 -0.00000000000E+00 -0.15254420724E+03  0.15254420724E+03  0.00000000000E+00 0.  1.
         23    2    1    2    0    0 -0.54475977642E+02 -0.28107082411E+02 -0.77356063971E+02  0.15910611116E+03  0.12479244269E+03 0.  0.
         23    2    1    2    0    0  0.54475977642E+02  0.28107082411E+02  0.56011576948E+02  0.12463781630E+03  0.92949708330E+02 0.  0.
          5    1    3    3  502    0 -0.19080419954E+02 -0.63263029964E+02 -0.85688713536E+02  0.10830936715E+03  0.47000000000E+01 0.  1.
         -5    1    3    3    0  502 -0.35395557688E+02  0.35155947553E+02  0.83326495654E+01  0.50796744002E+02  0.47000000000E+01 0.  1.
        -11    1    4    4    0    0  0.75354923362E+02  0.76682964201E+00  0.47899539713E+02  0.89293439890E+02  0.00000000000E+00 0. -1.
         11    1    4    4    0    0 -0.20878945720E+02  0.27340252769E+02  0.81120372341E+01  0.35344376412E+02  0.00000000000E+00 0.  1.
<mgrwt>
<rscale>  0 0.13152535E+03</rscale>
<asrwt>0</asrwt>
<pdfrwt beam="1">  1        2 0.20184572E-01 0.13903523E+03</pdfrwt>
<pdfrwt beam="2">  1       -2 0.23468340E-01 0.13903523E+03</pdfrwt>
<totfact> 0.41883892E+03</totfact>
</mgrwt>
</event>
<event>
 8    1  0.9424564E-006  0.1567444E+03  0.7546771E-02  0.1200627E+00
          1   -1    0    0  501    0  0.00000000000E+00  0.00000000000E+00  0.67851980172E+03  0.67851980172E+03  0.00000000000E+00 0. -1.
         -1   -1    0    0    0  501 -0.00000000000E+00 -0.00000000000E+00 -0.31771036820E+02  0.31771036820E+02  0.00000000000E+00 0.  1.
         23    2    1    2    0    0 -0.94420755185E+02  0.52856835619E+01  0.28067500559E+03  0.32147667715E+03  0.12500231088E+03 0.  0.
         23    2    1    2    0    0  0.94420755185E+02 -0.52856835619E+01  0.36607375930E+03  0.38881416139E+03  0.90682067593E+02 0.  0.
          5    1    3    3  502    0  0.28909229030E+02  0.12456136242E+02  0.42146348410E+02  0.52813857438E+02  0.47000000000E+01 0.  1.
         -5    1    3    3    0  502 -0.12332998421E+03 -0.71704526804E+01  0.23852865718E+03  0.26866281971E+03  0.47000000000E+01 0.  1.
        -11    1    4    4    0    0  0.42313444480E+02  0.38568294828E+02  0.11219270769E+03  0.12595691568E+03  0.00000000000E+00 0.  1.
         11    1    4    4    0    0  0.52107310705E+02 -0.43853978390E+02  0.25388105162E+03  0.26285724571E+03  0.00000000000E+00 0. -1.
<mgrwt>
<rscale>  0 0.14987494E+03</rscale>
<asrwt>0</asrwt>
<pdfrwt beam="1">  1        1 0.10438765E+00 0.15674436E+03</pdfrwt>
<pdfrwt beam="2">  1       -1 0.48878523E-02 0.15674436E+03</pdfrwt>
<totfact> 0.52378643E+03</totfact>
</mgrwt>
</event>
<event>
 7    1  0.9424564E-006  0.1535377E+03  0.7546771E-02  0.1213727E+00
          1   -1    0    0  501    0  0.00000000000E+00  0.00000000000E+00  0.35361365727E+02  0.35361365727E+02  0.00000000000E+00 0. -1.
         -1   -1    0    0    0  501 -0.00000000000E+00 -0.00000000000E+00 -0.48547503231E+03  0.48547503231E+03  0.00000000000E+00 0.  1.
         23    2    1    2    0    0 -0.21780177739E+02  0.44116550722E+02 -0.14382062391E+03  0.17821522684E+03  0.93035740588E+02 0.  0.
          5    1    1    2  502    0  0.60355251080E+02 -0.88803008928E+00 -0.46325773305E+02  0.76234586656E+02  0.47000000000E+01 0. -1.
         -5    1    1    2    0  502 -0.38575073340E+02 -0.43228520632E+02 -0.25996726937E+03  0.26638658454E+03  0.47000000000E+01 0.  1.
        -11    1    3    3    0    0  0.34677940064E+01 -0.21758593649E+02 -0.51444976947E+01  0.22625822624E+02  0.00000000000E+00 0.  1.
         11    1    3    3    0    0 -0.25247971746E+02  0.65875144371E+02 -0.13867612621E+03  0.15558940421E+03  0.00000000000E+00 0. -1.
<mgrwt>
<rscale>  0 0.13970459E+03</rscale>
<asrwt>0</asrwt>
<pdfrwt beam="1">  1        1 0.54402096E-02 0.15353774E+03</pdfrwt>
<pdfrwt beam="2">  1       -1 0.74688473E-01 0.15353774E+03</pdfrwt>
<totfact> 0.27048792E+03</totfact>
</mgrwt>
</event>
<event>
 8    1  0.9424564E-006  0.1308992E+03  0.7546771E-02  0.1236303E+00
          2   -1    0    0  501    0  0.00000000000E+00  0.00000000000E+00  0.17260891145E+03  0.17260891145E+03  0.00000000000E+00 0. -1.
         -2   -1    0    0    0  501 -0.00000000000E+00 -0.00000000000E+00 -0.84159567928E+02  0.84159567928E+02  0.00000000000E+00 0.  1.
         23    2    1    2    0    0 -0.50038068747E+02 -0.25446946526E+02  0.25477995262E+02  0.13335565904E+03  0.11825078496E+03 0.  0.
         23    2    1    2    0    0  0.50038068747E+02  0.25446946526E+02  0.62971348256E+02  0.12341282033E+03  0.90077622688E+02 0.  0.
          5    1    3    3  502    0  0.21233399593E+02  0.64296062057E+01  0.47040324393E+02  0.52221443998E+02  0.47000000000E+01 0. -1.
         -5    1    3    3    0  502 -0.71271468341E+02 -0.31876552731E+02 -0.21562329131E+02  0.81134215045E+02  0.47000000000E+01 0.  1.
        -11    1    4    4    0    0  0.28139960555E+02  0.59395922356E+02  0.39999405336E+02  0.76939491809E+02  0.00000000000E+00 0. -1.
         11    1    4    4    0    0  0.21898108193E+02 -0.33948975830E+02  0.22971942920E+02  0.46473328521E+02  0.00000000000E+00 0.  1.
<mgrwt>
<rscale>  0 0.12421407E+03</rscale>
<asrwt>0</asrwt>
<pdfrwt beam="1">  1        2 0.26555217E-01 0.13089921E+03</pdfrwt>
<pdfrwt beam="2">  1       -2 0.12947626E-01 0.13089921E+03</pdfrwt>
<totfact> 0.82753267E+03</totfact>
</mgrwt>
</event>
<event>
 8    1  0.9424564E-006  0.1271618E+03  0.7546771E-02  0.1245937E+00
         -2   -1    0    0    0  501 -0.00000000000E+00  0.00000000000E+00  0.22910596488E+02  0.22910596488E+02  0.00000000000E+00 0.  1.
          2   -1    0    0  501    0  0.00000000000E+00 -0.00000000000E+00 -0.54374274601E+03  0.54374274601E+03  0.00000000000E+00 0. -1.
         23    2    1    2    0    0  0.23121493225E+02 -0.32411655389E+01 -0.27335328758E+03  0.30148323638E+03  0.12500005355E+03 0.  0.
         23    2    1    2    0    0 -0.23121493225E+02  0.32411655389E+01 -0.24747886195E+03  0.26517010612E+03  0.92327078725E+02 0.  0.
          5    1    3    3  502    0 -0.80676608911E+01  0.56201675811E+02 -0.15772476081E+03  0.16769885416E+03  0.47000000000E+01 0.  1.
         -5    1    3    3    0  502  0.31189154116E+02 -0.59442841350E+02 -0.11562852677E+03  0.13378438222E+03  0.47000000000E+01 0.  1.
        -11    1    4    4    0    0 -0.55101834432E+02  0.32096479858E+01 -0.99586287942E+02  0.11385931119E+03  0.00000000000E+00 0.  1.
         11    1    4    4    0    0  0.31980341208E+02  0.31517553075E-01 -0.14789257400E+03  0.15131079493E+03  0.00000000000E+00 0. -1.
<mgrwt>
<rscale>  0 0.11829457E+03</rscale>
<asrwt>0</asrwt>
<pdfrwt beam="2">  1        2 0.83652737E-01 0.12716179E+03</pdfrwt>
<pdfrwt beam="1">  1       -2 0.35247069E-02 0.12716179E+03</pdfrwt>
<totfact> 0.17665280E+04</totfact>
</mgrwt>
</event>
<event>
 8    1  0.9424564E-006  0.1871632E+03  0.7546771E-02  0.1165372E+00
         -1   -1    0    0    0  501 -0.00000000000E+00  0.00000000000E+00  0.25529055687E+03  0.25529055687E+03  0.00000000000E+00 0.  1.
          1   -1    0    0  501    0  0.00000000000E+00 -0.00000000000E+00 -0.12990278362E+03  0.12990278362E+03  0.00000000000E+00 0. -1.
         23    2    1    2    0    0 -0.11874679899E+02  0.13879330723E+03  0.26286551563E+02  0.18900013655E+03  0.12500191465E+03 0.  0.
         23    2    1    2    0    0  0.11874679899E+02 -0.13879330723E+03  0.99101221686E+02  0.19619320395E+03  0.96260744745E+02 0.  0.
          5    1    3    3  502    0 -0.65809514103E+00  0.15237893146E+03  0.48759508623E+02  0.16006046208E+03  0.47000000000E+01 0. -1.
         -5    1    3    3    0  502 -0.11216584758E+02 -0.13585624222E+02 -0.22472957060E+02  0.28939674465E+02  0.47000000000E+01 0. -1.
        -11    1    4    4    0    0 -0.42668105907E+01  0.14505974787E+02  0.10333989256E+02  0.18314483642E+02  0.00000000000E+00 0.  1.
         11    1    4    4    0    0  0.16141490490E+02 -0.15329928202E+03  0.88767232430E+02  0.17787872030E+03  0.00000000000E+00 0. -1.
<mgrwt>
<rscale>  0 0.18253460E+03</rscale>
<asrwt>0</asrwt>
<pdfrwt beam="2">  1        1 0.19985044E-01 0.18716321E+03</pdfrwt>
<pdfrwt beam="1">  1       -1 0.39275470E-01 0.18716321E+03</pdfrwt>
<totfact> 0.16123182E+03</totfact>
</mgrwt>
</event>
<event>
 8    1  0.9424564E-006  0.1574569E+03  0.7546771E-02  0.1199099E+00
         -1   -1    0    0    0  501 -0.00000000000E+00  0.00000000000E+00  0.49706920563E+02  0.49706920563E+02  0.00000000000E+00 0. -1.
          1   -1    0    0  501    0  0.00000000000E+00 -0.00000000000E+00 -0.52530708390E+03  0.52530708390E+03  0.00000000000E+00 0.  1.
         23    2    1    2    0    0 -0.84979911605E+02 -0.44257791600E+02 -0.12900263269E+03  0.20355428644E+03  0.12494931289E+03 0.  0.
         23    2    1    2    0    0  0.84979911605E+02  0.44257791600E+02 -0.34659753065E+03  0.37145971803E+03  0.93124306030E+02 0.  0.
          5    1    3    3  502    0  0.35111351310E+01  0.29696708761E+02 -0.64697140663E+02  0.71428513852E+02  0.47000000000E+01 0.  1.
         -5    1    3    3    0  502 -0.88491046736E+02 -0.73954500361E+02 -0.64305492028E+02  0.13212577258E+03  0.47000000000E+01 0.  1.
        -11    1    4    4    0    0  0.90633134724E+01  0.42404889422E+02 -0.54466249969E+02  0.69619614217E+02  0.00000000000E+00 0.  1.
         11    1    4    4    0    0  0.75916598133E+02  0.18529021777E+01 -0.29213128068E+03  0.30184010381E+03  0.00000000000E+00 0. -1.
<mgrwt>
<rscale>  0 0.15112403E+03</rscale>
<asrwt>0</asrwt>
<pdfrwt beam="2">  1        1 0.80816479E-01 0.15745688E+03</pdfrwt>
<pdfrwt beam="1">  1       -1 0.76472181E-02 0.15745688E+03</pdfrwt>
<totfact> 0.38060283E+03</totfact>
</mgrwt>
</event>
<event>
 8    1  0.9424564E-006  0.1268669E+03  0.7546771E-02  0.1258764E+00
         -1   -1    0    0    0  501 -0.00000000000E+00  0.00000000000E+00  0.15312810377E+02  0.15312810377E+02  0.00000000000E+00 0.  1.
          1   -1    0    0  501    0  0.00000000000E+00 -0.00000000000E+00 -0.67689737137E+03  0.67689737137E+03  0.00000000000E+00 0. -1.
         23    2    1    2    0    0 -0.44926791571E+01 -0.21223342008E+02 -0.36336411837E+03  0.38487489161E+03  0.12499834104E+03 0.  0.
         23    2    1    2    0    0  0.44926791571E+01  0.21223342008E+02 -0.29822044262E+03  0.30733529014E+03  0.71055849535E+02 0.  0.
          5    1    3    3  502    0  0.46685490325E+02 -0.40491370798E+02 -0.11625638156E+03  0.13174491402E+03  0.47000000000E+01 0.  1.
         -5    1    3    3    0  502 -0.51178169482E+02  0.19268028790E+02 -0.24710773681E+03  0.25312997759E+03  0.47000000000E+01 0.  1.
        -11    1    4    4    0    0 -0.29994717266E+02  0.19543524675E+02 -0.20105204302E+03  0.20421448632E+03  0.00000000000E+00 0. -1.
         11    1    4    4    0    0  0.34487396423E+02  0.16798173325E+01 -0.97168399604E+02  0.10312080382E+03  0.00000000000E+00 0.  1.
<mgrwt>
<rscale>  0 0.11098111E+03</rscale>
<asrwt>0</asrwt>
<pdfrwt beam="2">  1        1 0.10413808E+00 0.12686686E+03</pdfrwt>
<pdfrwt beam="1">  1       -1 0.23558165E-02 0.12686686E+03</pdfrwt>
<totfact> 0.15091419E+04</totfact>
</mgrwt>
</event>
<event>
 7    1  0.9424564E-006  0.7831871E+03  0.7546771E-02  0.1022311E+00
          2   -1    0    0  501    0  0.00000000000E+00  0.00000000000E+00  0.33854470531E+04  0.33854470531E+04  0.00000000000E+00 0. -1.
         -2   -1    0    0    0  501 -0.00000000000E+00 -0.00000000000E+00 -0.57901539882E+02  0.57901539882E+02  0.00000000000E+00 0.  1.
         23    2    1    2    0    0  0.24642839099E+02  0.29799146111E+02  0.45565883499E+03  0.46658606379E+03  0.92640824645E+02 0.  0.
          5    1    1    2  502    0 -0.30977681061E+03 -0.63151564214E+02  0.24254306080E+04  0.24459528852E+04  0.47000000000E+01 0. -1.
         -5    1    1    2    0  502  0.28513397151E+03  0.33352418103E+02  0.44645607024E+03  0.53080964399E+03  0.47000000000E+01 0.  1.
        -11    1    3    3    0    0  0.40300046247E+02 -0.21071681716E+02  0.25297299034E+03  0.25702809835E+03  0.00000000000E+00 0.  1.
         11    1    3    3    0    0 -0.15657207147E+02  0.50870827828E+02  0.20268584465E+03  0.20955796544E+03  0.00000000000E+00 0. -1.
<mgrwt>
<rscale>  0 0.46861770E+03</rscale>
<asrwt>0</asrwt>
<pdfrwt beam="1">  1        2 0.52083785E+00 0.78318712E+03</pdfrwt>
<pdfrwt beam="2">  1       -2 0.89079319E-02 0.78318712E+03</pdfrwt>
<totfact> 0.86085195E+01</totfact>
</mgrwt>
</event>
<event>
 7    1  0.9424564E-006  0.1432925E+03  0.7546771E-02  0.1228359E+00
         -3   -1    0    0    0  501 -0.00000000000E+00  0.00000000000E+00  0.63274073651E+03  0.63274073651E+03  0.00000000000E+00 0.  1.
          3   -1    0    0  501    0  0.00000000000E+00 -0.00000000000E+00 -0.77898675404E+02  0.77898675404E+02  0.00000000000E+00 0. -1.
         23    2    1    2    0    0 -0.78075817427E+01 -0.21790762910E+02 -0.36617680364E+02  0.10206947394E+03  0.92420383650E+02 0.  0.
          5    1    1    2  502    0 -0.64472117479E+02 -0.49441911506E+01  0.31039048850E+03  0.31708901638E+03  0.47000000000E+01 0. -1.
         -5    1    1    2    0  502  0.72279699222E+02  0.26734954060E+02  0.28106925297E+03  0.29148092159E+03  0.47000000000E+01 0.  1.
        -11    1    3    3    0    0  0.41639160840E+02 -0.10522844523E+01 -0.15614166823E+02  0.44482909343E+02  0.00000000000E+00 0.  1.
         11    1    3    3    0    0 -0.49446742583E+02 -0.20738478457E+02 -0.21003513541E+02  0.57586564595E+02  0.00000000000E+00 0. -1.
<mgrwt>
<rscale>  0 0.12939346E+03</rscale>
<asrwt>0</asrwt>
<pdfrwt beam="2">  1        3 0.11984412E-01 0.14329251E+03</pdfrwt>
<pdfrwt beam="1">  1       -3 0.97344725E-01 0.14329251E+03</pdfrwt>
<totfact> 0.12370168E+02</totfact>
</mgrwt>
</event>
<event>
 8    1  0.9424564E-006  0.2036827E+03  0.7546771E-02  0.1150436E+00
          2   -1    0    0  501    0  0.00000000000E+00  0.00000000000E+00  0.34625075501E+03  0.34625075501E+03  0.00000000000E+00 0. -1.
         -2   -1    0    0    0  501 -0.00000000000E+00 -0.00000000000E+00 -0.11008966207E+03  0.11008966207E+03  0.00000000000E+00 0.  1.
         23    2    1    2    0    0  0.32004488821E+02 -0.15759956135E+03  0.13543920566E+03  0.24460253640E+03  0.12499885336E+03 0.  0.
         23    2    1    2    0    0 -0.32004488821E+02  0.15759956135E+03  0.10072188728E+03  0.21173788068E+03  0.93947445384E+02 0.  0.
          5    1    3    3  502    0  0.50610752609E+02 -0.79524619713E+02  0.13436056714E+03  0.16419642329E+03  0.47000000000E+01 0.  1.
         -5    1    3    3    0  502 -0.18606263788E+02 -0.78074941639E+02  0.10786385165E+01  0.80406113108E+02  0.47000000000E+01 0.  1.
        -11    1    4    4    0    0 -0.41570203872E+01  0.97976319472E+02  0.10758880952E+03  0.14557469536E+03  0.00000000000E+00 0. -1.
         11    1    4    4    0    0 -0.27847468434E+02  0.59623241880E+02 -0.68669222376E+01  0.66163185318E+02  0.00000000000E+00 0.  1.
<mgrwt>
<rscale>  0 0.19917645E+03</rscale>
<asrwt>0</asrwt>
<pdfrwt beam="1">  1        2 0.53269347E-01 0.20368265E+03</pdfrwt>
<pdfrwt beam="2">  1       -2 0.16936871E-01 0.20368265E+03</pdfrwt>
<totfact> 0.25787505E+03</totfact>
</mgrwt>
</event>
<event>
 8    1  0.9424564E-006  0.1306476E+03  0.7546771E-02  0.1241003E+00
         -1   -1    0    0    0  501 -0.00000000000E+00  0.00000000000E+00  0.23023768450E+02  0.23023768450E+02  0.00000000000E+00 0.  1.
          1   -1    0    0  501    0  0.00000000000E+00 -0.00000000000E+00 -0.58526175273E+03  0.58526175273E+03  0.00000000000E+00 0. -1.
         23    2    1    2    0    0 -0.29273507607E+02 -0.95145519107E+01 -0.26207876921E+03  0.29283798829E+03  0.12696984353E+03 0.  0.
         23    2    1    2    0    0  0.29273507607E+02  0.95145519107E+01 -0.30015921507E+03  0.31544753290E+03  0.92000688441E+02 0.  0.
          5    1    3    3  502    0  0.48939457133E+02  0.33355252786E+01 -0.12592497000E+03  0.13522346047E+03  0.47000000000E+01 0. -1.
         -5    1    3    3    0  502 -0.78212964740E+02 -0.12850077189E+02 -0.13615379922E+03  0.15761452781E+03  0.47000000000E+01 0. -1.
        -11    1    4    4    0    0  0.53048777464E+02  0.27883466994E+02 -0.13684703154E+03  0.14939468051E+03  0.00000000000E+00 0. -1.
         11    1    4    4    0    0 -0.23775269857E+02 -0.18368915083E+02 -0.16331218353E+03  0.16605285239E+03  0.00000000000E+00 0.  1.
<mgrwt>
<rscale>  0 0.12127857E+03</rscale>
<asrwt>0</asrwt>
<pdfrwt beam="2">  1        1 0.90040275E-01 0.13064764E+03</pdfrwt>
<pdfrwt beam="1">  1       -1 0.35421180E-02 0.13064764E+03</pdfrwt>
<totfact> 0.10219070E+04</totfact>
</mgrwt>
</event>
<event>
 8    1  0.9424564E-006  0.1632439E+03  0.7546771E-02  0.1192355E+00
          1   -1    0    0  501    0  0.00000000000E+00  0.00000000000E+00  0.12227254659E+03  0.12227254659E+03  0.00000000000E+00 0. -1.
         -1   -1    0    0    0  501 -0.00000000000E+00 -0.00000000000E+00 -0.32715094611E+03  0.32715094611E+03  0.00000000000E+00 0.  1.
         23    2    1    2    0    0 -0.10173275770E+03  0.25955813056E+02 -0.25408503475E+03  0.30200625070E+03  0.12500124942E+03 0.  0.
         23    2    1    2    0    0  0.10173275770E+03 -0.25955813056E+02  0.49206635225E+02  0.14741724201E+03  0.91034565250E+02 0.  0.
          5    1    3    3  502    0 -0.17681697701E+02 -0.44859187444E+02 -0.11417315450E+03  0.12402656304E+03  0.47000000000E+01 0. -1.
         -5    1    3    3    0  502 -0.84051059996E+02  0.70815000500E+02 -0.13991188025E+03  0.17797968765E+03  0.47000000000E+01 0. -1.
        -11    1    4    4    0    0  0.99643050088E+02 -0.46194776814E+02  0.59177984795E+02  0.12475868194E+03  0.00000000000E+00 0. -1.
         11    1    4    4    0    0  0.20897076087E+01  0.20238963758E+02 -0.99713495693E+01  0.22658560063E+02  0.00000000000E+00 0.  1.
<mgrwt>
<rscale>  0 0.15680216E+03</rscale>
<asrwt>0</asrwt>
<pdfrwt beam="1">  1        1 0.18811161E-01 0.16324390E+03</pdfrwt>
<pdfrwt beam="2">  1       -1 0.50330914E-01 0.16324390E+03</pdfrwt>
<totfact> 0.11119751E+03</totfact>
</mgrwt>
</event>
<event>
 7    1  0.9424564E-006  0.1551291E+03  0.7546771E-02  0.1215794E+00
         -1   -1    0    0    0  501 -0.00000000000E+00  0.00000000000E+00  0.10391930311E+02  0.10391930311E+02  0.00000000000E+00 0.  1.
          1   -1    0    0  501    0  0.00000000000E+00 -0.00000000000E+00 -0.15443619043E+04  0.15443619043E+04  0.00000000000E+00 0. -1.
         23    2    1    2    0    0  0.30494909659E+02 -0.17133583167E+02 -0.54258380908E+03  0.55130399930E+03  0.91188873100E+02 0.  0.
          5    1    1    2  502    0 -0.71248433248E+02  0.44170392309E+02 -0.34000217986E+03  0.35021555520E+03  0.47000000000E+01 0. -1.
         -5    1    1    2    0  502  0.40753523590E+02 -0.27036809142E+02 -0.65138398500E+03  0.65323428007E+03  0.47000000000E+01 0.  1.
        -11    1    3    3    0    0  0.52424124638E+02 -0.39773121256E+02 -0.38784432124E+03  0.39338709630E+03  0.00000000000E+00 0.  1.
         11    1    3    3    0    0 -0.21929214979E+02  0.22639538089E+02 -0.15473948784E+03  0.15791690300E+03  0.00000000000E+00 0. -1.
<mgrwt>
<rscale>  0 0.13818387E+03</rscale>
<asrwt>0</asrwt>
<pdfrwt beam="2">  1        1 0.23759423E+00 0.15512912E+03</pdfrwt>
<pdfrwt beam="1">  1       -1 0.15987579E-02 0.15512912E+03</pdfrwt>
<totfact> 0.62659138E+03</totfact>
</mgrwt>
</event>
<event>
 8    1  0.9424564E-006  0.1372894E+03  0.7546771E-02  0.1228769E+00
          1   -1    0    0  501    0  0.00000000000E+00  0.00000000000E+00  0.14564432082E+03  0.14564432082E+03  0.00000000000E+00 0. -1.
         -1   -1    0    0    0  501 -0.00000000000E+00 -0.00000000000E+00 -0.10326453089E+03  0.10326453089E+03  0.00000000000E+00 0.  1.
         23    2    1    2    0    0 -0.49310051508E+02  0.28116940813E+02  0.15318451395E+02  0.13814137824E+03  0.12500536744E+03 0.  0.
         23    2    1    2    0    0  0.49310051508E+02 -0.28116940813E+02  0.27061338537E+02  0.11076747347E+03  0.91187025371E+02 0.  0.
          5    1    3    3  502    0  0.12523668583E+02 -0.38455946820E+02  0.23128166297E+02  0.46826319489E+02  0.47000000000E+01 0. -1.
         -5    1    3    3    0  502 -0.61833720091E+02  0.66572887633E+02 -0.78097149018E+01  0.91315058752E+02  0.47000000000E+01 0. -1.
        -11    1    4    4    0    0  0.21940364217E+02 -0.87056828831E+01  0.59552675293E+02  0.64060047073E+02  0.00000000000E+00 0. -1.
         11    1    4    4    0    0  0.27369687291E+02 -0.19411257930E+02 -0.32491336756E+02  0.46707426401E+02  0.00000000000E+00 0.  1.
<mgrwt>
<rscale>  0 0.12911895E+03</rscale>
<asrwt>0</asrwt>
<pdfrwt beam="1">  1        1 0.22406819E-01 0.13728942E+03</pdfrwt>
<pdfrwt beam="2">  1       -1 0.15886851E-01 0.13728942E+03</pdfrwt>
<totfact> 0.61459137E+03</totfact>
</mgrwt>
</event>
<event>
 8    1  0.9424564E-006  0.1264123E+03  0.7546771E-02  0.1248083E+00
         -2   -1    0    0    0  501 -0.00000000000E+00  0.00000000000E+00  0.42645602493E+02  0.42645602493E+02  0.00000000000E+00 0.  1.
          2   -1    0    0  501    0  0.00000000000E+00 -0.00000000000E+00 -0.28268257014E+03  0.28268257014E+03  0.00000000000E+00 0. -1.
         23    2    1    2    0    0 -0.17556997528E+02 -0.65374357388E+01 -0.12953063130E+03  0.18099242018E+03  0.12501634089E+03 0.  0.
         23    2    1    2    0    0  0.17556997528E+02  0.65374357388E+01 -0.11050633635E+03  0.14433575245E+03  0.90940490621E+02 0.  0.
          5    1    3    3  502    0  0.94724231427E+01  0.55550325679E+02 -0.74962640343E+02  0.93899163630E+02  0.47000000000E+01 0.  1.
         -5    1    3    3    0  502 -0.27029420671E+02 -0.62087761418E+02 -0.54567990955E+02  0.87093256551E+02  0.47000000000E+01 0.  1.
        -11    1    4    4    0    0 -0.26103189826E+02  0.29577857168E+02 -0.70529556731E+02  0.80812403296E+02  0.00000000000E+00 0. -1.
         11    1    4    4    0    0  0.43660187354E+02 -0.23040421429E+02 -0.39976779618E+02  0.63523349157E+02  0.00000000000E+00 0.  1.
<mgrwt>
<rscale>  0 0.11702745E+03</rscale>
<asrwt>0</asrwt>
<pdfrwt beam="2">  1        2 0.43489626E-01 0.12641231E+03</pdfrwt>
<pdfrwt beam="1">  1       -2 0.65608619E-02 0.12641231E+03</pdfrwt>
<totfact> 0.14043051E+04</totfact>
</mgrwt>
</event>
<event>
 8    1  0.9424564E-006  0.1470096E+03  0.7546771E-02  0.1217244E+00
         -1   -1    0    0    0  501 -0.00000000000E+00  0.00000000000E+00  0.11289164595E+04  0.11289164595E+04  0.00000000000E+00 0.  1.
          1   -1    0    0  501    0  0.00000000000E+00 -0.00000000000E+00 -0.16480407710E+02  0.16480407710E+02  0.00000000000E+00 0. -1.
         23    2    1    2    0    0  0.74936112402E+02  0.19290219567E+02  0.80775840278E+03  0.82102707564E+03  0.12499715258E+03 0.  0.
         23    2    1    2    0    0 -0.74936112402E+02 -0.19290219567E+02  0.30467764899E+03  0.32436979155E+03  0.79998489776E+02 0.  0.
          5    1    3    3  502    0  0.68978409950E+02 -0.42082538740E+02  0.55178730430E+03  0.55769192238E+03  0.47000000000E+01 0. -1.
         -5    1    3    3    0  502  0.59577024521E+01  0.61372758307E+02  0.25597109848E+03  0.26333515325E+03  0.47000000000E+01 0. -1.
        -11    1    4    4    0    0 -0.34366197563E+02  0.24552770026E+02  0.19458442686E+03  0.19911547711E+03  0.00000000000E+00 0.  1.
         11    1    4    4    0    0 -0.40569914839E+02 -0.43842989593E+02  0.11009322213E+03  0.12525431444E+03  0.00000000000E+00 0. -1.
<mgrwt>
<rscale>  0 0.13712963E+03</rscale>
<asrwt>0</asrwt>
<pdfrwt beam="2">  1        1 0.25354482E-02 0.14700960E+03</pdfrwt>
<pdfrwt beam="1">  1       -1 0.17367939E+00 0.14700960E+03</pdfrwt>
<totfact> 0.10763570E+03</totfact>
</mgrwt>
</event>
<event>
 8    1  0.9424564E-006  0.1315686E+03  0.7546771E-02  0.1237131E+00
          1   -1    0    0  501    0  0.00000000000E+00  0.00000000000E+00  0.25157542571E+03  0.25157542571E+03  0.00000000000E+00 0. -1.
         -1   -1    0    0    0  501 -0.00000000000E+00 -0.00000000000E+00 -0.57711334493E+02  0.57711334493E+02  0.00000000000E+00 0.  1.
         23    2    1    2    0    0  0.23551459209E+02  0.33687959099E+02  0.72386292701E+02  0.15016677229E+03  0.12498293608E+03 0.  0.
         23    2    1    2    0    0 -0.23551459209E+02 -0.33687959099E+02  0.12147779852E+03  0.15911998791E+03  0.94195356581E+02 0.  0.
          5    1    3    3  502    0  0.26824826600E+02  0.22425609895E+02 -0.30422598221E+02  0.46584372743E+02  0.47000000000E+01 0.  1.
         -5    1    3    3    0  502 -0.32733673917E+01  0.11262349204E+02  0.10280889092E+03  0.10358239955E+03  0.47000000000E+01 0.  1.
        -11    1    4    4    0    0 -0.45691829957E+02  0.14987292538E+02  0.69758606888E+02  0.84726769662E+02  0.00000000000E+00 0. -1.
         11    1    4    4    0    0  0.22140370748E+02 -0.48675251637E+02  0.51719191628E+02  0.74393218249E+02  0.00000000000E+00 0.  1.
<mgrwt>
<rscale>  0 0.12368982E+03</rscale>
<asrwt>0</asrwt>
<pdfrwt beam="1">  1        1 0.38703911E-01 0.13156855E+03</pdfrwt>
<pdfrwt beam="2">  1       -1 0.88786670E-02 0.13156855E+03</pdfrwt>
<totfact> 0.76089285E+03</totfact>
</mgrwt>
</event>
<event>
 8    1  0.9424564E-006  0.1361046E+03  0.7546771E-02  0.1230619E+00
         -2   -1    0    0    0  501 -0.00000000000E+00  0.00000000000E+00  0.75798744106E+02  0.75798744106E+02  0.00000000000E+00 0.  1.
          2   -1    0    0  501    0  0.00000000000E+00 -0.00000000000E+00 -0.24654592537E+03  0.24654592537E+03  0.00000000000E+00 0. -1.
         23    2    1    2    0    0 -0.41536547638E+02 -0.34077837063E+02 -0.19358470596E+02  0.13747437268E+03  0.12505146537E+03 0.  0.
         23    2    1    2    0    0  0.41536547638E+02  0.34077837063E+02 -0.15138871067E+03  0.18487029680E+03  0.91498093709E+02 0.  0.
          5    1    3    3  502    0  0.35748110824E+02 -0.38787198805E+02 -0.27154114906E+02  0.59513109270E+02  0.47000000000E+01 0. -1.
         -5    1    3    3    0  502 -0.77284658463E+02  0.47093617424E+01  0.77956443101E+01  0.77961263407E+02  0.47000000000E+01 0. -1.
        -11    1    4    4    0    0  0.34920815753E+02  0.59894408584E+02 -0.13931284171E+03  0.15561128307E+03  0.00000000000E+00 0. -1.
         11    1    4    4    0    0  0.66157318853E+01 -0.25816571522E+02 -0.12075868959E+02  0.29259013733E+02  0.00000000000E+00 0.  1.
<mgrwt>
<rscale>  0 0.12789086E+03</rscale>
<asrwt>0</asrwt>
<pdfrwt beam="2">  1        2 0.37930143E-01 0.13610457E+03</pdfrwt>
<pdfrwt beam="1">  1       -2 0.11661345E-01 0.13610457E+03</pdfrwt>
<totfact> 0.66781016E+03</totfact>
</mgrwt>
</event>
<event>
 6    1  0.9424564E-006  0.2997840E+03  0.7546771E-02  0.1140029E+00
         -2   -1    0    0    0  501 -0.00000000000E+00  0.00000000000E+00  0.12980718082E+03  0.12980718082E+03  0.00000000000E+00 0.  1.
          2   -1    0    0  501    0  0.00000000000E+00 -0.00000000000E+00 -0.33857078522E+03  0.33857078522E+03  0.00000000000E+00 0. -1.
          5    1    1    2  502    0 -0.12554890771E+03 -0.30868892672E+02 -0.13739901543E+03  0.18872200773E+03  0.47000000000E+01 0. -1.
         -5    1    1    2    0  502  0.92912195621E+02 -0.13147687930E+02  0.71685640339E+02  0.11817977333E+03  0.47000000000E+01 0.  1.
        -11    1    1    2    0    0 -0.68186804800E+01  0.13240771221E+02 -0.68850636808E+01  0.16407819109E+02  0.00000000000E+00 0. -1.
         11    1    1    2    0    0  0.39455392566E+02  0.30775809381E+02 -0.13616516562E+03  0.14506836586E+03  0.00000000000E+00 0.  1.
<mgrwt>
<rscale>  0 0.21195235E+03</rscale>
<asrwt>0</asrwt>
<pdfrwt beam="2">  1        2 0.52087812E-01 0.29978401E+03</pdfrwt>
<pdfrwt beam="1">  1       -2 0.19970336E-01 0.29978401E+03</pdfrwt>
<totfact> 0.20194251E+03</totfact>
</mgrwt>
</event>
<event>
 8    1  0.1757133E-005  0.1367519E+03  0.7546771E-02  0.1227765E+00
          2   -1    0    0  501    0  0.00000000000E+00  0.00000000000E+00  0.17467548312E+03  0.17467548312E+03  0.00000000000E+00 0. -1.
         -2   -1    0    0    0  501 -0.00000000000E+00 -0.00000000000E+00 -0.95198058259E+02  0.95198058259E+02  0.00000000000E+00 0.  1.
         23    2    1    2    0    0 -0.44955795937E+02 -0.32468654816E+02  0.61918589161E+01  0.13689201551E+03  0.12500339059E+03 0.  0.
         23    2    1    2    0    0  0.44955795937E+02  0.32468654816E+02  0.73285565942E+02  0.13298152587E+03  0.96114904735E+02 0.  0.
          5    1    3    3  502    0 -0.12818078102E+01 -0.62049928379E+02 -0.33524944866E+02  0.70695463584E+02  0.47000000000E+01 0. -1.
         -5    1    3    3    0  502 -0.43673988127E+02  0.29581273562E+02  0.39716803782E+02  0.66196551928E+02  0.47000000000E+01 0. -1.
        -11    1    4    4    0    0  0.19678553748E+02  0.21406604194E+02 -0.20267944486E+02  0.35444008724E+02  0.00000000000E+00 0.  1.
         11    1    4    4    0    0  0.25277242189E+02  0.11062050622E+02  0.93553510428E+02  0.97537517141E+02  0.00000000000E+00 0. -1.
<mgrwt>
<rscale>  0 0.12979170E+03</rscale>
<asrwt>0</asrwt>
<pdfrwt beam="1">  1        2 0.26873151E-01 0.13675191E+03</pdfrwt>
<pdfrwt beam="2">  1       -2 0.14645855E-01 0.13675191E+03</pdfrwt>
<totfact> 0.67118315E+03</totfact>
</mgrwt>
</event>
<event>
 8    1  0.9424564E-006  0.1376025E+03  0.7546771E-02  0.1227941E+00
          1   -1    0    0  501    0  0.00000000000E+00  0.00000000000E+00  0.25994741852E+03  0.25994741852E+03  0.00000000000E+00 0. -1.
         -1   -1    0    0    0  501 -0.00000000000E+00 -0.00000000000E+00 -0.61725300891E+02  0.61725300891E+02  0.00000000000E+00 0.  1.
         23    2    1    2    0    0 -0.79380921832E+01 -0.56972682834E+02  0.72308124381E+02  0.15544420326E+03  0.12500214230E+03 0.  0.
         23    2    1    2    0    0  0.79380921832E+01  0.56972682834E+02  0.12591399325E+03  0.16622851615E+03  0.92025463805E+02 0.  0.
          5    1    3    3  502    0 -0.39225665234E+02  0.20249718650E+02  0.54181429597E+02  0.70045850924E+02  0.47000000000E+01 0.  1.
         -5    1    3    3    0  502  0.31287573051E+02 -0.77222401484E+02  0.18126694784E+02  0.85398352339E+02  0.47000000000E+01 0.  1.
        -11    1    4    4    0    0  0.47368526598E+02  0.43897654394E+02  0.93017977084E+02  0.11323923982E+03  0.00000000000E+00 0. -1.
         11    1    4    4    0    0 -0.39430434415E+02  0.13075028440E+02  0.32896016169E+02  0.52989276336E+02  0.00000000000E+00 0.  1.
<mgrwt>
<rscale>  0 0.12967363E+03</rscale>
<asrwt>0</asrwt>
<pdfrwt beam="1">  1        1 0.39991910E-01 0.13760245E+03</pdfrwt>
<pdfrwt beam="2">  1       -1 0.94962003E-02 0.13760245E+03</pdfrwt>
<totfact> 0.66176752E+03</totfact>
</mgrwt>
</event>
<event>
 8    1  0.9424564E-006  0.1348625E+03  0.7546771E-02  0.1232722E+00
          4   -1    0    0  501    0  0.00000000000E+00  0.00000000000E+00  0.96609097807E+02  0.96609097807E+02  0.00000000000E+00 0. -1.
         -4   -1    0    0    0  501 -0.00000000000E+00 -0.00000000000E+00 -0.16660732800E+03  0.16660732800E+03  0.00000000000E+00 0.  1.
         23    2    1    2    0    0  0.42826207657E+02 -0.27026317920E+02 -0.82395207783E+02  0.15804068322E+03  0.12499352529E+03 0.  0.
         23    2    1    2    0    0 -0.42826207657E+02  0.27026317920E+02  0.12396977590E+02  0.10517574259E+03  0.91344106834E+02 0.  0.
          5    1    3    3  502    0 -0.29844729718E+02 -0.26892172292E+02  0.87431022886E+01  0.41381501424E+02  0.47000000000E+01 0.  1.
         -5    1    3    3    0  502  0.72670937376E+02 -0.13414562864E+00 -0.91138310072E+02  0.11665918179E+03  0.47000000000E+01 0.  1.
        -11    1    4    4    0    0 -0.34968830462E+02  0.33279863815E+02  0.48064382484E+02  0.68121606727E+02  0.00000000000E+00 0. -1.
         11    1    4    4    0    0 -0.78573771951E+01 -0.62535458953E+01 -0.35667404894E+02  0.37054135863E+02  0.00000000000E+00 0.  1.
<mgrwt>
<rscale>  0 0.12651375E+03</rscale>
<asrwt>0</asrwt>
<pdfrwt beam="1">  1        4 0.14862938E-01 0.13486248E+03</pdfrwt>
<pdfrwt beam="2">  1       -4 0.25631897E-01 0.13486248E+03</pdfrwt>
<totfact> 0.90381006E+02</totfact>
</mgrwt>
</event>
<event>
 7    1  0.9424564E-006  0.1930045E+03  0.7546771E-02  0.1163724E+00
         -2   -1    0    0    0  501 -0.00000000000E+00  0.00000000000E+00  0.58163110168E+02  0.58163110168E+02  0.00000000000E+00 0.  1.
          2   -1    0    0  501    0  0.00000000000E+00 -0.00000000000E+00 -0.62344672613E+03  0.62344672613E+03  0.00000000000E+00 0. -1.
         23    2    1    2    0    0  0.69958243713E+02  0.11134205896E+03 -0.38675028466E+03  0.41869369465E+03  0.91855415177E+02 0.  0.
          5    1    1    2  502    0 -0.54286684711E+02 -0.98135389340E+01 -0.14425525135E+03  0.15451542714E+03  0.47000000000E+01 0. -1.
         -5    1    1    2    0  502 -0.15671559002E+02 -0.10152852002E+03 -0.34278079950E+02  0.10840071450E+03  0.47000000000E+01 0.  1.
        -11    1    3    3    0    0 -0.12576565704E+02  0.58834755275E+02 -0.11347265854E+03  0.12843575308E+03  0.00000000000E+00 0.  1.
         11    1    3    3    0    0  0.82534809417E+02  0.52507303684E+02 -0.27327762613E+03  0.29025794157E+03  0.00000000000E+00 0. -1.
<mgrwt>
<rscale>  0 0.18427979E+03</rscale>
<asrwt>0</asrwt>
<pdfrwt beam="2">  1        2 0.95914878E-01 0.19300453E+03</pdfrwt>
<pdfrwt beam="1">  1       -2 0.89481711E-02 0.19300453E+03</pdfrwt>
<totfact> 0.37660244E+03</totfact>
</mgrwt>
</event>
<event>
 8    1  0.9424564E-006  0.1850352E+03  0.7546771E-02  0.1168168E+00
         -1   -1    0    0    0  501 -0.00000000000E+00  0.00000000000E+00  0.31007908516E+03  0.31007908516E+03  0.00000000000E+00 0.  1.
          1   -1    0    0  501    0  0.00000000000E+00 -0.00000000000E+00 -0.99633250150E+02  0.99633250150E+02  0.00000000000E+00 0. -1.
         23    2    1    2    0    0 -0.13616378205E+03 -0.88832914099E+01  0.13413602717E+03  0.22853992777E+03  0.12497414290E+03 0.  0.
         23    2    1    2    0    0  0.13616378205E+03  0.88832914099E+01  0.76309807845E+02  0.18117240754E+03  0.91546524087E+02 0.  0.
          5    1    3    3  502    0 -0.10491038527E+03  0.46452843266E+02  0.56136216516E+02  0.12781791889E+03  0.47000000000E+01 0.  1.
         -5    1    3    3    0  502 -0.31253396774E+02 -0.55336134676E+02  0.77999810652E+02  0.10072200888E+03  0.47000000000E+01 0.  1.
        -11    1    4    4    0    0  0.28726885588E+02 -0.30485708785E+02 -0.29303779203E+01  0.41990469281E+02  0.00000000000E+00 0.  1.
         11    1    4    4    0    0  0.10743689646E+03  0.39369000195E+02  0.79240185765E+02  0.13918193826E+03  0.00000000000E+00 0. -1.
<mgrwt>
<rscale>  0 0.17962292E+03</rscale>
<asrwt>0</asrwt>
<pdfrwt beam="2">  1        1 0.15328192E-01 0.18503520E+03</pdfrwt>
<pdfrwt beam="1">  1       -1 0.47704474E-01 0.18503520E+03</pdfrwt>
<totfact> 0.16035328E+03</totfact>
</mgrwt>
</event>
<event>
 7    1  0.9424564E-006  0.1307365E+03  0.7546771E-02  0.1260907E+00
          2   -1    0    0  501    0  0.00000000000E+00  0.00000000000E+00  0.61729941333E+02  0.61729941333E+02  0.00000000000E+00 0. -1.
         -2   -1    0    0    0  501 -0.00000000000E+00 -0.00000000000E+00 -0.17903000808E+03  0.17903000808E+03  0.00000000000E+00 0.  1.
         23    2    1    2    0    0 -0.13082669048E+02  0.36126621609E+02 -0.11733927607E+03  0.17567170833E+03  0.12496301205E+03 0.  0.
          5    1    3    3  502    0 -0.33100166250E+01  0.46154685843E+02 -0.14061358969E+03  0.14810632275E+03  0.47000000000E+01 0. -1.
         -5    1    3    3    0  502 -0.97726524226E+01 -0.10028064234E+02  0.23274313617E+02  0.27565385577E+02  0.47000000000E+01 0. -1.
        -11    1    1    2    0    0 -0.13234972859E+01 -0.29452760757E+02 -0.22801807991E+02  0.37271157870E+02  0.00000000000E+00 0.  1.
         11    1    1    2    0    0  0.14406166333E+02 -0.66738608521E+01  0.22841017307E+02  0.27817083218E+02  0.00000000000E+00 0. -1.
<mgrwt>
<rscale>  0 0.10981796E+03</rscale>
<asrwt>0</asrwt>
<pdfrwt beam="1">  1        2 0.94969140E-02 0.13073654E+03</pdfrwt>
<pdfrwt beam="2">  1       -2 0.27543078E-01 0.13073654E+03</pdfrwt>
<totfact> 0.76800942E+03</totfact>
</mgrwt>
</event>
<event>
 8    1  0.9424564E-006  0.1616399E+03  0.7546771E-02  0.1194431E+00
          3   -1    0    0  501    0  0.00000000000E+00  0.00000000000E+00  0.58127018051E+02  0.58127018051E+02  0.00000000000E+00 0. -1.
         -3   -1    0    0    0  501 -0.00000000000E+00 -0.00000000000E+00 -0.52195111869E+03  0.52195111869E+03  0.00000000000E+00 0.  1.
         23    2    1    2    0    0 -0.69323115925E+02  0.75477644760E+02 -0.39538522193E+03  0.42714976868E+03  0.12499952763E+03 0.  0.
         23    2    1    2    0    0  0.69323115925E+02 -0.75477644760E+02 -0.68438878708E+02  0.15292836806E+03  0.90557365117E+02 0.  0.
          5    1    3    3  502    0  0.26801885090E+02  0.52020154518E+02 -0.19454083534E+03  0.20320596481E+03  0.47000000000E+01 0.  1.
         -5    1    3    3    0  502 -0.96125001016E+02  0.23457490243E+02 -0.20084438659E+03  0.22394380387E+03  0.47000000000E+01 0.  1.
        -11    1    4    4    0    0  0.89312477066E+02 -0.73282313515E+02 -0.50900713168E+02  0.12624539055E+03  0.00000000000E+00 0.  1.
         11    1    4    4    0    0 -0.19989361141E+02 -0.21953312457E+01 -0.17538165540E+02  0.26682977506E+02  0.00000000000E+00 0. -1.
<mgrwt>
<rscale>  0 0.15502470E+03</rscale>
<asrwt>0</asrwt>
<pdfrwt beam="1">  1        3 0.89426187E-02 0.16163988E+03</pdfrwt>
<pdfrwt beam="2">  1       -3 0.80300167E-01 0.16163988E+03</pdfrwt>
<totfact> 0.31276643E+02</totfact>
</mgrwt>
</event>
<event>
 8    1  0.9424564E-006  0.1402465E+03  0.7546771E-02  0.1224127E+00
         -1   -1    0    0    0  501 -0.00000000000E+00  0.00000000000E+00  0.80107902577E+02  0.80107902577E+02  0.00000000000E+00 0.  1.
          1   -1    0    0  501    0  0.00000000000E+00 -0.00000000000E+00 -0.19708230063E+03  0.19708230063E+03  0.00000000000E+00 0. -1.
         23    2    1    2    0    0 -0.44587104809E+02  0.45348144391E+02 -0.61512604461E+02  0.15314332772E+03  0.12499845680E+03 0.  0.
         23    2    1    2    0    0  0.44587104809E+02 -0.45348144391E+02 -0.55461793590E+02  0.12404687548E+03  0.90923883850E+02 0.  0.
          5    1    3    3  502    0  0.41465269893E+02  0.83646504522E+01 -0.31332938652E+01  0.42676029747E+02  0.47000000000E+01 0. -1.
         -5    1    3    3    0  502 -0.86052374702E+02  0.36983493939E+02 -0.58379310596E+02  0.11046729797E+03  0.47000000000E+01 0. -1.
        -11    1    4    4    0    0 -0.15760569784E+02 -0.39224794225E+02 -0.46310650476E+02  0.62702921697E+02  0.00000000000E+00 0.  1.
         11    1    4    4    0    0  0.60347674593E+02 -0.61233501665E+01 -0.91511431147E+01  0.61343953788E+02  0.00000000000E+00 0. -1.
<mgrwt>
<rscale>  0 0.13226910E+03</rscale>
<asrwt>0</asrwt>
<pdfrwt beam="2">  1        1 0.30320354E-01 0.14024649E+03</pdfrwt>
<pdfrwt beam="1">  1       -1 0.12324293E-01 0.14024649E+03</pdfrwt>
<totfact> 0.62606056E+03</totfact>
</mgrwt>
</event>
<event>
 8    1  0.9424564E-006  0.1637711E+03  0.7546771E-02  0.1191719E+00
          1   -1    0    0  501    0  0.00000000000E+00  0.00000000000E+00  0.19529129684E+03  0.19529129684E+03  0.00000000000E+00 0. -1.
         -1   -1    0    0    0  501 -0.00000000000E+00 -0.00000000000E+00 -0.12211511693E+03  0.12211511693E+03  0.00000000000E+00 0.  1.
         23    2    1    2    0    0  0.56132883965E+02  0.89703579502E+02  0.96316340226E+01  0.16405403797E+03  0.12499330447E+03 0.  0.
         23    2    1    2    0    0 -0.56132883965E+02 -0.89703579502E+02  0.63544545883E+02  0.15335237580E+03  0.91002247303E+02 0.  0.
          5    1    3    3  502    0  0.53771515706E+02  0.25766345833E+02 -0.48865663471E+02  0.77234859651E+02  0.47000000000E+01 0. -1.
         -5    1    3    3    0  502  0.23613682596E+01  0.63937233669E+02  0.58497297494E+02  0.86819178316E+02  0.47000000000E+01 0. -1.
        -11    1    4    4    0    0 -0.89677806995E+01 -0.60561712991E+02 -0.91782240361E+01  0.61906235288E+02  0.00000000000E+00 0.  1.
         11    1    4    4    0    0 -0.47165103266E+02 -0.29141866511E+02  0.72722769919E+02  0.91446140512E+02  0.00000000000E+00 0. -1.
<mgrwt>
<rscale>  0 0.15735256E+03</rscale>
<asrwt>0</asrwt>
<pdfrwt beam="1">  1        1 0.30044815E-01 0.16377106E+03</pdfrwt>
<pdfrwt beam="2">  1       -1 0.18786941E-01 0.16377106E+03</pdfrwt>
<totfact> 0.32897058E+03</totfact>
</mgrwt>
</event>
<event>
 8    1  0.9424564E-006  0.1467031E+03  0.7546771E-02  0.1214335E+00
         -1   -1    0    0    0  501 -0.00000000000E+00  0.00000000000E+00  0.56059023363E+03  0.56059023363E+03  0.00000000000E+00 0.  1.
          1   -1    0    0  501    0  0.00000000000E+00 -0.00000000000E+00 -0.32899492983E+02  0.32899492983E+02  0.00000000000E+00 0. -1.
         23    2    1    2    0    0  0.56417036105E+02 -0.52090294329E+02  0.35078975882E+03  0.38023052096E+03  0.12500205378E+03 0.  0.
         23    2    1    2    0    0 -0.56417036105E+02  0.52090294329E+02  0.17690098182E+03  0.21325920565E+03  0.91045322225E+02 0.  0.
          5    1    3    3  502    0  0.73639798042E+02 -0.48263395094E+01  0.99824218091E+02  0.12422993973E+03  0.47000000000E+01 0. -1.
         -5    1    3    3    0  502 -0.17222761936E+02 -0.47263954820E+02  0.25096554073E+03  0.25600058122E+03  0.47000000000E+01 0. -1.
        -11    1    4    4    0    0 -0.40087963933E+02  0.17482212020E+01  0.14719886819E+03  0.15257000992E+03  0.00000000000E+00 0. -1.
         11    1    4    4    0    0 -0.16329072172E+02  0.50342073127E+02  0.29702113635E+02  0.60689195736E+02  0.00000000000E+00 0.  1.
<mgrwt>
<rscale>  0 0.13925479E+03</rscale>
<asrwt>0</asrwt>
<pdfrwt beam="2">  1        1 0.50614609E-02 0.14670308E+03</pdfrwt>
<pdfrwt beam="1">  1       -1 0.86244644E-01 0.14670308E+03</pdfrwt>
<totfact> 0.22167699E+03</totfact>
</mgrwt>
</event>
<event>
 8    1  0.9424564E-006  0.1358626E+03  0.7546771E-02  0.1231245E+00
          2   -1    0    0  501    0  0.00000000000E+00  0.00000000000E+00  0.40149893679E+03  0.40149893679E+03  0.00000000000E+00 0. -1.
         -2   -1    0    0    0  501 -0.00000000000E+00 -0.00000000000E+00 -0.36296488956E+02  0.36296488956E+02  0.00000000000E+00 0.  1.
         23    2    1    2    0    0 -0.30426217423E+02 -0.43674832207E+02  0.19546704592E+03  0.23804625063E+03  0.12500162289E+03 0.  0.
         23    2    1    2    0    0  0.30426217423E+02  0.43674832207E+02  0.16973540191E+03  0.19974917511E+03  0.90864627989E+02 0.  0.
          5    1    3    3  502    0 -0.68263380448E+02 -0.32057157440E+02  0.58972054622E+02  0.95850632130E+02  0.47000000000E+01 0.  1.
         -5    1    3    3    0  502  0.37837163025E+02 -0.11617674766E+02  0.13649499129E+03  0.14219561850E+03  0.47000000000E+01 0.  1.
        -11    1    4    4    0    0  0.54835008097E+02  0.34105306778E+02  0.64399175980E+02  0.91199254001E+02  0.00000000000E+00 0.  1.
         11    1    4    4    0    0 -0.24408790673E+02  0.95695254290E+01  0.10533622593E+03  0.10854992111E+03  0.00000000000E+00 0. -1.
<mgrwt>
<rscale>  0 0.12747928E+03</rscale>
<asrwt>0</asrwt>
<pdfrwt beam="1">  1        2 0.61769064E-01 0.13586262E+03</pdfrwt>
<pdfrwt beam="2">  1       -2 0.55840755E-02 0.13586262E+03</pdfrwt>
<totfact> 0.12430341E+04</totfact>
</mgrwt>
</event>
<event>
 7    1  0.9424564E-006  0.4233792E+03  0.7546771E-02  0.1035972E+00
          2   -1    0    0  501    0  0.00000000000E+00  0.00000000000E+00  0.15991037845E+03  0.15991037845E+03  0.00000000000E+00 0. -1.
         -2   -1    0    0    0  501 -0.00000000000E+00 -0.00000000000E+00 -0.28023496597E+03  0.28023496597E+03  0.00000000000E+00 0.  1.
         23    2    1    2    0    0  0.10233687108E+03 -0.77396628161E+02 -0.72537902942E+02  0.17315328913E+03  0.90869361939E+02 0.  0.
          5    1    1    2  502    0  0.36446360935E+02 -0.40164855181E+02  0.37445138225E+02  0.66074058403E+02  0.47000000000E+01 0. -1.
         -5    1    1    2    0  502 -0.13878323202E+03  0.11756148334E+03 -0.85231822808E+02  0.20091799689E+03  0.47000000000E+01 0.  1.
        -11    1    3    3    0    0  0.66622844151E+02 -0.93591055265E+02 -0.68445581730E+02  0.13372616291E+03  0.00000000000E+00 0. -1.
         11    1    3    3    0    0  0.35714026931E+02  0.16194427105E+02 -0.40923212125E+01  0.39427126218E+02  0.00000000000E+00 0.  1.
<mgrwt>
<rscale>  0 0.42337917E+03</rscale>
<asrwt>0</asrwt>
<pdfrwt beam="1">  1        2 0.24601597E-01 0.42337917E+03</pdfrwt>
<pdfrwt beam="2">  1       -2 0.43113071E-01 0.42337917E+03</pdfrwt>
<totfact> 0.11369564E+03</totfact>
</mgrwt>
</event>
<event>
 8    1  0.9424564E-006  0.1704447E+03  0.7546771E-02  0.1183883E+00
         -2   -1    0    0    0  501 -0.00000000000E+00  0.00000000000E+00  0.10609919929E+04  0.10609919929E+04  0.00000000000E+00 0.  1.
          2   -1    0    0  501    0  0.00000000000E+00 -0.00000000000E+00 -0.37461790271E+02  0.37461790271E+02  0.00000000000E+00 0. -1.
         23    2    1    2    0    0 -0.51077423537E+02 -0.10400134100E+03  0.86666401949E+03  0.88326548782E+03  0.12500486861E+03 0.  0.
         23    2    1    2    0    0  0.51077423537E+02  0.10400134100E+03  0.15686618319E+03  0.21518829540E+03  0.90960545961E+02 0.  0.
          5    1    3    3  502    0 -0.87499923038E+02 -0.74316727321E+02  0.72212016070E+03  0.73120368501E+03  0.47000000000E+01 0. -1.
         -5    1    3    3    0  502  0.36422499501E+02 -0.29684613683E+02  0.14454385879E+03  0.15206180281E+03  0.47000000000E+01 0. -1.
        -11    1    4    4    0    0  0.35868191398E+02  0.53115546948E+02  0.18089311305E+02  0.66595883245E+02  0.00000000000E+00 0. -1.
         11    1    4    4    0    0  0.15209232139E+02  0.50885794057E+02  0.13877687188E+03  0.14859241215E+03  0.00000000000E+00 0.  1.
<mgrwt>
<rscale>  0 0.16433975E+03</rscale>
<asrwt>0</asrwt>
<pdfrwt beam="2">  1        2 0.57633532E-02 0.17044471E+03</pdfrwt>
<pdfrwt beam="1">  1       -2 0.16322951E+00 0.17044471E+03</pdfrwt>
<totfact> 0.32805959E+02</totfact>
</mgrwt>
</event>
<event>
 8    1  0.9514209E-006  0.1997269E+03  0.7546771E-02  0.1154819E+00
         -2   -1    0    0    0  501 -0.00000000000E+00  0.00000000000E+00  0.39160956229E+02  0.39160956229E+02  0.00000000000E+00 0.  1.
          2   -1    0    0  501    0  0.00000000000E+00 -0.00000000000E+00 -0.97065663327E+03  0.97065663327E+03  0.00000000000E+00 0. -1.
         23    2    1    2    0    0  0.14973464522E+03  0.42954721137E+02 -0.36627519525E+03  0.41719102919E+03  0.12500105655E+03 0.  0.
         23    2    1    2    0    0 -0.14973464522E+03 -0.42954721137E+02 -0.56522048180E+03  0.59262656031E+03  0.86408766300E+02 0.  0.
          5    1    3    3  502    0 -0.88042517202E+00 -0.14314095003E+02 -0.13171588329E+03  0.13257764659E+03  0.47000000000E+01 0.  1.
         -5    1    3    3    0  502  0.15061507039E+03  0.57268816139E+02 -0.23455931196E+03  0.28461338260E+03  0.47000000000E+01 0.  1.
        -11    1    4    4    0    0 -0.44706647638E+02 -0.66890300041E+01 -0.58843710084E+02  0.74202491076E+02  0.00000000000E+00 0. -1.
         11    1    4    4    0    0 -0.10502799758E+03 -0.36265691132E+02 -0.50637677171E+03  0.51842406923E+03  0.00000000000E+00 0.  1.
<mgrwt>
<rscale>  0 0.19409515E+03</rscale>
<asrwt>0</asrwt>
<pdfrwt beam="2">  1        2 0.14933179E+00 0.19972690E+03</pdfrwt>
<pdfrwt beam="1">  1       -2 0.60247623E-02 0.19972690E+03</pdfrwt>
<totfact> 0.39893772E+03</totfact>
</mgrwt>
</event>
<event>
 8    1  0.9424564E-006  0.1711070E+03  0.7546771E-02  0.1184580E+00
          1   -1    0    0  501    0  0.00000000000E+00  0.00000000000E+00  0.52052689298E+02  0.52052689298E+02  0.00000000000E+00 0. -1.
         -1   -1    0    0    0  501 -0.00000000000E+00 -0.00000000000E+00 -0.63111134753E+03  0.63111134753E+03  0.00000000000E+00 0.  1.
         23    2    1    2    0    0 -0.70275190867E+02  0.93342037747E+02 -0.47818572843E+03  0.50787713114E+03  0.12500500387E+03 0.  0.
         23    2    1    2    0    0  0.70275190867E+02 -0.93342037747E+02 -0.10087292980E+03  0.17528690569E+03  0.83059092690E+02 0.  0.
          5    1    3    3  502    0 -0.94480072742E+02  0.27516988061E+02 -0.23709820420E+03  0.25675146973E+03  0.47000000000E+01 0.  1.
         -5    1    3    3    0  502  0.24204881875E+02  0.65825049687E+02 -0.24108752424E+03  0.25112566140E+03  0.47000000000E+01 0.  1.
        -11    1    4    4    0    0  0.36547768576E+02 -0.72717036208E+02 -0.10788137353E+03  0.13513658830E+03  0.00000000000E+00 0.  1.
         11    1    4    4    0    0  0.33727422291E+02 -0.20625001539E+02  0.70084437337E+01  0.40150317389E+02  0.00000000000E+00 0. -1.
<mgrwt>
<rscale>  0 0.16370149E+03</rscale>
<asrwt>0</asrwt>
<pdfrwt beam="1">  1        1 0.80081063E-02 0.17110695E+03</pdfrwt>
<pdfrwt beam="2">  1       -1 0.97094050E-01 0.17110695E+03</pdfrwt>
<totfact> 0.92638328E+02</totfact>
</mgrwt>
</event>
<event>
 8    1  0.9424564E-006  0.1493837E+03  0.7546771E-02  0.1210334E+00
          3   -1    0    0  501    0  0.00000000000E+00  0.00000000000E+00  0.28792122998E+03  0.28792122998E+03  0.00000000000E+00 0. -1.
         -3   -1    0    0    0  501 -0.00000000000E+00 -0.00000000000E+00 -0.65066500220E+02  0.65066500220E+02  0.00000000000E+00 0.  1.
         23    2    1    2    0    0 -0.80772642454E+02  0.12849190726E+02  0.10359851743E+03  0.18179152085E+03  0.12500473097E+03 0.  0.
         23    2    1    2    0    0  0.80772642454E+02 -0.12849190726E+02  0.11925621233E+03  0.17119620936E+03  0.91633926291E+02 0.  0.
          5    1    3    3  502    0 -0.70557397013E+02 -0.38929384852E+01  0.13031598139E+03  0.14831670927E+03  0.47000000000E+01 0.  1.
         -5    1    3    3    0  502 -0.10215245441E+02  0.16742129211E+02 -0.26717463955E+02  0.33474811578E+02  0.47000000000E+01 0.  1.
        -11    1    4    4    0    0  0.58662129096E+01 -0.33213283224E+02  0.74044952021E+02  0.81364547293E+02  0.00000000000E+00 0. -1.
         11    1    4    4    0    0  0.74906429544E+02  0.20364092498E+02  0.45211260309E+02  0.89831662064E+02  0.00000000000E+00 0.  1.
<mgrwt>
<rscale>  0 0.14224913E+03</rscale>
<asrwt>0</asrwt>
<pdfrwt beam="1">  1        3 0.44295573E-01 0.14938375E+03</pdfrwt>
<pdfrwt beam="2">  1       -3 0.10010231E-01 0.14938375E+03</pdfrwt>
<totfact> 0.87791324E+02</totfact>
</mgrwt>
</event>
<event>
 8    1  0.9424564E-006  0.1393251E+03  0.7546771E-02  0.1224746E+00
         -2   -1    0    0    0  501 -0.00000000000E+00  0.00000000000E+00  0.20091299240E+02  0.20091299240E+02  0.00000000000E+00 0. -1.
          2   -1    0    0  501    0  0.00000000000E+00 -0.00000000000E+00 -0.78539215937E+03  0.78539215937E+03  0.00000000000E+00 0.  1.
         23    2    1    2    0    0 -0.52602858443E+02 -0.31922398649E+02 -0.43997474057E+03  0.46150758385E+03  0.12500150941E+03 0.  0.
         23    2    1    2    0    0  0.52602858443E+02  0.31922398649E+02 -0.32532611956E+03  0.34397587476E+03  0.93253515213E+02 0.  0.
          5    1    3    3  502    0 -0.76644964319E+02 -0.60177495404E+02 -0.26028820790E+03  0.27797090258E+03  0.47000000000E+01 0.  1.
         -5    1    3    3    0  502  0.24042105876E+02  0.28255096755E+02 -0.17968653267E+03  0.18353668127E+03  0.47000000000E+01 0.  1.
        -11    1    4    4    0    0 -0.12399828141E+01 -0.17427249361E+02 -0.96469715483E+01  0.19957721256E+02  0.00000000000E+00 0. -1.
         11    1    4    4    0    0  0.53842841257E+02  0.49349648010E+02 -0.31567914801E+03  0.32401815350E+03  0.00000000000E+00 0.  1.
<mgrwt>
<rscale>  0 0.13184355E+03</rscale>
<asrwt>0</asrwt>
<pdfrwt beam="2">  1        2 0.12082957E+00 0.13932508E+03</pdfrwt>
<pdfrwt beam="1">  1       -2 0.30909689E-02 0.13932508E+03</pdfrwt>
<totfact> 0.14060763E+04</totfact>
</mgrwt>
</event>
<event>
 8    1  0.9424564E-006  0.2829809E+03  0.7546771E-02  0.1095898E+00
          4   -1    0    0  501    0  0.00000000000E+00  0.00000000000E+00  0.13403846337E+03  0.13403846337E+03  0.00000000000E+00 0. -1.
         -4   -1    0    0    0  501 -0.00000000000E+00 -0.00000000000E+00 -0.59728715474E+03  0.59728715474E+03  0.00000000000E+00 0.  1.
         23    2    1    2    0    0  0.28420362616E+02 -0.25227577844E+03 -0.31526138287E+03  0.42363655262E+03  0.12500961478E+03 0.  0.
         23    2    1    2    0    0 -0.28420362616E+02  0.25227577844E+03 -0.14798730850E+03  0.30768906549E+03  0.91222432252E+02 0.  0.
          5    1    3    3  502    0  0.77418246392E+02 -0.13516222436E+03 -0.17950792093E+03  0.23771326308E+03  0.47000000000E+01 0. -1.
         -5    1    3    3    0  502 -0.48997883776E+02 -0.11711355408E+03 -0.13575346194E+03  0.18592328954E+03  0.47000000000E+01 0. -1.
        -11    1    4    4    0    0 -0.24457203257E+02  0.11315052485E+03 -0.17825898858E+02  0.11712795881E+03  0.00000000000E+00 0.  1.
         11    1    4    4    0    0 -0.39631593588E+01  0.13912525359E+03 -0.13016140965E+03  0.19056110668E+03  0.00000000000E+00 0. -1.
<mgrwt>
<rscale>  0 0.27961703E+03</rscale>
<asrwt>0</asrwt>
<pdfrwt beam="1">  1        4 0.20621303E-01 0.28298090E+03</pdfrwt>
<pdfrwt beam="2">  1       -4 0.91890329E-01 0.28298090E+03</pdfrwt>
<totfact> 0.40880082E+01</totfact>
</mgrwt>
</event>
<event>
 8    1  0.9424564E-006  0.1735855E+03  0.7546771E-02  0.1178248E+00
         -1   -1    0    0    0  501 -0.00000000000E+00  0.00000000000E+00  0.14734610647E+03  0.14734610647E+03  0.00000000000E+00 0.  1.
          1   -1    0    0  501    0  0.00000000000E+00 -0.00000000000E+00 -0.23158598084E+03  0.23158598084E+03  0.00000000000E+00 0. -1.
         23    2    1    2    0    0 -0.14815185721E+01  0.12043331689E+03  0.39533713918E+02  0.17803048209E+03  0.12500223718E+03 0.  0.
         23    2    1    2    0    0  0.14815185721E+01 -0.12043331689E+03 -0.12377358829E+03  0.20090160522E+03  0.10264100111E+03 0.  0.
          5    1    3    3  502    0 -0.50793938917E+02  0.10789404327E+03  0.42900182986E+02  0.12682138820E+03  0.47000000000E+01 0.  1.
         -5    1    3    3    0  502  0.49312420345E+02  0.12539273625E+02 -0.33664690682E+01  0.51209093893E+02  0.47000000000E+01 0.  1.
        -11    1    4    4    0    0  0.45559848758E+02 -0.26979860782E+02 -0.27454469508E+02  0.59643613259E+02  0.00000000000E+00 0.  1.
         11    1    4    4    0    0 -0.44078330186E+02 -0.93453456111E+02 -0.96319118782E+02  0.14125799197E+03  0.00000000000E+00 0. -1.
<mgrwt>
<rscale>  0 0.16961639E+03</rscale>
<asrwt>0</asrwt>
<pdfrwt beam="2">  1        1 0.35628612E-01 0.17358554E+03</pdfrwt>
<pdfrwt beam="1">  1       -1 0.22668632E-01 0.17358554E+03</pdfrwt>
<totfact> 0.19660354E+03</totfact>
</mgrwt>
</event>
<event>
 8    1  0.9424564E-006  0.1197460E+03  0.7546771E-02  0.1255385E+00
         -1   -1    0    0    0  501 -0.00000000000E+00  0.00000000000E+00  0.11854132459E+03  0.11854132459E+03  0.00000000000E+00 0.  1.
          1   -1    0    0  501    0  0.00000000000E+00 -0.00000000000E+00 -0.17134506240E+03  0.17134506240E+03  0.00000000000E+00 0. -1.
         23    2    1    2    0    0  0.37467924419E+02 -0.19937916471E+02  0.67090108835E+02  0.13725957007E+03  0.11197205455E+03 0.  0.
         23    2    1    2    0    0 -0.37467924419E+02  0.19937916471E+02 -0.11989384664E+03  0.15262681692E+03  0.84374432781E+02 0.  0.
          5    1    3    3  502    0  0.13937162001E+02 -0.36299352634E+02 -0.21045409243E+02  0.44462194463E+02  0.47000000000E+01 0. -1.
         -5    1    3    3    0  502  0.23530762418E+02  0.16361436163E+02  0.88135518078E+02  0.92797375611E+02  0.47000000000E+01 0.  1.
        -11    1    4    4    0    0 -0.56516388227E+02 -0.43339170858E+01 -0.10270448749E+03  0.11730770106E+03  0.00000000000E+00 0. -1.
         11    1    4    4    0    0  0.19048463807E+02  0.24271833557E+02 -0.17189359150E+02  0.35319115867E+02  0.00000000000E+00 0.  1.
<mgrwt>
<rscale>  0 0.11284801E+03</rscale>
<asrwt>0</asrwt>
<pdfrwt beam="2">  1        1 0.26360779E-01 0.11974601E+03</pdfrwt>
<pdfrwt beam="1">  1       -1 0.18237127E-01 0.11974601E+03</pdfrwt>
<totfact> 0.39956219E+03</totfact>
</mgrwt>
</event>
<event>
 7    1  0.9424564E-006  0.7875858E+03  0.7546771E-02  0.1002004E+00
         -2   -1    0    0    0  501 -0.00000000000E+00  0.00000000000E+00  0.66613223702E+03  0.66613223702E+03  0.00000000000E+00 0.  1.
          2   -1    0    0  501    0  0.00000000000E+00 -0.00000000000E+00 -0.36248967502E+03  0.36248967502E+03  0.00000000000E+00 0. -1.
         23    2    1    2    0    0 -0.14062469553E+03 -0.75835214202E+02 -0.55677538442E+00  0.18433011090E+03  0.91929293901E+02 0.  0.
          5    1    1    2  502    0 -0.26761417546E+02 -0.12051307376E+03 -0.22434779635E+03  0.25611247167E+03  0.47000000000E+01 0. -1.
         -5    1    1    2    0  502  0.16738611308E+03  0.19634828796E+03  0.52854713373E+03  0.58817932947E+03  0.47000000000E+01 0.  1.
        -11    1    3    3    0    0  0.77839494152E+00 -0.37774035817E+02  0.24720554244E+01  0.37862841133E+02  0.00000000000E+00 0.  1.
         11    1    3    3    0    0 -0.14140309048E+03 -0.38061178385E+02 -0.30288308089E+01  0.14646726976E+03  0.00000000000E+00 0. -1.
<mgrwt>
<rscale>  0 0.54779995E+03</rscale>
<asrwt>0</asrwt>
<pdfrwt beam="2">  1        2 0.55767642E-01 0.78758581E+03</pdfrwt>
<pdfrwt beam="1">  1       -2 0.10248188E+00 0.78758581E+03</pdfrwt>
<totfact> 0.69814041E+01</totfact>
</mgrwt>
</event>
<event>
 8    1  0.9424564E-006  0.2380365E+03  0.7546771E-02  0.1124069E+00
          2   -1    0    0  501    0  0.00000000000E+00  0.00000000000E+00  0.52236087684E+03  0.52236087684E+03  0.00000000000E+00 0. -1.
         -2   -1    0    0    0  501 -0.00000000000E+00 -0.00000000000E+00 -0.10340683273E+03  0.10340683273E+03  0.00000000000E+00 0.  1.
         23    2    1    2    0    0  0.13847845578E+03  0.14786947779E+03  0.16833961714E+03  0.29154692874E+03  0.12497887735E+03 0.  0.
         23    2    1    2    0    0 -0.13847845578E+03 -0.14786947779E+03  0.25061442696E+03  0.33422078083E+03  0.88624342945E+02 0.  0.
          5    1    3    3  502    0  0.70579439918E+02  0.12041739740E+03  0.16759240160E+03  0.21815386774E+03  0.47000000000E+01 0. -1.
         -5    1    3    3    0  502  0.67899015861E+02  0.27452080389E+02  0.74721554335E+00  0.73393061005E+02  0.47000000000E+01 0. -1.
        -11    1    4    4    0    0 -0.10659837397E+03 -0.67715921232E+02  0.19243563841E+03  0.23017413898E+03  0.00000000000E+00 0.  1.
         11    1    4    4    0    0 -0.31880081805E+02 -0.80153556553E+02  0.58178788545E+02  0.10404664185E+03  0.00000000000E+00 0. -1.
<mgrwt>
<rscale>  0 0.23369090E+03</rscale>
<asrwt>0</asrwt>
<pdfrwt beam="1">  1        2 0.80363210E-01 0.23803652E+03</pdfrwt>
<pdfrwt beam="2">  1       -2 0.15908744E-01 0.23803652E+03</pdfrwt>
<totfact> 0.18312573E+03</totfact>
</mgrwt>
</event>
<event>
 8    1  0.9424564E-006  0.1460212E+03  0.7546771E-02  0.1215530E+00
         -1   -1    0    0    0  501 -0.00000000000E+00  0.00000000000E+00  0.12891532553E+03  0.12891532553E+03  0.00000000000E+00 0.  1.
          1   -1    0    0  501    0  0.00000000000E+00 -0.00000000000E+00 -0.16581799223E+03  0.16581799223E+03  0.00000000000E+00 0. -1.
         23    2    1    2    0    0  0.65992149742E+02  0.36609671512E+02  0.43239547443E+02  0.15228871513E+03  0.12500784942E+03 0.  0.
         23    2    1    2    0    0 -0.65992149742E+02 -0.36609671512E+02 -0.80142214141E+02  0.14244460263E+03  0.90401650739E+02 0.  0.
          5    1    3    3  502    0  0.64936710221E+02  0.34436285435E+02 -0.29512107360E+02  0.79345375226E+02  0.47000000000E+01 0.  1.
         -5    1    3    3    0  502  0.10554395205E+01  0.21733860778E+01  0.72751654803E+02  0.72943339903E+02  0.47000000000E+01 0.  1.
        -11    1    4    4    0    0 -0.83762994009E+01 -0.47064531451E+02 -0.63228192599E+01  0.48220437117E+02  0.00000000000E+00 0.  1.
         11    1    4    4    0    0 -0.57615850341E+02  0.10454859939E+02 -0.73819394881E+02  0.94224165517E+02  0.00000000000E+00 0. -1.
<mgrwt>
<rscale>  0 0.13837654E+03</rscale>
<asrwt>0</asrwt>
<pdfrwt beam="2">  1        1 0.25510460E-01 0.14602121E+03</pdfrwt>
<pdfrwt beam="1">  1       -1 0.19833127E-01 0.14602121E+03</pdfrwt>
<totfact> 0.36809856E+03</totfact>
</mgrwt>
</event>
<event>
 8    1  0.9424564E-006  0.1277430E+03  0.7546771E-02  0.1235236E+00
          4   -1    0    0  501    0  0.00000000000E+00  0.00000000000E+00  0.99809410914E+02  0.99809410914E+02  0.00000000000E+00 0. -1.
         -4   -1    0    0    0  501 -0.00000000000E+00 -0.00000000000E+00 -0.21842923117E+03  0.21842923117E+03  0.00000000000E+00 0.  1.
         23    2    1    2    0    0  0.19723208191E+02  0.17396239616E+02 -0.15034216984E+03  0.19728417019E+03  0.12500656656E+03 0.  0.
         23    2    1    2    0    0 -0.19723208191E+02 -0.17396239616E+02  0.31722349579E+02  0.12095447189E+03  0.11371913961E+03 0.  0.
          5    1    3    3  502    0  0.64879680830E+01  0.19870713982E+02  0.18217024454E+02  0.28122748514E+02  0.47000000000E+01 0. -1.
         -5    1    3    3    0  502  0.13235240108E+02 -0.24744743665E+01 -0.16855919429E+03  0.16916142168E+03  0.47000000000E+01 0. -1.
        -11    1    4    4    0    0 -0.59243801734E+02 -0.12457286338E+02 -0.12100665618E+02  0.61736845848E+02  0.00000000000E+00 0.  1.
         11    1    4    4    0    0  0.39520593544E+02 -0.49389532780E+01  0.43823015197E+02  0.59217626046E+02  0.00000000000E+00 0. -1.
<mgrwt>
<rscale>  0 0.12489344E+03</rscale>
<asrwt>0</asrwt>
<pdfrwt beam="1">  1        4 0.15355294E-01 0.12774301E+03</pdfrwt>
<pdfrwt beam="2">  1       -4 0.33604496E-01 0.12774301E+03</pdfrwt>
<totfact> 0.50699814E+02</totfact>
</mgrwt>
</event>
<event>
 8    1  0.9424564E-006  0.1424169E+03  0.7546771E-02  0.1220467E+00
         -3   -1    0    0    0  501 -0.00000000000E+00  0.00000000000E+00  0.12147529720E+03  0.12147529720E+03  0.00000000000E+00 0.  1.
          3   -1    0    0  501    0  0.00000000000E+00 -0.00000000000E+00 -0.13716094966E+03  0.13716094966E+03  0.00000000000E+00 0. -1.
         23    2    1    2    0    0  0.66136561831E+02 -0.16855275549E+02  0.44440678465E+01  0.14248626903E+03  0.12499776797E+03 0.  0.
         23    2    1    2    0    0 -0.66136561831E+02  0.16855275549E+02 -0.20129720307E+02  0.11614997783E+03  0.91801234113E+02 0.  0.
          5    1    3    3  502    0  0.62573985071E+02 -0.33454487559E+01  0.58865222515E+02  0.86104007205E+02  0.47000000000E+01 0.  1.
         -5    1    3    3    0  502  0.35625767598E+01 -0.13509826793E+02 -0.54421154668E+02  0.56382261825E+02  0.47000000000E+01 0.  1.
        -11    1    4    4    0    0 -0.62530128044E+02  0.36967019843E+01 -0.52045827578E+02  0.81439859326E+02  0.00000000000E+00 0. -1.
         11    1    4    4    0    0 -0.36064337865E+01  0.13158573565E+02  0.31916107271E+02  0.34710118499E+02  0.00000000000E+00 0.  1.
<mgrwt>
<rscale>  0 0.13482503E+03</rscale>
<asrwt>0</asrwt>
<pdfrwt beam="2">  1        3 0.21101684E-01 0.14241695E+03</pdfrwt>
<pdfrwt beam="1">  1       -3 0.18688507E-01 0.14241695E+03</pdfrwt>
<totfact> 0.11974503E+03</totfact>
</mgrwt>
</event>
<event>
 8    1  0.9424564E-006  0.1557060E+03  0.7546771E-02  0.1201796E+00
          3   -1    0    0  501    0  0.00000000000E+00  0.00000000000E+00  0.14865716819E+03  0.14865716819E+03  0.00000000000E+00 0. -1.
         -3   -1    0    0    0  501 -0.00000000000E+00 -0.00000000000E+00 -0.15440060557E+03  0.15440060557E+03  0.00000000000E+00 0.  1.
         23    2    1    2    0    0  0.69091902808E+02  0.61629921330E+02 -0.52938787380E+02  0.16445936419E+03  0.12518957234E+03 0.  0.
         23    2    1    2    0    0 -0.69091902808E+02 -0.61629921330E+02  0.47195350004E+02  0.13859840958E+03  0.91707032655E+02 0.  0.
          5    1    3    3  502    0  0.52341098108E+02  0.83231835500E+02 -0.79141091437E+02  0.12630333070E+03  0.47000000000E+01 0.  1.
         -5    1    3    3    0  502  0.16750804700E+02 -0.21601914170E+02  0.26202304056E+02  0.38156033491E+02  0.47000000000E+01 0.  1.
        -11    1    4    4    0    0 -0.39273050440E+02 -0.37860611311E+02  0.74038564158E+02  0.91964707156E+02  0.00000000000E+00 0. -1.
         11    1    4    4    0    0 -0.29818852368E+02 -0.23769310018E+02 -0.26843214154E+02  0.46633702420E+02  0.00000000000E+00 0.  1.
<mgrwt>
<rscale>  0 0.14892858E+03</rscale>
<asrwt>0</asrwt>
<pdfrwt beam="1">  1        3 0.22870334E-01 0.15570603E+03</pdfrwt>
<pdfrwt beam="2">  1       -3 0.23753939E-01 0.15570603E+03</pdfrwt>
<totfact> 0.68691908E+02</totfact>
</mgrwt>
</event>
<event>
 8    1  0.9424564E-006  0.1269725E+03  0.7546771E-02  0.1247003E+00
          1   -1    0    0  501    0  0.00000000000E+00  0.00000000000E+00  0.38201260061E+03  0.38201260061E+03  0.00000000000E+00 0. -1.
         -1   -1    0    0    0  501 -0.00000000000E+00 -0.00000000000E+00 -0.33784731622E+02  0.33784731622E+02  0.00000000000E+00 0.  1.
         23    2    1    2    0    0 -0.19271324819E+02 -0.11177780633E+02  0.14969669993E+03  0.19629342574E+03  0.12500272108E+03 0.  0.
         23    2    1    2    0    0  0.19271324819E+02  0.11177780633E+02  0.19853116906E+03  0.21950390650E+03  0.90945110579E+02 0.  0.
          5    1    3    3  502    0  0.43744012618E+02 -0.20488992712E+02  0.21532402441E+02  0.53094932123E+02  0.47000000000E+01 0.  1.
         -5    1    3    3    0  502 -0.63015337438E+02  0.93112120787E+01  0.12816429749E+03  0.14319849361E+03  0.47000000000E+01 0.  1.
        -11    1    4    4    0    0 -0.31643698483E+02  0.21103393700E+02  0.54865122551E+02  0.66759707548E+02  0.00000000000E+00 0.  1.
         11    1    4    4    0    0  0.50915023302E+02 -0.99256130664E+01  0.14366604651E+03  0.15274419895E+03  0.00000000000E+00 0. -1.
<mgrwt>
<rscale>  0 0.11766320E+03</rscale>
<asrwt>0</asrwt>
<pdfrwt beam="1">  1        1 0.58771166E-01 0.12697247E+03</pdfrwt>
<pdfrwt beam="2">  1       -1 0.51976513E-02 0.12697247E+03</pdfrwt>
<totfact> 0.10073905E+04</totfact>
</mgrwt>
</event>
<event>
 8    1  0.9424564E-006  0.1857452E+03  0.7546771E-02  0.1167627E+00
          3   -1    0    0  501    0  0.00000000000E+00  0.00000000000E+00  0.66950176655E+02  0.66950176655E+02  0.00000000000E+00 0. -1.
         -3   -1    0    0    0  501 -0.00000000000E+00 -0.00000000000E+00 -0.50614640204E+03  0.50614640204E+03  0.00000000000E+00 0.  1.
         23    2    1    2    0    0 -0.82095780692E+02 -0.11016640714E+03 -0.31989789463E+03  0.36991340475E+03  0.12499963821E+03 0.  0.
         23    2    1    2    0    0  0.82095780692E+02  0.11016640714E+03 -0.11929833076E+03  0.20318317395E+03  0.90415463199E+02 0.  0.
          5    1    3    3  502    0 -0.10622907756E+03 -0.43862922587E+02 -0.19944866228E+03  0.23023994393E+03  0.47000000000E+01 0.  1.
         -5    1    3    3    0  502  0.24133296866E+02 -0.66303484555E+02 -0.12044923235E+03  0.13967346082E+03  0.47000000000E+01 0.  1.
        -11    1    4    4    0    0  0.46693415215E+02  0.35449990415E+01 -0.60118036496E+02  0.76203808007E+02  0.00000000000E+00 0.  1.
         11    1    4    4    0    0  0.35402365477E+02  0.10662140810E+03 -0.59180294259E+02  0.12697936594E+03  0.00000000000E+00 0. -1.
<mgrwt>
<rscale>  0 0.18018211E+03</rscale>
<asrwt>0</asrwt>
<pdfrwt beam="1">  1        3 0.10300027E-01 0.18574516E+03</pdfrwt>
<pdfrwt beam="2">  1       -3 0.77868679E-01 0.18574516E+03</pdfrwt>
<totfact> 0.26899260E+02</totfact>
</mgrwt>
</event>
<event>
 8    1  0.9424564E-006  0.1358240E+03  0.7546771E-02  0.1234008E+00
          1   -1    0    0  501    0  0.00000000000E+00  0.00000000000E+00  0.64094704502E+03  0.64094704502E+03  0.00000000000E+00 0. -1.
         -1   -1    0    0    0  501 -0.00000000000E+00 -0.00000000000E+00 -0.22142424947E+02  0.22142424947E+02  0.00000000000E+00 0.  1.
         23    2    1    2    0    0 -0.52407464473E+02  0.87084797769E+01  0.40654079034E+03  0.42862988951E+03  0.12500315204E+03 0.  0.
         23    2    1    2    0    0  0.52407464473E+02 -0.87084797769E+01  0.21226382973E+03  0.23445958046E+03  0.84219840317E+02 0.  0.
          5    1    3    3  502    0 -0.57156192083E+02 -0.47371451550E+02  0.28599733688E+03  0.29551218489E+03  0.47000000000E+01 0. -1.
         -5    1    3    3    0  502  0.47487276106E+01  0.56079931326E+02  0.12054345345E+03  0.13311770462E+03  0.47000000000E+01 0. -1.
        -11    1    4    4    0    0  0.78127694907E+01 -0.42175472275E+02  0.10837444926E+03  0.11655398354E+03  0.00000000000E+00 0. -1.
         11    1    4    4    0    0  0.44594694982E+02  0.33466992498E+02  0.10388938048E+03  0.11790559691E+03  0.00000000000E+00 0.  1.
<mgrwt>
<rscale>  0 0.12568141E+03</rscale>
<asrwt>0</asrwt>
<pdfrwt beam="1">  1        1 0.98607223E-01 0.13582403E+03</pdfrwt>
<pdfrwt beam="2">  1       -1 0.34065274E-02 0.13582403E+03</pdfrwt>
<totfact> 0.95785498E+03</totfact>
</mgrwt>
</event>
<event>
 8    1  0.9424564E-006  0.1531379E+03  0.7546771E-02  0.1210988E+00
         -2   -1    0    0    0  501 -0.00000000000E+00  0.00000000000E+00  0.56445113349E+03  0.56445113349E+03  0.00000000000E+00 0.  1.
          2   -1    0    0  501    0  0.00000000000E+00 -0.00000000000E+00 -0.37426225967E+02  0.37426225967E+02  0.00000000000E+00 0. -1.
         23    2    1    2    0    0 -0.99229626107E+00  0.88453653573E+02  0.41839608249E+03  0.44554069148E+03  0.12500476968E+03 0.  0.
         23    2    1    2    0    0  0.99229626107E+00 -0.88453653573E+02  0.10862882503E+03  0.15633666797E+03  0.69396676016E+02 0.  0.
          5    1    3    3  502    0  0.43850530337E+01 -0.31661064024E+02  0.10413103746E+03  0.10902758655E+03  0.47000000000E+01 0. -1.
         -5    1    3    3    0  502 -0.53773492947E+01  0.12011471760E+03  0.31426504502E+03  0.33651310494E+03  0.47000000000E+01 0. -1.
        -11    1    4    4    0    0  0.57166662728E+01 -0.77030708069E+02  0.40732752078E+02  0.87324494563E+02  0.00000000000E+00 0. -1.
         11    1    4    4    0    0 -0.47243700117E+01 -0.11422945505E+02  0.67896072951E+02  0.69012173406E+02  0.00000000000E+00 0.  1.
<mgrwt>
<rscale>  0 0.14175372E+03</rscale>
<asrwt>0</asrwt>
<pdfrwt beam="2">  1        2 0.57578813E-02 0.15313793E+03</pdfrwt>
<pdfrwt beam="1">  1       -2 0.86838630E-01 0.15313793E+03</pdfrwt>
<totfact> 0.15032977E+03</totfact>
</mgrwt>
</event>
<event>
 8    1  0.9424564E-006  0.1327246E+03  0.7546771E-02  0.1236540E+00
          1   -1    0    0  501    0  0.00000000000E+00  0.00000000000E+00  0.16758406680E+03  0.16758406680E+03  0.00000000000E+00 0. -1.
         -1   -1    0    0    0  501 -0.00000000000E+00 -0.00000000000E+00 -0.93818544175E+02  0.93818544175E+02  0.00000000000E+00 0.  1.
         23    2    1    2    0    0  0.37355966548E+02  0.24414175609E+02 -0.53739865730E+01  0.13283332281E+03  0.12499716681E+03 0.  0.
         23    2    1    2    0    0 -0.37355966548E+02 -0.24414175609E+02  0.79139509195E+02  0.12856928816E+03  0.90969663819E+02 0.  0.
          5    1    3    3  502    0 -0.36843296371E+01 -0.44263063184E+02  0.19761780098E+02  0.48840669528E+02  0.47000000000E+01 0.  1.
         -5    1    3    3    0  502  0.41040296185E+02  0.68677238793E+02 -0.25135766671E+02  0.83992653282E+02  0.47000000000E+01 0.  1.
        -11    1    4    4    0    0 -0.30743260719E+01 -0.38461594506E+02  0.82792136198E+02  0.91341576234E+02  0.00000000000E+00 0. -1.
         11    1    4    4    0    0 -0.34281640476E+02  0.14047418896E+02 -0.36526270030E+01  0.37227711928E+02  0.00000000000E+00 0.  1.
<mgrwt>
<rscale>  0 0.12406348E+03</rscale>
<asrwt>0</asrwt>
<pdfrwt beam="1">  1        1 0.25782164E-01 0.13272457E+03</pdfrwt>
<pdfrwt beam="2">  1       -1 0.14433622E-01 0.13272457E+03</pdfrwt>
<totfact> 0.59747453E+03</totfact>
</mgrwt>
</event>
<event>
 8    1  0.9424564E-006  0.1263271E+03  0.7546771E-02  0.1247319E+00
         -2   -1    0    0    0  501 -0.00000000000E+00  0.00000000000E+00  0.52375561957E+02  0.52375561957E+02  0.00000000000E+00 0. -1.
          2   -1    0    0  501    0  0.00000000000E+00 -0.00000000000E+00 -0.24216333465E+03  0.24216333465E+03  0.00000000000E+00 0.  1.
         23    2    1    2    0    0  0.14947045541E+02  0.10416328202E+02 -0.13685503373E+03  0.18624671137E+03  0.12500649254E+03 0.  0.
         23    2    1    2    0    0 -0.14947045541E+02 -0.10416328202E+02 -0.52932738958E+02  0.10829218523E+03  0.92700638963E+02 0.  0.
          5    1    3    3  502    0 -0.30596124973E+02  0.37871527833E+02 -0.12106813866E+03  0.13057549419E+03  0.47000000000E+01 0.  1.
         -5    1    3    3    0  502  0.45543170514E+02 -0.27455199631E+02 -0.15786895073E+02  0.55671217189E+02  0.47000000000E+01 0.  1.
        -11    1    4    4    0    0 -0.52912301779E+02  0.24558002607E+01 -0.20766600647E+02  0.56894589698E+02  0.00000000000E+00 0.  1.
         11    1    4    4    0    0  0.37965256238E+02 -0.12872128462E+02 -0.32166138311E+02  0.51397595529E+02  0.00000000000E+00 0. -1.
<mgrwt>
<rscale>  0 0.11747634E+03</rscale>
<asrwt>0</asrwt>
<pdfrwt beam="2">  1        2 0.37255898E-01 0.12632710E+03</pdfrwt>
<pdfrwt beam="1">  1       -2 0.80577786E-02 0.12632710E+03</pdfrwt>
<totfact> 0.12077593E+04</totfact>
</mgrwt>
</event>
<event>
 8    1  0.9424564E-006  0.1136980E+03  0.7546771E-02  0.1262257E+00
          2   -1    0    0  501    0  0.00000000000E+00  0.00000000000E+00  0.45247768128E+03  0.45247768128E+03  0.00000000000E+00 0. -1.
         -2   -1    0    0    0  501 -0.00000000000E+00 -0.00000000000E+00 -0.34535054986E+02  0.34535054986E+02  0.00000000000E+00 0.  1.
         23    2    1    2    0    0  0.25801837905E+02 -0.11424390824E+02  0.89425349802E+02  0.14465171377E+03  0.11014069895E+03 0.  0.
         23    2    1    2    0    0 -0.25801837905E+02  0.11424390824E+02  0.32851727649E+03  0.34236102249E+03  0.92147800982E+02 0.  0.
          5    1    3    3  502    0  0.42600086254E+02 -0.37118161861E+02  0.97299524165E+02  0.11261355465E+03  0.47000000000E+01 0. -1.
         -5    1    3    3    0  502 -0.16798248349E+02  0.25693771037E+02 -0.78741743634E+01  0.32038159117E+02  0.47000000000E+01 0.  1.
        -11    1    4    4    0    0 -0.48483550124E+02  0.37255625021E+02  0.18767413192E+03  0.19738342387E+03  0.00000000000E+00 0.  1.
         11    1    4    4    0    0  0.22681712218E+02 -0.25831234197E+02  0.14084314457E+03  0.14497759862E+03  0.00000000000E+00 0. -1.
<mgrwt>
<rscale>  0 0.10909420E+03</rscale>
<asrwt>0</asrwt>
<pdfrwt beam="1">  1        2 0.69611947E-01 0.11369796E+03</pdfrwt>
<pdfrwt beam="2">  1       -2 0.53130857E-02 0.11369796E+03</pdfrwt>
<totfact> 0.11622949E+04</totfact>
</mgrwt>
</event>
<event>
 7    1  0.9424564E-006  0.2295216E+03  0.7546771E-02  0.1143404E+00
          1   -1    0    0  501    0  0.00000000000E+00  0.00000000000E+00  0.19653429736E+03  0.19653429736E+03  0.00000000000E+00 0. -1.
         -1   -1    0    0    0  501 -0.00000000000E+00 -0.00000000000E+00 -0.27086181197E+03  0.27086181197E+03  0.00000000000E+00 0.  1.
         23    2    1    2    0    0  0.51486069921E+02  0.79458471067E+02  0.96171778984E+02  0.18147623742E+03  0.12132662385E+03 0.  0.
          5    1    1    2  502    0  0.21009562441E+02  0.46980989886E+02  0.11262629540E+02  0.52891889253E+02  0.47000000000E+01 0. -1.
         -5    1    1    2    0  502 -0.72495632362E+02 -0.12643946095E+03 -0.18176192313E+03  0.23302798265E+03  0.47000000000E+01 0.  1.
        -11    1    3    3    0    0  0.43123623829E+02  0.92787248882E+02  0.11696371106E+03  0.15540151284E+03  0.00000000000E+00 0. -1.
         11    1    3    3    0    0  0.83624460926E+01 -0.13328777816E+02 -0.20791932076E+02  0.26074724585E+02  0.00000000000E+00 0.  1.
<mgrwt>
<rscale>  0 0.20769496E+03</rscale>
<asrwt>0</asrwt>
<pdfrwt beam="1">  1        1 0.30236046E-01 0.22952160E+03</pdfrwt>
<pdfrwt beam="2">  1       -1 0.41671048E-01 0.22952160E+03</pdfrwt>
<totfact> 0.86051176E+02</totfact>
</mgrwt>
</event>
<event>
 8    1  0.9424564E-006  0.2026205E+03  0.7546771E-02  0.1151074E+00
          1   -1    0    0  501    0  0.00000000000E+00  0.00000000000E+00  0.57412838171E+03  0.57412838171E+03  0.00000000000E+00 0. -1.
         -1   -1    0    0    0  501 -0.00000000000E+00 -0.00000000000E+00 -0.67042534826E+02  0.67042534826E+02  0.00000000000E+00 0.  1.
         23    2    1    2    0    0 -0.15554843345E+03  0.35123392433E+02  0.30607451013E+03  0.36706492475E+03  0.12500434148E+03 0.  0.
         23    2    1    2    0    0  0.15554843345E+03 -0.35123392433E+02  0.20101133676E+03  0.27410599179E+03  0.96434274948E+02 0.  0.
          5    1    3    3  502    0 -0.10952837700E+03  0.27236324912E+02  0.85812946160E+02  0.14185991150E+03  0.47000000000E+01 0. -1.
         -5    1    3    3    0  502 -0.46020056445E+02  0.78870675207E+01  0.22026156397E+03  0.22520501325E+03  0.47000000000E+01 0. -1.
        -11    1    4    4    0    0 -0.71257838402E+00 -0.28644200118E+02  0.43895378253E+02  0.52419483022E+02  0.00000000000E+00 0. -1.
         11    1    4    4    0    0  0.15626101183E+03 -0.64791923150E+01  0.15711595850E+03  0.22168650876E+03  0.00000000000E+00 0.  1.
<mgrwt>
<rscale>  0 0.19842587E+03</rscale>
<asrwt>0</asrwt>
<pdfrwt beam="1">  1        1 0.88327440E-01 0.20262047E+03</pdfrwt>
<pdfrwt beam="2">  1       -1 0.10314237E-01 0.20262047E+03</pdfrwt>
<totfact> 0.21558004E+03</totfact>
</mgrwt>
</event>
<event>
 8    1  0.9424564E-006  0.1958345E+03  0.7546771E-02  0.1157006E+00
          2   -1    0    0  501    0  0.00000000000E+00  0.00000000000E+00  0.19159644156E+03  0.19159644156E+03  0.00000000000E+00 0. -1.
         -2   -1    0    0    0  501 -0.00000000000E+00 -0.00000000000E+00 -0.19390213829E+03  0.19390213829E+03  0.00000000000E+00 0.  1.
         23    2    1    2    0    0  0.15073885489E+03 -0.22124330700E+01  0.42668471976E+02  0.20042895105E+03  0.12499627468E+03 0.  0.
         23    2    1    2    0    0 -0.15073885489E+03  0.22124330700E+01 -0.44974168710E+02  0.18506962881E+03  0.97473044597E+02 0.  0.
          5    1    3    3  502    0  0.42162879018E+02  0.22631342079E+02 -0.39264295028E+02  0.62077861395E+02  0.47000000000E+01 0.  1.
         -5    1    3    3    0  502  0.10857597587E+03 -0.24843775149E+02  0.81932767004E+02  0.13835108965E+03  0.47000000000E+01 0.  1.
        -11    1    4    4    0    0 -0.16282094296E+02  0.10069282748E+02  0.26423369631E+02  0.32629610975E+02  0.00000000000E+00 0. -1.
         11    1    4    4    0    0 -0.13445676059E+03 -0.78568496778E+01 -0.71397538341E+02  0.15244001783E+03  0.00000000000E+00 0.  1.
<mgrwt>
<rscale>  0 0.19162241E+03</rscale>
<asrwt>0</asrwt>
<pdfrwt beam="1">  1        2 0.29476376E-01 0.19583454E+03</pdfrwt>
<pdfrwt beam="2">  1       -2 0.29831098E-01 0.19583454E+03</pdfrwt>
<totfact> 0.18260850E+03</totfact>
</mgrwt>
</event>
<event>
 8    1  0.9424564E-006  0.1704308E+03  0.7546771E-02  0.1183271E+00
         -1   -1    0    0    0  501 -0.00000000000E+00  0.00000000000E+00  0.51899178124E+02  0.51899178124E+02  0.00000000000E+00 0.  1.
          1   -1    0    0  501    0  0.00000000000E+00 -0.00000000000E+00 -0.49395175428E+03  0.49395175428E+03  0.00000000000E+00 0. -1.
         23    2    1    2    0    0  0.99114530849E+02 -0.62400582777E+02 -0.22152865349E+03  0.27950241435E+03  0.12381087334E+03 0.  0.
         23    2    1    2    0    0 -0.99114530849E+02  0.62400582777E+02 -0.22052392266E+03  0.26634851805E+03  0.92699566573E+02 0.  0.
          5    1    3    3  502    0  0.57130139569E+02 -0.98069290972E+02 -0.13066096664E+03  0.17313525604E+03  0.47000000000E+01 0. -1.
         -5    1    3    3    0  502  0.41984391280E+02  0.35668708195E+02 -0.90867686848E+02  0.10636715832E+03  0.47000000000E+01 0.  1.
        -11    1    4    4    0    0 -0.95868908295E+02  0.83781776936E+02 -0.18099270457E+03  0.22128848328E+03  0.00000000000E+00 0. -1.
         11    1    4    4    0    0 -0.32456225535E+01 -0.21381194159E+02 -0.39531218087E+02  0.45060034763E+02  0.00000000000E+00 0.  1.
<mgrwt>
<rscale>  0 0.16490176E+03</rscale>
<asrwt>0</asrwt>
<pdfrwt beam="2">  1        1 0.75992580E-01 0.17043079E+03</pdfrwt>
<pdfrwt beam="1">  1       -1 0.79844887E-02 0.17043079E+03</pdfrwt>
<totfact> 0.38789845E+03</totfact>
</mgrwt>
</event>
<event>
 8    1  0.9424564E-006  0.1431153E+03  0.7546771E-02  0.1219622E+00
          1   -1    0    0  501    0  0.00000000000E+00  0.00000000000E+00  0.69690586083E+02  0.69690586083E+02  0.00000000000E+00 0. -1.
         -1   -1    0    0    0  501 -0.00000000000E+00 -0.00000000000E+00 -0.26604306271E+03  0.26604306271E+03  0.00000000000E+00 0.  1.
         23    2    1    2    0    0  0.68931090819E+02 -0.10270264257E+02 -0.16155565621E+03  0.21582914011E+03  0.12500005622E+03 0.  0.
         23    2    1    2    0    0 -0.68931090819E+02  0.10270264257E+02 -0.34796820414E+02  0.11990450868E+03  0.91155355753E+02 0.  0.
          5    1    3    3  502    0 -0.14360180826E+02 -0.21621646252E+02 -0.11824160992E+03  0.12114816836E+03  0.47000000000E+01 0.  1.
         -5    1    3    3    0  502  0.83291271645E+02  0.11351381995E+02 -0.43314046294E+02  0.94680971751E+02  0.47000000000E+01 0.  1.
        -11    1    4    4    0    0 -0.96477246376E+01  0.20380377923E+02  0.25981478929E+02  0.34401680806E+02  0.00000000000E+00 0. -1.
         11    1    4    4    0    0 -0.59283366181E+02 -0.10110113666E+02 -0.60778299343E+02  0.85502827878E+02  0.00000000000E+00 0.  1.
<mgrwt>
<rscale>  0 0.13542455E+03</rscale>
<asrwt>0</asrwt>
<pdfrwt beam="1">  1        1 0.10721629E-01 0.14311530E+03</pdfrwt>
<pdfrwt beam="2">  1       -1 0.40929702E-01 0.14311530E+03</pdfrwt>
<totfact> 0.33383495E+03</totfact>
</mgrwt>
</event>
<event>
 8    1  0.9424564E-006  0.1575948E+03  0.7546771E-02  0.1198176E+00
          2   -1    0    0  501    0  0.00000000000E+00  0.00000000000E+00  0.90429144653E+03  0.90429144653E+03  0.00000000000E+00 0. -1.
         -2   -1    0    0    0  501 -0.00000000000E+00 -0.00000000000E+00 -0.24551971616E+02  0.24551971616E+02  0.00000000000E+00 0.  1.
         23    2    1    2    0    0  0.48283486322E+02 -0.82948694696E+02  0.39158947384E+03  0.42211188580E+03  0.12499738839E+03 0.  0.
         23    2    1    2    0    0 -0.48283486322E+02  0.82948694696E+02  0.48815000107E+03  0.50673153235E+03  0.96304939254E+02 0.  0.
          5    1    3    3  502    0  0.50417028548E+02 -0.50326087386E+02  0.38069797206E+03  0.38733400028E+03  0.47000000000E+01 0. -1.
         -5    1    3    3    0  502 -0.21335422262E+01 -0.32622607310E+02  0.10891501778E+02  0.34777885518E+02  0.47000000000E+01 0. -1.
        -11    1    4    4    0    0 -0.33259858319E+02  0.17281244085E+01  0.45192761999E+02  0.56139026768E+02  0.00000000000E+00 0.  1.
         11    1    4    4    0    0 -0.15023628003E+02  0.81220570288E+02  0.44295723907E+03  0.45059250558E+03  0.00000000000E+00 0. -1.
<mgrwt>
<rscale>  0 0.15188436E+03</rscale>
<asrwt>0</asrwt>
<pdfrwt beam="1">  1        2 0.13912174E+00 0.15759482E+03</pdfrwt>
<pdfrwt beam="2">  1       -2 0.37772271E-02 0.15759482E+03</pdfrwt>
<totfact> 0.87954852E+03</totfact>
</mgrwt>
</event>
<event>
 8    1  0.9424564E-006  0.1333220E+03  0.7546771E-02  0.1234663E+00
         -1   -1    0    0    0  501 -0.00000000000E+00  0.00000000000E+00  0.27040364052E+03  0.27040364052E+03  0.00000000000E+00 0.  1.
          1   -1    0    0  501    0  0.00000000000E+00 -0.00000000000E+00 -0.69994525170E+02  0.69994525170E+02  0.00000000000E+00 0. -1.
         23    2    1    2    0    0  0.17742437089E+02  0.42820538956E+02  0.19519921231E+03  0.23638420717E+03  0.12500547301E+03 0.  0.
         23    2    1    2    0    0 -0.17742437089E+02 -0.42820538956E+02  0.52099030393E+01  0.10401395852E+03  0.92969714674E+02 0.  0.
          5    1    3    3  502    0 -0.38282583076E+01  0.83720684963E+02  0.14797287806E+03  0.17012310629E+03  0.47000000000E+01 0.  1.
         -5    1    3    3    0  502  0.21570695396E+02 -0.40900146007E+02  0.47226334249E+02  0.66261100880E+02  0.47000000000E+01 0.  1.
        -11    1    4    4    0    0 -0.24731408382E+02  0.73366504875E+01 -0.32049896847E+02  0.41142008809E+02  0.00000000000E+00 0. -1.
         11    1    4    4    0    0  0.69889712930E+01 -0.50157189444E+02  0.37259799886E+02  0.62871949709E+02  0.00000000000E+00 0.  1.
<mgrwt>
<rscale>  0 0.12526016E+03</rscale>
<asrwt>0</asrwt>
<pdfrwt beam="2">  1        1 0.10768389E-01 0.13332202E+03</pdfrwt>
<pdfrwt beam="1">  1       -1 0.41600560E-01 0.13332202E+03</pdfrwt>
<totfact> 0.32132562E+03</totfact>
</mgrwt>
</event>
<event>
 8    1  0.9424564E-006  0.1341973E+03  0.7546771E-02  0.1233458E+00
          3   -1    0    0  501    0  0.00000000000E+00  0.00000000000E+00  0.31950528798E+03  0.31950528798E+03  0.00000000000E+00 0. -1.
         -3   -1    0    0    0  501 -0.00000000000E+00 -0.00000000000E+00 -0.45920974557E+02  0.45920974557E+02  0.00000000000E+00 0.  1.
         23    2    1    2    0    0  0.11097528796E+02  0.47566863788E+02  0.12202073970E+03  0.18137799234E+03  0.12499261383E+03 0.  0.
         23    2    1    2    0    0 -0.11097528796E+02 -0.47566863788E+02  0.15156357372E+03  0.18404827019E+03  0.92284815686E+02 0.  0.
          5    1    3    3  502    0 -0.54630199541E+02  0.37313094711E+02  0.72872019834E+02  0.98535004001E+02  0.47000000000E+01 0.  1.
         -5    1    3    3    0  502  0.65727728337E+02  0.10253769077E+02  0.49148719866E+02  0.82842988340E+02  0.47000000000E+01 0.  1.
        -11    1    4    4    0    0  0.16717784096E+01 -0.69841121291E+02  0.13876868401E+03  0.15536191531E+03  0.00000000000E+00 0. -1.
         11    1    4    4    0    0 -0.12769307205E+02  0.22274257503E+02  0.12794889706E+02  0.28686354882E+02  0.00000000000E+00 0.  1.
<mgrwt>
<rscale>  0 0.12603679E+03</rscale>
<asrwt>0</asrwt>
<pdfrwt beam="1">  1        3 0.49154658E-01 0.13419730E+03</pdfrwt>
<pdfrwt beam="2">  1       -3 0.70647655E-02 0.13419730E+03</pdfrwt>
<totfact> 0.12423766E+03</totfact>
</mgrwt>
</event>
<event>
 8    1  0.9424564E-006  0.1314184E+03  0.7546771E-02  0.1244645E+00
          1   -1    0    0  501    0  0.00000000000E+00  0.00000000000E+00  0.61396615601E+03  0.61396615601E+03  0.00000000000E+00 0. -1.
         -1   -1    0    0    0  501 -0.00000000000E+00 -0.00000000000E+00 -0.20460086943E+02  0.20460086943E+02  0.00000000000E+00 0.  1.
         23    2    1    2    0    0  0.37252259298E+02 -0.16060064572E+02  0.29252283441E+03  0.32068740503E+03  0.12500058637E+03 0.  0.
         23    2    1    2    0    0 -0.37252259298E+02  0.16060064572E+02  0.30098323466E+03  0.31373883793E+03  0.78711462850E+02 0.  0.
          5    1    3    3  502    0  0.57185937065E+02  0.14221424789E+02  0.56240825079E+02  0.81594121888E+02  0.47000000000E+01 0.  1.
         -5    1    3    3    0  502 -0.19933677767E+02 -0.30281489361E+02  0.23628200933E+03  0.23909328314E+03  0.47000000000E+01 0.  1.
        -11    1    4    4    0    0 -0.23191501616E+02  0.43576317694E+02  0.24373387659E+03  0.24868241556E+03  0.00000000000E+00 0. -1.
         11    1    4    4    0    0 -0.14060757682E+02 -0.27516253122E+02  0.57249358064E+02  0.65056422367E+02  0.00000000000E+00 0.  1.
<mgrwt>
<rscale>  0 0.11906652E+03</rscale>
<asrwt>0</asrwt>
<pdfrwt beam="1">  1        1 0.94456318E-01 0.13141843E+03</pdfrwt>
<pdfrwt beam="2">  1       -1 0.31477061E-02 0.13141843E+03</pdfrwt>
<totfact> 0.11379894E+04</totfact>
</mgrwt>
</event>
<event>
 8    1  0.9424564E-006  0.1279166E+03  0.7546771E-02  0.1244581E+00
          4   -1    0    0  501    0  0.00000000000E+00  0.00000000000E+00  0.10115724082E+03  0.10115724082E+03  0.00000000000E+00 0. -1.
         -4   -1    0    0    0  501 -0.00000000000E+00 -0.00000000000E+00 -0.12591167994E+03  0.12591167994E+03  0.00000000000E+00 0.  1.
         23    2    1    2    0    0  0.14371031871E+02 -0.23046868438E+02 -0.27676959094E+02  0.13087658599E+03  0.12499992797E+03 0.  0.
         23    2    1    2    0    0 -0.14371031871E+02  0.23046868438E+02  0.29225199810E+01  0.96192334773E+02  0.92231987099E+02 0.  0.
          5    1    3    3  502    0  0.50098472242E+01 -0.32045859293E+02 -0.74856935797E+02  0.81717112675E+02  0.47000000000E+01 0.  1.
         -5    1    3    3    0  502  0.93611846472E+01  0.89989908549E+01  0.47179976703E+02  0.49159473310E+02  0.47000000000E+01 0.  1.
        -11    1    4    4    0    0  0.92553794098E+01 -0.31765671747E+02 -0.11064718129E+02  0.34887647339E+02  0.00000000000E+00 0.  1.
         11    1    4    4    0    0 -0.23626411281E+02  0.54812540185E+02  0.13987238110E+02  0.61304687435E+02  0.00000000000E+00 0. -1.
<mgrwt>
<rscale>  0 0.11910507E+03</rscale>
<asrwt>0</asrwt>
<pdfrwt beam="1">  1        4 0.15562652E-01 0.12791664E+03</pdfrwt>
<pdfrwt beam="2">  1       -4 0.19371028E-01 0.12791664E+03</pdfrwt>
<totfact> 0.13727964E+03</totfact>
</mgrwt>
</event>
<event>
 8    1  0.9424564E-006  0.1519333E+03  0.7546771E-02  0.1207471E+00
         -1   -1    0    0    0  501 -0.00000000000E+00  0.00000000000E+00  0.21820742344E+03  0.21820742344E+03  0.00000000000E+00 0.  1.
          1   -1    0    0  501    0  0.00000000000E+00 -0.00000000000E+00 -0.87532171967E+02  0.87532171967E+02  0.00000000000E+00 0. -1.
         23    2    1    2    0    0 -0.72254740991E+02  0.47293118955E+02  0.79606443005E+02  0.17152525227E+03  0.12500535870E+03 0.  0.
         23    2    1    2    0    0  0.72254740991E+02 -0.47293118955E+02  0.51068808470E+02  0.13421434314E+03  0.89152005075E+02 0.  0.
          5    1    3    3  502    0  0.13211670899E+02  0.52764698913E+02  0.64381789003E+02  0.84414255044E+02  0.47000000000E+01 0. -1.
         -5    1    3    3    0  502 -0.85466411890E+02 -0.54715799583E+01  0.15224654001E+02  0.87110997228E+02  0.47000000000E+01 0. -1.
        -11    1    4    4    0    0  0.65103687357E+02 -0.12917405347E+02  0.68182920598E+02  0.95153876062E+02  0.00000000000E+00 0.  1.
         11    1    4    4    0    0  0.71510536342E+01 -0.34375713608E+02 -0.17114112128E+02  0.39060467074E+02  0.00000000000E+00 0. -1.
<mgrwt>
<rscale>  0 0.14444386E+03</rscale>
<asrwt>0</asrwt>
<pdfrwt beam="2">  1        1 0.13466488E-01 0.15193330E+03</pdfrwt>
<pdfrwt beam="1">  1       -1 0.33570372E-01 0.15193330E+03</pdfrwt>
<totfact> 0.35002609E+03</totfact>
</mgrwt>
</event>
<event>
 7    1  0.9424564E-006  0.1513754E+03  0.7546771E-02  0.1221836E+00
          3   -1    0    0  501    0  0.00000000000E+00  0.00000000000E+00  0.23534896748E+03  0.23534896748E+03  0.00000000000E+00 0. -1.
         -3   -1    0    0    0  501 -0.00000000000E+00 -0.00000000000E+00 -0.74772061120E+02  0.74772061120E+02  0.00000000000E+00 0.  1.
         23    2    1    2    0    0 -0.14878470674E+02 -0.10910070664E+02  0.12337618002E+03  0.15424153576E+03  0.90710368894E+02 0.  0.
          5    1    1    2  502    0 -0.64628438924E+02  0.23809894256E+02  0.57190376268E+01  0.69271520654E+02  0.47000000000E+01 0. -1.
         -5    1    1    2    0  502  0.79506909599E+02 -0.12899823593E+02  0.31481688714E+02  0.86607972190E+02  0.47000000000E+01 0.  1.
        -11    1    3    3    0    0  0.10132479808E+02 -0.19575361684E+02  0.12574865506E+03  0.12766591629E+03  0.00000000000E+00 0. -1.
         11    1    3    3    0    0 -0.25010950483E+02  0.86652910204E+01 -0.23724750368E+01  0.26575619472E+02  0.00000000000E+00 0.  1.
<mgrwt>
<rscale>  0 0.13386171E+03</rscale>
<asrwt>0</asrwt>
<pdfrwt beam="1">  1        3 0.36207533E-01 0.15137543E+03</pdfrwt>
<pdfrwt beam="2">  1       -3 0.11503394E-01 0.15137543E+03</pdfrwt>
<totfact> 0.10299184E+03</totfact>
</mgrwt>
</event>
<event>
 8    1  0.9424564E-006  0.1255073E+03  0.7546771E-02  0.1249395E+00
         -1   -1    0    0    0  501 -0.00000000000E+00  0.00000000000E+00  0.18993012032E+02  0.18993012032E+02  0.00000000000E+00 0.  1.
          1   -1    0    0  501    0  0.00000000000E+00 -0.00000000000E+00 -0.67712429882E+03  0.67712429882E+03  0.00000000000E+00 0. -1.
         23    2    1    2    0    0 -0.35437609267E+01 -0.10704404238E+02 -0.27974639540E+03  0.30661069257E+03  0.12499971418E+03 0.  0.
         23    2    1    2    0    0  0.35437609267E+01  0.10704404238E+02 -0.37838489139E+03  0.38950661829E+03  0.91723154918E+02 0.  0.
          5    1    3    3  502    0 -0.55472403843E+02  0.25360925818E+02 -0.11875830463E+03  0.13358888077E+03  0.47000000000E+01 0. -1.
         -5    1    3    3    0  502  0.51928642916E+02 -0.36065330056E+02 -0.16098809077E+03  0.17302181180E+03  0.47000000000E+01 0. -1.
        -11    1    4    4    0    0  0.44606198305E+02  0.15758589782E+02 -0.14617043031E+03  0.15363541511E+03  0.00000000000E+00 0.  1.
         11    1    4    4    0    0 -0.41062437378E+02 -0.50541855442E+01 -0.23221446108E+03  0.23587120318E+03  0.00000000000E+00 0. -1.
<mgrwt>
<rscale>  0 0.11626142E+03</rscale>
<asrwt>0</asrwt>
<pdfrwt beam="2">  1        1 0.10417298E+00 0.12550725E+03</pdfrwt>
<pdfrwt beam="1">  1       -1 0.29220015E-02 0.12550725E+03</pdfrwt>
<totfact> 0.11032938E+04</totfact>
</mgrwt>
</event>
<event>
 8    1  0.9424564E-006  0.1348802E+03  0.7546771E-02  0.1233035E+00
          2   -1    0    0  501    0  0.00000000000E+00  0.00000000000E+00  0.68757684123E+02  0.68757684123E+02  0.00000000000E+00 0.  1.
         -2   -1    0    0    0  501 -0.00000000000E+00 -0.00000000000E+00 -0.22589008049E+03  0.22589008049E+03  0.00000000000E+00 0. -1.
         23    2    1    2    0    0  0.50540306602E+02  0.37455935273E+01 -0.13021598781E+03  0.18748035197E+03  0.12499730730E+03 0.  0.
         23    2    1    2    0    0 -0.50540306602E+02 -0.37455935273E+01 -0.26916408560E+02  0.10716741264E+03  0.90509718928E+02 0.  0.
          5    1    3    3  502    0 -0.12119636918E+01  0.29816517287E+02  0.13019742002E+02  0.32895246479E+02  0.47000000000E+01 0.  1.
         -5    1    3    3    0  502  0.51752270294E+02 -0.26070923759E+02 -0.14323572981E+03  0.15458510550E+03  0.47000000000E+01 0.  1.
        -11    1    4    4    0    0 -0.26196616647E+02 -0.38313140464E+02  0.13850225819E+02  0.48435402457E+02  0.00000000000E+00 0.  1.
         11    1    4    4    0    0 -0.24343689955E+02  0.34567546936E+02 -0.40766634379E+02  0.58732010185E+02  0.00000000000E+00 0. -1.
<mgrwt>
<rscale>  0 0.12631054E+03</rscale>
<asrwt>0</asrwt>
<pdfrwt beam="1">  1        2 0.10578105E-01 0.13488024E+03</pdfrwt>
<pdfrwt beam="2">  1       -2 0.34752320E-01 0.13488024E+03</pdfrwt>
<totfact> 0.44311760E+03</totfact>
</mgrwt>
</event>
<event>
 8    1  0.9424564E-006  0.1263277E+03  0.7546771E-02  0.1248666E+00
          1   -1    0    0  501    0  0.00000000000E+00  0.00000000000E+00  0.25277153151E+02  0.25277153151E+02  0.00000000000E+00 0. -1.
         -1   -1    0    0    0  501 -0.00000000000E+00 -0.00000000000E+00 -0.48497119183E+03  0.48497119183E+03  0.00000000000E+00 0.  1.
         23    2    1    2    0    0 -0.12601612974E+02 -0.13332291975E+02 -0.30739317504E+03  0.33233906660E+03  0.12498856134E+03 0.  0.
         23    2    1    2    0    0  0.12601612974E+02  0.13332291975E+02 -0.15230086363E+03  0.17790927838E+03  0.90108865334E+02 0.  0.
          5    1    3    3  502    0  0.25759946761E+01  0.55446674554E+02 -0.13932016948E+03  0.15004389055E+03  0.47000000000E+01 0.  1.
         -5    1    3    3    0  502 -0.15177607650E+02 -0.68778966529E+02 -0.16807300556E+03  0.18229517605E+03  0.47000000000E+01 0.  1.
        -11    1    4    4    0    0  0.46910953496E+02  0.19490484262E+02 -0.56575685526E+02  0.76035023031E+02  0.00000000000E+00 0.  1.
         11    1    4    4    0    0 -0.34309340522E+02 -0.61581922869E+01 -0.95725178107E+02  0.10187425535E+03  0.00000000000E+00 0. -1.
<mgrwt>
<rscale>  0 0.11668650E+03</rscale>
<asrwt>0</asrwt>
<pdfrwt beam="1">  1        1 0.38887932E-02 0.12632771E+03</pdfrwt>
<pdfrwt beam="2">  1       -1 0.74610945E-01 0.12632771E+03</pdfrwt>
<totfact> 0.42458315E+03</totfact>
</mgrwt>
</event>
<event>
 8    1  0.9424564E-006  0.1604074E+03  0.7546771E-02  0.1193869E+00
         -2   -1    0    0    0  501 -0.00000000000E+00  0.00000000000E+00  0.16238842651E+03  0.16238842651E+03  0.00000000000E+00 0. -1.
          2   -1    0    0  501    0  0.00000000000E+00 -0.00000000000E+00 -0.16256706157E+03  0.16256706157E+03  0.00000000000E+00 0.  1.
         23    2    1    2    0    0 -0.16089589086E+02  0.99231045717E+02  0.59689863783E+02  0.17115321625E+03  0.12499947314E+03 0.  0.
         23    2    1    2    0    0  0.16089589086E+02 -0.99231045717E+02 -0.59868498840E+02  0.15380227183E+03  0.99825980363E+02 0.  0.
          5    1    3    3  502    0  0.25768625664E+01  0.12459728719E+03  0.61908322279E+02  0.13923309436E+03  0.47000000000E+01 0.  1.
         -5    1    3    3    0  502 -0.18666451652E+02 -0.25366241476E+02 -0.22184584958E+01  0.31920121898E+02  0.47000000000E+01 0.  1.
        -11    1    4    4    0    0  0.53286604292E+02 -0.84590250908E+02 -0.31628107710E+02  0.10485852346E+03  0.00000000000E+00 0.  1.
         11    1    4    4    0    0 -0.37197015207E+02 -0.14640794810E+02 -0.28240391130E+02  0.48943748366E+02  0.00000000000E+00 0. -1.
<mgrwt>
<rscale>  0 0.15550316E+03</rscale>
<asrwt>0</asrwt>
<pdfrwt beam="2">  1        2 0.25010317E-01 0.16040743E+03</pdfrwt>
<pdfrwt beam="1">  1       -2 0.24982835E-01 0.16040743E+03</pdfrwt>
<totfact> 0.29778932E+03</totfact>
</mgrwt>
</event>
<event>
 8    1  0.9424564E-006  0.1277604E+03  0.7546771E-02  0.1245030E+00
          2   -1    0    0  501    0  0.00000000000E+00  0.00000000000E+00  0.18204727255E+03  0.18204727255E+03  0.00000000000E+00 0.  1.
         -2   -1    0    0    0  501 -0.00000000000E+00 -0.00000000000E+00 -0.68563379799E+02  0.68563379799E+02  0.00000000000E+00 0. -1.
         23    2    1    2    0    0  0.13410762052E+02  0.22763717689E+02  0.62203081652E+02  0.14209836350E+03  0.12499874464E+03 0.  0.
         23    2    1    2    0    0 -0.13410762052E+02 -0.22763717689E+02  0.51280811101E+02  0.10851228885E+03  0.91908431943E+02 0.  0.
          5    1    3    3  502    0  0.57837748708E+02 -0.22260684325E+02  0.43868348606E+02  0.76074077396E+02  0.47000000000E+01 0.  1.
         -5    1    3    3    0  502 -0.44426986656E+02  0.45024402014E+02  0.18334733046E+02  0.66024286107E+02  0.47000000000E+01 0.  1.
        -11    1    4    4    0    0 -0.19236036236E+02 -0.44011103050E+01 -0.23847634039E+02  0.30953263337E+02  0.00000000000E+00 0. -1.
         11    1    4    4    0    0  0.58252741831E+01 -0.18362607384E+02  0.75128445139E+02  0.77559025512E+02  0.00000000000E+00 0.  1.
<mgrwt>
<rscale>  0 0.11883554E+03</rscale>
<asrwt>0</asrwt>
<pdfrwt beam="1">  1        2 0.28007272E-01 0.12776041E+03</pdfrwt>
<pdfrwt beam="2">  1       -2 0.10548212E-01 0.12776041E+03</pdfrwt>
<totfact> 0.10797696E+04</totfact>
</mgrwt>
</event>
<event>
 8    1  0.9424564E-006  0.1905624E+03  0.7546771E-02  0.1163913E+00
          2   -1    0    0  501    0  0.00000000000E+00  0.00000000000E+00  0.64374912339E+03  0.64374912339E+03  0.00000000000E+00 0.  1.
         -2   -1    0    0    0  501 -0.00000000000E+00 -0.00000000000E+00 -0.87619028212E+02  0.87619028212E+02  0.00000000000E+00 0. -1.
         23    2    1    2    0    0 -0.13634242184E+03 -0.45823618006E+02  0.47547803061E+02  0.19640474200E+03  0.12499987658E+03 0.  0.
         23    2    1    2    0    0  0.13634242184E+03  0.45823618006E+02  0.50858229212E+03  0.53496340960E+03  0.82709381526E+02 0.  0.
          5    1    3    3  502    0 -0.18829991857E+02  0.37901924572E+02  0.27412348629E+02  0.50642386762E+02  0.47000000000E+01 0.  1.
         -5    1    3    3    0  502 -0.11751242998E+03 -0.83725542578E+02  0.20135454432E+02  0.14576235524E+03  0.47000000000E+01 0.  1.
        -11    1    4    4    0    0  0.10546927169E+02 -0.38845416448E+01  0.30462261132E+01  0.11645034565E+02  0.00000000000E+00 0. -1.
         11    1    4    4    0    0  0.12579549467E+03  0.49708159651E+02  0.50553606600E+03  0.52331837503E+03  0.00000000000E+00 0.  1.
<mgrwt>
<rscale>  0 0.18407868E+03</rscale>
<asrwt>0</asrwt>
<pdfrwt beam="1">  1        2 0.99038323E-01 0.19056240E+03</pdfrwt>
<pdfrwt beam="2">  1       -2 0.13479851E-01 0.19056240E+03</pdfrwt>
<totfact> 0.18843271E+03</totfact>
</mgrwt>
</event>
<event>
 8    1  0.9424564E-006  0.1321562E+03  0.7546771E-02  0.1237365E+00
         -2   -1    0    0    0  501 -0.00000000000E+00  0.00000000000E+00  0.23833590004E+03  0.23833590004E+03  0.00000000000E+00 0.  1.
          2   -1    0    0  501    0  0.00000000000E+00 -0.00000000000E+00 -0.57459807456E+02  0.57459807456E+02  0.00000000000E+00 0. -1.
         23    2    1    2    0    0  0.36885981263E+01 -0.42745833276E+02  0.11576921187E+03  0.17569227779E+03  0.12499781613E+03 0.  0.
         23    2    1    2    0    0 -0.36885981263E+01  0.42745833276E+02  0.65106880717E+02  0.12010342971E+03  0.91351605863E+02 0.  0.
          5    1    3    3  502    0 -0.22390746081E+02  0.36297419090E+02  0.65625371214E+02  0.78406807674E+02  0.47000000000E+01 0.  1.
         -5    1    3    3    0  502  0.26079344207E+02 -0.79043252367E+02  0.50143840657E+02  0.97285470112E+02  0.47000000000E+01 0.  1.
        -11    1    4    4    0    0  0.21075026194E+02  0.61095158719E+01  0.72071488843E+02  0.75337788774E+02  0.00000000000E+00 0.  1.
         11    1    4    4    0    0 -0.24763624320E+02  0.36636317404E+02 -0.69646081263E+01  0.44765640940E+02  0.00000000000E+00 0. -1.
<mgrwt>
<rscale>  0 0.12354233E+03</rscale>
<asrwt>0</asrwt>
<pdfrwt beam="2">  1        2 0.88399705E-02 0.13215622E+03</pdfrwt>
<pdfrwt beam="1">  1       -2 0.36667061E-01 0.13215622E+03</pdfrwt>
<totfact> 0.49968499E+03</totfact>
</mgrwt>
</event>
<event>
 8    1  0.9424564E-006  0.1881159E+03  0.7546771E-02  0.1165153E+00
          1   -1    0    0  501    0  0.00000000000E+00  0.00000000000E+00  0.39427253051E+03  0.39427253051E+03  0.00000000000E+00 0. -1.
         -1   -1    0    0    0  501 -0.00000000000E+00 -0.00000000000E+00 -0.89013217400E+02  0.89013217400E+02  0.00000000000E+00 0.  1.
         23    2    1    2    0    0 -0.11193418136E+03  0.85066621060E+02  0.84799589951E+02  0.20634574590E+03  0.12498802110E+03 0.  0.
         23    2    1    2    0    0  0.11193418136E+03 -0.85066621060E+02  0.22045972316E+03  0.27694000201E+03  0.91256146109E+02 0.  0.
          5    1    3    3  502    0 -0.31272896772E+02 -0.32474791912E+02  0.16917939382E+02  0.48382981049E+02  0.47000000000E+01 0.  1.
         -5    1    3    3    0  502 -0.80661284589E+02  0.11754141297E+03  0.67881650569E+02  0.15796276485E+03  0.47000000000E+01 0.  1.
        -11    1    4    4    0    0  0.98037569140E+02 -0.68359128580E+02  0.22496891799E+03  0.25474565646E+03  0.00000000000E+00 0. -1.
         11    1    4    4    0    0  0.13896612221E+02 -0.16707492480E+02 -0.45091948361E+01  0.22194345547E+02  0.00000000000E+00 0.  1.
<mgrwt>
<rscale>  0 0.18276560E+03</rscale>
<asrwt>0</asrwt>
<pdfrwt beam="1">  1        1 0.60657312E-01 0.18811591E+03</pdfrwt>
<pdfrwt beam="2">  1       -1 0.13694341E-01 0.18811591E+03</pdfrwt>
<totfact> 0.22663299E+03</totfact>
</mgrwt>
</event>
<event>
 8    1  0.9424564E-006  0.1503236E+03  0.7546771E-02  0.1209062E+00
         -1   -1    0    0    0  501 -0.00000000000E+00  0.00000000000E+00  0.10037140267E+03  0.10037140267E+03  0.00000000000E+00 0.  1.
          1   -1    0    0  501    0  0.00000000000E+00 -0.00000000000E+00 -0.19599875635E+03  0.19599875635E+03  0.00000000000E+00 0. -1.
         23    2    1    2    0    0  0.71363040568E+02 -0.43336834281E+02 -0.21043706492E+02  0.15178936780E+03  0.12500563919E+03 0.  0.
         23    2    1    2    0    0 -0.71363040568E+02  0.43336834281E+02 -0.74583647187E+02  0.14458079122E+03  0.91488359899E+02 0.  0.
          5    1    3    3  502    0  0.52594049948E+02 -0.71521601885E+02  0.26920490474E+02  0.92888516155E+02  0.47000000000E+01 0.  1.
         -5    1    3    3    0  502  0.18768990621E+02  0.28184767605E+02 -0.47964196966E+02  0.58900851644E+02  0.47000000000E+01 0.  1.
        -11    1    4    4    0    0 -0.85081324771E+02  0.23281021218E+02 -0.28874976875E+02  0.92814880614E+02  0.00000000000E+00 0.  1.
         11    1    4    4    0    0  0.13718284203E+02  0.20055813063E+02 -0.45708670311E+02  0.51765910605E+02  0.00000000000E+00 0. -1.
<mgrwt>
<rscale>  0 0.14321932E+03</rscale>
<asrwt>0</asrwt>
<pdfrwt beam="2">  1        1 0.30153654E-01 0.15032357E+03</pdfrwt>
<pdfrwt beam="1">  1       -1 0.15441754E-01 0.15032357E+03</pdfrwt>
<totfact> 0.44524380E+03</totfact>
</mgrwt>
</event>
<event>
 8    1  0.9424564E-006  0.1288402E+03  0.7546771E-02  0.1242845E+00
          1   -1    0    0  501    0  0.00000000000E+00  0.00000000000E+00  0.43071998356E+03  0.43071998356E+03  0.00000000000E+00 0. -1.
         -1   -1    0    0    0  501 -0.00000000000E+00 -0.00000000000E+00 -0.30626511759E+02  0.30626511759E+02  0.00000000000E+00 0.  1.
         23    2    1    2    0    0 -0.30215497894E+02 -0.80268639244E+01  0.18770455625E+03  0.22766816975E+03  0.12498955246E+03 0.  0.
         23    2    1    2    0    0  0.30215497894E+02  0.80268639244E+01  0.21238891556E+03  0.23367832557E+03  0.92298979050E+02 0.  0.
          5    1    3    3  502    0 -0.78836698935E+02  0.17759272680E+01  0.11714094570E+03  0.14128860597E+03  0.47000000000E+01 0. -1.
         -5    1    3    3    0  502  0.48621201041E+02 -0.98027911924E+01  0.70563610545E+02  0.86379563781E+02  0.47000000000E+01 0. -1.
        -11    1    4    4    0    0  0.43461179782E+02  0.34118064603E+02  0.18682178614E+03  0.19482119048E+03  0.00000000000E+00 0. -1.
         11    1    4    4    0    0 -0.13245681889E+02 -0.26091200679E+02  0.25567129413E+02  0.38857135098E+02  0.00000000000E+00 0.  1.
<mgrwt>
<rscale>  0 0.12015283E+03</rscale>
<asrwt>0</asrwt>
<pdfrwt beam="1">  1        1 0.66264608E-01 0.12884019E+03</pdfrwt>
<pdfrwt beam="2">  1       -1 0.47117714E-02 0.12884019E+03</pdfrwt>
<totfact> 0.10021236E+04</totfact>
</mgrwt>
</event>
<event>
 8    1  0.9424564E-006  0.1278817E+03  0.7546771E-02  0.1244054E+00
          2   -1    0    0  501    0  0.00000000000E+00  0.00000000000E+00  0.74718691352E+03  0.74718691352E+03  0.00000000000E+00 0. -1.
         -2   -1    0    0    0  501 -0.00000000000E+00 -0.00000000000E+00 -0.17344137120E+02  0.17344137120E+02  0.00000000000E+00 0.  1.
         23    2    1    2    0    0  0.22777852242E+02 -0.14524540265E+02  0.35701747302E+03  0.37922975555E+03  0.12499575442E+03 0.  0.
         23    2    1    2    0    0 -0.22777852242E+02  0.14524540265E+02  0.37282530338E+03  0.38530129510E+03  0.93426914437E+02 0.  0.
          5    1    3    3  502    0 -0.51036376985E+02 -0.56650937838E+01  0.11555958380E+03  0.12654213714E+03  0.47000000000E+01 0. -1.
         -5    1    3    3    0  502  0.73814229227E+02 -0.88594464807E+01  0.24145788922E+03  0.25268761840E+03  0.47000000000E+01 0. -1.
        -11    1    4    4    0    0  0.33139568989E+02  0.23424640098E+02  0.14957233206E+03  0.15498008683E+03  0.00000000000E+00 0. -1.
         11    1    4    4    0    0 -0.55917421230E+02 -0.89000998339E+01  0.22325297132E+03  0.23032120827E+03  0.00000000000E+00 0.  1.
<mgrwt>
<rscale>  0 0.11942175E+03</rscale>
<asrwt>0</asrwt>
<pdfrwt beam="1">  1        2 0.11495181E+00 0.12788171E+03</pdfrwt>
<pdfrwt beam="2">  1       -2 0.26683294E-02 0.12788171E+03</pdfrwt>
<totfact> 0.18425128E+04</totfact>
</mgrwt>
</event>
<event>
 8    1  0.9424564E-006  0.1376980E+03  0.7546771E-02  0.1228788E+00
         -2   -1    0    0    0  501 -0.00000000000E+00  0.00000000000E+00  0.26744246161E+02  0.26744246161E+02  0.00000000000E+00 0.  1.
          2   -1    0    0  501    0  0.00000000000E+00 -0.00000000000E+00 -0.56589283375E+03  0.56589283375E+03  0.00000000000E+00 0. -1.
         23    2    1    2    0    0  0.55730732136E+02 -0.15039409073E+02 -0.26683542847E+03  0.30026966989E+03  0.12501452092E+03 0.  0.
         23    2    1    2    0    0 -0.55730732136E+02  0.15039409073E+02 -0.27231315912E+03  0.29236741002E+03  0.89398811408E+02 0.  0.
          5    1    3    3  502    0  0.71137176401E+02 -0.54939731972E+02 -0.21381084400E+03  0.23198284210E+03  0.47000000000E+01 0.  1.
         -5    1    3    3    0  502 -0.15406444266E+02  0.39900322898E+02 -0.53024584468E+02  0.68286827795E+02  0.47000000000E+01 0.  1.
        -11    1    4    4    0    0 -0.45117719270E+02 -0.30079119994E+02 -0.19331157963E+03  0.20077282901E+03  0.00000000000E+00 0. -1.
         11    1    4    4    0    0 -0.10613012865E+02  0.45118529067E+02 -0.79001579495E+02  0.91594581008E+02  0.00000000000E+00 0.  1.
<mgrwt>
<rscale>  0 0.12910611E+03</rscale>
<asrwt>0</asrwt>
<pdfrwt beam="2">  1        2 0.87060433E-01 0.13769796E+03</pdfrwt>
<pdfrwt beam="1">  1       -2 0.41144996E-02 0.13769796E+03</pdfrwt>
<totfact> 0.13517718E+04</totfact>
</mgrwt>
</event>
<event>
 8    1  0.9424564E-006  0.1492664E+03  0.7546771E-02  0.1215574E+00
         -1   -1    0    0    0  501 -0.00000000000E+00  0.00000000000E+00  0.34286506876E+02  0.34286506876E+02  0.00000000000E+00 0.  1.
          1   -1    0    0  501    0  0.00000000000E+00 -0.00000000000E+00 -0.51375388337E+03  0.51375388337E+03  0.00000000000E+00 0. -1.
         23    2    1    2    0    0 -0.34096239774E+02  0.74115110717E+02 -0.21681589826E+03  0.26322917042E+03  0.12499943687E+03 0.  0.
         23    2    1    2    0    0  0.34096239774E+02 -0.74115110717E+02 -0.26265147823E+03  0.28481121983E+03  0.74000194033E+02 0.  0.
          5    1    3    3  502    0 -0.31184436554E+02  0.81131778380E+01 -0.18833956702E+03  0.19113391965E+03  0.47000000000E+01 0. -1.
         -5    1    3    3    0  502 -0.29118032198E+01  0.66001932879E+02 -0.28476331240E+02  0.72095250764E+02  0.47000000000E+01 0. -1.
        -11    1    4    4    0    0 -0.12487338547E+01 -0.10164307786E+02  0.18467318941E+01  0.10405907346E+02  0.00000000000E+00 0.  1.
         11    1    4    4    0    0  0.35344973628E+02 -0.63950802932E+02 -0.26449821013E+03  0.27440531248E+03  0.00000000000E+00 0. -1.
<mgrwt>
<rscale>  0 0.13834437E+03</rscale>
<asrwt>0</asrwt>
<pdfrwt beam="2">  1        1 0.79039058E-01 0.14926641E+03</pdfrwt>
<pdfrwt beam="1">  1       -1 0.52748473E-02 0.14926641E+03</pdfrwt>
<totfact> 0.68181211E+03</totfact>
</mgrwt>
</event>
<event>
 8    1  0.9424564E-006  0.1713534E+03  0.7546771E-02  0.1182970E+00
          2   -1    0    0  501    0  0.00000000000E+00  0.00000000000E+00  0.74006990360E+03  0.74006990360E+03  0.00000000000E+00 0. -1.
         -2   -1    0    0    0  501 -0.00000000000E+00 -0.00000000000E+00 -0.34468004938E+02  0.34468004938E+02  0.00000000000E+00 0.  1.
         23    2    1    2    0    0 -0.75905660502E+01 -0.11695806097E+03  0.38896471893E+03  0.42503593883E+03  0.12500076803E+03 0.  0.
         23    2    1    2    0    0  0.75905660502E+01  0.11695806097E+03  0.31663717973E+03  0.34950196970E+03  0.90309016838E+02 0.  0.
          5    1    3    3  502    0 -0.51007042252E+02 -0.41405566991E+02  0.78154458163E+02  0.10220738069E+03  0.47000000000E+01 0. -1.
         -5    1    3    3    0  502  0.43416476202E+02 -0.75552493975E+02  0.31081026077E+03  0.32282855814E+03  0.47000000000E+01 0. -1.
        -11    1    4    4    0    0  0.11919222381E+02  0.59280056011E+01 -0.64321509675E+00  0.13327521834E+02  0.00000000000E+00 0.  1.
         11    1    4    4    0    0 -0.43286563307E+01  0.11103005536E+03  0.31728039483E+03  0.33617444787E+03  0.00000000000E+00 0. -1.
<mgrwt>
<rscale>  0 0.16517966E+03</rscale>
<asrwt>0</asrwt>
<pdfrwt beam="1">  1        2 0.11385690E+00 0.17135343E+03</pdfrwt>
<pdfrwt beam="2">  1       -2 0.53027705E-02 0.17135343E+03</pdfrwt>
<totfact> 0.68412013E+03</totfact>
</mgrwt>
</event>
<event>
 8    1  0.9424564E-006  0.1264835E+03  0.7546771E-02  0.1250191E+00
         -1   -1    0    0    0  501 -0.00000000000E+00  0.00000000000E+00  0.73303256447E+02  0.73303256447E+02  0.00000000000E+00 0.  1.
          1   -1    0    0  501    0  0.00000000000E+00 -0.00000000000E+00 -0.18624601311E+03  0.18624601311E+03  0.00000000000E+00 0. -1.
         23    2    1    2    0    0 -0.10849147350E+02  0.15955075808E+02 -0.15113172123E+02  0.12738320731E+03  0.12500322032E+03 0.  0.
         23    2    1    2    0    0  0.10849147350E+02 -0.15955075808E+02 -0.97829584543E+02  0.13216606225E+03  0.86746596220E+02 0.  0.
          5    1    3    3  502    0 -0.42628684994E+02  0.26664782646E+02  0.38822313268E+02  0.63698331417E+02  0.47000000000E+01 0.  1.
         -5    1    3    3    0  502  0.31779537644E+02 -0.10709706838E+02 -0.53935485391E+02  0.63684875895E+02  0.47000000000E+01 0.  1.
        -11    1    4    4    0    0 -0.55361876389E+01  0.21304689548E+02  0.41171714719E+01  0.22393978459E+02  0.00000000000E+00 0.  1.
         11    1    4    4    0    0  0.16385334989E+02 -0.37259765356E+02 -0.10194675601E+03  0.10977208379E+03  0.00000000000E+00 0. -1.
<mgrwt>
<rscale>  0 0.11580033E+03</rscale>
<asrwt>0</asrwt>
<pdfrwt beam="2">  1        1 0.28653233E-01 0.12648349E+03</pdfrwt>
<pdfrwt beam="1">  1       -1 0.11277424E-01 0.12648349E+03</pdfrwt>
<totfact> 0.76461769E+03</totfact>
</mgrwt>
</event>
<event>
 8    1  0.9424564E-006  0.1279675E+03  0.7546771E-02  0.1243976E+00
          2   -1    0    0  501    0  0.00000000000E+00  0.00000000000E+00  0.94770747502E+02  0.94770747502E+02  0.00000000000E+00 0. -1.
         -2   -1    0    0    0  501 -0.00000000000E+00 -0.00000000000E+00 -0.13551349406E+03  0.13551349406E+03  0.00000000000E+00 0.  1.
         23    2    1    2    0    0 -0.24969185234E+02  0.11305613169E+02 -0.36100314780E+02  0.13296205984E+03  0.12499759810E+03 0.  0.
         23    2    1    2    0    0  0.24969185234E+02 -0.11305613169E+02 -0.46424317744E+01  0.97322181717E+02  0.93267238520E+02 0.  0.
          5    1    3    3  502    0 -0.71719367883E+01 -0.63776424728E+01  0.45875762593E+02  0.47103997647E+02  0.47000000000E+01 0.  1.
         -5    1    3    3    0  502 -0.17797248445E+02  0.17683255641E+02 -0.81976077373E+02  0.85858062195E+02  0.47000000000E+01 0.  1.
        -11    1    4    4    0    0  0.21349684475E+02 -0.36547977810E+02 -0.36934238292E+02  0.56175632328E+02  0.00000000000E+00 0.  1.
         11    1    4    4    0    0  0.36195007591E+01  0.25242364642E+02  0.32291806518E+02  0.41146549389E+02  0.00000000000E+00 0. -1.
<mgrwt>
<rscale>  0 0.11946867E+03</rscale>
<asrwt>0</asrwt>
<pdfrwt beam="1">  1        2 0.14580115E-01 0.12796748E+03</pdfrwt>
<pdfrwt beam="2">  1       -2 0.20848230E-01 0.12796748E+03</pdfrwt>
<totfact> 0.74199001E+03</totfact>
</mgrwt>
</event>
<event>
 7    1  0.9424564E-006  0.4493054E+03  0.7546771E-02  0.1027929E+00
         -2   -1    0    0    0  501 -0.00000000000E+00  0.00000000000E+00  0.75014065274E+02  0.75014065274E+02  0.00000000000E+00 0.  1.
          2   -1    0    0  501    0  0.00000000000E+00 -0.00000000000E+00 -0.67279170375E+03  0.67279170375E+03  0.00000000000E+00 0. -1.
         23    2    1    2    0    0 -0.19023855694E+02 -0.89387400827E+02 -0.53980596790E+03  0.55081197506E+03  0.60426272260E+02 0.  0.
          5    1    1    2  502    0  0.25994742748E+02 -0.17025731326E+02 -0.81793320643E+02  0.87623281607E+02  0.47000000000E+01 0. -1.
         -5    1    1    2    0  502 -0.69708870535E+01  0.10641313215E+03  0.23821650067E+02  0.10937051236E+03  0.47000000000E+01 0.  1.
        -11    1    3    3    0    0 -0.13285768720E+02 -0.98130274502E+02 -0.48188110239E+03  0.49195066751E+03  0.00000000000E+00 0. -1.
         11    1    3    3    0    0 -0.57380869740E+01  0.87428736751E+01 -0.57924865510E+02  0.58861307551E+02  0.00000000000E+00 0.  1.
<mgrwt>
<rscale>  0 0.44930542E+03</rscale>
<asrwt>0</asrwt>
<pdfrwt beam="2">  1        2 0.10350641E+00 0.44930542E+03</pdfrwt>
<pdfrwt beam="1">  1       -2 0.11540626E-01 0.44930542E+03</pdfrwt>
<totfact> 0.23303995E+03</totfact>
</mgrwt>
</event>
<event>
 8    1  0.9424564E-006  0.1854259E+03  0.7546771E-02  0.1167592E+00
          2   -1    0    0  501    0  0.00000000000E+00  0.00000000000E+00  0.28421514528E+03  0.28421514528E+03  0.00000000000E+00 0. -1.
         -2   -1    0    0    0  501 -0.00000000000E+00 -0.00000000000E+00 -0.10877900451E+03  0.10877900451E+03  0.00000000000E+00 0.  1.
         23    2    1    2    0    0  0.12045804133E+03 -0.65164059090E+02  0.79630843491E+02  0.20180150696E+03  0.12500513053E+03 0.  0.
         23    2    1    2    0    0 -0.12045804133E+03  0.65164059090E+02  0.95805297276E+02  0.19119264283E+03  0.92841140490E+02 0.  0.
          5    1    3    3  502    0  0.88016560704E+02  0.17226718344E+02  0.12696736328E+02  0.90702656502E+02  0.47000000000E+01 0.  1.
         -5    1    3    3    0  502  0.32441480628E+02 -0.82390777434E+02  0.66934107163E+02  0.11109885046E+03  0.47000000000E+01 0.  1.
        -11    1    4    4    0    0 -0.20508460753E+02  0.47621472325E+02  0.68861384828E+02  0.86199141001E+02  0.00000000000E+00 0. -1.
         11    1    4    4    0    0 -0.99949580579E+02  0.17542586765E+02  0.26943912448E+02  0.10499350183E+03  0.00000000000E+00 0.  1.
<mgrwt>
<rscale>  0 0.18021837E+03</rscale>
<asrwt>0</asrwt>
<pdfrwt beam="1">  1        2 0.43725406E-01 0.18542593E+03</pdfrwt>
<pdfrwt beam="2">  1       -2 0.16735232E-01 0.18542593E+03</pdfrwt>
<totfact> 0.32398511E+03</totfact>
</mgrwt>
</event>
<event>
 8    1  0.9424564E-006  0.1378288E+03  0.7546771E-02  0.1227367E+00
          3   -1    0    0  501    0  0.00000000000E+00  0.00000000000E+00  0.28841124895E+03  0.28841124895E+03  0.00000000000E+00 0. -1.
         -3   -1    0    0    0  501 -0.00000000000E+00 -0.00000000000E+00 -0.58442755823E+02  0.58442755823E+02  0.00000000000E+00 0.  1.
         23    2    1    2    0    0  0.49628418489E+02 -0.30140061804E+02  0.74081081971E+02  0.15647618629E+03  0.12500154769E+03 0.  0.
         23    2    1    2    0    0 -0.49628418489E+02  0.30140061804E+02  0.15588741116E+03  0.19037781848E+03  0.92581993738E+02 0.  0.
          5    1    3    3  502    0  0.15744661552E+02 -0.42880073395E+02 -0.24006068535E+02  0.51816757794E+02  0.47000000000E+01 0. -1.
         -5    1    3    3    0  502  0.33883756937E+02  0.12740011590E+02  0.98087150506E+02  0.10465942850E+03  0.47000000000E+01 0. -1.
        -11    1    4    4    0    0  0.27327358798E+02  0.10261817479E+02  0.33351199240E+02  0.44321461253E+02  0.00000000000E+00 0.  1.
         11    1    4    4    0    0 -0.76955777287E+02  0.19878244326E+02  0.12253621191E+03  0.14605635722E+03  0.00000000000E+00 0. -1.
<mgrwt>
<rscale>  0 0.13005992E+03</rscale>
<asrwt>0</asrwt>
<pdfrwt beam="1">  1        3 0.44370961E-01 0.13782884E+03</pdfrwt>
<pdfrwt beam="2">  1       -3 0.89911934E-02 0.13782884E+03</pdfrwt>
<totfact> 0.10315971E+03</totfact>
</mgrwt>
</event>
<event>
 8    1  0.9424564E-006  0.1255642E+03  0.7546771E-02  0.1249734E+00
          1   -1    0    0  501    0  0.00000000000E+00  0.00000000000E+00  0.54489828539E+02  0.54489828539E+02  0.00000000000E+00 0. -1.
         -1   -1    0    0    0  501 -0.00000000000E+00 -0.00000000000E+00 -0.22572957180E+03  0.22572957180E+03  0.00000000000E+00 0.  1.
         23    2    1    2    0    0  0.25408663919E+01 -0.11633168606E+02 -0.12643398382E+03  0.17819069057E+03  0.12499833330E+03 0.  0.
         23    2    1    2    0    0 -0.25408663919E+01  0.11633168606E+02 -0.44805759445E+02  0.10202870977E+03  0.90887374946E+02 0.  0.
          5    1    3    3  502    0 -0.42429115949E+02  0.38828567978E+02 -0.61757791826E+02  0.84522200768E+02  0.47000000000E+01 0. -1.
         -5    1    3    3    0  502  0.44969982341E+02 -0.50461736584E+02 -0.64676191989E+02  0.93668489798E+02  0.47000000000E+01 0. -1.
        -11    1    4    4    0    0  0.11685212842E+02 -0.31956156251E+02  0.49314495181E+01  0.34381089509E+02  0.00000000000E+00 0. -1.
         11    1    4    4    0    0 -0.14226079234E+02  0.43589324857E+02 -0.49737208963E+02  0.67647620263E+02  0.00000000000E+00 0.  1.
<mgrwt>
<rscale>  0 0.11606444E+03</rscale>
<asrwt>0</asrwt>
<pdfrwt beam="1">  1        1 0.83830506E-02 0.12556421E+03</pdfrwt>
<pdfrwt beam="2">  1       -1 0.34727626E-01 0.12556421E+03</pdfrwt>
<totfact> 0.61061957E+03</totfact>
</mgrwt>
</event>
<event>
 8    1  0.9424564E-006  0.1776589E+03  0.7546771E-02  0.1175802E+00
         -1   -1    0    0    0  501 -0.00000000000E+00  0.00000000000E+00  0.38659025011E+03  0.38659025011E+03  0.00000000000E+00 0.  1.
          1   -1    0    0  501    0  0.00000000000E+00 -0.00000000000E+00 -0.11023537611E+03  0.11023537611E+03  0.00000000000E+00 0. -1.
         23    2    1    2    0    0  0.11887198218E+03  0.42507135888E+02  0.29015036053E+03  0.34022038940E+03  0.12500110756E+03 0.  0.
         23    2    1    2    0    0 -0.11887198218E+03 -0.42507135888E+02 -0.13795486535E+02  0.15660523682E+03  0.91637765146E+02 0.  0.
          5    1    3    3  502    0  0.36339376158E+02 -0.29751128531E+02  0.25385742596E+02  0.53592964422E+02  0.47000000000E+01 0.  1.
         -5    1    3    3    0  502  0.82532606027E+02  0.72258264420E+02  0.26476461794E+03  0.28662742497E+03  0.47000000000E+01 0.  1.
        -11    1    4    4    0    0 -0.10867839233E+03 -0.39400665932E+02 -0.44679745335E+02  0.12393419657E+03  0.00000000000E+00 0. -1.
         11    1    4    4    0    0 -0.10193589855E+02 -0.31064699564E+01  0.30884258800E+02  0.32671040255E+02  0.00000000000E+00 0.  1.
<mgrwt>
<rscale>  0 0.17197641E+03</rscale>
<asrwt>0</asrwt>
<pdfrwt beam="2">  1        1 0.16959289E-01 0.17765889E+03</pdfrwt>
<pdfrwt beam="1">  1       -1 0.59475422E-01 0.17765889E+03</pdfrwt>
<totfact> 0.93144692E+02</totfact>
</mgrwt>
</event>
<event>
 8    1  0.9424564E-006  0.1352476E+03  0.7546771E-02  0.1232054E+00
          1   -1    0    0  501    0  0.00000000000E+00  0.00000000000E+00  0.76091270332E+02  0.76091270332E+02  0.00000000000E+00 0. -1.
         -1   -1    0    0    0  501 -0.00000000000E+00 -0.00000000000E+00 -0.22908002101E+03  0.22908002101E+03  0.00000000000E+00 0.  1.
         23    2    1    2    0    0 -0.29637483768E+00 -0.51640881216E+02 -0.14738542656E+03  0.20003592569E+03  0.12500015661E+03 0.  0.
         23    2    1    2    0    0  0.29637483768E+00  0.51640881216E+02 -0.56033241174E+01  0.10513536565E+03  0.91406670540E+02 0.  0.
          5    1    3    3  502    0  0.55924456785E+02 -0.39304820582E+02 -0.11489547617E+03  0.13377396695E+03  0.47000000000E+01 0.  1.
         -5    1    3    3    0  502 -0.56220831623E+02 -0.12336060634E+02 -0.32489950393E+02  0.66261958746E+02  0.47000000000E+01 0.  1.
        -11    1    4    4    0    0  0.20019834807E+02 -0.21066469171E+02 -0.65651693073E+01  0.29794149712E+02  0.00000000000E+00 0.  1.
         11    1    4    4    0    0 -0.19723459970E+02  0.72707350387E+02  0.96184518994E+00  0.75341215942E+02  0.00000000000E+00 0. -1.
<mgrwt>
<rscale>  0 0.12694918E+03</rscale>
<asrwt>0</asrwt>
<pdfrwt beam="1">  1        1 0.11706349E-01 0.13524758E+03</pdfrwt>
<pdfrwt beam="2">  1       -1 0.35243080E-01 0.13524758E+03</pdfrwt>
<totfact> 0.38445234E+03</totfact>
</mgrwt>
</event>
<event>
 8    1  0.9424564E-006  0.1360845E+03  0.7546771E-02  0.1231400E+00
          1   -1    0    0  501    0  0.00000000000E+00  0.00000000000E+00  0.16606799993E+03  0.16606799993E+03  0.00000000000E+00 0. -1.
         -1   -1    0    0    0  501 -0.00000000000E+00 -0.00000000000E+00 -0.89809773768E+02  0.89809773768E+02  0.00000000000E+00 0.  1.
         23    2    1    2    0    0 -0.53212193051E+02  0.80253526494E+01  0.20970289008E+02  0.13769076247E+03  0.12499219685E+03 0.  0.
         23    2    1    2    0    0  0.53212193051E+02 -0.80253526494E+01  0.55287937156E+02  0.11818701123E+03  0.89529156452E+02 0.  0.
          5    1    3    3  502    0 -0.74210844902E+02  0.36655984299E+02 -0.17923064246E+02  0.84818847657E+02  0.47000000000E+01 0.  1.
         -5    1    3    3    0  502  0.20998651850E+02 -0.28630631650E+02  0.38893353254E+02  0.52871914809E+02  0.47000000000E+01 0.  1.
        -11    1    4    4    0    0  0.64359757062E+02  0.19763738827E+02  0.16738463149E+02  0.69375498918E+02  0.00000000000E+00 0.  1.
         11    1    4    4    0    0 -0.11147564011E+02 -0.27789091476E+02  0.38549474007E+02  0.48811512317E+02  0.00000000000E+00 0. -1.
<mgrwt>
<rscale>  0 0.12737718E+03</rscale>
<asrwt>0</asrwt>
<pdfrwt beam="1">  1        1 0.25548923E-01 0.13608451E+03</pdfrwt>
<pdfrwt beam="2">  1       -1 0.13816888E-01 0.13608451E+03</pdfrwt>
<totfact> 0.64797234E+03</totfact>
</mgrwt>
</event>
<event>
 8    1  0.9424564E-006  0.1373417E+03  0.7546771E-02  0.1224735E+00
         -2   -1    0    0    0  501 -0.00000000000E+00  0.00000000000E+00  0.74832937987E+02  0.74832937987E+02  0.00000000000E+00 0.  1.
          2   -1    0    0  501    0  0.00000000000E+00 -0.00000000000E+00 -0.26120287511E+03  0.26120287511E+03  0.00000000000E+00 0. -1.
         23    2    1    2    0    0  0.41368831047E+02 -0.39171799520E+02 -0.29385070377E+02  0.14045008976E+03  0.12496773700E+03 0.  0.
         23    2    1    2    0    0 -0.41368831047E+02  0.39171799520E+02 -0.15698486674E+03  0.19558572334E+03  0.10180234147E+03 0.  0.
          5    1    3    3  502    0 -0.39110286035E+01 -0.61096076084E+02 -0.56208851886E+02  0.83243928835E+02  0.47000000000E+01 0. -1.
         -5    1    3    3    0  502  0.45279859650E+02  0.21924276564E+02  0.26823781509E+02  0.57206160920E+02  0.47000000000E+01 0. -1.
        -11    1    4    4    0    0 -0.37980295194E+02 -0.14240569316E+02 -0.12892699257E+03  0.13515719015E+03  0.00000000000E+00 0. -1.
         11    1    4    4    0    0 -0.33885358524E+01  0.53412368836E+02 -0.28057874176E+02  0.60428533187E+02  0.00000000000E+00 0.  1.
<mgrwt>
<rscale>  0 0.13185063E+03</rscale>
<asrwt>0</asrwt>
<pdfrwt beam="2">  1        2 0.40185058E-01 0.13734171E+03</pdfrwt>
<pdfrwt beam="1">  1       -2 0.11512760E-01 0.13734171E+03</pdfrwt>
<totfact> 0.64130377E+03</totfact>
</mgrwt>
</event>
<event>
 8    1  0.9424564E-006  0.1680571E+03  0.7546771E-02  0.1186313E+00
          2   -1    0    0  501    0  0.00000000000E+00  0.00000000000E+00  0.90719764256E+02  0.90719764256E+02  0.00000000000E+00 0. -1.
         -2   -1    0    0    0  501 -0.00000000000E+00 -0.00000000000E+00 -0.27160037756E+03  0.27160037756E+03  0.00000000000E+00 0.  1.
         23    2    1    2    0    0 -0.14451078378E+02  0.11139826245E+03 -0.88899938109E+02  0.19012206878E+03  0.12499918199E+03 0.  0.
         23    2    1    2    0    0  0.14451078378E+02 -0.11139826245E+03 -0.91980675197E+02  0.17219807304E+03  0.92592252411E+02 0.  0.
          5    1    3    3  502    0 -0.39525957829E+02  0.54848177745E+02 -0.10596207098E+03  0.12578026248E+03  0.47000000000E+01 0. -1.
         -5    1    3    3    0  502  0.25074879450E+02  0.56550084704E+02  0.17062132867E+02  0.64341806296E+02  0.47000000000E+01 0. -1.
        -11    1    4    4    0    0  0.23712383730E+02 -0.99449735748E+02 -0.10899328581E+03  0.14943916299E+03  0.00000000000E+00 0.  1.
         11    1    4    4    0    0 -0.92613053517E+01 -0.11948526700E+02  0.17012610611E+02  0.22758910056E+02  0.00000000000E+00 0. -1.
<mgrwt>
<rscale>  0 0.16213006E+03</rscale>
<asrwt>0</asrwt>
<pdfrwt beam="1">  1        2 0.13956887E-01 0.16805714E+03</pdfrwt>
<pdfrwt beam="2">  1       -2 0.41784673E-01 0.16805714E+03</pdfrwt>
<totfact> 0.22729028E+03</totfact>
</mgrwt>
</event>
<event>
 8    1  0.9424564E-006  0.1300595E+03  0.7546771E-02  0.1240817E+00
          1   -1    0    0  501    0  0.00000000000E+00  0.00000000000E+00  0.60649339096E+03  0.60649339096E+03  0.00000000000E+00 0. -1.
         -1   -1    0    0    0  501 -0.00000000000E+00 -0.00000000000E+00 -0.21774728781E+02  0.21774728781E+02  0.00000000000E+00 0.  1.
         23    2    1    2    0    0 -0.25250543854E+02 -0.25392688923E+02  0.36205812480E+03  0.38470969897E+03  0.12503234833E+03 0.  0.
         23    2    1    2    0    0  0.25250543854E+02  0.25392688923E+02  0.22266053738E+03  0.24355842077E+03  0.91981578639E+02 0.  0.
          5    1    3    3  502    0  0.16139118719E+02 -0.56151058130E+02  0.29066190078E+03  0.29651280419E+03  0.47000000000E+01 0.  1.
         -5    1    3    3    0  502 -0.41389662572E+02  0.30758369207E+02  0.71396224019E+02  0.88196894777E+02  0.47000000000E+01 0.  1.
        -11    1    4    4    0    0 -0.12449140088E+02  0.49091731311E+02  0.85762247898E+02  0.99599911329E+02  0.00000000000E+00 0.  1.
         11    1    4    4    0    0  0.37699683941E+02 -0.23699042388E+02  0.13689828948E+03  0.14395850944E+03  0.00000000000E+00 0. -1.
<mgrwt>
<rscale>  0 0.12139283E+03</rscale>
<asrwt>0</asrwt>
<pdfrwt beam="1">  1        1 0.93306663E-01 0.13005947E+03</pdfrwt>
<pdfrwt beam="2">  1       -1 0.33499587E-02 0.13005947E+03</pdfrwt>
<totfact> 0.10559653E+04</totfact>
</mgrwt>
</event>
<event>
 8    1  0.9424564E-006  0.1415582E+03  0.7546771E-02  0.1221977E+00
          2   -1    0    0  501    0  0.00000000000E+00  0.00000000000E+00  0.40181049139E+03  0.40181049139E+03  0.00000000000E+00 0. -1.
         -2   -1    0    0    0  501 -0.00000000000E+00 -0.00000000000E+00 -0.48044307676E+02  0.48044307676E+02  0.00000000000E+00 0.  1.
         23    2    1    2    0    0 -0.50934731486E+02 -0.37683350294E+02  0.10362791702E+03  0.17543512275E+03  0.12658734276E+03 0.  0.
         23    2    1    2    0    0  0.50934731486E+02  0.37683350294E+02  0.25013826670E+03  0.27441967632E+03  0.93394991962E+02 0.  0.
          5    1    3    3  502    0 -0.28566025596E+02  0.19660622914E+02  0.10802034303E+03  0.11354753375E+03  0.47000000000E+01 0. -1.
         -5    1    3    3    0  502 -0.22368705890E+02 -0.57343973208E+02 -0.43924260096E+01  0.61887589004E+02  0.47000000000E+01 0.  1.
        -11    1    4    4    0    0 -0.10858795883E+02 -0.22345589026E+02  0.79099933833E+02  0.82909820464E+02  0.00000000000E+00 0.  1.
         11    1    4    4    0    0  0.61793527370E+02  0.60028939320E+02  0.17103833286E+03  0.19150985585E+03  0.00000000000E+00 0. -1.
<mgrwt>
<rscale>  0 0.13376263E+03</rscale>
<asrwt>0</asrwt>
<pdfrwt beam="1">  1        2 0.61816996E-01 0.14155825E+03</pdfrwt>
<pdfrwt beam="2">  1       -2 0.73914322E-02 0.14155825E+03</pdfrwt>
<totfact> 0.81256775E+03</totfact>
</mgrwt>
</event>
<event>
 8    1  0.9424564E-006  0.1650485E+03  0.7546771E-02  0.1191963E+00
          1   -1    0    0  501    0  0.00000000000E+00  0.00000000000E+00  0.10848559053E+04  0.10848559053E+04  0.00000000000E+00 0. -1.
         -1   -1    0    0    0  501 -0.00000000000E+00 -0.00000000000E+00 -0.22595500375E+02  0.22595500375E+02  0.00000000000E+00 0.  1.
         23    2    1    2    0    0 -0.65064949105E+02  0.85920355451E+02  0.42507403327E+03  0.45599226263E+03  0.12500101892E+03 0.  0.
         23    2    1    2    0    0  0.65064949105E+02 -0.85920355451E+02  0.63718637164E+03  0.65145914304E+03  0.82321247313E+02 0.  0.
          5    1    3    3  502    0  0.33085844318E+02  0.30180643683E+02  0.18885131355E+03  0.19414544284E+03  0.47000000000E+01 0. -1.
         -5    1    3    3    0  502 -0.98150793423E+02  0.55739711769E+02  0.23622271972E+03  0.26184681978E+03  0.47000000000E+01 0. -1.
        -11    1    4    4    0    0  0.23576276944E+02  0.96064413914E+01  0.63813138191E+02  0.68704011211E+02  0.00000000000E+00 0.  1.
         11    1    4    4    0    0  0.41488672161E+02 -0.95526796843E+02  0.57337323345E+03  0.58275513183E+03  0.00000000000E+00 0. -1.
<mgrwt>
<rscale>  0 0.15714079E+03</rscale>
<asrwt>0</asrwt>
<pdfrwt beam="1">  1        1 0.16690087E+00 0.16504851E+03</pdfrwt>
<pdfrwt beam="2">  1       -1 0.34762317E-02 0.16504851E+03</pdfrwt>
<totfact> 0.41396176E+03</totfact>
</mgrwt>
</event>
<event>
 8    1  0.9424564E-006  0.1436519E+03  0.7546771E-02  0.1218418E+00
         -1   -1    0    0    0  501 -0.00000000000E+00  0.00000000000E+00  0.57345601320E+03  0.57345601320E+03  0.00000000000E+00 0.  1.
          1   -1    0    0  501    0  0.00000000000E+00 -0.00000000000E+00 -0.42496697216E+02  0.42496697216E+02  0.00000000000E+00 0. -1.
         23    2    1    2    0    0  0.69512215740E+02 -0.13397576932E+02  0.45461977783E+03  0.47677562703E+03  0.12499765173E+03 0.  0.
         23    2    1    2    0    0 -0.69512215740E+02  0.13397576932E+02  0.76339538157E+02  0.13917708338E+03  0.92363912044E+02 0.  0.
          5    1    3    3  502    0 -0.68705179827E+01  0.38347492717E+02  0.23899644476E+03  0.24219645914E+03  0.47000000000E+01 0.  1.
         -5    1    3    3    0  502  0.76382733722E+02 -0.51745069649E+02  0.21562333307E+03  0.23457916789E+03  0.47000000000E+01 0.  1.
        -11    1    4    4    0    0  0.21133070456E+02  0.12450810312E+02  0.24886544153E+02  0.34942372904E+02  0.00000000000E+00 0.  1.
         11    1    4    4    0    0 -0.90645286195E+02  0.94676662015E+00  0.51452994004E+02  0.10423471048E+03  0.00000000000E+00 0. -1.
<mgrwt>
<rscale>  0 0.13628433E+03</rscale>
<asrwt>0</asrwt>
<pdfrwt beam="2">  1        1 0.65379538E-02 0.14365186E+03</pdfrwt>
<pdfrwt beam="1">  1       -1 0.88223997E-01 0.14365186E+03</pdfrwt>
<totfact> 0.14898363E+03</totfact>
</mgrwt>
</event>
<event>
 8    1  0.9424564E-006  0.2298842E+03  0.7546771E-02  0.1129716E+00
         -2   -1    0    0    0  501 -0.00000000000E+00  0.00000000000E+00  0.19186534880E+03  0.19186534880E+03  0.00000000000E+00 0.  1.
          2   -1    0    0  501    0  0.00000000000E+00 -0.00000000000E+00 -0.27758409248E+03  0.27758409248E+03  0.00000000000E+00 0. -1.
         23    2    1    2    0    0  0.15614836992E+03 -0.11332521932E+03  0.20799925298E+02  0.23082322491E+03  0.12498722136E+03 0.  0.
         23    2    1    2    0    0 -0.15614836992E+03  0.11332521932E+03 -0.10651866898E+03  0.23862621637E+03  0.91494948135E+02 0.  0.
          5    1    3    3  502    0  0.10821061903E+03 -0.18607004701E+02  0.49827775861E+02  0.12066754304E+03  0.47000000000E+01 0.  1.
         -5    1    3    3    0  502  0.47937750891E+02 -0.94718214619E+02 -0.29027850563E+02  0.11015568188E+03  0.47000000000E+01 0.  1.
        -11    1    4    4    0    0 -0.11581029346E+03  0.28548085158E+02 -0.66562844331E+02  0.13659293350E+03  0.00000000000E+00 0. -1.
         11    1    4    4    0    0 -0.40338076465E+02  0.84777134161E+02 -0.39955824650E+02  0.10203328287E+03  0.00000000000E+00 0.  1.
<mgrwt>
<rscale>  0 0.22568251E+03</rscale>
<asrwt>0</asrwt>
<pdfrwt beam="2">  1        2 0.42705245E-01 0.22988415E+03</pdfrwt>
<pdfrwt beam="1">  1       -2 0.29517746E-01 0.22988415E+03</pdfrwt>
<totfact> 0.12497852E+03</totfact>
</mgrwt>
</event>
<event>
 8    1  0.9424564E-006  0.1354351E+03  0.7546771E-02  0.1230939E+00
         -2   -1    0    0    0  501 -0.00000000000E+00  0.00000000000E+00  0.36799119289E+02  0.36799119289E+02  0.00000000000E+00 0.  1.
          2   -1    0    0  501    0  0.00000000000E+00 -0.00000000000E+00 -0.44020762984E+03  0.44020762984E+03  0.00000000000E+00 0. -1.
         23    2    1    2    0    0 -0.43442276263E+02  0.28833663834E+02 -0.15086137009E+03  0.20273581854E+03  0.12499619033E+03 0.  0.
         23    2    1    2    0    0  0.43442276263E+02 -0.28833663834E+02 -0.25254714046E+03  0.27427093059E+03  0.93412385017E+02 0.  0.
          5    1    3    3  502    0 -0.78949803722E+02  0.63036793433E+01 -0.13680698621E+03  0.15814882028E+03  0.47000000000E+01 0.  1.
         -5    1    3    3    0  502  0.35507527458E+02  0.22529984491E+02 -0.14054383881E+02  0.44586998258E+02  0.47000000000E+01 0.  1.
        -11    1    4    4    0    0  0.21422950417E+02  0.24072022311E+02 -0.28525702376E+02  0.43036272594E+02  0.00000000000E+00 0.  1.
         11    1    4    4    0    0  0.22019325847E+02 -0.52905686145E+02 -0.22402143808E+03  0.23123465799E+03  0.00000000000E+00 0. -1.
<mgrwt>
<rscale>  0 0.12768001E+03</rscale>
<asrwt>0</asrwt>
<pdfrwt beam="2">  1        2 0.67724251E-01 0.13543507E+03</pdfrwt>
<pdfrwt beam="1">  1       -2 0.56614030E-02 0.13543507E+03</pdfrwt>
<totfact> 0.11026574E+04</totfact>
</mgrwt>
</event>
<event>
 8    1  0.9424564E-006  0.2565144E+03  0.7546771E-02  0.1111666E+00
          1   -1    0    0  501    0  0.00000000000E+00  0.00000000000E+00  0.40273020022E+03  0.40273020022E+03  0.00000000000E+00 0.  1.
         -1   -1    0    0    0  501 -0.00000000000E+00 -0.00000000000E+00 -0.31206756879E+03  0.31206756879E+03  0.00000000000E+00 0. -1.
         23    2    1    2    0    0  0.21439450151E+03 -0.64913264026E+02 -0.20844002257E+03  0.33052519557E+03  0.12498371003E+03 0.  0.
         23    2    1    2    0    0 -0.21439450151E+03  0.64913264026E+02  0.29910265400E+03  0.38427257344E+03  0.89578339730E+02 0.  0.
          5    1    3    3  502    0  0.81073567505E+02 -0.64683428507E+02 -0.30651303381E+02  0.10825184373E+03  0.47000000000E+01 0. -1.
         -5    1    3    3    0  502  0.13332093401E+03 -0.22983551889E+00 -0.17778871919E+03  0.22227335184E+03  0.47000000000E+01 0. -1.
        -11    1    4    4    0    0 -0.53667087367E+02 -0.47611448200E+01  0.13029581445E+03  0.14099582983E+03  0.00000000000E+00 0.  1.
         11    1    4    4    0    0 -0.16072741414E+03  0.69674408846E+02  0.16880683955E+03  0.24327674361E+03  0.00000000000E+00 0. -1.
<mgrwt>
<rscale>  0 0.25261088E+03</rscale>
<asrwt>0</asrwt>
<pdfrwt beam="1">  1        1 0.61958492E-01 0.25651445E+03</pdfrwt>
<pdfrwt beam="2">  1       -1 0.48010395E-01 0.25651445E+03</pdfrwt>
<totfact> 0.26856762E+02</totfact>
</mgrwt>
</event>
<event>
 8    1  0.9424564E-006  0.1345622E+03  0.7546771E-02  0.1233200E+00
         -2   -1    0    0    0  501 -0.00000000000E+00  0.00000000000E+00  0.66718318345E+03  0.66718318345E+03  0.00000000000E+00 0.  1.
          2   -1    0    0  501    0  0.00000000000E+00 -0.00000000000E+00 -0.30292414309E+02  0.30292414309E+02  0.00000000000E+00 0. -1.
         23    2    1    2    0    0  0.40380346706E+02  0.29191115688E+02  0.53549681056E+03  0.55214474304E+03  0.12499715800E+03 0.  0.
         23    2    1    2    0    0 -0.40380346706E+02 -0.29191115688E+02  0.10139395858E+03  0.14533085472E+03  0.91420068160E+02 0.  0.
          5    1    3    3  502    0  0.55768266218E+02 -0.33958816563E+02  0.20207012880E+03  0.21240933993E+03  0.47000000000E+01 0. -1.
         -5    1    3    3    0  502 -0.15387919512E+02  0.63149932251E+02  0.33342668177E+03  0.33973540311E+03  0.47000000000E+01 0. -1.
        -11    1    4    4    0    0 -0.16995998086E+02 -0.90043064096E+01  0.11125307037E+03  0.11290344171E+03  0.00000000000E+00 0.  1.
         11    1    4    4    0    0 -0.23384348620E+02 -0.20186809278E+02 -0.98591117854E+01  0.32427413009E+02  0.00000000000E+00 0. -1.
<mgrwt>
<rscale>  0 0.12620384E+03</rscale>
<asrwt>0</asrwt>
<pdfrwt beam="2">  1        2 0.46603719E-02 0.13456219E+03</pdfrwt>
<pdfrwt beam="1">  1       -2 0.10264356E+00 0.13456219E+03</pdfrwt>
<totfact> 0.13450561E+03</totfact>
</mgrwt>
</event>
<event>
 8    1  0.9424564E-006  0.1389853E+03  0.7546771E-02  0.1225540E+00
          1   -1    0    0  501    0  0.00000000000E+00  0.00000000000E+00  0.47164382919E+02  0.47164382919E+02  0.00000000000E+00 0. -1.
         -1   -1    0    0    0  501 -0.00000000000E+00 -0.00000000000E+00 -0.33101314665E+03  0.33101314665E+03  0.00000000000E+00 0.  1.
         23    2    1    2    0    0 -0.55370255310E+02 -0.25006435886E+02 -0.16567721528E+03  0.21625410844E+03  0.12500285095E+03 0.  0.
         23    2    1    2    0    0  0.55370255310E+02  0.25006435886E+02 -0.11817154845E+03  0.16192342113E+03  0.92539140035E+02 0.  0.
          5    1    3    3  502    0 -0.92359087523E+02  0.14807691269E+01 -0.99931474526E+02  0.13616454504E+03  0.47000000000E+01 0.  1.
         -5    1    3    3    0  502  0.36988832214E+02 -0.26487205013E+02 -0.65745740756E+02  0.80089563400E+02  0.47000000000E+01 0.  1.
        -11    1    4    4    0    0 -0.99283669041E+01 -0.24571537967E+02 -0.43998185942E+02  0.51363151321E+02  0.00000000000E+00 0.  1.
         11    1    4    4    0    0  0.65298622214E+02  0.49577973854E+02 -0.74173362511E+02  0.11056026981E+03  0.00000000000E+00 0. -1.
<mgrwt>
<rscale>  0 0.13129986E+03</rscale>
<asrwt>0</asrwt>
<pdfrwt beam="1">  1        1 0.72560592E-02 0.13898525E+03</pdfrwt>
<pdfrwt beam="2">  1       -1 0.50925097E-01 0.13898525E+03</pdfrwt>
<totfact> 0.37918199E+03</totfact>
</mgrwt>
</event>
<event>
 8    1  0.9424564E-006  0.1363315E+03  0.7546771E-02  0.1229835E+00
         -2   -1    0    0    0  501 -0.00000000000E+00  0.00000000000E+00  0.93933051877E+02  0.93933051877E+02  0.00000000000E+00 0.  1.
          2   -1    0    0  501    0  0.00000000000E+00 -0.00000000000E+00 -0.16670032998E+03  0.16670032998E+03  0.00000000000E+00 0. -1.
         23    2    1    2    0    0  0.45162732651E+02 -0.30386516411E+02 -0.10881423449E+02  0.13676505111E+03  0.12499304392E+03 0.  0.
         23    2    1    2    0    0 -0.45162732651E+02  0.30386516411E+02 -0.61885854656E+02  0.12386833075E+03  0.92468868041E+02 0.  0.
          5    1    3    3  502    0  0.38035628550E+02  0.28488314891E+02 -0.47135569302E+02  0.67098025440E+02  0.47000000000E+01 0.  1.
         -5    1    3    3    0  502  0.71271041005E+01 -0.58874831301E+02  0.36254145853E+02  0.69667025666E+02  0.47000000000E+01 0.  1.
        -11    1    4    4    0    0 -0.14139391630E+02  0.39975478310E+02  0.11231739811E+02  0.43864715215E+02  0.00000000000E+00 0.  1.
         11    1    4    4    0    0 -0.31023341021E+02 -0.95889618990E+01 -0.73117594466E+02  0.80003615537E+02  0.00000000000E+00 0. -1.
<mgrwt>
<rscale>  0 0.12840977E+03</rscale>
<asrwt>0</asrwt>
<pdfrwt beam="2">  1        2 0.25646204E-01 0.13633149E+03</pdfrwt>
<pdfrwt beam="1">  1       -2 0.14451239E-01 0.13633149E+03</pdfrwt>
<totfact> 0.72192931E+03</totfact>
</mgrwt>
</event>
<event>
 8    1  0.9424564E-006  0.1258692E+03  0.7546771E-02  0.1248749E+00
          1   -1    0    0  501    0  0.00000000000E+00  0.00000000000E+00  0.59784195285E+02  0.59784195285E+02  0.00000000000E+00 0. -1.
         -1   -1    0    0    0  501 -0.00000000000E+00 -0.00000000000E+00 -0.21126221782E+03  0.21126221782E+03  0.00000000000E+00 0.  1.
         23    2    1    2    0    0 -0.24137350396E+01 -0.14052162372E+02 -0.11756639455E+03  0.17223507112E+03  0.12505907889E+03 0.  0.
         23    2    1    2    0    0  0.24137350396E+01  0.14052162372E+02 -0.33911627980E+02  0.98811341978E+02  0.91708197055E+02 0.  0.
          5    1    3    3  502    0  0.15467301179E+02 -0.67428171443E+02 -0.67021281926E+02  0.96435148887E+02  0.47000000000E+01 0. -1.
         -5    1    3    3    0  502 -0.17881036219E+02  0.53376009071E+02 -0.50545112625E+02  0.75799922235E+02  0.47000000000E+01 0. -1.
        -11    1    4    4    0    0  0.18355292062E+02 -0.55163618027E-01  0.27922612225E+02  0.33415446475E+02  0.00000000000E+00 0. -1.
         11    1    4    4    0    0 -0.15941557022E+02  0.14107325990E+02 -0.61834240205E+02  0.65395895502E+02  0.00000000000E+00 0.  1.
<mgrwt>
<rscale>  0 0.11663752E+03</rscale>
<asrwt>0</asrwt>
<pdfrwt beam="1">  1        1 0.91975685E-02 0.12586923E+03</pdfrwt>
<pdfrwt beam="2">  1       -1 0.32501880E-01 0.12586923E+03</pdfrwt>
<totfact> 0.60421203E+03</totfact>
</mgrwt>
</event>
<event>
 8    1  0.9424564E-006  0.1455800E+03  0.7546771E-02  0.1220343E+00
         -2   -1    0    0    0  501 -0.00000000000E+00  0.00000000000E+00  0.19767575585E+03  0.19767575585E+03  0.00000000000E+00 0.  1.
          2   -1    0    0  501    0  0.00000000000E+00 -0.00000000000E+00 -0.84606874693E+02  0.84606874693E+02  0.00000000000E+00 0. -1.
         23    2    1    2    0    0 -0.71419314729E+02 -0.21625652192E+02  0.93825166517E+02  0.17319551198E+03  0.12500054459E+03 0.  0.
         23    2    1    2    0    0  0.71419314729E+02  0.21625652192E+02  0.19243714641E+02  0.10908711856E+03  0.77209400556E+02 0.  0.
          5    1    3    3  502    0 -0.62125927029E+02  0.40391123025E+02  0.21387168202E+02  0.77269493283E+02  0.47000000000E+01 0.  1.
         -5    1    3    3    0  502 -0.92933877001E+01 -0.62016775217E+02  0.72437998315E+02  0.95926018697E+02  0.47000000000E+01 0.  1.
        -11    1    4    4    0    0  0.32670387506E+01  0.17338729070E+02 -0.22849677716E+02  0.28868890517E+02  0.00000000000E+00 0. -1.
         11    1    4    4    0    0  0.68152275978E+02  0.42869231223E+01  0.42093392357E+02  0.80218228047E+02  0.00000000000E+00 0.  1.
<mgrwt>
<rscale>  0 0.13491286E+03</rscale>
<asrwt>0</asrwt>
<pdfrwt beam="2">  1        2 0.13016442E-01 0.14557996E+03</pdfrwt>
<pdfrwt beam="1">  1       -2 0.30411655E-01 0.14557996E+03</pdfrwt>
<totfact> 0.44227015E+03</totfact>
</mgrwt>
</event>
<event>
 8    1  0.9424564E-006  0.1357786E+03  0.7546771E-02  0.1231031E+00
         -1   -1    0    0    0  501 -0.00000000000E+00  0.00000000000E+00  0.51312903378E+02  0.51312903378E+02  0.00000000000E+00 0.  1.
          1   -1    0    0  501    0  0.00000000000E+00 -0.00000000000E+00 -0.32079082467E+03  0.32079082467E+03  0.00000000000E+00 0. -1.
         23    2    1    2    0    0  0.52914842964E+02  0.35045635135E+01 -0.87530694112E+02  0.16154705329E+03  0.12499426165E+03 0.  0.
         23    2    1    2    0    0 -0.52914842964E+02 -0.35045635135E+01 -0.18194722718E+03  0.21055667475E+03  0.91744521542E+02 0.  0.
          5    1    3    3  502    0 -0.19811022400E+02 -0.30033521689E+02  0.76340691000E+01  0.37079078260E+02  0.47000000000E+01 0.  1.
         -5    1    3    3    0  502  0.72725865364E+02  0.33538085203E+02 -0.95164763212E+02  0.12446797503E+03  0.47000000000E+01 0.  1.
        -11    1    4    4    0    0 -0.42708462558E+01 -0.27571096084E+02 -0.13780157311E+03  0.14059757828E+03  0.00000000000E+00 0.  1.
         11    1    4    4    0    0 -0.48643996708E+02  0.24066532570E+02 -0.44145654068E+02  0.69959096469E+02  0.00000000000E+00 0. -1.
<mgrwt>
<rscale>  0 0.12761969E+03</rscale>
<asrwt>0</asrwt>
<pdfrwt beam="2">  1        1 0.49352437E-01 0.13577860E+03</pdfrwt>
<pdfrwt beam="1">  1       -1 0.78942925E-02 0.13577860E+03</pdfrwt>
<totfact> 0.67431387E+03</totfact>
</mgrwt>
</event>
<event>
 7    1  0.9424564E-006  0.1637593E+03  0.7546771E-02  0.1204418E+00
          4   -1    0    0  501    0  0.00000000000E+00  0.00000000000E+00  0.10294779723E+03  0.10294779723E+03  0.00000000000E+00 0. -1.
         -4   -1    0    0    0  501 -0.00000000000E+00 -0.00000000000E+00 -0.17719661079E+03  0.17719661079E+03  0.00000000000E+00 0.  1.
         23    2    1    2    0    0  0.18708149825E+01 -0.53293986093E+02 -0.37642745512E+02  0.11234360818E+03  0.91435010288E+02 0.  0.
          5    1    1    2  502    0  0.45956059876E+02  0.67092937831E+02  0.27973600600E+02  0.86128009826E+02  0.47000000000E+01 0. -1.
         -5    1    1    2    0  502 -0.47826874858E+02 -0.13798951738E+02 -0.64579668645E+02  0.81672790023E+02  0.47000000000E+01 0.  1.
        -11    1    3    3    0    0  0.37632631874E+02  0.33453287067E+01 -0.59747196560E+01  0.38250535694E+02  0.00000000000E+00 0. -1.
         11    1    3    3    0    0 -0.35761816892E+02 -0.56639314800E+02 -0.31668025856E+02  0.74093072483E+02  0.00000000000E+00 0.  1.
<mgrwt>
<rscale>  0 0.14683400E+03</rscale>
<asrwt>0</asrwt>
<pdfrwt beam="1">  1        4 0.15838123E-01 0.16375929E+03</pdfrwt>
<pdfrwt beam="2">  1       -4 0.27261017E-01 0.16375929E+03</pdfrwt>
<totfact> 0.74910139E+02</totfact>
</mgrwt>
</event>
<event>
 8    1  0.9424564E-006  0.1927645E+03  0.7546771E-02  0.1161007E+00
          1   -1    0    0  501    0  0.00000000000E+00  0.00000000000E+00  0.11380823915E+04  0.11380823915E+04  0.00000000000E+00 0. -1.
         -1   -1    0    0    0  501 -0.00000000000E+00 -0.00000000000E+00 -0.43291060975E+02  0.43291060975E+02  0.00000000000E+00 0.  1.
         23    2    1    2    0    0  0.12135949236E+03  0.82490923002E+02  0.23164168513E+03  0.30135696816E+03  0.12500109282E+03 0.  0.
         23    2    1    2    0    0 -0.12135949236E+03 -0.82490923002E+02  0.86314964542E+03  0.88001648434E+03  0.88706389596E+02 0.  0.
          5    1    3    3  502    0  0.12533399592E+03  0.10839098398E+03  0.19276933184E+03  0.25424264245E+03  0.47000000000E+01 0.  1.
         -5    1    3    3    0  502 -0.39745035647E+01 -0.25900060974E+02  0.38872353287E+02  0.47114325710E+02  0.47000000000E+01 0.  1.
        -11    1    4    4    0    0 -0.59294238048E+02 -0.90425419796E+02  0.58580699625E+03  0.59570328190E+03  0.00000000000E+00 0.  1.
         11    1    4    4    0    0 -0.62065254311E+02  0.79344967942E+01  0.27734264917E+03  0.28431320244E+03  0.00000000000E+00 0. -1.
<mgrwt>
<rscale>  0 0.18720474E+03</rscale>
<asrwt>0</asrwt>
<pdfrwt beam="1">  1        1 0.17508958E+00 0.19276450E+03</pdfrwt>
<pdfrwt beam="2">  1       -1 0.66601641E-02 0.19276450E+03</pdfrwt>
<totfact> 0.14454333E+03</totfact>
</mgrwt>
</event>
<event>
 8    1  0.9424564E-006  0.1555782E+03  0.7546771E-02  0.1201573E+00
         -2   -1    0    0    0  501 -0.00000000000E+00  0.00000000000E+00  0.13461736290E+03  0.13461736290E+03  0.00000000000E+00 0.  1.
          2   -1    0    0  501    0  0.00000000000E+00 -0.00000000000E+00 -0.18677562516E+03  0.18677562516E+03  0.00000000000E+00 0. -1.
         23    2    1    2    0    0 -0.89778941174E+02  0.22381289980E+02  0.40444270819E+02  0.16074925459E+03  0.12507359189E+03 0.  0.
         23    2    1    2    0    0  0.89778941174E+02 -0.22381289980E+02 -0.92602533087E+02  0.16064373347E+03  0.93112832365E+02 0.  0.
          5    1    3    3  502    0  0.23986906072E+02  0.16122388775E+02 -0.16153690368E+02  0.33441513052E+02  0.47000000000E+01 0. -1.
         -5    1    3    3    0  502 -0.11376584725E+03  0.62589012048E+01  0.56597961187E+02  0.12730774153E+03  0.47000000000E+01 0. -1.
        -11    1    4    4    0    0  0.33354934881E+02 -0.24381216253E+02 -0.95557699644E+02  0.10410700912E+03  0.00000000000E+00 0. -1.
         11    1    4    4    0    0  0.56424006293E+02  0.19999262728E+01  0.29551665571E+01  0.56536724354E+02  0.00000000000E+00 0.  1.
<mgrwt>
<rscale>  0 0.14910801E+03</rscale>
<asrwt>0</asrwt>
<pdfrwt beam="2">  1        2 0.28734712E-01 0.15557822E+03</pdfrwt>
<pdfrwt beam="1">  1       -2 0.20710363E-01 0.15557822E+03</pdfrwt>
<totfact> 0.35294888E+03</totfact>
</mgrwt>
</event>
<event>
 8    1  0.9424564E-006  0.1723704E+03  0.7546771E-02  0.1182032E+00
          1   -1    0    0  501    0  0.00000000000E+00  0.00000000000E+00  0.76625744311E+03  0.76625744311E+03  0.00000000000E+00 0. -1.
         -1   -1    0    0    0  501 -0.00000000000E+00 -0.00000000000E+00 -0.38137138276E+02  0.38137138276E+02  0.00000000000E+00 0.  1.
         23    2    1    2    0    0  0.22946704641E+02 -0.11638468947E+03  0.24926319945E+03  0.30305726539E+03  0.12505845156E+03 0.  0.
         23    2    1    2    0    0 -0.22946704641E+02  0.11638468947E+03  0.47885710538E+03  0.50133731599E+03  0.89235810281E+02 0.  0.
          5    1    3    3  502    0  0.68862836070E+02 -0.10153617084E+03  0.16251199089E+03  0.20367602059E+03  0.47000000000E+01 0. -1.
         -5    1    3    3    0  502 -0.45916131429E+02 -0.14848518630E+02  0.86751208561E+02  0.99381244798E+02  0.47000000000E+01 0. -1.
        -11    1    4    4    0    0 -0.17710780243E+02  0.70164790590E-01  0.15372392706E+02  0.23451804140E+02  0.00000000000E+00 0.  1.
         11    1    4    4    0    0 -0.52359243982E+01  0.11631452468E+03  0.46348471267E+03  0.47788551185E+03  0.00000000000E+00 0. -1.
<mgrwt>
<rscale>  0 0.16604895E+03</rscale>
<asrwt>0</asrwt>
<pdfrwt beam="1">  1        1 0.11788575E+00 0.17237043E+03</pdfrwt>
<pdfrwt beam="2">  1       -1 0.58672526E-02 0.17237043E+03</pdfrwt>
<totfact> 0.33545419E+03</totfact>
</mgrwt>
</event>
<event>
 8    1  0.9424564E-006  0.1272729E+03  0.7546771E-02  0.1247044E+00
         -2   -1    0    0    0  501 -0.00000000000E+00  0.00000000000E+00  0.28139956787E+02  0.28139956787E+02  0.00000000000E+00 0.  1.
          2   -1    0    0  501    0  0.00000000000E+00 -0.00000000000E+00 -0.43625691746E+03  0.43625691746E+03  0.00000000000E+00 0. -1.
         23    2    1    2    0    0 -0.14116015295E+02  0.19239905173E+02 -0.20950564985E+03  0.24513464864E+03  0.12501577023E+03 0.  0.
         23    2    1    2    0    0  0.14116015295E+02 -0.19239905173E+02 -0.19861131082E+03  0.21926222560E+03  0.89777697414E+02 0.  0.
          5    1    3    3  502    0 -0.39425170584E+02 -0.33772591426E+02 -0.40081373709E+02  0.65753619867E+02  0.47000000000E+01 0. -1.
         -5    1    3    3    0  502  0.25309155289E+02  0.53012496599E+02 -0.16942427614E+03  0.17938102877E+03  0.47000000000E+01 0. -1.
        -11    1    4    4    0    0 -0.32182876931E+02 -0.23245056151E+02 -0.13343024046E+03  0.13921098833E+03  0.00000000000E+00 0. -1.
         11    1    4    4    0    0  0.46298892227E+02  0.40051509778E+01 -0.65181070356E+02  0.80051237271E+02  0.00000000000E+00 0.  1.
<mgrwt>
<rscale>  0 0.11763860E+03</rscale>
<asrwt>0</asrwt>
<pdfrwt beam="2">  1        2 0.67116450E-01 0.12727285E+03</pdfrwt>
<pdfrwt beam="1">  1       -2 0.43292241E-02 0.12727285E+03</pdfrwt>
<totfact> 0.16566895E+04</totfact>
</mgrwt>
</event>
<event>
 7    1  0.9424564E-006  0.1562209E+03  0.7546771E-02  0.1212480E+00
          2   -1    0    0  501    0  0.00000000000E+00  0.00000000000E+00  0.36807596378E+02  0.36807596378E+02  0.00000000000E+00 0. -1.
         -2   -1    0    0    0  501 -0.00000000000E+00 -0.00000000000E+00 -0.11495402494E+04  0.11495402494E+04  0.00000000000E+00 0.  1.
         23    2    1    2    0    0 -0.30865096363E+02 -0.36036618482E+02 -0.53594342041E+02  0.11575038675E+03  0.90964314373E+02 0.  0.
          5    1    1    2  502    0  0.23271326166E+02  0.76389069108E+02 -0.30461871332E+03  0.31494681298E+03  0.47000000000E+01 0. -1.
         -5    1    1    2    0  502  0.75937701970E+01 -0.40352450626E+02 -0.75451959764E+03  0.75565064603E+03  0.47000000000E+01 0.  1.
        -11    1    3    3    0    0  0.82033463813E+00 -0.20173685584E+02 -0.72729072269E+02  0.75479589904E+02  0.00000000000E+00 0. -1.
         11    1    3    3    0    0 -0.31685431001E+02 -0.15862932898E+02  0.19134730228E+02  0.40270796848E+02  0.00000000000E+00 0.  1.
<mgrwt>
<rscale>  0 0.14063265E+03</rscale>
<asrwt>0</asrwt>
<pdfrwt beam="1">  1        2 0.56627073E-02 0.15622086E+03</pdfrwt>
<pdfrwt beam="2">  1       -2 0.17685234E+00 0.15622086E+03</pdfrwt>
<totfact> 0.27036057E+02</totfact>
</mgrwt>
</event>
<event>
 8    1  0.9424564E-006  0.1282161E+03  0.7546771E-02  0.1242821E+00
         -1   -1    0    0    0  501 -0.00000000000E+00  0.00000000000E+00  0.62339906598E+03  0.62339906598E+03  0.00000000000E+00 0.  1.
          1   -1    0    0  501    0  0.00000000000E+00 -0.00000000000E+00 -0.41767493621E+02  0.41767493621E+02  0.00000000000E+00 0. -1.
         23    2    1    2    0    0 -0.17853593401E+02  0.22240564382E+02  0.54467253791E+03  0.55956012169E+03  0.12500385088E+03 0.  0.
         23    2    1    2    0    0  0.17853593401E+02 -0.22240564382E+02  0.36959034458E+02  0.10560643792E+03  0.94727799510E+02 0.  0.
          5    1    3    3  502    0 -0.50966766255E+02  0.31812849553E+02  0.49647607341E+03  0.50012023568E+03  0.47000000000E+01 0. -1.
         -5    1    3    3    0  502  0.33113172853E+02 -0.95722851713E+01  0.48196464491E+02  0.59439886013E+02  0.47000000000E+01 0. -1.
        -11    1    4    4    0    0 -0.29642397271E+02 -0.88371495328E+01  0.46001577808E+02  0.55433853273E+02  0.00000000000E+00 0. -1.
         11    1    4    4    0    0  0.47495990672E+02 -0.13403414849E+02 -0.90425433501E+01  0.50172584644E+02  0.00000000000E+00 0.  1.
<mgrwt>
<rscale>  0 0.12016739E+03</rscale>
<asrwt>0</asrwt>
<pdfrwt beam="2">  1        1 0.64257687E-02 0.12821605E+03</pdfrwt>
<pdfrwt beam="1">  1       -1 0.95907542E-01 0.12821605E+03</pdfrwt>
<totfact> 0.12707586E+03</totfact>
</mgrwt>
</event>
<event>
 8    1  0.9424564E-006  0.1396266E+03  0.7546771E-02  0.1225915E+00
         -3   -1    0    0    0  501 -0.00000000000E+00  0.00000000000E+00  0.10794455149E+03  0.10794455149E+03  0.00000000000E+00 0.  1.
          3   -1    0    0  501    0  0.00000000000E+00 -0.00000000000E+00 -0.15014423997E+03  0.15014423997E+03  0.00000000000E+00 0. -1.
         23    2    1    2    0    0  0.31535081222E+02 -0.53645439297E+02  0.54633823180E+01  0.13973341971E+03  0.12499314194E+03 0.  0.
         23    2    1    2    0    0 -0.31535081222E+02  0.53645439297E+02 -0.47663070801E+02  0.11835537174E+03  0.88678809177E+02 0.  0.
          5    1    3    3  502    0 -0.47924715996E+02 -0.24250302895E+02  0.96693589129E+01  0.54776291364E+02  0.47000000000E+01 0. -1.
         -5    1    3    3    0  502  0.79459797218E+02 -0.29395136402E+02 -0.42059765949E+01  0.84957128348E+02  0.47000000000E+01 0. -1.
        -11    1    4    4    0    0 -0.44892718570E+01  0.67453950828E+02 -0.75197306506E+01  0.68020110212E+02  0.00000000000E+00 0. -1.
         11    1    4    4    0    0 -0.27045809365E+02 -0.13808511532E+02 -0.40143340151E+02  0.50335261531E+02  0.00000000000E+00 0.  1.
<mgrwt>
<rscale>  0 0.13104399E+03</rscale>
<asrwt>0</asrwt>
<pdfrwt beam="2">  1        3 0.23099114E-01 0.13962657E+03</pdfrwt>
<pdfrwt beam="1">  1       -3 0.16606854E-01 0.13962657E+03</pdfrwt>
<totfact> 0.12476215E+03</totfact>
</mgrwt>
</event>
<event>
 8    1  0.9424564E-006  0.1608101E+03  0.7546771E-02  0.1194276E+00
          2   -1    0    0  501    0  0.00000000000E+00  0.00000000000E+00  0.57993389003E+03  0.57993389003E+03  0.00000000000E+00 0. -1.
         -2   -1    0    0    0  501 -0.00000000000E+00 -0.00000000000E+00 -0.39311157845E+02  0.39311157845E+02  0.00000000000E+00 0.  1.
         23    2    1    2    0    0 -0.59545518429E+02 -0.81789077830E+02  0.32313924077E+03  0.36094163555E+03  0.12499909333E+03 0.  0.
         23    2    1    2    0    0  0.59545518429E+02  0.81789077830E+02  0.21748349141E+03  0.25830341232E+03  0.95846031538E+02 0.  0.
          5    1    3    3  502    0 -0.82329776399E+02 -0.35673693274E+02  0.11204906780E+03  0.14362412077E+03  0.47000000000E+01 0.  1.
         -5    1    3    3    0  502  0.22784257970E+02 -0.46115384556E+02  0.21109017298E+03  0.21731751478E+03  0.47000000000E+01 0.  1.
        -11    1    4    4    0    0  0.69279946159E+02  0.91259899786E+02  0.21617073472E+03  0.24465867407E+03  0.00000000000E+00 0. -1.
         11    1    4    4    0    0 -0.97344277298E+01 -0.94708219559E+01  0.13127566930E+01  0.13644738249E+02  0.00000000000E+00 0.  1.
<mgrwt>
<rscale>  0 0.15515673E+03</rscale>
<asrwt>0</asrwt>
<pdfrwt beam="1">  1        2 0.89220592E-01 0.16081012E+03</pdfrwt>
<pdfrwt beam="2">  1       -2 0.60478709E-02 0.16081012E+03</pdfrwt>
<totfact> 0.74381578E+03</totfact>
</mgrwt>
</event>
<event>
 8    1  0.9424564E-006  0.1420918E+03  0.7546771E-02  0.1220775E+00
         -2   -1    0    0    0  501 -0.00000000000E+00  0.00000000000E+00  0.10882054312E+03  0.10882054312E+03  0.00000000000E+00 0.  1.
          2   -1    0    0  501    0  0.00000000000E+00 -0.00000000000E+00 -0.15402545394E+03  0.15402545394E+03  0.00000000000E+00 0. -1.
         23    2    1    2    0    0  0.39923302340E+02  0.54507648397E+02 -0.72417860138E+01  0.14227617329E+03  0.12500044888E+03 0.  0.
         23    2    1    2    0    0 -0.39923302340E+02 -0.54507648397E+02 -0.37963124800E+02  0.12056982377E+03  0.92363032407E+02 0.  0.
          5    1    3    3  502    0  0.25154955409E+02  0.38775624213E+01 -0.61340617786E+02  0.66577538722E+02  0.47000000000E+01 0. -1.
         -5    1    3    3    0  502  0.14768346932E+02  0.50630085975E+02  0.54098831772E+02  0.75698634572E+02  0.47000000000E+01 0. -1.
        -11    1    4    4    0    0  0.16108277395E+02 -0.41137690382E+02  0.10363590634E+02  0.45378300778E+02  0.00000000000E+00 0.  1.
         11    1    4    4    0    0 -0.56031579736E+02 -0.13369958014E+02 -0.48326715434E+02  0.75191522991E+02  0.00000000000E+00 0. -1.
<mgrwt>
<rscale>  0 0.13460727E+03</rscale>
<asrwt>0</asrwt>
<pdfrwt beam="2">  1        2 0.23696224E-01 0.14209175E+03</pdfrwt>
<pdfrwt beam="1">  1       -2 0.16741622E-01 0.14209175E+03</pdfrwt>
<totfact> 0.62058933E+03</totfact>
</mgrwt>
</event>
<event>
 8    1  0.9424564E-006  0.1278693E+03  0.7546771E-02  0.1244134E+00
         -2   -1    0    0    0  501 -0.00000000000E+00  0.00000000000E+00  0.13479849960E+03  0.13479849960E+03  0.00000000000E+00 0.  1.
          2   -1    0    0  501    0  0.00000000000E+00 -0.00000000000E+00 -0.11047858407E+03  0.11047858407E+03  0.00000000000E+00 0. -1.
         23    2    1    2    0    0  0.35762189857E+02 -0.10655511133E+02  0.60719746702E+02  0.14155368950E+03  0.12230325111E+03 0.  0.
         23    2    1    2    0    0 -0.35762189857E+02  0.10655511133E+02 -0.36399831172E+02  0.10372339418E+03  0.89672295886E+02 0.  0.
          5    1    3    3  502    0 -0.21420183859E+02 -0.32747462683E+02 -0.16603610090E+02  0.42766697987E+02  0.47000000000E+01 0. -1.
         -5    1    3    3    0  502  0.57182373716E+02  0.22091951550E+02  0.77323356792E+02  0.98786991515E+02  0.47000000000E+01 0.  1.
        -11    1    4    4    0    0 -0.51382088216E+01 -0.30974018895E+02 -0.41223426370E+02  0.51818548012E+02  0.00000000000E+00 0.  1.
         11    1    4    4    0    0 -0.30623981035E+02  0.41629530028E+02  0.48235951978E+01  0.51904846165E+02  0.00000000000E+00 0. -1.
<mgrwt>
<rscale>  0 0.11937390E+03</rscale>
<asrwt>0</asrwt>
<pdfrwt beam="2">  1        2 0.16996705E-01 0.12786931E+03</pdfrwt>
<pdfrwt beam="1">  1       -2 0.20738231E-01 0.12786931E+03</pdfrwt>
<totfact> 0.62645452E+03</totfact>
</mgrwt>
</event>
<event>
 8    1  0.9424564E-006  0.1657379E+03  0.7546771E-02  0.1189212E+00
          2   -1    0    0  501    0  0.00000000000E+00  0.00000000000E+00  0.10139056068E+03  0.10139056068E+03  0.00000000000E+00 0. -1.
         -2   -1    0    0    0  501 -0.00000000000E+00 -0.00000000000E+00 -0.23478893084E+03  0.23478893084E+03  0.00000000000E+00 0.  1.
         23    2    1    2    0    0  0.10809803081E+03 -0.12604212866E+02 -0.81509200822E+02  0.18469650472E+03  0.12499999436E+03 0.  0.
         23    2    1    2    0    0 -0.10809803081E+03  0.12604212866E+02 -0.51889169343E+02  0.15148298680E+03  0.91709099590E+02 0.  0.
          5    1    3    3  502    0  0.76063845207E+02 -0.13221581340E+02 -0.11468874044E+03  0.13833335081E+03  0.47000000000E+01 0. -1.
         -5    1    3    3    0  502  0.32034185604E+02  0.61736847456E+00  0.33179539622E+02  0.46363153912E+02  0.47000000000E+01 0. -1.
        -11    1    4    4    0    0 -0.56140506378E+02  0.14658132611E+02 -0.74795999045E+02  0.94662869073E+02  0.00000000000E+00 0.  1.
         11    1    4    4    0    0 -0.51957524433E+02 -0.20539197453E+01  0.22906829702E+02  0.56820117727E+02  0.00000000000E+00 0. -1.
<mgrwt>
<rscale>  0 0.15954450E+03</rscale>
<asrwt>0</asrwt>
<pdfrwt beam="1">  1        2 0.15598548E-01 0.16573789E+03</pdfrwt>
<pdfrwt beam="2">  1       -2 0.36121374E-01 0.16573789E+03</pdfrwt>
<totfact> 0.26233814E+03</totfact>
</mgrwt>
</event>
<event>
 8    1  0.9424564E-006  0.1280051E+03  0.7546771E-02  0.1246993E+00
          2   -1    0    0  501    0  0.00000000000E+00  0.00000000000E+00  0.18740089075E+03  0.18740089075E+03  0.00000000000E+00 0. -1.
         -2   -1    0    0    0  501 -0.00000000000E+00 -0.00000000000E+00 -0.80309531529E+02  0.80309531529E+02  0.00000000000E+00 0.  1.
         23    2    1    2    0    0  0.11152352227E+02 -0.25219926485E+02  0.14478872824E+01  0.12801325241E+03  0.12499950705E+03 0.  0.
         23    2    1    2    0    0 -0.11152352227E+02  0.25219926485E+02  0.10564347194E+03  0.13969716987E+03  0.87145490151E+02 0.  0.
          5    1    3    3  502    0  0.63046763786E+02  0.81340836393E+01 -0.11586816209E+02  0.64787360267E+02  0.47000000000E+01 0.  1.
         -5    1    3    3    0  502 -0.51894411559E+02 -0.33354010124E+02  0.13034703491E+02  0.63225892145E+02  0.47000000000E+01 0.  1.
        -11    1    4    4    0    0 -0.23657302958E+02  0.15317045018E+01 -0.63519176203E+01  0.24543042993E+02  0.00000000000E+00 0.  1.
         11    1    4    4    0    0  0.12504950731E+02  0.23688221983E+02  0.11199538956E+03  0.11515412688E+03  0.00000000000E+00 0. -1.
<mgrwt>
<rscale>  0 0.11766901E+03</rscale>
<asrwt>0</asrwt>
<pdfrwt beam="1">  1        2 0.28830906E-01 0.12800506E+03</pdfrwt>
<pdfrwt beam="2">  1       -2 0.12355313E-01 0.12800506E+03</pdfrwt>
<totfact> 0.81419775E+03</totfact>
</mgrwt>
</event>
<event>
 8    1  0.9424564E-006  0.1688471E+03  0.7546771E-02  0.1185899E+00
         -2   -1    0    0    0  501 -0.00000000000E+00  0.00000000000E+00  0.24162544131E+03  0.24162544131E+03  0.00000000000E+00 0.  1.
          2   -1    0    0  501    0  0.00000000000E+00 -0.00000000000E+00 -0.10260423764E+03  0.10260423764E+03  0.00000000000E+00 0. -1.
         23    2    1    2    0    0 -0.51912141320E+02  0.10094634315E+03  0.89718507023E+02  0.19120339487E+03  0.12499717235E+03 0.  0.
         23    2    1    2    0    0  0.51912141320E+02 -0.10094634315E+03  0.49302696653E+02  0.15302628409E+03  0.90006961471E+02 0.  0.
          5    1    3    3  502    0 -0.15278569450E+02  0.76335478341E+02  0.11588233564E+03  0.13968301848E+03  0.47000000000E+01 0.  1.
         -5    1    3    3    0  502 -0.36633571870E+02  0.24610864805E+02 -0.26163828622E+02  0.51520376382E+02  0.47000000000E+01 0.  1.
        -11    1    4    4    0    0  0.47844715683E-01 -0.72108510137E+02  0.58654416019E+02  0.92951492950E+02  0.00000000000E+00 0.  1.
         11    1    4    4    0    0  0.51864296605E+02 -0.28837833009E+02 -0.93517193659E+01  0.60074791136E+02  0.00000000000E+00 0. -1.
<mgrwt>
<rscale>  0 0.16250326E+03</rscale>
<asrwt>0</asrwt>
<pdfrwt beam="2">  1        2 0.15785267E-01 0.16884705E+03</pdfrwt>
<pdfrwt beam="1">  1       -2 0.37173145E-01 0.16884705E+03</pdfrwt>
<totfact> 0.24540250E+03</totfact>
</mgrwt>
</event>
<event>
 8    1  0.9424564E-006  0.2129431E+03  0.7546771E-02  0.1142824E+00
          1   -1    0    0  501    0  0.00000000000E+00  0.00000000000E+00  0.32944541261E+03  0.32944541261E+03  0.00000000000E+00 0. -1.
         -1   -1    0    0    0  501 -0.00000000000E+00 -0.00000000000E+00 -0.13327809901E+03  0.13327809901E+03  0.00000000000E+00 0.  1.
         23    2    1    2    0    0 -0.16909384791E+03  0.33558077194E+02  0.50123184547E+02  0.21876261329E+03  0.12500349355E+03 0.  0.
         23    2    1    2    0    0  0.16909384791E+03 -0.33558077194E+02  0.14604412906E+03  0.24396089833E+03  0.92028030157E+02 0.  0.
          5    1    3    3  502    0 -0.90287038641E+02  0.60873612268E+02  0.74165304922E+02  0.13183295670E+03  0.47000000000E+01 0.  1.
         -5    1    3    3    0  502 -0.78806809269E+02 -0.27315535074E+02 -0.24042120375E+02  0.86929656594E+02  0.47000000000E+01 0.  1.
        -11    1    4    4    0    0  0.13750579717E+03 -0.49012488482E+02  0.73714389708E+02  0.16353556045E+03  0.00000000000E+00 0.  1.
         11    1    4    4    0    0  0.31588050740E+02  0.15454411288E+02  0.72329739352E+02  0.80425337876E+02  0.00000000000E+00 0. -1.
<mgrwt>
<rscale>  0 0.20841959E+03</rscale>
<asrwt>0</asrwt>
<pdfrwt beam="1">  1        1 0.50683909E-01 0.21294306E+03</pdfrwt>
<pdfrwt beam="2">  1       -1 0.20504323E-01 0.21294306E+03</pdfrwt>
<totfact> 0.14977478E+03</totfact>
</mgrwt>
</event>
<event>
 7    1  0.9424564E-006  0.2004137E+03  0.7546771E-02  0.1154428E+00
         -3   -1    0    0    0  501 -0.00000000000E+00  0.00000000000E+00  0.16638513750E+04  0.16638513750E+04  0.00000000000E+00 0.  1.
          3   -1    0    0  501    0  0.00000000000E+00 -0.00000000000E+00 -0.26445293171E+02  0.26445293171E+02  0.00000000000E+00 0. -1.
         23    2    1    2    0    0  0.14013922259E+03  0.60751207325E+02  0.41450954344E+03  0.45108659346E+03  0.91275639122E+02 0.  0.
          5    1    1    2  502    0  0.17894305044E+02  0.15423210267E+02  0.11451451934E+03  0.11702028332E+03  0.47000000000E+01 0. -1.
         -5    1    1    2    0  502 -0.15803352764E+03 -0.76174417592E+02  0.11083820191E+04  0.11221897914E+04  0.47000000000E+01 0.  1.
        -11    1    3    3    0    0 -0.77298568464E+01  0.19694557695E+02  0.27043402673E+02  0.34336160499E+02  0.00000000000E+00 0.  1.
         11    1    3    3    0    0  0.14786907944E+03  0.41056649630E+02  0.38746614077E+03  0.41675043296E+03  0.00000000000E+00 0. -1.
<mgrwt>
<rscale>  0 0.19454099E+03</rscale>
<asrwt>0</asrwt>
<pdfrwt beam="2">  1        3 0.40685080E-02 0.20041374E+03</pdfrwt>
<pdfrwt beam="1">  1       -3 0.25597705E+00 0.20041374E+03</pdfrwt>
<totfact> 0.59204779E+01</totfact>
</mgrwt>
</event>
<event>
 8    1  0.9424564E-006  0.1336122E+03  0.7546771E-02  0.1234693E+00
          2   -1    0    0  501    0  0.00000000000E+00  0.00000000000E+00  0.85557376034E+03  0.85557376034E+03  0.00000000000E+00 0. -1.
         -2   -1    0    0    0  501 -0.00000000000E+00 -0.00000000000E+00 -0.16966214803E+02  0.16966214803E+02  0.00000000000E+00 0.  1.
         23    2    1    2    0    0 -0.24339504354E+02 -0.40394188636E+02  0.55190322946E+03  0.56784627696E+03  0.12501246986E+03 0.  0.
         23    2    1    2    0    0  0.24339504354E+02  0.40394188636E+02  0.28670431608E+03  0.30469369819E+03  0.91732125821E+02 0.  0.
          5    1    3    3  502    0 -0.49909443384E+02  0.28350681940E+02  0.18919030302E+03  0.19776191357E+03  0.47000000000E+01 0. -1.
         -5    1    3    3    0  502  0.25569939030E+02 -0.68744870576E+02  0.36271292645E+03  0.37008436339E+03  0.47000000000E+01 0. -1.
        -11    1    4    4    0    0  0.45354214577E+02  0.52357123322E+02  0.14213344178E+03  0.15811447883E+03  0.00000000000E+00 0.  1.
         11    1    4    4    0    0 -0.21014710223E+02 -0.11962934686E+02  0.14457087430E+03  0.14657921936E+03  0.00000000000E+00 0. -1.
<mgrwt>
<rscale>  0 0.12524102E+03</rscale>
<asrwt>0</asrwt>
<pdfrwt beam="1">  1        2 0.13162670E+00 0.13361220E+03</pdfrwt>
<pdfrwt beam="2">  1       -2 0.26101876E-02 0.13361220E+03</pdfrwt>
<totfact> 0.16135254E+04</totfact>
</mgrwt>
</event>
<event>
 8    1  0.9424564E-006  0.1976223E+03  0.7546771E-02  0.1156000E+00
         -2   -1    0    0    0  501 -0.00000000000E+00  0.00000000000E+00  0.84137397117E+02  0.84137397117E+02  0.00000000000E+00 0.  1.
          2   -1    0    0  501    0  0.00000000000E+00 -0.00000000000E+00 -0.42125425744E+03  0.42125425744E+03  0.00000000000E+00 0. -1.
         23    2    1    2    0    0 -0.11990965749E+03 -0.95428313167E+02 -0.17308733049E+03  0.26270478800E+03  0.12477857487E+03 0.  0.
         23    2    1    2    0    0  0.11990965749E+03  0.95428313167E+02 -0.16402952983E+03  0.24268686656E+03  0.92229819641E+02 0.  0.
          5    1    3    3  502    0 -0.10848381522E+03 -0.53900577163E+02 -0.48100650478E+02  0.13042152031E+03  0.47000000000E+01 0. -1.
         -5    1    3    3    0  502 -0.11425842271E+02 -0.41527736005E+02 -0.12498668002E+03  0.13228326769E+03  0.47000000000E+01 0. -1.
        -11    1    4    4    0    0  0.69295253613E+01 -0.17679996740E+02 -0.17003525748E+02  0.25489615421E+02  0.00000000000E+00 0. -1.
         11    1    4    4    0    0  0.11298013213E+03  0.11310830991E+03 -0.14702600409E+03  0.21719725114E+03  0.00000000000E+00 0.  1.
<mgrwt>
<rscale>  0 0.19275509E+03</rscale>
<asrwt>0</asrwt>
<pdfrwt beam="2">  1        2 0.64808347E-01 0.19762232E+03</pdfrwt>
<pdfrwt beam="1">  1       -2 0.12944215E-01 0.19762232E+03</pdfrwt>
<totfact> 0.32448013E+03</totfact>
</mgrwt>
</event>
<event>
 8    1  0.9424564E-006  0.2486521E+03  0.7546771E-02  0.1116633E+00
          1   -1    0    0  501    0  0.00000000000E+00  0.00000000000E+00  0.44541932044E+02  0.44541932044E+02  0.00000000000E+00 0. -1.
         -1   -1    0    0    0  501 -0.00000000000E+00 -0.00000000000E+00 -0.13127703997E+04  0.13127703997E+04  0.00000000000E+00 0.  1.
         23    2    1    2    0    0 -0.21428091272E+03 -0.16927246636E+02 -0.60299745979E+03  0.65225286237E+03  0.12500007489E+03 0.  0.
         23    2    1    2    0    0  0.21428091272E+03  0.16927246636E+02 -0.66523100783E+03  0.70505946933E+03  0.91508033974E+02 0.  0.
          5    1    3    3  502    0 -0.12906094166E+03 -0.34178597569E+02 -0.20389981485E+03  0.24376654342E+03  0.47000000000E+01 0. -1.
         -5    1    3    3    0  502 -0.85219971066E+02  0.17251350933E+02 -0.39909764494E+03  0.40848631895E+03  0.47000000000E+01 0. -1.
        -11    1    4    4    0    0  0.11869441050E+02  0.25696117764E+02 -0.12298618807E+03  0.12620133341E+03  0.00000000000E+00 0.  1.
         11    1    4    4    0    0  0.20241147167E+03 -0.87688711279E+01 -0.54224481976E+03  0.57885813592E+03  0.00000000000E+00 0. -1.
<mgrwt>
<rscale>  0 0.24480476E+03</rscale>
<asrwt>0</asrwt>
<pdfrwt beam="1">  1        1 0.68526043E-02 0.24865209E+03</pdfrwt>
<pdfrwt beam="2">  1       -1 0.20196470E+00 0.24865209E+03</pdfrwt>
<totfact> 0.17467360E+02</totfact>
</mgrwt>
</event>
<event>
 8    1  0.9424564E-006  0.2474266E+03  0.7546771E-02  0.1116401E+00
         -2   -1    0    0    0  501 -0.00000000000E+00  0.00000000000E+00  0.30057593202E+03  0.30057593202E+03  0.00000000000E+00 0.  1.
          2   -1    0    0  501    0  0.00000000000E+00 -0.00000000000E+00 -0.28562703454E+03  0.28562703454E+03  0.00000000000E+00 0. -1.
         23    2    1    2    0    0 -0.19119569781E+03 -0.95078816252E+02  0.17137989674E+03  0.30098338533E+03  0.12499661226E+03 0.  0.
         23    2    1    2    0    0  0.19119569781E+03  0.95078816252E+02 -0.15643099926E+03  0.28521958123E+03  0.10622511862E+03 0.  0.
          5    1    3    3  502    0 -0.18770762038E+03 -0.78102032089E+02  0.18768038687E+03  0.27673108929E+03  0.47000000000E+01 0.  1.
         -5    1    3    3    0  502 -0.34880774262E+01 -0.16976784163E+02 -0.16300490128E+02  0.24252296037E+02  0.47000000000E+01 0.  1.
        -11    1    4    4    0    0  0.14570694864E+03  0.23007047882E+02 -0.68088997491E+02  0.16246830680E+03  0.00000000000E+00 0.  1.
         11    1    4    4    0    0  0.45488749164E+02  0.72071768370E+02 -0.88342001772E+02  0.12275127443E+03  0.00000000000E+00 0. -1.
<mgrwt>
<rscale>  0 0.24516266E+03</rscale>
<asrwt>0</asrwt>
<pdfrwt beam="2">  1        2 0.43942621E-01 0.24742661E+03</pdfrwt>
<pdfrwt beam="1">  1       -2 0.46242451E-01 0.24742661E+03</pdfrwt>
<totfact> 0.51982469E+02</totfact>
</mgrwt>
</event>
<event>
 8    1  0.9424564E-006  0.1729144E+03  0.7546771E-02  0.1181579E+00
         -1   -1    0    0    0  501 -0.00000000000E+00  0.00000000000E+00  0.82475720715E+03  0.82475720715E+03  0.00000000000E+00 0.  1.
          1   -1    0    0  501    0  0.00000000000E+00 -0.00000000000E+00 -0.91342600415E+02  0.91342600415E+02  0.00000000000E+00 0. -1.
         23    2    1    2    0    0 -0.79437557802E+02  0.89260199732E+02  0.74717224635E+03  0.76691965016E+03  0.12498670028E+03 0.  0.
         23    2    1    2    0    0  0.79437557802E+02 -0.89260199732E+02 -0.13757639616E+02  0.14918015740E+03  0.88248160708E+02 0.  0.
          5    1    3    3  502    0 -0.80311438011E+02  0.11054008370E+03  0.48674383967E+03  0.50557956113E+03  0.47000000000E+01 0.  1.
         -5    1    3    3    0  502  0.87388020928E+00 -0.21279883969E+02  0.26042840668E+03  0.26134008903E+03  0.47000000000E+01 0.  1.
        -11    1    4    4    0    0  0.55391405354E+02 -0.71683458727E+02  0.30713564890E+02  0.95655889052E+02  0.00000000000E+00 0.  1.
         11    1    4    4    0    0  0.24046152448E+02 -0.17576741005E+02 -0.44471204506E+02  0.53524268348E+02  0.00000000000E+00 0. -1.
<mgrwt>
<rscale>  0 0.16647056E+03</rscale>
<asrwt>0</asrwt>
<pdfrwt beam="2">  1        1 0.14052708E-01 0.17291438E+03</pdfrwt>
<pdfrwt beam="1">  1       -1 0.12688572E+00 0.17291438E+03</pdfrwt>
<totfact> 0.23712837E+02</totfact>
</mgrwt>
</event>
<event>
 7    1  0.9424564E-006  0.1473289E+03  0.7546771E-02  0.1232427E+00
         -1   -1    0    0    0  501 -0.00000000000E+00  0.00000000000E+00  0.41940538404E+03  0.41940538404E+03  0.00000000000E+00 0.  1.
          1   -1    0    0  501    0  0.00000000000E+00 -0.00000000000E+00 -0.34124924956E+02  0.34124924956E+02  0.00000000000E+00 0. -1.
         23    2    1    2    0    0 -0.10010129536E+01 -0.43438581475E+01  0.75213851628E+02  0.11024165932E+03  0.80475019993E+02 0.  0.
          5    1    1    2  502    0 -0.57680849658E+02 -0.38637999148E+02  0.10798840903E+03  0.12846618964E+03  0.47000000000E+01 0. -1.
         -5    1    1    2    0  502  0.58681862612E+02  0.42981857296E+02  0.20207819843E+03  0.21482246004E+03  0.47000000000E+01 0.  1.
        -11    1    3    3    0    0 -0.39650636041E+02 -0.23202345064E+01  0.25343511535E+02  0.47115284181E+02  0.00000000000E+00 0. -1.
         11    1    3    3    0    0  0.38649623087E+02 -0.20236236411E+01  0.49870340094E+02  0.63126375141E+02  0.00000000000E+00 0.  1.
<mgrwt>
<rscale>  0 0.12670609E+03</rscale>
<asrwt>0</asrwt>
<pdfrwt beam="2">  1        1 0.52499888E-02 0.14732887E+03</pdfrwt>
<pdfrwt beam="1">  1       -1 0.64523901E-01 0.14732887E+03</pdfrwt>
<totfact> 0.37818701E+03</totfact>
</mgrwt>
</event>
<event>
 8    1  0.9424564E-006  0.1805014E+03  0.7546771E-02  0.1172758E+00
         -1   -1    0    0    0  501 -0.00000000000E+00  0.00000000000E+00  0.38329829642E+02  0.38329829642E+02  0.00000000000E+00 0.  1.
          1   -1    0    0  501    0  0.00000000000E+00 -0.00000000000E+00 -0.75846250065E+03  0.75846250065E+03  0.00000000000E+00 0. -1.
         23    2    1    2    0    0 -0.11218053719E+03 -0.66114714239E+02 -0.35005199595E+03  0.39384917578E+03  0.12500058011E+03 0.  0.
         23    2    1    2    0    0  0.11218053719E+03  0.66114714239E+02 -0.37008067505E+03  0.40294315451E+03  0.91912193732E+02 0.  0.
          5    1    3    3  502    0 -0.35984230120E+01  0.24655733300E+02 -0.12801284287E+03  0.13049993016E+03  0.47000000000E+01 0. -1.
         -5    1    3    3    0  502 -0.10858211418E+03 -0.90770447539E+02 -0.22203915308E+03  0.26334924562E+03  0.47000000000E+01 0. -1.
        -11    1    4    4    0    0  0.40039156721E+02  0.52222777766E+02 -0.79412866540E+02  0.10313464966E+03  0.00000000000E+00 0.  1.
         11    1    4    4    0    0  0.72141380467E+02  0.13891936473E+02 -0.29066780851E+03  0.29980850485E+03  0.00000000000E+00 0. -1.
<mgrwt>
<rscale>  0 0.17497346E+03</rscale>
<asrwt>0</asrwt>
<pdfrwt beam="2">  1        1 0.11668652E+00 0.18050145E+03</pdfrwt>
<pdfrwt beam="1">  1       -1 0.58968977E-02 0.18050145E+03</pdfrwt>
<totfact> 0.33851528E+03</totfact>
</mgrwt>
</event>
<event>
 8    1  0.9424564E-006  0.1990123E+03  0.7546771E-02  0.1154541E+00
          1   -1    0    0  501    0  0.00000000000E+00  0.00000000000E+00  0.67799642323E+03  0.67799642323E+03  0.00000000000E+00 0. -1.
         -1   -1    0    0    0  501 -0.00000000000E+00 -0.00000000000E+00 -0.62306205289E+02  0.62306205289E+02  0.00000000000E+00 0.  1.
         23    2    1    2    0    0  0.14612227055E+03 -0.51295617715E+02  0.17968426472E+03  0.26812743596E+03  0.12499171405E+03 0.  0.
         23    2    1    2    0    0 -0.14612227055E+03  0.51295617715E+02  0.43600595322E+03  0.47217519256E+03  0.94155524936E+02 0.  0.
          5    1    3    3  502    0  0.84825500617E+01  0.21827186383E+02  0.78965928746E+02  0.82499015895E+02  0.47000000000E+01 0. -1.
         -5    1    3    3    0  502  0.13763972049E+03 -0.73122804098E+02  0.10071833597E+03  0.18562842006E+03  0.47000000000E+01 0. -1.
        -11    1    4    4    0    0 -0.39287788808E+02  0.33385966752E+02  0.52174527068E+02  0.73350762778E+02  0.00000000000E+00 0.  1.
         11    1    4    4    0    0 -0.10683448174E+03  0.17909650963E+02  0.38383142615E+03  0.39882442978E+03  0.00000000000E+00 0. -1.
<mgrwt>
<rscale>  0 0.19441237E+03</rscale>
<asrwt>0</asrwt>
<pdfrwt beam="1">  1        1 0.10430714E+00 0.19901228E+03</pdfrwt>
<pdfrwt beam="2">  1       -1 0.95855705E-02 0.19901228E+03</pdfrwt>
<totfact> 0.19123686E+03</totfact>
</mgrwt>
</event>
<event>
 8    1  0.9424564E-006  0.1272086E+03  0.7546771E-02  0.1239883E+00
          1   -1    0    0  501    0  0.00000000000E+00  0.00000000000E+00  0.29520185686E+03  0.29520185686E+03  0.00000000000E+00 0. -1.
         -1   -1    0    0    0  501 -0.00000000000E+00 -0.00000000000E+00 -0.11895467222E+03  0.11895467222E+03  0.00000000000E+00 0.  1.
         23    2    1    2    0    0 -0.42981063575E+02 -0.31331118445E+02 -0.70190386609E+02  0.14528836579E+03  0.11555521647E+03 0.  0.
         23    2    1    2    0    0  0.42981063575E+02  0.31331118445E+02  0.24643757125E+03  0.26886816329E+03  0.93432338594E+02 0.  0.
          5    1    3    3  502    0  0.71117513162E+01 -0.64652310389E+02 -0.48075149781E+02  0.81017333157E+02  0.47000000000E+01 0. -1.
         -5    1    3    3    0  502 -0.50092814891E+02  0.33321191944E+02 -0.22115236828E+02  0.64271032637E+02  0.47000000000E+01 0.  1.
        -11    1    4    4    0    0  0.33713892393E+02 -0.29943169296E+02  0.11606976748E+03  0.12452072458E+03  0.00000000000E+00 0. -1.
         11    1    4    4    0    0  0.92671711820E+01  0.61274287741E+02  0.13036780378E+03  0.14434743871E+03  0.00000000000E+00 0.  1.
<mgrwt>
<rscale>  0 0.12196928E+03</rscale>
<asrwt>0</asrwt>
<pdfrwt beam="1">  1        1 0.45415670E-01 0.12720856E+03</pdfrwt>
<pdfrwt beam="2">  1       -1 0.18300719E-01 0.12720856E+03</pdfrwt>
<totfact> 0.20336966E+03</totfact>
</mgrwt>
</event>
<event>
 8    1  0.9424564E-006  0.1579064E+03  0.7546771E-02  0.1199600E+00
          1   -1    0    0  501    0  0.00000000000E+00  0.00000000000E+00  0.49261964241E+03  0.49261964241E+03  0.00000000000E+00 0. -1.
         -1   -1    0    0    0  501 -0.00000000000E+00 -0.00000000000E+00 -0.43086073874E+02  0.43086073874E+02  0.00000000000E+00 0.  1.
         23    2    1    2    0    0 -0.91590499835E+02 -0.30362824671E+02  0.21094588043E+03  0.26350062954E+03  0.12499478595E+03 0.  0.
         23    2    1    2    0    0  0.91590499835E+02  0.30362824671E+02  0.23858768810E+03  0.27220508674E+03  0.88661172739E+02 0.  0.
          5    1    3    3  502    0 -0.58452051198E+01  0.38655577596E+02  0.98494059820E+02  0.10607351188E+03  0.47000000000E+01 0.  1.
         -5    1    3    3    0  502 -0.85745294715E+02 -0.69018402267E+02  0.11245182061E+03  0.15742711767E+03  0.47000000000E+01 0.  1.
        -11    1    4    4    0    0  0.10654760782E+03  0.39359360076E+02  0.20714203617E+03  0.23624007939E+03  0.00000000000E+00 0.  1.
         11    1    4    4    0    0 -0.14957107989E+02 -0.89965354051E+01  0.31445651928E+02  0.35965007353E+02  0.00000000000E+00 0. -1.
<mgrwt>
<rscale>  0 0.15071303E+03</rscale>
<asrwt>0</asrwt>
<pdfrwt beam="1">  1        1 0.75787634E-01 0.15790636E+03</pdfrwt>
<pdfrwt beam="2">  1       -1 0.66286271E-02 0.15790636E+03</pdfrwt>
<totfact> 0.51373989E+03</totfact>
</mgrwt>
</event>
<event>
 8    1  0.9424564E-006  0.1257784E+03  0.7546771E-02  0.1248157E+00
         -2   -1    0    0    0  501 -0.00000000000E+00  0.00000000000E+00  0.18606145997E+03  0.18606145997E+03  0.00000000000E+00 0. -1.
          2   -1    0    0  501    0  0.00000000000E+00 -0.00000000000E+00 -0.75407904117E+02  0.75407904117E+02  0.00000000000E+00 0.  1.
         23    2    1    2    0    0 -0.13952354636E+02 -0.10345371941E+01  0.11038456799E+03  0.16734679840E+03  0.12499783845E+03 0.  0.
         23    2    1    2    0    0  0.13952354636E+02  0.10345371941E+01  0.26898786381E+00  0.94122565692E+02  0.93076562844E+02 0.  0.
          5    1    3    3  502    0 -0.13677133512E+02 -0.33743068169E+01  0.13822188477E+03  0.13901737070E+03  0.47000000000E+01 0.  1.
         -5    1    3    3    0  502 -0.27522112445E+00  0.23397696228E+01 -0.27837316775E+02  0.28329427699E+02  0.47000000000E+01 0.  1.
        -11    1    4    4    0    0  0.35168168781E+02 -0.19075326115E+02 -0.31522346430E+02  0.50934531374E+02  0.00000000000E+00 0.  1.
         11    1    4    4    0    0 -0.21215814145E+02  0.20109863309E+02  0.31791334294E+02  0.43188034319E+02  0.00000000000E+00 0. -1.
<mgrwt>
<rscale>  0 0.11698427E+03</rscale>
<asrwt>0</asrwt>
<pdfrwt beam="2">  1        2 0.11601216E-01 0.12577837E+03</pdfrwt>
<pdfrwt beam="1">  1       -2 0.28624840E-01 0.12577837E+03</pdfrwt>
<totfact> 0.56031470E+03</totfact>
</mgrwt>
</event>
<event>
 8    1  0.9424564E-006  0.1429521E+03  0.7546771E-02  0.1219586E+00
         -2   -1    0    0    0  501 -0.00000000000E+00  0.00000000000E+00  0.40340673313E+02  0.40340673313E+02  0.00000000000E+00 0.  1.
          2   -1    0    0  501    0  0.00000000000E+00 -0.00000000000E+00 -0.43337230411E+03  0.43337230411E+03  0.00000000000E+00 0. -1.
         23    2    1    2    0    0 -0.58376264837E+02  0.37473051259E+02 -0.16565344145E+03  0.21880667226E+03  0.12499311699E+03 0.  0.
         23    2    1    2    0    0  0.58376264837E+02 -0.37473051259E+02 -0.22737818935E+03  0.25490630516E+03  0.92001986683E+02 0.  0.
          5    1    3    3  502    0 -0.10863437004E+02  0.78468581301E+02 -0.81823597550E+02  0.11398475175E+03  0.47000000000E+01 0.  1.
         -5    1    3    3    0  502 -0.47512827833E+02 -0.40995530041E+02 -0.83829843900E+02  0.10482192051E+03  0.47000000000E+01 0.  1.
        -11    1    4    4    0    0  0.54471623175E+02  0.19004504129E+02 -0.13081129814E+03  0.14296826441E+03  0.00000000000E+00 0.  1.
         11    1    4    4    0    0  0.39046416615E+01 -0.56477555388E+02 -0.96566891213E+02  0.11193804075E+03  0.00000000000E+00 0. -1.
<mgrwt>
<rscale>  0 0.13544963E+03</rscale>
<asrwt>0</asrwt>
<pdfrwt beam="2">  1        2 0.66672662E-01 0.14295208E+03</pdfrwt>
<pdfrwt beam="1">  1       -2 0.62062575E-02 0.14295208E+03</pdfrwt>
<totfact> 0.97931059E+03</totfact>
</mgrwt>
</event>
<event>
 8    1  0.9424564E-006  0.1282209E+03  0.7546771E-02  0.1244635E+00
         -3   -1    0    0    0  501 -0.00000000000E+00  0.00000000000E+00  0.35987982855E+03  0.35987982855E+03  0.00000000000E+00 0.  1.
          3   -1    0    0  501    0  0.00000000000E+00 -0.00000000000E+00 -0.64288680147E+02  0.64288680147E+02  0.00000000000E+00 0. -1.
         23    2    1    2    0    0  0.22107218784E+02  0.18087062921E+02  0.30250612632E+03  0.32855830889E+03  0.12499893966E+03 0.  0.
         23    2    1    2    0    0 -0.22107218784E+02 -0.18087062921E+02 -0.69149779145E+01  0.95610199804E+02  0.90981439972E+02 0.  0.
          5    1    3    3  502    0 -0.39242238864E+02  0.10202955472E+01  0.32721462563E+02  0.51320350996E+02  0.47000000000E+01 0.  1.
         -5    1    3    3    0  502  0.61349457648E+02  0.17066767374E+02  0.26978466375E+03  0.27723795790E+03  0.47000000000E+01 0.  1.
        -11    1    4    4    0    0 -0.54948383988E+02 -0.10206474508E+02  0.11622245222E+02  0.57083917251E+02  0.00000000000E+00 0.  1.
         11    1    4    4    0    0  0.32841165204E+02 -0.78805884133E+01 -0.18537223137E+02  0.38526282552E+02  0.00000000000E+00 0. -1.
<mgrwt>
<rscale>  0 0.11907224E+03</rscale>
<asrwt>0</asrwt>
<pdfrwt beam="2">  1        3 0.98905664E-02 0.12822093E+03</pdfrwt>
<pdfrwt beam="1">  1       -3 0.55366126E-01 0.12822093E+03</pdfrwt>
<totfact> 0.56087919E+02</totfact>
</mgrwt>
</event>
<event>
 8    1  0.9424564E-006  0.2033313E+03  0.7546771E-02  0.1150851E+00
         -1   -1    0    0    0  501 -0.00000000000E+00  0.00000000000E+00  0.73889878173E+03  0.73889878173E+03  0.00000000000E+00 0.  1.
          1   -1    0    0  501    0  0.00000000000E+00 -0.00000000000E+00 -0.62850870884E+02  0.62850870884E+02  0.00000000000E+00 0. -1.
         23    2    1    2    0    0  0.72809043113E+02 -0.14288939270E+03  0.52373708794E+03  0.56182218747E+03  0.12500039099E+03 0.  0.
         23    2    1    2    0    0 -0.72809043113E+02  0.14288939270E+03  0.15231082291E+03  0.23992746514E+03  0.92994980772E+02 0.  0.
          5    1    3    3  502    0  0.50895479978E+02 -0.83461024375E+02  0.46541254963E+03  0.47559123606E+03  0.47000000000E+01 0.  1.
         -5    1    3    3    0  502  0.21913563135E+02 -0.59428368327E+02  0.58324538315E+02  0.86230951410E+02  0.47000000000E+01 0.  1.
        -11    1    4    4    0    0 -0.32688127288E+02 -0.31592124679E+01  0.37660396369E+02  0.49967987188E+02  0.00000000000E+00 0. -1.
         11    1    4    4    0    0 -0.40120915826E+02  0.14604860517E+03  0.11465042654E+03  0.18995947795E+03  0.00000000000E+00 0.  1.
<mgrwt>
<rscale>  0 0.19868739E+03</rscale>
<asrwt>0</asrwt>
<pdfrwt beam="2">  1        1 0.96693653E-02 0.20333134E+03</pdfrwt>
<pdfrwt beam="1">  1       -1 0.11367673E+00 0.20333134E+03</pdfrwt>
<totfact> 0.50474518E+02</totfact>
</mgrwt>
</event>
<event>
 8    1  0.9424564E-006  0.1388518E+03  0.7546771E-02  0.1226604E+00
         -1   -1    0    0    0  501 -0.00000000000E+00  0.00000000000E+00  0.14126746907E+03  0.14126746907E+03  0.00000000000E+00 0.  1.
          1   -1    0    0  501    0  0.00000000000E+00 -0.00000000000E+00 -0.10840370213E+03  0.10840370213E+03  0.00000000000E+00 0. -1.
         23    2    1    2    0    0 -0.51006664496E+02  0.32431152115E+02  0.15814805238E+02  0.13974954860E+03  0.12500547516E+03 0.  0.
         23    2    1    2    0    0  0.51006664496E+02 -0.32431152115E+02  0.17048961706E+02  0.10992162260E+03  0.90214392246E+02 0.  0.
          5    1    3    3  502    0  0.16695732636E+02  0.22436347403E+02  0.54179608893E+02  0.61152736594E+02  0.47000000000E+01 0.  1.
         -5    1    3    3    0  502 -0.67702397132E+02  0.99948047120E+01 -0.38364803655E+02  0.78596812010E+02  0.47000000000E+01 0.  1.
        -11    1    4    4    0    0  0.47781373952E+02  0.21902717811E+02  0.17777631191E+02  0.55487232000E+02  0.00000000000E+00 0. -1.
         11    1    4    4    0    0  0.32252905441E+01 -0.54333869926E+02 -0.72866948501E+00  0.54434390595E+02  0.00000000000E+00 0.  1.
<mgrwt>
<rscale>  0 0.13057576E+03</rscale>
<asrwt>0</asrwt>
<pdfrwt beam="2">  1        1 0.16677493E-01 0.13885182E+03</pdfrwt>
<pdfrwt beam="1">  1       -1 0.21733457E-01 0.13885182E+03</pdfrwt>
<totfact> 0.54347576E+03</totfact>
</mgrwt>
</event>
<event>
 8    1  0.9424564E-006  0.1335904E+03  0.7546771E-02  0.1235661E+00
         -2   -1    0    0    0  501 -0.00000000000E+00  0.00000000000E+00  0.27570771007E+02  0.27570771007E+02  0.00000000000E+00 0.  1.
          2   -1    0    0  501    0  0.00000000000E+00 -0.00000000000E+00 -0.50349211041E+03  0.50349211041E+03  0.00000000000E+00 0. -1.
         23    2    1    2    0    0  0.46113750281E+02  0.97559003432E+01 -0.24786294900E+03  0.28157138143E+03  0.12499898318E+03 0.  0.
         23    2    1    2    0    0 -0.46113750281E+02 -0.97559003432E+01 -0.22805839040E+03  0.24949149998E+03  0.89519403360E+02 0.  0.
          5    1    3    3  502    0  0.19593675486E+01  0.10001774379E+02  0.12874558166E+02  0.17079779269E+02  0.47000000000E+01 0. -1.
         -5    1    3    3    0  502  0.44154382732E+02 -0.24587403611E+00 -0.26073750717E+03  0.26449160216E+03  0.47000000000E+01 0. -1.
        -11    1    4    4    0    0 -0.19710457497E+02 -0.31744200517E+02 -0.28493340271E+02  0.46990071728E+02  0.00000000000E+00 0.  1.
         11    1    4    4    0    0 -0.26403292784E+02  0.21988300174E+02 -0.19956505012E+03  0.20250142826E+03  0.00000000000E+00 0. -1.
<mgrwt>
<rscale>  0 0.12462193E+03</rscale>
<asrwt>0</asrwt>
<pdfrwt beam="2">  1        2 0.77460314E-01 0.13359042E+03</pdfrwt>
<pdfrwt beam="1">  1       -2 0.42416576E-02 0.13359042E+03</pdfrwt>
<totfact> 0.14675168E+04</totfact>
</mgrwt>
</event>
<event>
 8    1  0.9424564E-006  0.1871477E+03  0.7546771E-02  0.1165668E+00
         -1   -1    0    0    0  501 -0.00000000000E+00  0.00000000000E+00  0.10496784423E+04  0.10496784423E+04  0.00000000000E+00 0.  1.
          1   -1    0    0  501    0  0.00000000000E+00 -0.00000000000E+00 -0.38038434814E+02  0.38038434814E+02  0.00000000000E+00 0. -1.
         23    2    1    2    0    0  0.80104426605E+02  0.11394083561E+03  0.77566281327E+03  0.79792047119E+03  0.12500018107E+03 0.  0.
         23    2    1    2    0    0 -0.80104426605E+02 -0.11394083561E+03  0.23597719420E+03  0.28979640591E+03  0.94326494247E+02 0.  0.
          5    1    3    3  502    0 -0.27165466242E+02  0.29518213989E+02  0.88035018800E+02  0.96858360756E+02  0.47000000000E+01 0. -1.
         -5    1    3    3    0  502  0.10726989285E+03  0.84422621617E+02  0.68762779447E+03  0.70106211043E+03  0.47000000000E+01 0. -1.
        -11    1    4    4    0    0 -0.25610877180E+02 -0.21284161782E+02  0.14559624688E+03  0.14935594959E+03  0.00000000000E+00 0. -1.
         11    1    4    4    0    0 -0.54493549425E+02 -0.92656673823E+02  0.90380947314E+02  0.14044045632E+03  0.00000000000E+00 0.  1.
<mgrwt>
<rscale>  0 0.18222395E+03</rscale>
<asrwt>0</asrwt>
<pdfrwt beam="2">  1        1 0.58520677E-02 0.18714774E+03</pdfrwt>
<pdfrwt beam="1">  1       -1 0.16148897E+00 0.18714774E+03</pdfrwt>
<totfact> 0.41493507E+02</totfact>
</mgrwt>
</event>
<event>
 8    1  0.9424564E-006  0.1435070E+03  0.7546771E-02  0.1223406E+00
          1   -1    0    0  501    0  0.00000000000E+00  0.00000000000E+00  0.45480430216E+03  0.45480430216E+03  0.00000000000E+00 0. -1.
         -1   -1    0    0    0  501 -0.00000000000E+00 -0.00000000000E+00 -0.34088186240E+02  0.34088186240E+02  0.00000000000E+00 0.  1.
         23    2    1    2    0    0  0.26725152525E+02  0.65146628715E+02  0.22932175314E+03  0.27052304773E+03  0.12504373585E+03 0.  0.
         23    2    1    2    0    0 -0.26725152525E+02 -0.65146628715E+02  0.19139436278E+03  0.21836944068E+03  0.78071079836E+02 0.  0.
          5    1    3    3  502    0 -0.36786715779E+02 -0.35789276345E+01  0.22646383051E+02  0.43600686303E+02  0.47000000000E+01 0. -1.
         -5    1    3    3    0  502  0.63511868305E+02  0.68725556350E+02  0.20667537009E+03  0.22692236142E+03  0.47000000000E+01 0. -1.
        -11    1    4    4    0    0 -0.79458097164E+01  0.16045082217E+02  0.15299301021E+02  0.23550990789E+02  0.00000000000E+00 0.  1.
         11    1    4    4    0    0 -0.18779342809E+02 -0.81191710933E+02  0.17609506176E+03  0.19481844989E+03  0.00000000000E+00 0. -1.
<mgrwt>
<rscale>  0 0.13276751E+03</rscale>
<asrwt>0</asrwt>
<pdfrwt beam="1">  1        1 0.69969888E-01 0.14350698E+03</pdfrwt>
<pdfrwt beam="2">  1       -1 0.52443367E-02 0.14350698E+03</pdfrwt>
<totfact> 0.80380913E+03</totfact>
</mgrwt>
</event>
<event>
 8    1  0.9424564E-006  0.1257903E+03  0.7546771E-02  0.1249146E+00
         -1   -1    0    0    0  501 -0.00000000000E+00  0.00000000000E+00  0.12536440006E+04  0.12536440006E+04  0.00000000000E+00 0.  1.
          1   -1    0    0  501    0  0.00000000000E+00 -0.00000000000E+00 -0.16469869107E+02  0.16469869107E+02  0.00000000000E+00 0. -1.
         23    2    1    2    0    0 -0.10024655789E+02  0.97395839314E+01  0.10842298292E+04  0.10915024180E+04  0.12501141003E+03 0.  0.
         23    2    1    2    0    0  0.10024655789E+02 -0.97395839314E+01  0.15294430223E+03  0.17861145170E+03  0.91185184513E+02 0.  0.
          5    1    3    3  502    0  0.50748470447E+02  0.13610264660E+02  0.27788258218E+03  0.28284530407E+03  0.47000000000E+01 0. -1.
         -5    1    3    3    0  502 -0.60773126236E+02 -0.38706807288E+01  0.80634724705E+03  0.80865711390E+03  0.47000000000E+01 0. -1.
        -11    1    4    4    0    0  0.46593350834E+02 -0.89292595613E+01  0.12129261618E+03  0.13024043442E+03  0.00000000000E+00 0.  1.
         11    1    4    4    0    0 -0.36568695045E+02 -0.81032437005E+00  0.31651686056E+02  0.48371017284E+02  0.00000000000E+00 0. -1.
<mgrwt>
<rscale>  0 0.11640649E+03</rscale>
<asrwt>0</asrwt>
<pdfrwt beam="2">  1        1 0.25338270E-02 0.12579032E+03</pdfrwt>
<pdfrwt beam="1">  1       -1 0.19286823E+00 0.12579032E+03</pdfrwt>
<totfact> 0.79319604E+02</totfact>
</mgrwt>
</event>
<event>
 8    1  0.9424564E-006  0.1319087E+03  0.7546771E-02  0.1233701E+00
         -1   -1    0    0    0  501 -0.00000000000E+00  0.00000000000E+00  0.41083802546E+03  0.41083802546E+03  0.00000000000E+00 0.  1.
          1   -1    0    0  501    0  0.00000000000E+00 -0.00000000000E+00 -0.35435194945E+02  0.35435194945E+02  0.00000000000E+00 0. -1.
         23    2    1    2    0    0  0.33024696599E+02  0.26227969245E+02  0.20719679698E+03  0.24562248572E+03  0.12498542258E+03 0.  0.
         23    2    1    2    0    0 -0.33024696599E+02 -0.26227969245E+02  0.16820603354E+03  0.20065073468E+03  0.10094013402E+03 0.  0.
          5    1    3    3  502    0 -0.17280293531E+02 -0.23227395773E+01  0.18108920147E+03  0.18198734174E+03  0.47000000000E+01 0. -1.
         -5    1    3    3    0  502  0.50304990130E+02  0.28550708822E+02  0.26107595505E+02  0.63635143979E+02  0.47000000000E+01 0. -1.
        -11    1    4    4    0    0  0.35104434287E+02  0.28105877049E+01  0.49890611009E+02  0.61067943937E+02  0.00000000000E+00 0. -1.
         11    1    4    4    0    0 -0.68129130886E+02 -0.29038556950E+02  0.11831542253E+03  0.13958279075E+03  0.00000000000E+00 0.  1.
<mgrwt>
<rscale>  0 0.12587954E+03</rscale>
<asrwt>0</asrwt>
<pdfrwt beam="2">  1        1 0.54515688E-02 0.13190865E+03</pdfrwt>
<pdfrwt beam="1">  1       -1 0.63205847E-01 0.13190865E+03</pdfrwt>
<totfact> 0.37134151E+03</totfact>
</mgrwt>
</event>
<event>
 8    1  0.9424564E-006  0.1480716E+03  0.7546771E-02  0.1212082E+00
         -2   -1    0    0    0  501 -0.00000000000E+00  0.00000000000E+00  0.76928044654E+02  0.76928044654E+02  0.00000000000E+00 0.  1.
          2   -1    0    0  501    0  0.00000000000E+00 -0.00000000000E+00 -0.32755942591E+03  0.32755942591E+03  0.00000000000E+00 0. -1.
         23    2    1    2    0    0 -0.73959163752E+02  0.28794668802E+02 -0.27768669135E+02  0.15065287330E+03  0.12500439349E+03 0.  0.
         23    2    1    2    0    0  0.73959163752E+02 -0.28794668802E+02 -0.22286271212E+03  0.25383459726E+03  0.92006105565E+02 0.  0.
          5    1    3    3  502    0 -0.80049824132E+02 -0.22235344023E+02 -0.47012054931E+02  0.95575144133E+02  0.47000000000E+01 0.  1.
         -5    1    3    3    0  502  0.60906603801E+01  0.51030012825E+02  0.19243385796E+02  0.55077729163E+02  0.47000000000E+01 0.  1.
        -11    1    4    4    0    0  0.71453002132E+02 -0.47130144280E+02 -0.21871697128E+03  0.23486995453E+03  0.00000000000E+00 0. -1.
         11    1    4    4    0    0  0.25061616197E+01  0.18335475478E+02 -0.41457408382E+01  0.18964642737E+02  0.00000000000E+00 0.  1.
<mgrwt>
<rscale>  0 0.14093052E+03</rscale>
<asrwt>0</asrwt>
<pdfrwt beam="2">  1        2 0.50393758E-01 0.14807157E+03</pdfrwt>
<pdfrwt beam="1">  1       -2 0.11835084E-01 0.14807157E+03</pdfrwt>
<totfact> 0.48471131E+03</totfact>
</mgrwt>
</event>
<event>
 8    1  0.9424564E-006  0.2151481E+03  0.7546771E-02  0.1140949E+00
         -2   -1    0    0    0  501 -0.00000000000E+00  0.00000000000E+00  0.50205664182E+02  0.50205664182E+02  0.00000000000E+00 0.  1.
          2   -1    0    0  501    0  0.00000000000E+00 -0.00000000000E+00 -0.85158669854E+03  0.85158669854E+03  0.00000000000E+00 0. -1.
         23    2    1    2    0    0  0.17263787051E+03  0.29319264924E+02 -0.40348612256E+03  0.45726333524E+03  0.12500101210E+03 0.  0.
         23    2    1    2    0    0 -0.17263787051E+03 -0.29319264924E+02 -0.39789491180E+03  0.44452902749E+03  0.92856027347E+02 0.  0.
          5    1    3    3  502    0 -0.14062214240E+02  0.22817959900E+02 -0.67990981208E+02  0.73234340913E+02  0.47000000000E+01 0. -1.
         -5    1    3    3    0  502  0.18670008474E+03  0.65013050240E+01 -0.33549514135E+03  0.38402899433E+03  0.47000000000E+01 0. -1.
        -11    1    4    4    0    0 -0.11115095999E+02 -0.59296147869E+01  0.18663903802E+01  0.12735348587E+02  0.00000000000E+00 0.  1.
         11    1    4    4    0    0 -0.16152277451E+03 -0.23389650137E+02 -0.39976130218E+03  0.43179367890E+03  0.00000000000E+00 0. -1.
<mgrwt>
<rscale>  0 0.21078148E+03</rscale>
<asrwt>0</asrwt>
<pdfrwt beam="2">  1        2 0.13101334E+00 0.21514810E+03</pdfrwt>
<pdfrwt beam="1">  1       -2 0.77239482E-02 0.21514810E+03</pdfrwt>
<totfact> 0.32441857E+03</totfact>
</mgrwt>
</event>
<event>
 8    1  0.9424564E-006  0.1851251E+03  0.7546771E-02  0.1168106E+00
         -2   -1    0    0    0  501 -0.00000000000E+00  0.00000000000E+00  0.12813491634E+03  0.12813491634E+03  0.00000000000E+00 0.  1.
          2   -1    0    0  501    0  0.00000000000E+00 -0.00000000000E+00 -0.23840849319E+03  0.23840849319E+03  0.00000000000E+00 0. -1.
         23    2    1    2    0    0 -0.17138709569E+02 -0.13547323361E+03 -0.53548825864E+02  0.19271427051E+03  0.12499832365E+03 0.  0.
         23    2    1    2    0    0  0.17138709569E+02  0.13547323361E+03 -0.56724750980E+02  0.17382913902E+03  0.91390042156E+02 0.  0.
          5    1    3    3  502    0 -0.39049406222E+01 -0.12346861052E+02  0.36837435268E+02  0.39329126309E+02  0.47000000000E+01 0.  1.
         -5    1    3    3    0  502 -0.13233768947E+02 -0.12312637256E+03 -0.90386261132E+02  0.15338514420E+03  0.47000000000E+01 0.  1.
        -11    1    4    4    0    0  0.24010927636E+02  0.75868888535E+02 -0.76767680881E+02  0.11057074532E+03  0.00000000000E+00 0. -1.
         11    1    4    4    0    0 -0.68722180670E+01  0.59604345080E+02  0.20042929900E+02  0.63258393693E+02  0.00000000000E+00 0.  1.
<mgrwt>
<rscale>  0 0.17968724E+03</rscale>
<asrwt>0</asrwt>
<pdfrwt beam="2">  1        2 0.36678229E-01 0.18512513E+03</pdfrwt>
<pdfrwt beam="1">  1       -2 0.19713064E-01 0.18512513E+03</pdfrwt>
<totfact> 0.29699978E+03</totfact>
</mgrwt>
</event>
<event>
 8    1  0.9424564E-006  0.1671126E+03  0.7546771E-02  0.1190467E+00
         -1   -1    0    0    0  501 -0.00000000000E+00  0.00000000000E+00  0.22575133491E+03  0.22575133491E+03  0.00000000000E+00 0.  1.
          1   -1    0    0  501    0  0.00000000000E+00 -0.00000000000E+00 -0.10112290793E+03  0.10112290793E+03  0.00000000000E+00 0. -1.
         23    2    1    2    0    0  0.67342508408E+02 -0.88125871180E+02  0.71363257569E+02  0.18171218805E+03  0.12500168856E+03 0.  0.
         23    2    1    2    0    0 -0.67342508408E+02  0.88125871180E+02  0.53265169408E+02  0.14516205479E+03  0.77030262041E+02 0.  0.
          5    1    3    3  502    0 -0.36220183169E+02 -0.12227338762E+02  0.19303023221E+02  0.43082550847E+02  0.47000000000E+01 0. -1.
         -5    1    3    3    0  502  0.10356269158E+03 -0.75898532418E+02  0.52060234348E+02  0.13862963720E+03  0.47000000000E+01 0. -1.
        -11    1    4    4    0    0 -0.14132348816E+02  0.65226729636E+01 -0.18490217433E+02  0.24169333593E+02  0.00000000000E+00 0. -1.
         11    1    4    4    0    0 -0.53210159592E+02  0.81603198217E+02  0.71755386840E+02  0.12099272120E+03  0.00000000000E+00 0.  1.
<mgrwt>
<rscale>  0 0.15844172E+03</rscale>
<asrwt>0</asrwt>
<pdfrwt beam="2">  1        1 0.15557371E-01 0.16711255E+03</pdfrwt>
<pdfrwt beam="1">  1       -1 0.34730974E-01 0.16711255E+03</pdfrwt>
<totfact> 0.27484331E+03</totfact>
</mgrwt>
</event>
<event>
 8    1  0.9424564E-006  0.1462244E+03  0.7546771E-02  0.1214889E+00
          1   -1    0    0  501    0  0.00000000000E+00  0.00000000000E+00  0.24504078280E+03  0.24504078280E+03  0.00000000000E+00 0. -1.
         -1   -1    0    0    0  501 -0.00000000000E+00 -0.00000000000E+00 -0.76322718184E+02  0.76322718184E+02  0.00000000000E+00 0.  1.
         23    2    1    2    0    0 -0.74234386659E+02  0.15528928137E+02  0.13188377418E+03  0.19691345448E+03  0.12501874616E+03 0.  0.
         23    2    1    2    0    0  0.74234386659E+02 -0.15528928137E+02  0.36834290437E+02  0.12445004651E+03  0.91537737308E+02 0.  0.
          5    1    3    3  502    0 -0.80413417554E+02  0.57180344359E+02  0.66781148338E+02  0.11923808652E+03  0.47000000000E+01 0.  1.
         -5    1    3    3    0  502  0.61790308950E+01 -0.41651416221E+02  0.65102625841E+02  0.77675367958E+02  0.47000000000E+01 0.  1.
        -11    1    4    4    0    0  0.40955355948E+02 -0.38281275919E+02 -0.15712242940E+02  0.58220888391E+02  0.00000000000E+00 0.  1.
         11    1    4    4    0    0  0.33279030711E+02  0.22752347781E+02  0.52546533377E+02  0.66229158114E+02  0.00000000000E+00 0. -1.
<mgrwt>
<rscale>  0 0.13884707E+03</rscale>
<asrwt>0</asrwt>
<pdfrwt beam="1">  1        1 0.37698582E-01 0.14622441E+03</pdfrwt>
<pdfrwt beam="2">  1       -1 0.11741957E-01 0.14622441E+03</pdfrwt>
<totfact> 0.51614038E+03</totfact>
</mgrwt>
</event>
<event>
 8    1  0.9424564E-006  0.1580741E+03  0.7546771E-02  0.1195782E+00
          1   -1    0    0  501    0  0.00000000000E+00  0.00000000000E+00  0.37298832211E+03  0.37298832211E+03  0.00000000000E+00 0. -1.
         -1   -1    0    0    0  501 -0.00000000000E+00 -0.00000000000E+00 -0.12890954699E+03  0.12890954699E+03  0.00000000000E+00 0.  1.
         23    2    1    2    0    0 -0.82802916239E+02 -0.50054734515E+02 -0.57796219468E+02  0.16830876040E+03  0.12500254580E+03 0.  0.
         23    2    1    2    0    0  0.82802916239E+02  0.50054734515E+02  0.30187499459E+03  0.33358910870E+03  0.10388157534E+03 0.  0.
          5    1    3    3  502    0  0.17416547637E+02 -0.79364262032E+01  0.24815904897E+02  0.31689779556E+02  0.47000000000E+01 0. -1.
         -5    1    3    3    0  502 -0.10021946388E+03 -0.42118308312E+02 -0.82612124365E+02  0.13661898084E+03  0.47000000000E+01 0. -1.
        -11    1    4    4    0    0 -0.70621006573E+01  0.36662987575E+02  0.33184215485E+02  0.49952378132E+02  0.00000000000E+00 0.  1.
         11    1    4    4    0    0  0.89865016896E+02  0.13391746940E+02  0.26869077911E+03  0.28363673056E+03  0.00000000000E+00 0. -1.
<mgrwt>
<rscale>  0 0.15388227E+03</rscale>
<asrwt>0</asrwt>
<pdfrwt beam="1">  1        1 0.57382818E-01 0.15807415E+03</pdfrwt>
<pdfrwt beam="2">  1       -1 0.19832238E-01 0.15807415E+03</pdfrwt>
<totfact> 0.13442978E+03</totfact>
</mgrwt>
</event>
<event>
 8    1  0.9424564E-006  0.2383964E+03  0.7546771E-02  0.1123574E+00
          1   -1    0    0  501    0  0.00000000000E+00  0.00000000000E+00  0.21083801274E+04  0.21083801274E+04  0.00000000000E+00 0. -1.
         -1   -1    0    0    0  501 -0.00000000000E+00 -0.00000000000E+00 -0.25279371026E+02  0.25279371026E+02  0.00000000000E+00 0.  1.
         23    2    1    2    0    0 -0.36658573684E+01 -0.20297363250E+03  0.11257341937E+04  0.11506999160E+04  0.12498435063E+03 0.  0.
         23    2    1    2    0    0  0.36658573684E+01  0.20297363250E+03  0.95736656269E+03  0.98295958240E+03  0.91907950071E+02 0.  0.
          5    1    3    3  502    0  0.48586583610E+02 -0.51022357958E+02  0.22790878246E+03  0.23859681523E+03  0.47000000000E+01 0.  1.
         -5    1    3    3    0  502 -0.52252440978E+02 -0.15195127454E+03  0.89782541125E+03  0.91210310081E+03  0.47000000000E+01 0.  1.
        -11    1    4    4    0    0 -0.33011157917E+02  0.15158846277E+03  0.58209002998E+03  0.60240982860E+03  0.00000000000E+00 0. -1.
         11    1    4    4    0    0  0.36677015286E+02  0.51385169725E+02  0.37527653270E+03  0.38054975380E+03  0.00000000000E+00 0.  1.
<mgrwt>
<rscale>  0 0.23440898E+03</rscale>
<asrwt>0</asrwt>
<pdfrwt beam="1">  1        1 0.32436604E+00 0.23839635E+03</pdfrwt>
<pdfrwt beam="2">  1       -1 0.38891357E-02 0.23839635E+03</pdfrwt>
<totfact> 0.73832792E+02</totfact>
</mgrwt>
</event>
<event>
 8    1  0.9424564E-006  0.1651326E+03  0.7546771E-02  0.1189413E+00
          3   -1    0    0  501    0  0.00000000000E+00  0.00000000000E+00  0.40174841963E+03  0.40174841963E+03  0.00000000000E+00 0. -1.
         -3   -1    0    0    0  501 -0.00000000000E+00 -0.00000000000E+00 -0.82474639891E+02  0.82474639891E+02  0.00000000000E+00 0.  1.
         23    2    1    2    0    0  0.10573003665E+03 -0.21572492138E+02  0.39322587134E+02  0.16974990785E+03  0.12499820914E+03 0.  0.
         23    2    1    2    0    0 -0.10573003665E+03  0.21572492138E+02  0.27995119261E+03  0.31447315168E+03  0.94215072135E+02 0.  0.
          5    1    3    3  502    0  0.10992384876E+03  0.15269596515E+02 -0.57116372147E+01  0.11122556318E+03  0.47000000000E+01 0.  1.
         -5    1    3    3    0  502 -0.41938121144E+01 -0.36842088654E+02  0.45034224349E+02  0.58524344671E+02  0.47000000000E+01 0.  1.
        -11    1    4    4    0    0 -0.63497625302E+02  0.23289892927E+02  0.59732568526E+02  0.90234955945E+02  0.00000000000E+00 0.  1.
         11    1    4    4    0    0 -0.42232411344E+02 -0.17174007883E+01  0.22021862408E+03  0.22423819573E+03  0.00000000000E+00 0. -1.
<mgrwt>
<rscale>  0 0.15936706E+03</rscale>
<asrwt>0</asrwt>
<pdfrwt beam="1">  1        3 0.61807448E-01 0.16513257E+03</pdfrwt>
<pdfrwt beam="2">  1       -3 0.12688406E-01 0.16513257E+03</pdfrwt>
<totfact> 0.30568578E+02</totfact>
</mgrwt>
</event>
<event>
 8    1  0.9424564E-006  0.1434746E+03  0.7546771E-02  0.1218959E+00
         -1   -1    0    0    0  501 -0.00000000000E+00  0.00000000000E+00  0.79453735668E+02  0.79453735668E+02  0.00000000000E+00 0.  1.
          1   -1    0    0  501    0  0.00000000000E+00 -0.00000000000E+00 -0.25899855502E+03  0.25899855502E+03  0.00000000000E+00 0. -1.
         23    2    1    2    0    0  0.33938398311E+02  0.61726736309E+02 -0.25175087880E+02  0.14566651755E+03  0.12499177745E+03 0.  0.
         23    2    1    2    0    0 -0.33938398311E+02 -0.61726736309E+02 -0.15436973147E+03  0.19278577313E+03  0.91511395316E+02 0.  0.
          5    1    3    3  502    0  0.47685513507E+02  0.17765797915E+02 -0.66320803758E+02  0.83726165474E+02  0.47000000000E+01 0. -1.
         -5    1    3    3    0  502 -0.13747115196E+02  0.43960938394E+02  0.41145715877E+02  0.61940352079E+02  0.47000000000E+01 0. -1.
        -11    1    4    4    0    0  0.23055339854E+02 -0.48366748719E+02 -0.97041700110E+02  0.11085117337E+03  0.00000000000E+00 0. -1.
         11    1    4    4    0    0 -0.56993738165E+02 -0.13359987590E+02 -0.57328031358E+02  0.81934599759E+02  0.00000000000E+00 0.  1.
<mgrwt>
<rscale>  0 0.13589728E+03</rscale>
<asrwt>0</asrwt>
<pdfrwt beam="2">  1        1 0.39845932E-01 0.14347456E+03</pdfrwt>
<pdfrwt beam="1">  1       -1 0.12223651E-01 0.14347456E+03</pdfrwt>
<totfact> 0.45239054E+03</totfact>
</mgrwt>
</event>
<event>
 8    1  0.9424564E-006  0.1567454E+03  0.7546771E-02  0.1201158E+00
         -1   -1    0    0    0  501 -0.00000000000E+00  0.00000000000E+00  0.14347804047E+03  0.14347804047E+03  0.00000000000E+00 0.  1.
          1   -1    0    0  501    0  0.00000000000E+00 -0.00000000000E+00 -0.15531214022E+03  0.15531214022E+03  0.00000000000E+00 0. -1.
         23    2    1    2    0    0  0.64213880827E+02 -0.69633467137E+02  0.35814142207E+02  0.16078488290E+03  0.12488748356E+03 0.  0.
         23    2    1    2    0    0 -0.64213880827E+02  0.69633467137E+02 -0.47648241956E+02  0.13800529779E+03  0.88333827155E+02 0.  0.
          5    1    3    3  502    0  0.80637381656E+02 -0.69172166766E+02 -0.14794217801E+02  0.10736915225E+03  0.47000000000E+01 0. -1.
         -5    1    3    3    0  502 -0.16423500829E+02 -0.46130037061E+00  0.50608360007E+02  0.53415730643E+02  0.47000000000E+01 0. -1.
        -11    1    4    4    0    0 -0.51447143962E+02 -0.47109069845E+01 -0.64724597454E+01  0.52066246279E+02  0.00000000000E+00 0.  1.
         11    1    4    4    0    0 -0.12766736865E+02  0.74344374121E+02 -0.41175782210E+02  0.85939051509E+02  0.00000000000E+00 0. -1.
<mgrwt>
<rscale>  0 0.14944428E+03</rscale>
<asrwt>0</asrwt>
<pdfrwt beam="2">  1        1 0.23894175E-01 0.15674542E+03</pdfrwt>
<pdfrwt beam="1">  1       -1 0.22073545E-01 0.15674542E+03</pdfrwt>
<totfact> 0.33743089E+03</totfact>
</mgrwt>
</event>
<event>
 8    1  0.9424564E-006  0.1361144E+03  0.7546771E-02  0.1226979E+00
          3   -1    0    0  501    0  0.00000000000E+00  0.00000000000E+00  0.17964486207E+03  0.17964486207E+03  0.00000000000E+00 0. -1.
         -3   -1    0    0    0  501 -0.00000000000E+00 -0.00000000000E+00 -0.11091311318E+03  0.11091311318E+03  0.00000000000E+00 0.  1.
         23    2    1    2    0    0  0.51971891778E+02 -0.14209182811E+02 -0.30087698418E+02  0.13940011195E+03  0.12499657277E+03 0.  0.
         23    2    1    2    0    0 -0.51971891778E+02  0.14209182811E+02  0.98819447311E+02  0.15115786330E+03  0.10089815687E+03 0.  0.
          5    1    3    3  502    0  0.32948430724E+02 -0.51190161431E+02  0.28513893990E+02  0.67388158196E+02  0.47000000000E+01 0.  1.
         -5    1    3    3    0  502  0.19023461054E+02  0.36980978620E+02 -0.58601592408E+02  0.72011953750E+02  0.47000000000E+01 0.  1.
        -11    1    4    4    0    0  0.22510319488E+02 -0.19334737459E+02  0.12165602031E+02  0.32070990456E+02  0.00000000000E+00 0.  1.
         11    1    4    4    0    0 -0.74482211266E+02  0.33543920270E+02  0.86653845280E+02  0.11908687284E+03  0.00000000000E+00 0. -1.
<mgrwt>
<rscale>  0 0.13032212E+03</rscale>
<asrwt>0</asrwt>
<pdfrwt beam="1">  1        3 0.27637671E-01 0.13611437E+03</pdfrwt>
<pdfrwt beam="2">  1       -3 0.17063556E-01 0.13611437E+03</pdfrwt>
<totfact> 0.85708341E+02</totfact>
</mgrwt>
</event>
<event>
 8    1  0.9424564E-006  0.1770187E+03  0.7546771E-02  0.1176257E+00
         -1   -1    0    0    0  501 -0.00000000000E+00  0.00000000000E+00  0.11624196312E+03  0.11624196312E+03  0.00000000000E+00 0.  1.
          1   -1    0    0  501    0  0.00000000000E+00 -0.00000000000E+00 -0.23893133371E+03  0.23893133371E+03  0.00000000000E+00 0. -1.
         23    2    1    2    0    0 -0.12212607752E+03 -0.28209524111E+02 -0.71474579056E+02  0.19090369237E+03  0.12500019299E+03 0.  0.
         23    2    1    2    0    0  0.12212607752E+03  0.28209524111E+02 -0.51214791541E+02  0.16426960446E+03  0.93010709147E+02 0.  0.
          5    1    3    3  502    0 -0.75636066396E+02 -0.74386227760E+02 -0.65894389243E+02  0.12497314093E+03  0.47000000000E+01 0.  1.
         -5    1    3    3    0  502 -0.46490011126E+02  0.46176703649E+02 -0.55801898130E+01  0.65930551437E+02  0.47000000000E+01 0.  1.
        -11    1    4    4    0    0  0.10258116210E+03 -0.55477266048E+01 -0.37045592972E+01  0.10279783970E+03  0.00000000000E+00 0. -1.
         11    1    4    4    0    0  0.19544915424E+02  0.33757250716E+02 -0.47510232244E+02  0.61471764760E+02  0.00000000000E+00 0.  1.
<mgrwt>
<rscale>  0 0.17153486E+03</rscale>
<asrwt>0</asrwt>
<pdfrwt beam="2">  1        1 0.36758667E-01 0.17701866E+03</pdfrwt>
<pdfrwt beam="1">  1       -1 0.17883379E-01 0.17701866E+03</pdfrwt>
<totfact> 0.27765218E+03</totfact>
</mgrwt>
</event>
<event>
 8    1  0.9424564E-006  0.1334822E+03  0.7546771E-02  0.1235284E+00
         -3   -1    0    0    0  501 -0.00000000000E+00  0.00000000000E+00  0.14011852736E+04  0.14011852736E+04  0.00000000000E+00 0.  1.
          3   -1    0    0  501    0  0.00000000000E+00 -0.00000000000E+00 -0.10324218733E+02  0.10324218733E+02  0.00000000000E+00 0. -1.
         23    2    1    2    0    0 -0.31148483544E+02  0.34944955210E+02  0.92408574942E+03  0.93367659418E+03  0.12500452915E+03 0.  0.
         23    2    1    2    0    0  0.31148483544E+02 -0.34944955210E+02  0.46677530548E+03  0.47783289819E+03  0.90849957990E+02 0.  0.
          5    1    3    3  502    0  0.97805792799E+01  0.70222944256E+02  0.35698735161E+03  0.36399035817E+03  0.47000000000E+01 0.  1.
         -5    1    3    3    0  502 -0.40929062823E+02 -0.35277989047E+02  0.56709839782E+03  0.56968623601E+03  0.47000000000E+01 0.  1.
        -11    1    4    4    0    0 -0.21538655184E+02  0.17401119225E+02  0.14188030891E+03  0.14455702914E+03  0.00000000000E+00 0. -1.
         11    1    4    4    0    0  0.52687138728E+02 -0.52346074434E+02  0.32489499657E+03  0.33327586905E+03  0.00000000000E+00 0.  1.
<mgrwt>
<rscale>  0 0.12486240E+03</rscale>
<asrwt>0</asrwt>
<pdfrwt beam="2">  1        3 0.15883425E-02 0.13348225E+03</pdfrwt>
<pdfrwt beam="1">  1       -3 0.21556681E+00 0.13348225E+03</pdfrwt>
<totfact> 0.40959552E+02</totfact>
</mgrwt>
</event>
<event>
 8    1  0.9424564E-006  0.1256692E+03  0.7546771E-02  0.1248493E+00
         -1   -1    0    0    0  501 -0.00000000000E+00  0.00000000000E+00  0.56728264398E+03  0.56728264398E+03  0.00000000000E+00 0.  1.
          1   -1    0    0  501    0  0.00000000000E+00 -0.00000000000E+00 -0.24693970900E+02  0.24693970900E+02  0.00000000000E+00 0. -1.
         23    2    1    2    0    0 -0.12760810646E+02 -0.51810355039E+00  0.41531482083E+03  0.43391145075E+03  0.12501855850E+03 0.  0.
         23    2    1    2    0    0  0.12760810646E+02  0.51810355039E+00  0.12727385225E+03  0.15806516413E+03  0.92859334081E+02 0.  0.
          5    1    3    3  502    0 -0.19660476349E+02 -0.57029608324E+02  0.13656807803E+03  0.14937148487E+03  0.47000000000E+01 0.  1.
         -5    1    3    3    0  502  0.68996657029E+01  0.56511504773E+02  0.27874674281E+03  0.28453996588E+03  0.47000000000E+01 0.  1.
        -11    1    4    4    0    0  0.13423071278E+02  0.31561284191E+02  0.12179927781E+03  0.12653599321E+03  0.00000000000E+00 0.  1.
         11    1    4    4    0    0 -0.66226063147E+00 -0.31043180641E+02  0.54745744320E+01  0.31529170916E+02  0.00000000000E+00 0. -1.
<mgrwt>
<rscale>  0 0.11678721E+03</rscale>
<asrwt>0</asrwt>
<pdfrwt beam="2">  1        1 0.37990729E-02 0.12566920E+03</pdfrwt>
<pdfrwt beam="1">  1       -1 0.87274243E-01 0.12566920E+03</pdfrwt>
<totfact> 0.31788013E+03</totfact>
</mgrwt>
</event>
<event>
 7    1  0.9424564E-006  0.3188897E+03  0.7546771E-02  0.1083359E+00
         -1   -1    0    0    0  501 -0.00000000000E+00  0.00000000000E+00  0.57955490139E+03  0.57955490139E+03  0.00000000000E+00 0.  1.
          1   -1    0    0  501    0  0.00000000000E+00 -0.00000000000E+00 -0.20190902851E+03  0.20190902851E+03  0.00000000000E+00 0. -1.
         23    2    1    2    0    0  0.22560098283E+03  0.98346699096E+02 -0.29482740338E+02  0.26431369822E+03  0.91785741882E+02 0.  0.
          5    1    1    2  502    0  0.25625187316E+02 -0.10541115739E+02 -0.29542256325E+01  0.28259207262E+02  0.47000000000E+01 0. -1.
         -5    1    1    2    0  502 -0.25122617014E+03 -0.87805583358E+02  0.41008283885E+03  0.48889102442E+03  0.47000000000E+01 0.  1.
        -11    1    3    3    0    0  0.57721525192E+02 -0.81348357857E+01  0.15852485770E+02  0.60409033503E+02  0.00000000000E+00 0.  1.
         11    1    3    3    0    0  0.16787945764E+03  0.10648153488E+03 -0.45335226108E+02  0.20390466472E+03  0.00000000000E+00 0. -1.
<mgrwt>
<rscale>  0 0.30379500E+03</rscale>
<asrwt>0</asrwt>
<pdfrwt beam="2">  1        1 0.31062928E-01 0.31888972E+03</pdfrwt>
<pdfrwt beam="1">  1       -1 0.89162292E-01 0.31888972E+03</pdfrwt>
<totfact> 0.18828305E+02</totfact>
</mgrwt>
</event>
<event>
 8    1  0.9424564E-006  0.1390941E+03  0.7546771E-02  0.1225888E+00
          2   -1    0    0  501    0  0.00000000000E+00  0.00000000000E+00  0.84264071574E+03  0.84264071574E+03  0.00000000000E+00 0.  1.
         -2   -1    0    0    0  501 -0.00000000000E+00 -0.00000000000E+00 -0.18441510648E+02  0.18441510648E+02  0.00000000000E+00 0. -1.
         23    2    1    2    0    0 -0.18140404147E+02 -0.58243111420E+02  0.43155914162E+03  0.45342084979E+03  0.12500336004E+03 0.  0.
         23    2    1    2    0    0  0.18140404147E+02  0.58243111420E+02  0.39264006347E+03  0.40766137660E+03  0.91105676192E+02 0.  0.
          5    1    3    3  502    0 -0.19709355988E+02  0.62477297806E+01  0.34352993260E+03  0.34418366817E+03  0.47000000000E+01 0.  1.
         -5    1    3    3    0  502  0.15689518414E+01 -0.64490841201E+02  0.88029209017E+02  0.10923718162E+03  0.47000000000E+01 0.  1.
        -11    1    4    4    0    0  0.44200375358E+01 -0.24828022907E+02  0.10201235323E+03  0.10508324160E+03  0.00000000000E+00 0. -1.
         11    1    4    4    0    0  0.13720366611E+02  0.83071134327E+02  0.29062771024E+03  0.30257813499E+03  0.00000000000E+00 0.  1.
<mgrwt>
<rscale>  0 0.13106199E+03</rscale>
<asrwt>0</asrwt>
<pdfrwt beam="1">  1        2 0.12963700E+00 0.13909412E+03</pdfrwt>
<pdfrwt beam="2">  1       -2 0.28371561E-02 0.13909412E+03</pdfrwt>
<totfact> 0.14600353E+04</totfact>
</mgrwt>
</event>
<event>
 8    1  0.9424564E-006  0.1328780E+03  0.7546771E-02  0.1238562E+00
         -1   -1    0    0    0  501 -0.00000000000E+00  0.00000000000E+00  0.39816240336E+03  0.39816240336E+03  0.00000000000E+00 0.  1.
          1   -1    0    0  501    0  0.00000000000E+00 -0.00000000000E+00 -0.35712644053E+02  0.35712644053E+02  0.00000000000E+00 0. -1.
         23    2    1    2    0    0 -0.43290856963E+02  0.12671736802E+02  0.26501031326E+03  0.29645745958E+03  0.12498755137E+03 0.  0.
         23    2    1    2    0    0  0.43290856963E+02 -0.12671736802E+02  0.97439446048E+02  0.13741758783E+03  0.85758245023E+02 0.  0.
          5    1    3    3  502    0  0.34487765883E+01  0.44625281505E+02  0.28615394539E+02  0.53331422389E+02  0.47000000000E+01 0. -1.
         -5    1    3    3    0  502 -0.46739633552E+02 -0.31953544703E+02  0.23639491872E+03  0.24312603719E+03  0.47000000000E+01 0. -1.
        -11    1    4    4    0    0 -0.21525123637E+02  0.93272338100E+01  0.46543507012E+02  0.52121265172E+02  0.00000000000E+00 0.  1.
         11    1    4    4    0    0  0.64815980600E+02 -0.21998970612E+02  0.50895939035E+02  0.85296322661E+02  0.00000000000E+00 0. -1.
<mgrwt>
<rscale>  0 0.12279143E+03</rscale>
<asrwt>0</asrwt>
<pdfrwt beam="2">  1        1 0.54942532E-02 0.13287799E+03</pdfrwt>
<pdfrwt beam="1">  1       -1 0.61255751E-01 0.13287799E+03</pdfrwt>
<totfact> 0.39032325E+03</totfact>
</mgrwt>
</event>
<event>
 8    1  0.9424564E-006  0.1519651E+03  0.7546771E-02  0.1207168E+00
          2   -1    0    0  501    0  0.00000000000E+00  0.00000000000E+00  0.10234498884E+04  0.10234498884E+04  0.00000000000E+00 0. -1.
         -2   -1    0    0    0  501 -0.00000000000E+00 -0.00000000000E+00 -0.20247353833E+02  0.20247353833E+02  0.00000000000E+00 0.  1.
         23    2    1    2    0    0 -0.84638855603E+02 -0.17477413142E+02  0.40423397222E+03  0.43185470508E+03  0.12499674459E+03 0.  0.
         23    2    1    2    0    0  0.84638855603E+02  0.17477413142E+02  0.59896856231E+03  0.61184253711E+03  0.90104138285E+02 0.  0.
          5    1    3    3  502    0 -0.10123812478E+03 -0.51155868408E+02  0.31899300110E+03  0.33859224080E+03  0.47000000000E+01 0. -1.
         -5    1    3    3    0  502  0.16599269176E+02  0.33678455266E+02  0.85240971120E+02  0.93262464281E+02  0.47000000000E+01 0. -1.
        -11    1    4    4    0    0 -0.11431833746E+02  0.24582840969E+02  0.97188154228E+02  0.10089866310E+03  0.00000000000E+00 0.  1.
         11    1    4    4    0    0  0.96070689349E+02 -0.71054278268E+01  0.50178040808E+03  0.51094387401E+03  0.00000000000E+00 0. -1.
<mgrwt>
<rscale>  0 0.14467932E+03</rscale>
<asrwt>0</asrwt>
<pdfrwt beam="1">  1        2 0.15745379E+00 0.15196507E+03</pdfrwt>
<pdfrwt beam="2">  1       -2 0.31149783E-02 0.15196507E+03</pdfrwt>
<totfact> 0.98750249E+03</totfact>
</mgrwt>
</event>
<event>
 8    1  0.9424564E-006  0.1690734E+03  0.7546771E-02  0.1185405E+00
          1   -1    0    0  501    0  0.00000000000E+00  0.00000000000E+00  0.33809670825E+03  0.33809670825E+03  0.00000000000E+00 0. -1.
         -1   -1    0    0    0  501 -0.00000000000E+00 -0.00000000000E+00 -0.73417733359E+02  0.73417733359E+02  0.00000000000E+00 0.  1.
         23    2    1    2    0    0 -0.33466905136E+02  0.10881382820E+03  0.13580371677E+03  0.21686044087E+03  0.12500127351E+03 0.  0.
         23    2    1    2    0    0  0.33466905136E+02 -0.10881382820E+03  0.12887525812E+03  0.19465400074E+03  0.91218774938E+02 0.  0.
          5    1    3    3  502    0  0.24477234162E+02  0.10800880832E+03  0.85772758042E+02  0.14015738899E+03  0.47000000000E+01 0. -1.
         -5    1    3    3    0  502 -0.57944139298E+02  0.80501987958E+00  0.50030958724E+02  0.76703051874E+02  0.47000000000E+01 0. -1.
        -11    1    4    4    0    0  0.22586329913E+02 -0.11203373243E+03  0.68547461996E+02  0.13326835351E+03  0.00000000000E+00 0.  1.
         11    1    4    4    0    0  0.10880575224E+02  0.32199042288E+01  0.60327796129E+02  0.61385647233E+02  0.00000000000E+00 0. -1.
<mgrwt>
<rscale>  0 0.16295072E+03</rscale>
<asrwt>0</asrwt>
<pdfrwt beam="1">  1        1 0.52014877E-01 0.16907336E+03</pdfrwt>
<pdfrwt beam="2">  1       -1 0.11295036E-01 0.16907336E+03</pdfrwt>
<totfact> 0.36996079E+03</totfact>
</mgrwt>
</event>
<event>
 7    1  0.9424564E-006  0.1344642E+03  0.7546771E-02  0.1257979E+00
          1   -1    0    0  501    0  0.00000000000E+00  0.00000000000E+00  0.26194103794E+02  0.26194103794E+02  0.00000000000E+00 0. -1.
         -1   -1    0    0    0  501 -0.00000000000E+00 -0.00000000000E+00 -0.37554870007E+03  0.37554870007E+03  0.00000000000E+00 0.  1.
         23    2    1    2    0    0 -0.37914348600E+02 -0.31899714536E+02 -0.25080358918E+03  0.28457520842E+03  0.12500207712E+03 0.  0.
          5    1    3    3  502    0  0.17829767691E-01  0.27279197214E+02 -0.40671337754E+01  0.27978321888E+02  0.47000000000E+01 0.  1.
         -5    1    3    3    0  502 -0.37932178368E+02 -0.59178911750E+02 -0.24673645541E+03  0.25659688653E+03  0.47000000000E+01 0.  1.
        -11    1    1    2    0    0  0.23187999131E+02  0.40036205553E+02 -0.67191959571E+02  0.81580270224E+02  0.00000000000E+00 0.  1.
         11    1    1    2    0    0  0.14726349469E+02 -0.81364910174E+01 -0.31359047523E+02  0.35587325220E+02  0.00000000000E+00 0. -1.
<mgrwt>
<rscale>  0 0.11141107E+03</rscale>
<asrwt>0</asrwt>
<pdfrwt beam="1">  1        1 0.40298623E-02 0.13446415E+03</pdfrwt>
<pdfrwt beam="2">  1       -1 0.57776721E-01 0.13446415E+03</pdfrwt>
<totfact> 0.66706873E+03</totfact>
</mgrwt>
</event>
<event>
 8    1  0.9424564E-006  0.1260989E+03  0.7546771E-02  0.1248651E+00
          1   -1    0    0  501    0  0.00000000000E+00  0.00000000000E+00  0.21648617798E+03  0.21648617798E+03  0.00000000000E+00 0. -1.
         -1   -1    0    0    0  501 -0.00000000000E+00 -0.00000000000E+00 -0.55406447013E+02  0.55406447013E+02  0.00000000000E+00 0.  1.
         23    2    1    2    0    0  0.15086051522E+02  0.70155488942E+01  0.84202801167E+02  0.15162796256E+03  0.12499648166E+03 0.  0.
         23    2    1    2    0    0 -0.15086051522E+02 -0.70155488942E+01  0.76876929805E+02  0.12026466244E+03  0.90976479481E+02 0.  0.
          5    1    3    3  502    0  0.25801682971E+02  0.60154609781E+02  0.68799466450E+02  0.95077655134E+02  0.47000000000E+01 0.  1.
         -5    1    3    3    0  502 -0.10715631449E+02 -0.53139060887E+02  0.15403334717E+02  0.56550307423E+02  0.47000000000E+01 0.  1.
        -11    1    4    4    0    0 -0.49977036713E+02 -0.17840140652E+02  0.30426338952E+02  0.61169738589E+02  0.00000000000E+00 0.  1.
         11    1    4    4    0    0  0.34890985191E+02  0.10824591757E+02  0.46450590854E+02  0.59094923851E+02  0.00000000000E+00 0. -1.
<mgrwt>
<rscale>  0 0.11669482E+03</rscale>
<asrwt>0</asrwt>
<pdfrwt beam="1">  1        1 0.33305566E-01 0.12609888E+03</pdfrwt>
<pdfrwt beam="2">  1       -1 0.85240689E-02 0.12609888E+03</pdfrwt>
<totfact> 0.97124327E+03</totfact>
</mgrwt>
</event>
<event>
 8    1  0.9424564E-006  0.1297516E+03  0.7546771E-02  0.1242056E+00
          1   -1    0    0  501    0  0.00000000000E+00  0.00000000000E+00  0.29763554573E+02  0.29763554573E+02  0.00000000000E+00 0. -1.
         -1   -1    0    0    0  501 -0.00000000000E+00 -0.00000000000E+00 -0.53906856065E+03  0.53906856065E+03  0.00000000000E+00 0.  1.
         23    2    1    2    0    0  0.32136894137E+02 -0.13291394801E+02 -0.41004390827E+03  0.43008310711E+03  0.12500412462E+03 0.  0.
         23    2    1    2    0    0 -0.32136894137E+02  0.13291394801E+02 -0.99261097808E+02  0.13874900811E+03  0.90493538851E+02 0.  0.
          5    1    3    3  502    0  0.64801392174E+01 -0.27850332331E+02 -0.12735057339E+02  0.31652881396E+02  0.47000000000E+01 0.  1.
         -5    1    3    3    0  502  0.25656754920E+02  0.14558937529E+02 -0.39730885093E+03  0.39843022571E+03  0.47000000000E+01 0.  1.
        -11    1    4    4    0    0 -0.62696299402E+00  0.36470129193E+02 -0.51564485383E+01  0.36838191696E+02  0.00000000000E+00 0. -1.
         11    1    4    4    0    0 -0.31509931143E+02 -0.23178734391E+02 -0.94104649270E+02  0.10191081642E+03  0.00000000000E+00 0.  1.
<mgrwt>
<rscale>  0 0.12063322E+03</rscale>
<asrwt>0</asrwt>
<pdfrwt beam="1">  1        1 0.45790086E-02 0.12975158E+03</pdfrwt>
<pdfrwt beam="2">  1       -1 0.82933622E-01 0.12975158E+03</pdfrwt>
<totfact> 0.27412543E+03</totfact>
</mgrwt>
</event>
<event>
 8    1  0.9424564E-006  0.1292816E+03  0.7546771E-02  0.1263198E+00
         -2   -1    0    0    0  501 -0.00000000000E+00  0.00000000000E+00  0.98401612149E+01  0.98401612149E+01  0.00000000000E+00 0.  1.
          2   -1    0    0  501    0  0.00000000000E+00 -0.00000000000E+00 -0.95377528926E+03  0.95377528926E+03  0.00000000000E+00 0. -1.
         23    2    1    2    0    0 -0.31374505027E+02  0.10216493436E+02 -0.64580372548E+03  0.65861687661E+03  0.12500000806E+03 0.  0.
         23    2    1    2    0    0  0.31374505027E+02 -0.10216493436E+02 -0.29813140256E+03  0.30499857386E+03  0.55254507119E+02 0.  0.
          5    1    3    3  502    0 -0.13492089132E+01  0.65661349927E+02 -0.34821621161E+03  0.35438658732E+03  0.47000000000E+01 0. -1.
         -5    1    3    3    0  502 -0.30025296114E+02 -0.55444856491E+02 -0.29758751386E+03  0.30423028930E+03  0.47000000000E+01 0. -1.
        -11    1    4    4    0    0  0.13628699198E+02  0.22717559963E+02 -0.10613445971E+03  0.10939082461E+03  0.00000000000E+00 0.  1.
         11    1    4    4    0    0  0.17745805829E+02 -0.32934053399E+02 -0.19199694286E+03  0.19560774925E+03  0.00000000000E+00 0. -1.
<mgrwt>
<rscale>  0 0.10859284E+03</rscale>
<asrwt>0</asrwt>
<pdfrwt beam="2">  1        2 0.14673464E+00 0.12928162E+03</pdfrwt>
<pdfrwt beam="1">  1       -2 0.15138711E-02 0.12928162E+03</pdfrwt>
<totfact> 0.30771753E+04</totfact>
</mgrwt>
</event>
<event>
 8    1  0.9424564E-006  0.1356999E+03  0.7546771E-02  0.1231181E+00
          4   -1    0    0  501    0  0.00000000000E+00  0.00000000000E+00  0.26238683039E+02  0.26238683039E+02  0.00000000000E+00 0. -1.
         -4   -1    0    0    0  501 -0.00000000000E+00 -0.00000000000E+00 -0.56097526239E+03  0.56097526239E+03  0.00000000000E+00 0.  1.
         23    2    1    2    0    0 -0.52796936154E+02  0.15879508374E+01 -0.32810863790E+03  0.35506300547E+03  0.12499768611E+03 0.  0.
         23    2    1    2    0    0  0.52796936154E+02 -0.15879508374E+01 -0.20662794145E+03  0.23215093996E+03  0.91700134572E+02 0.  0.
          5    1    3    3  502    0 -0.46424594499E+02 -0.53358453513E+02 -0.24554485517E+03  0.25557138618E+03  0.47000000000E+01 0. -1.
         -5    1    3    3    0  502 -0.63723416545E+01  0.54946404350E+02 -0.82563782731E+02  0.99491619286E+02  0.47000000000E+01 0. -1.
        -11    1    4    4    0    0 -0.14401798689E+02  0.27473846984E+02 -0.81133218852E+02  0.86860942171E+02  0.00000000000E+00 0.  1.
         11    1    4    4    0    0  0.67198734842E+02 -0.29061797822E+02 -0.12549472260E+03  0.14528999779E+03  0.00000000000E+00 0. -1.
<mgrwt>
<rscale>  0 0.12752102E+03</rscale>
<asrwt>0</asrwt>
<pdfrwt beam="1">  1        4 0.40367207E-02 0.13569989E+03</pdfrwt>
<pdfrwt beam="2">  1       -4 0.86303882E-01 0.13569989E+03</pdfrwt>
<totfact> 0.66991906E+02</totfact>
</mgrwt>
</event>
<event>
 7    1  0.9424564E-006  0.1220202E+03  0.7546771E-02  0.1283177E+00
          2   -1    0    0  501    0  0.00000000000E+00  0.00000000000E+00  0.75441660077E+02  0.75441660077E+02  0.00000000000E+00 0.  1.
         -2   -1    0    0    0  501 -0.00000000000E+00 -0.00000000000E+00 -0.11626433971E+03  0.11626433971E+03  0.00000000000E+00 0. -1.
         23    2    1    2    0    0 -0.28505014006E+01 -0.21758563688E+02 -0.60254854746E+02  0.13608667761E+03  0.12003072877E+03 0.  0.
          5    1    3    3  502    0 -0.42909117588E+02  0.32059516340E+02 -0.18198441576E+02  0.56765114604E+02  0.47000000000E+01 0. -1.
         -5    1    3    3    0  502  0.40058616188E+02 -0.53818080028E+02 -0.42056413169E+02  0.79321563004E+02  0.47000000000E+01 0.  1.
        -11    1    1    2    0    0 -0.75089123494E+01 -0.12355134813E+02 -0.10615338890E+01  0.14496895361E+02  0.00000000000E+00 0.  1.
         11    1    1    2    0    0  0.10359413750E+02  0.34113698501E+02  0.20493709002E+02  0.41122426817E+02  0.00000000000E+00 0. -1.
<mgrwt>
<rscale>  0 0.98642277E+02</rscale>
<asrwt>0</asrwt>
<pdfrwt beam="1">  1        2 0.11606409E-01 0.12202023E+03</pdfrwt>
<pdfrwt beam="2">  1       -2 0.17886822E-01 0.12202023E+03</pdfrwt>
<totfact> 0.12535872E+04</totfact>
</mgrwt>
</event>
<event>
 8    1  0.9424564E-006  0.1412485E+03  0.7546771E-02  0.1222539E+00
         -2   -1    0    0    0  501 -0.00000000000E+00  0.00000000000E+00  0.40005013251E+02  0.40005013251E+02  0.00000000000E+00 0. -1.
          2   -1    0    0  501    0  0.00000000000E+00 -0.00000000000E+00 -0.40168525628E+03  0.40168525628E+03  0.00000000000E+00 0.  1.
         23    2    1    2    0    0  0.39434255314E+02  0.52613074461E+02 -0.20311626585E+03  0.24740117712E+03  0.12501171502E+03 0.  0.
         23    2    1    2    0    0 -0.39434255314E+02 -0.52613074461E+02 -0.15856397718E+03  0.19428909241E+03  0.91008353866E+02 0.  0.
          5    1    3    3  502    0  0.83083187723E+02  0.24875779991E+02 -0.14852310940E+03  0.17205471380E+03  0.47000000000E+01 0. -1.
         -5    1    3    3    0  502 -0.43648932409E+02  0.27737294471E+02 -0.54593156445E+02  0.75346463326E+02  0.47000000000E+01 0. -1.
        -11    1    4    4    0    0 -0.59448653695E+02 -0.22944119000E+02 -0.14033617339E+03  0.15412597635E+03  0.00000000000E+00 0.  1.
         11    1    4    4    0    0  0.20014398381E+02 -0.29668955461E+02 -0.18227803786E+02  0.40163116059E+02  0.00000000000E+00 0. -1.
<mgrwt>
<rscale>  0 0.13337017E+03</rscale>
<asrwt>0</asrwt>
<pdfrwt beam="2">  1        2 0.61797734E-01 0.14124845E+03</pdfrwt>
<pdfrwt beam="1">  1       -2 0.61546172E-02 0.14124845E+03</pdfrwt>
<totfact> 0.10752508E+04</totfact>
</mgrwt>
</event>
<event>
 8    1  0.9424564E-006  0.1311804E+03  0.7546771E-02  0.1240774E+00
         -2   -1    0    0    0  501 -0.00000000000E+00  0.00000000000E+00  0.12861017207E+03  0.12861017207E+03  0.00000000000E+00 0.  1.
          2   -1    0    0  501    0  0.00000000000E+00 -0.00000000000E+00 -0.10058858042E+03  0.10058858042E+03  0.00000000000E+00 0. -1.
         23    2    1    2    0    0  0.90747008121E+01 -0.38741641026E+02  0.14768660761E+02  0.13200916443E+03  0.12500016484E+03 0.  0.
         23    2    1    2    0    0 -0.90747008121E+01  0.38741641026E+02  0.13252930887E+02  0.97189588053E+02  0.87675030109E+02 0.  0.
          5    1    3    3  502    0 -0.42360321271E+02  0.23678242378E+02  0.14931531724E+02  0.50991142563E+02  0.47000000000E+01 0. -1.
         -5    1    3    3    0  502  0.51435022083E+02 -0.62419883404E+02 -0.16287096347E+00  0.81018021870E+02  0.47000000000E+01 0. -1.
        -11    1    4    4    0    0 -0.11482155879E+02  0.61891730737E+02  0.28775688883E+02  0.69213196053E+02  0.00000000000E+00 0. -1.
         11    1    4    4    0    0  0.24074550671E+01 -0.23150089711E+02 -0.15522757996E+02  0.27976392000E+02  0.00000000000E+00 0.  1.
<mgrwt>
<rscale>  0 0.12141932E+03</rscale>
<asrwt>0</asrwt>
<pdfrwt beam="2">  1        2 0.15475166E-01 0.13118043E+03</pdfrwt>
<pdfrwt beam="1">  1       -2 0.19786180E-01 0.13118043E+03</pdfrwt>
<totfact> 0.75764491E+03</totfact>
</mgrwt>
</event>
<event>
 8    1  0.9424564E-006  0.1290400E+03  0.7546771E-02  0.1241912E+00
         -1   -1    0    0    0  501 -0.00000000000E+00  0.00000000000E+00  0.28630461882E+03  0.28630461882E+03  0.00000000000E+00 0.  1.
          1   -1    0    0  501    0  0.00000000000E+00 -0.00000000000E+00 -0.47311632347E+02  0.47311632347E+02  0.00000000000E+00 0. -1.
         23    2    1    2    0    0  0.20154465928E+02  0.24918275604E+02  0.16837345601E+03  0.21213422502E+03  0.12499674307E+03 0.  0.
         23    2    1    2    0    0 -0.20154465928E+02 -0.24918275604E+02  0.70619530465E+02  0.12148202615E+03  0.93507441626E+02 0.  0.
          5    1    3    3  502    0 -0.45430354006E+02  0.30497074777E+02  0.40498543961E+02  0.68236432336E+02  0.47000000000E+01 0. -1.
         -5    1    3    3    0  502  0.65584819934E+02 -0.55787991728E+01  0.12787491205E+03  0.14389779268E+03  0.47000000000E+01 0. -1.
        -11    1    4    4    0    0 -0.14479737654E+02 -0.60093570801E+02  0.34694467315E+02  0.70884456099E+02  0.00000000000E+00 0.  1.
         11    1    4    4    0    0 -0.56747282741E+01  0.35175295197E+02  0.35925063150E+02  0.50597570055E+02  0.00000000000E+00 0. -1.
<mgrwt>
<rscale>  0 0.12072138E+03</rscale>
<asrwt>0</asrwt>
<pdfrwt beam="2">  1        1 0.72787129E-02 0.12903995E+03</pdfrwt>
<pdfrwt beam="1">  1       -1 0.44046863E-01 0.12903995E+03</pdfrwt>
<totfact> 0.48840955E+03</totfact>
</mgrwt>
</event>
<event>
 8    1  0.9424564E-006  0.1273724E+03  0.7546771E-02  0.1244726E+00
          1   -1    0    0  501    0  0.00000000000E+00  0.00000000000E+00  0.45280480015E+02  0.45280480015E+02  0.00000000000E+00 0. -1.
         -1   -1    0    0    0  501 -0.00000000000E+00 -0.00000000000E+00 -0.31387456633E+03  0.31387456633E+03  0.00000000000E+00 0.  1.
         23    2    1    2    0    0 -0.18672332501E+02  0.15828357473E+02 -0.21040125483E+03  0.24595206554E+03  0.12499815041E+03 0.  0.
         23    2    1    2    0    0  0.18672332501E+02 -0.15828357473E+02 -0.58192831486E+02  0.11320298081E+03  0.93964441821E+02 0.  0.
          5    1    3    3  502    0  0.32689041672E+02  0.49077514036E+02 -0.63684554310E+02  0.86919435611E+02  0.47000000000E+01 0. -1.
         -5    1    3    3    0  502 -0.51361374173E+02 -0.33249156563E+02 -0.14671670052E+03  0.15903262992E+03  0.47000000000E+01 0. -1.
        -11    1    4    4    0    0 -0.18871391378E+02 -0.27139269917E+02  0.10005022005E+02  0.34536500250E+02  0.00000000000E+00 0. -1.
         11    1    4    4    0    0  0.37543723879E+02  0.11310912445E+02 -0.68197853491E+02  0.78666480560E+02  0.00000000000E+00 0.  1.
<mgrwt>
<rscale>  0 0.11901780E+03</rscale>
<asrwt>0</asrwt>
<pdfrwt beam="1">  1        1 0.69662278E-02 0.12737241E+03</pdfrwt>
<pdfrwt beam="2">  1       -1 0.48288394E-01 0.12737241E+03</pdfrwt>
<totfact> 0.43891854E+03</totfact>
</mgrwt>
</event>
<event>
 8    1  0.9424564E-006  0.1275356E+03  0.7546771E-02  0.1239330E+00
         -3   -1    0    0    0  501 -0.00000000000E+00  0.00000000000E+00  0.23377947328E+03  0.23377947328E+03  0.00000000000E+00 0.  1.
          3   -1    0    0  501    0  0.00000000000E+00 -0.00000000000E+00 -0.69750459053E+02  0.69750459053E+02  0.00000000000E+00 0. -1.
         23    2    1    2    0    0  0.57066213001E+02  0.11070064746E+01  0.14647685156E+03  0.19421840545E+03  0.11405061527E+03 0.  0.
         23    2    1    2    0    0 -0.57066213001E+02 -0.11070064746E+01  0.17552162668E+02  0.10931152688E+03  0.91559561845E+02 0.  0.
          5    1    3    3  502    0  0.91066951665E+02 -0.87446624873E+01  0.10016706822E+03  0.13573942082E+03  0.47000000000E+01 0. -1.
         -5    1    3    3    0  502 -0.34000738665E+02  0.98516689619E+01  0.46309783339E+02  0.58478984635E+02  0.47000000000E+01 0.  1.
        -11    1    4    4    0    0  0.74803114766E+01 -0.32176059821E+02  0.18114035535E+02  0.37674555986E+02  0.00000000000E+00 0. -1.
         11    1    4    4    0    0 -0.64546524477E+02  0.31069053346E+02 -0.56187286696E+00  0.71636970895E+02  0.00000000000E+00 0.  1.
<mgrwt>
<rscale>  0 0.12231281E+03</rscale>
<asrwt>0</asrwt>
<pdfrwt beam="2">  1        3 0.10730840E-01 0.12753557E+03</pdfrwt>
<pdfrwt beam="1">  1       -3 0.35966072E-01 0.12753557E+03</pdfrwt>
<totfact> 0.11396437E+03</totfact>
</mgrwt>
</event>
<event>
 8    1  0.9424564E-006  0.2100769E+03  0.7546771E-02  0.1145299E+00
         -1   -1    0    0    0  501 -0.00000000000E+00  0.00000000000E+00  0.36129632389E+02  0.36129632389E+02  0.00000000000E+00 0. -1.
          1   -1    0    0  501    0  0.00000000000E+00 -0.00000000000E+00 -0.11271985639E+04  0.11271985639E+04  0.00000000000E+00 0.  1.
         23    2    1    2    0    0 -0.11141083380E+03  0.12687299480E+03 -0.51648626256E+03  0.55757544489E+03  0.12499274631E+03 0.  0.
         23    2    1    2    0    0  0.11141083380E+03 -0.12687299480E+03 -0.57458266893E+03  0.60575275138E+03  0.91005613405E+02 0.  0.
          5    1    3    3  502    0 -0.10313969154E+03  0.67725229479E+02 -0.19683523365E+03  0.23235899355E+03  0.47000000000E+01 0. -1.
         -5    1    3    3    0  502 -0.82711422660E+01  0.59147765321E+02 -0.31965102891E+03  0.32521645134E+03  0.47000000000E+01 0. -1.
        -11    1    4    4    0    0  0.46222681612E+02 -0.40401798116E+00 -0.19435196902E+03  0.19977334003E+03  0.00000000000E+00 0.  1.
         11    1    4    4    0    0  0.65188152190E+02 -0.12646897682E+03 -0.38023069991E+03  0.40597941135E+03  0.00000000000E+00 0. -1.
<mgrwt>
<rscale>  0 0.20535331E+03</rscale>
<asrwt>0</asrwt>
<pdfrwt beam="2">  1        1 0.17341517E+00 0.21007693E+03</pdfrwt>
<pdfrwt beam="1">  1       -1 0.55584048E-02 0.21007693E+03</pdfrwt>
<totfact> 0.19320300E+03</totfact>
</mgrwt>
</event>
<event>
 8    1  0.9424564E-006  0.4566712E+03  0.7546771E-02  0.1026333E+00
          2   -1    0    0  501    0  0.00000000000E+00  0.00000000000E+00  0.75502631905E+03  0.75502631905E+03  0.00000000000E+00 0. -1.
         -2   -1    0    0    0  501 -0.00000000000E+00 -0.00000000000E+00 -0.29217258909E+03  0.29217258909E+03  0.00000000000E+00 0.  1.
         23    2    1    2    0    0  0.66529710104E+02 -0.43416383871E+03  0.37266503627E+03  0.58943006144E+03  0.12499650753E+03 0.  0.
         23    2    1    2    0    0 -0.66529710104E+02  0.43416383871E+03  0.90188693691E+02  0.45776884671E+03  0.92162223151E+02 0.  0.
          5    1    3    3  502    0  0.14146798633E+02 -0.33720314446E+03  0.22721725236E+03  0.40688556415E+03  0.47000000000E+01 0. -1.
         -5    1    3    3    0  502  0.52382911471E+02 -0.96960694252E+02  0.14544778391E+03  0.18254449729E+03  0.47000000000E+01 0. -1.
        -11    1    4    4    0    0 -0.86160763395E+02  0.31780011519E+03  0.82832537186E+02  0.33953176520E+03  0.00000000000E+00 0.  1.
         11    1    4    4    0    0  0.19631053291E+02  0.11636372352E+03  0.73561565045E+01  0.11823708150E+03  0.00000000000E+00 0. -1.
<mgrwt>
<rscale>  0 0.45468966E+03</rscale>
<asrwt>0</asrwt>
<pdfrwt beam="1">  1        2 0.11615789E+00 0.45667118E+03</pdfrwt>
<pdfrwt beam="2">  1       -2 0.44949629E-01 0.45667118E+03</pdfrwt>
<totfact> 0.17967118E+02</totfact>
</mgrwt>
</event>
<event>
 8    1  0.9424564E-006  0.1613301E+03  0.7546771E-02  0.1194650E+00
         -2   -1    0    0    0  501 -0.00000000000E+00  0.00000000000E+00  0.46609448504E+02  0.46609448504E+02  0.00000000000E+00 0.  1.
          2   -1    0    0  501    0  0.00000000000E+00 -0.00000000000E+00 -0.47738968143E+03  0.47738968143E+03  0.00000000000E+00 0. -1.
         23    2    1    2    0    0 -0.48448652881E+02 -0.89758596558E+02 -0.22581725362E+03  0.27752625060E+03  0.12499404031E+03 0.  0.
         23    2    1    2    0    0  0.48448652881E+02  0.89758596558E+02 -0.20496297930E+03  0.24647287934E+03  0.91297205555E+02 0.  0.
          5    1    3    3  502    0 -0.70747282722E+02 -0.23224302184E+01 -0.96591277414E+02  0.11984380070E+03  0.47000000000E+01 0.  1.
         -5    1    3    3    0  502  0.22298629841E+02 -0.87436166339E+02 -0.12922597621E+03  0.15768244989E+03  0.47000000000E+01 0.  1.
        -11    1    4    4    0    0  0.36235374042E+02  0.71195130034E+02 -0.20912658636E+03  0.22386531217E+03  0.00000000000E+00 0.  1.
         11    1    4    4    0    0  0.12213278839E+02  0.18563466524E+02  0.41636070553E+01  0.22607567164E+02  0.00000000000E+00 0. -1.
<mgrwt>
<rscale>  0 0.15483885E+03</rscale>
<asrwt>0</asrwt>
<pdfrwt beam="2">  1        2 0.73444562E-01 0.16133006E+03</pdfrwt>
<pdfrwt beam="1">  1       -2 0.71706848E-02 0.16133006E+03</pdfrwt>
<totfact> 0.71211650E+03</totfact>
</mgrwt>
</event>
<event>
 8    1  0.2430932E-005  0.3371493E+03  0.7546771E-02  0.1069359E+00
         -1   -1    0    0    0  501 -0.00000000000E+00  0.00000000000E+00  0.10503419094E+03  0.10503419094E+03  0.00000000000E+00 0.  1.
          1   -1    0    0  501    0  0.00000000000E+00 -0.00000000000E+00 -0.11649534475E+04  0.11649534475E+04  0.00000000000E+00 0. -1.
         23    2    1    2    0    0  0.38652211984E+02 -0.31072610178E+03 -0.33357758773E+03  0.47428223834E+03  0.12499972298E+03 0.  0.
         23    2    1    2    0    0 -0.38652211984E+02  0.31072610178E+03 -0.72634166887E+03  0.79570540015E+03  0.86776494910E+02 0.  0.
          5    1    3    3  502    0 -0.10846780554E+01 -0.25061779667E+03 -0.30926075243E+03  0.39808888395E+03  0.47000000000E+01 0.  1.
         -5    1    3    3    0  502  0.39736890039E+02 -0.60108305107E+02 -0.24316835304E+02  0.76193354383E+02  0.47000000000E+01 0.  1.
        -11    1    4    4    0    0  0.20137663036E+02  0.89521551826E+02 -0.27027842523E+03  0.28542960754E+03  0.00000000000E+00 0. -1.
         11    1    4    4    0    0 -0.58789875020E+02  0.22120454996E+03 -0.45606324364E+03  0.51027579261E+03  0.00000000000E+00 0.  1.
<mgrwt>
<rscale>  0 0.33405020E+03</rscale>
<asrwt>0</asrwt>
<pdfrwt beam="2">  1        1 0.17922361E+00 0.33714928E+03</pdfrwt>
<pdfrwt beam="1">  1       -1 0.16159106E-01 0.33714928E+03</pdfrwt>
<totfact> 0.34488073E+02</totfact>
</mgrwt>
</event>
<event>
 8    1  0.9424564E-006  0.1219025E+03  0.7546771E-02  0.1254449E+00
         -1   -1    0    0    0  501 -0.00000000000E+00  0.00000000000E+00  0.45246467316E+03  0.45246467316E+03  0.00000000000E+00 0.  1.
          1   -1    0    0  501    0  0.00000000000E+00 -0.00000000000E+00 -0.34387392672E+02  0.34387392672E+02  0.00000000000E+00 0. -1.
         23    2    1    2    0    0  0.43557459108E+02 -0.21950435906E+02  0.35661598147E+03  0.37687555098E+03  0.11171906196E+03 0.  0.
         23    2    1    2    0    0 -0.43557459108E+02  0.21950435906E+02  0.61461299014E+02  0.10997651485E+03  0.77060162611E+02 0.  0.
          5    1    3    3  502    0 -0.21057084377E+02  0.31317501524E+02  0.11137943182E+03  0.11769305220E+03  0.47000000000E+01 0. -1.
         -5    1    3    3    0  502  0.64614543485E+02 -0.53267937430E+02  0.24523654965E+03  0.25918249878E+03  0.47000000000E+01 0.  1.
        -11    1    4    4    0    0  0.16695990497E+02  0.13458872852E+02 -0.26239118962E+01  0.21605144544E+02  0.00000000000E+00 0. -1.
         11    1    4    4    0    0 -0.60253449604E+02  0.84915630535E+01  0.64085210910E+02  0.88371370306E+02  0.00000000000E+00 0.  1.
<mgrwt>
<rscale>  0 0.11337246E+03</rscale>
<asrwt>0</asrwt>
<pdfrwt beam="2">  1        1 0.52903684E-02 0.12190251E+03</pdfrwt>
<pdfrwt beam="1">  1       -1 0.69609945E-01 0.12190251E+03</pdfrwt>
<totfact> 0.31911825E+03</totfact>
</mgrwt>
</event>
<event>
 8    1  0.9424564E-006  0.1480881E+03  0.7546771E-02  0.1212040E+00
         -2   -1    0    0    0  501 -0.00000000000E+00  0.00000000000E+00  0.58444377622E+02  0.58444377622E+02  0.00000000000E+00 0.  1.
          2   -1    0    0  501    0  0.00000000000E+00 -0.00000000000E+00 -0.41782379336E+03  0.41782379336E+03  0.00000000000E+00 0. -1.
         23    2    1    2    0    0 -0.78664755454E+02 -0.10400205722E+02 -0.72900888801E+02  0.16505943300E+03  0.12503507030E+03 0.  0.
         23    2    1    2    0    0  0.78664755454E+02  0.10400205722E+02 -0.28647852693E+03  0.31120873798E+03  0.92112019684E+02 0.  0.
          5    1    3    3  502    0 -0.10330335855E+03 -0.18335472767E+02 -0.21332221166E+02  0.10716775219E+03  0.47000000000E+01 0.  1.
         -5    1    3    3    0  502  0.24638603096E+02  0.79352670449E+01 -0.51568667635E+02  0.57891680812E+02  0.47000000000E+01 0.  1.
        -11    1    4    4    0    0 -0.20523416930E+02  0.59296403011E+01 -0.37420689512E+02  0.43089201433E+02  0.00000000000E+00 0.  1.
         11    1    4    4    0    0  0.99188172384E+02  0.44705654209E+01 -0.24905783742E+03  0.26811953655E+03  0.00000000000E+00 0. -1.
<mgrwt>
<rscale>  0 0.14096224E+03</rscale>
<asrwt>0</asrwt>
<pdfrwt beam="2">  1        2 0.64280583E-01 0.14808807E+03</pdfrwt>
<pdfrwt beam="1">  1       -2 0.89914427E-02 0.14808807E+03</pdfrwt>
<totfact> 0.57677425E+03</totfact>
</mgrwt>
</event>
<event>
 8    1  0.9424564E-006  0.1345104E+03  0.7546771E-02  0.1232823E+00
         -2   -1    0    0    0  501 -0.00000000000E+00  0.00000000000E+00  0.21051498440E+03  0.21051498440E+03  0.00000000000E+00 0.  1.
          2   -1    0    0  501    0  0.00000000000E+00 -0.00000000000E+00 -0.11605126103E+03  0.11605126103E+03  0.00000000000E+00 0. -1.
         23    2    1    2    0    0 -0.41952289591E+02  0.26604382313E+02  0.15507790254E+03  0.20528568633E+03  0.12500107757E+03 0.  0.
         23    2    1    2    0    0  0.41952289591E+02 -0.26604382313E+02 -0.60614179180E+02  0.12128055910E+03  0.92558670787E+02 0.  0.
          5    1    3    3  502    0  0.19151978106E+01  0.40826349452E+02 -0.23180371498E+01  0.41205850172E+02  0.47000000000E+01 0. -1.
         -5    1    3    3    0  502 -0.43867487402E+02 -0.14221967139E+02  0.15739593969E+03  0.16407983615E+03  0.47000000000E+01 0. -1.
        -11    1    4    4    0    0 -0.25577246108E+02  0.10153100679E+02 -0.10237905674E+02  0.29361465980E+02  0.00000000000E+00 0. -1.
         11    1    4    4    0    0  0.67529535700E+02 -0.36757482993E+02 -0.50376273506E+02  0.91919093121E+02  0.00000000000E+00 0.  1.
<mgrwt>
<rscale>  0 0.12644830E+03</rscale>
<asrwt>0</asrwt>
<pdfrwt beam="2">  1        2 0.17854040E-01 0.13451044E+03</pdfrwt>
<pdfrwt beam="1">  1       -2 0.32386921E-01 0.13451044E+03</pdfrwt>
<totfact> 0.27144563E+03</totfact>
</mgrwt>
</event>
<event>
 8    1  0.9424564E-006  0.1663763E+03  0.7546771E-02  0.1188582E+00
          2   -1    0    0  501    0  0.00000000000E+00  0.00000000000E+00  0.15395929654E+04  0.15395929654E+04  0.00000000000E+00 0. -1.
         -2   -1    0    0    0  501 -0.00000000000E+00 -0.00000000000E+00 -0.15806142069E+02  0.15806142069E+02  0.00000000000E+00 0.  1.
         23    2    1    2    0    0 -0.26471404949E+01  0.10976004870E+03  0.71277582365E+03  0.73193610520E+03  0.12500724651E+03 0.  0.
         23    2    1    2    0    0  0.26471404949E+01 -0.10976004870E+03  0.81101099969E+03  0.82346300227E+03  0.91094450157E+02 0.  0.
          5    1    3    3  502    0  0.15072090644E+02  0.12802207547E+03  0.45702905712E+03  0.47488363709E+03  0.47000000000E+01 0.  1.
         -5    1    3    3    0  502 -0.17719231139E+02 -0.18262026769E+02  0.25574676653E+03  0.25705246811E+03  0.47000000000E+01 0.  1.
        -11    1    4    4    0    0 -0.35361067167E+02 -0.95633557111E+02  0.59702746552E+03  0.60567150908E+03  0.00000000000E+00 0. -1.
         11    1    4    4    0    0  0.38008207661E+02 -0.14126491589E+02  0.21398353416E+03  0.21779149319E+03  0.00000000000E+00 0.  1.
<mgrwt>
<rscale>  0 0.16010166E+03</rscale>
<asrwt>0</asrwt>
<pdfrwt beam="1">  1        2 0.23686034E+00 0.16637634E+03</pdfrwt>
<pdfrwt beam="2">  1       -2 0.24317154E-02 0.16637634E+03</pdfrwt>
<totfact> 0.74246502E+03</totfact>
</mgrwt>
</event>
<event>
 8    1  0.9424564E-006  0.1277190E+03  0.7546771E-02  0.1246171E+00
          2   -1    0    0  501    0  0.00000000000E+00  0.00000000000E+00  0.98217081489E+02  0.98217081489E+02  0.00000000000E+00 0. -1.
         -2   -1    0    0    0  501 -0.00000000000E+00 -0.00000000000E+00 -0.13022144087E+03  0.13022144087E+03  0.00000000000E+00 0.  1.
         23    2    1    2    0    0 -0.19883548860E+02  0.17111579654E+02 -0.41775981105E+02  0.13437776781E+03  0.12499596078E+03 0.  0.
         23    2    1    2    0    0  0.19883548860E+02 -0.17111579654E+02  0.97716217232E+01  0.94060754548E+02  0.89798548326E+02 0.  0.
          5    1    3    3  502    0 -0.66036392016E+02  0.36287143067E+02 -0.13279895677E+02  0.76655120192E+02  0.47000000000E+01 0.  1.
         -5    1    3    3    0  502  0.46152843155E+02 -0.19175563413E+02 -0.28496085428E+02  0.57722647620E+02  0.47000000000E+01 0.  1.
        -11    1    4    4    0    0  0.50967984437E+02  0.34959328363E+01  0.20814626737E+02  0.55165257818E+02  0.00000000000E+00 0.  1.
         11    1    4    4    0    0 -0.31084435576E+02 -0.20607512490E+02 -0.11043005014E+02  0.38895496730E+02  0.00000000000E+00 0. -1.
<mgrwt>
<rscale>  0 0.11815572E+03</rscale>
<asrwt>0</asrwt>
<pdfrwt beam="1">  1        2 0.15110320E-01 0.12771903E+03</pdfrwt>
<pdfrwt beam="2">  1       -2 0.20034068E-01 0.12771903E+03</pdfrwt>
<totfact> 0.76120507E+03</totfact>
</mgrwt>
</event>
<event>
 8    1  0.9424564E-006  0.2552091E+03  0.7546771E-02  0.1112429E+00
         -1   -1    0    0    0  501 -0.00000000000E+00  0.00000000000E+00  0.63592516527E+02  0.63592516527E+02  0.00000000000E+00 0.  1.
          1   -1    0    0  501    0  0.00000000000E+00 -0.00000000000E+00 -0.97881202170E+03  0.97881202170E+03  0.00000000000E+00 0. -1.
         23    2    1    2    0    0  0.19544656644E+03 -0.10633064983E+03 -0.40964847566E+03  0.48264228043E+03  0.12500451921E+03 0.  0.
         23    2    1    2    0    0 -0.19544656644E+03  0.10633064983E+03 -0.50557102951E+03  0.55976225779E+03  0.90698136356E+02 0.  0.
          5    1    3    3  502    0  0.88005738803E+02 -0.78679907760E+02 -0.31606973472E+03  0.33742807405E+03  0.47000000000E+01 0.  1.
         -5    1    3    3    0  502  0.10744082764E+03 -0.27650742072E+02 -0.93578740936E+02  0.14521420639E+03  0.47000000000E+01 0.  1.
        -11    1    4    4    0    0 -0.47361482451E+02 -0.13765856475E+02 -0.11537694032E+03  0.12547687908E+03  0.00000000000E+00 0.  1.
         11    1    4    4    0    0 -0.14808508399E+03  0.12009650631E+03 -0.39019408919E+03  0.43428537872E+03  0.00000000000E+00 0. -1.
<mgrwt>
<rscale>  0 0.25139056E+03</rscale>
<asrwt>0</asrwt>
<pdfrwt beam="2">  1        1 0.15058646E+00 0.25520912E+03</pdfrwt>
<pdfrwt beam="1">  1       -1 0.97834642E-02 0.25520912E+03</pdfrwt>
<totfact> 0.10483193E+03</totfact>
</mgrwt>
</event>
<event>
 7    1  0.9424564E-006  0.1840400E+03  0.7546771E-02  0.1184617E+00
          1   -1    0    0  501    0  0.00000000000E+00  0.00000000000E+00  0.48090333262E+03  0.48090333262E+03  0.00000000000E+00 0. -1.
         -1   -1    0    0    0  501 -0.00000000000E+00 -0.00000000000E+00 -0.50653137350E+02  0.50653137350E+02  0.00000000000E+00 0.  1.
         23    2    1    2    0    0  0.63805914142E+02  0.23575129043E+02  0.24362016592E+03  0.26944679515E+03  0.92864464613E+02 0.  0.
          5    1    1    2  502    0 -0.46570977427E+02 -0.90426728376E+02  0.15633652557E+03  0.18657183167E+03  0.47000000000E+01 0. -1.
         -5    1    1    2    0  502 -0.17234936715E+02  0.66851599332E+02  0.30293503784E+02  0.75537843154E+02  0.47000000000E+01 0.  1.
        -11    1    3    3    0    0  0.73850469676E+02 -0.14899615589E+02  0.15782454339E+03  0.17488418142E+03  0.00000000000E+00 0. -1.
         11    1    3    3    0    0 -0.10044555534E+02  0.38474744633E+02  0.85795622528E+02  0.94562613730E+02  0.00000000000E+00 0.  1.
<mgrwt>
<rscale>  0 0.16366822E+03</rscale>
<asrwt>0</asrwt>
<pdfrwt beam="1">  1        1 0.73985125E-01 0.18403998E+03</pdfrwt>
<pdfrwt beam="2">  1       -1 0.77927907E-02 0.18403998E+03</pdfrwt>
<totfact> 0.41816743E+03</totfact>
</mgrwt>
</event>
<event>
 8    1  0.9424564E-006  0.1769668E+03  0.7546771E-02  0.1176701E+00
          2   -1    0    0  501    0  0.00000000000E+00  0.00000000000E+00  0.22224741747E+03  0.22224741747E+03  0.00000000000E+00 0. -1.
         -2   -1    0    0    0  501 -0.00000000000E+00 -0.00000000000E+00 -0.12921530854E+03  0.12921530854E+03  0.00000000000E+00 0.  1.
         23    2    1    2    0    0 -0.54464542164E+02 -0.11281670706E+03  0.13305426261E+02  0.17746627112E+03  0.12499298889E+03 0.  0.
         23    2    1    2    0    0  0.54464542164E+02  0.11281670706E+03  0.79726682668E+02  0.17399645488E+03  0.90688624635E+02 0.  0.
          5    1    3    3  502    0 -0.66509247344E+02 -0.80375070585E+02  0.59007546231E+02  0.11994837417E+03  0.47000000000E+01 0.  1.
         -5    1    3    3    0  502  0.12044705179E+02 -0.32441636474E+02 -0.45702119970E+02  0.57517896951E+02  0.47000000000E+01 0.  1.
        -11    1    4    4    0    0  0.40560898819E+02  0.33552946669E+02 -0.98786138897E+01  0.53559067912E+02  0.00000000000E+00 0.  1.
         11    1    4    4    0    0  0.13903643345E+02  0.79263760390E+02  0.89605296558E+02  0.12043738697E+03  0.00000000000E+00 0. -1.
<mgrwt>
<rscale>  0 0.17110409E+03</rscale>
<asrwt>0</asrwt>
<pdfrwt beam="1">  1        2 0.34191910E-01 0.17696679E+03</pdfrwt>
<pdfrwt beam="2">  1       -2 0.19879278E-01 0.17696679E+03</pdfrwt>
<totfact> 0.31522936E+03</totfact>
</mgrwt>
</event>
<event>
 8    1  0.9424564E-006  0.1719155E+03  0.7546771E-02  0.1182483E+00
         -1   -1    0    0    0  501 -0.00000000000E+00  0.00000000000E+00  0.56965873604E+02  0.56965873604E+02  0.00000000000E+00 0.  1.
          1   -1    0    0  501    0  0.00000000000E+00 -0.00000000000E+00 -0.58377128250E+03  0.58377128250E+03  0.00000000000E+00 0. -1.
         23    2    1    2    0    0 -0.56276575353E+02 -0.10374754112E+03 -0.12516030914E+03  0.21265001979E+03  0.12499729082E+03 0.  0.
         23    2    1    2    0    0  0.56276575353E+02  0.10374754112E+03 -0.40164509975E+03  0.42808713631E+03  0.89494161231E+02 0.  0.
          5    1    3    3  502    0 -0.78243092297E+01 -0.11263814382E+03 -0.52174625153E+02  0.12447028870E+03  0.47000000000E+01 0. -1.
         -5    1    3    3    0  502 -0.48452266123E+02  0.88906027010E+01 -0.72985683989E+02  0.88179731096E+02  0.47000000000E+01 0. -1.
        -11    1    4    4    0    0 -0.16922520576E+02  0.45731384517E+02 -0.20002904906E+03  0.20588674484E+03  0.00000000000E+00 0. -1.
         11    1    4    4    0    0  0.73199095929E+02  0.58016156604E+02 -0.20161605069E+03  0.22220039147E+03  0.00000000000E+00 0.  1.
<mgrwt>
<rscale>  0 0.16563050E+03</rscale>
<asrwt>0</asrwt>
<pdfrwt beam="2">  1        1 0.89810968E-01 0.17191547E+03</pdfrwt>
<pdfrwt beam="1">  1       -1 0.87639804E-02 0.17191547E+03</pdfrwt>
<totfact> 0.26941645E+03</totfact>
</mgrwt>
</event>
<event>
 8    1  0.9424564E-006  0.1682430E+03  0.7546771E-02  0.1187448E+00
          2   -1    0    0  501    0  0.00000000000E+00  0.00000000000E+00  0.52645781809E+03  0.52645781809E+03  0.00000000000E+00 0. -1.
         -2   -1    0    0    0  501 -0.00000000000E+00 -0.00000000000E+00 -0.66283110399E+02  0.66283110399E+02  0.00000000000E+00 0.  1.
         23    2    1    2    0    0  0.11095220730E+03  0.19246268526E+02  0.78435635828E+02  0.18562825924E+03  0.12499956201E+03 0.  0.
         23    2    1    2    0    0 -0.11095220730E+03 -0.19246268526E+02  0.38173907186E+03  0.40711266925E+03  0.85645754836E+02 0.  0.
          5    1    3    3  502    0  0.54448322874E+02  0.65902245105E+02  0.72097560508E+02  0.11192798580E+03  0.47000000000E+01 0.  1.
         -5    1    3    3    0  502  0.56503884429E+02 -0.46655976579E+02  0.63380753201E+01  0.73700273438E+02  0.47000000000E+01 0.  1.
        -11    1    4    4    0    0 -0.24403749438E+02 -0.33771324355E+02  0.21171272166E+03  0.21577377470E+03  0.00000000000E+00 0. -1.
         11    1    4    4    0    0 -0.86548457865E+02  0.14525055828E+02  0.17002635021E+03  0.19133889456E+03  0.00000000000E+00 0.  1.
<mgrwt>
<rscale>  0 0.16111089E+03</rscale>
<asrwt>0</asrwt>
<pdfrwt beam="1">  1        2 0.80993508E-01 0.16824298E+03</pdfrwt>
<pdfrwt beam="2">  1       -2 0.10197402E-01 0.16824298E+03</pdfrwt>
<totfact> 0.36971484E+03</totfact>
</mgrwt>
</event>
<event>
 8    1  0.9424564E-006  0.1359655E+03  0.7546771E-02  0.1230714E+00
         -3   -1    0    0    0  501 -0.00000000000E+00  0.00000000000E+00  0.37222040686E+03  0.37222040686E+03  0.00000000000E+00 0.  1.
          3   -1    0    0  501    0  0.00000000000E+00 -0.00000000000E+00 -0.40702772026E+02  0.40702772026E+02  0.00000000000E+00 0. -1.
         23    2    1    2    0    0  0.53089200637E+02  0.65156416747E+01  0.22218321929E+03  0.26048415643E+03  0.12500278399E+03 0.  0.
         23    2    1    2    0    0 -0.53089200637E+02 -0.65156416747E+01  0.10933441554E+03  0.15243902246E+03  0.91775401581E+02 0.  0.
          5    1    3    3  502    0  0.92256498818E+02 -0.82204369193E+01  0.16755881977E+03  0.19151210207E+03  0.47000000000E+01 0.  1.
         -5    1    3    3    0  502 -0.39167298181E+02  0.14736078594E+02  0.54624399518E+02  0.68972054354E+02  0.47000000000E+01 0.  1.
        -11    1    4    4    0    0 -0.20544038746E+02 -0.35094613804E+02  0.10025071723E+03  0.10818454488E+03  0.00000000000E+00 0.  1.
         11    1    4    4    0    0 -0.32545161891E+02  0.28578972130E+02  0.90836983120E+01  0.44254477576E+02  0.00000000000E+00 0. -1.
<mgrwt>
<rscale>  0 0.12782849E+03</rscale>
<asrwt>0</asrwt>
<pdfrwt beam="2">  1        3 0.62619652E-02 0.13596548E+03</pdfrwt>
<pdfrwt beam="1">  1       -3 0.57264676E-01 0.13596548E+03</pdfrwt>
<totfact> 0.11103773E+03</totfact>
</mgrwt>
</event>
<event>
 8    1  0.9424564E-006  0.1409614E+03  0.7546771E-02  0.1224225E+00
         -1   -1    0    0    0  501 -0.00000000000E+00  0.00000000000E+00  0.48086148861E+02  0.48086148861E+02  0.00000000000E+00 0.  1.
          1   -1    0    0  501    0  0.00000000000E+00 -0.00000000000E+00 -0.53652488251E+03  0.53652488251E+03  0.00000000000E+00 0. -1.
         23    2    1    2    0    0  0.20391712230E+02  0.61881906543E+02 -0.80459901433E+02  0.16230807450E+03  0.12499969209E+03 0.  0.
         23    2    1    2    0    0 -0.20391712230E+02 -0.61881906543E+02 -0.40797883222E+03  0.42230295687E+03  0.87452087240E+02 0.  0.
          5    1    3    3  502    0  0.69531730248E+02  0.27892589526E+02 -0.21147698276E+02  0.77987006637E+02  0.47000000000E+01 0.  1.
         -5    1    3    3    0  502 -0.49140018018E+02  0.33989317017E+02 -0.59312203157E+02  0.84321067862E+02  0.47000000000E+01 0.  1.
        -11    1    4    4    0    0  0.31243749638E+02 -0.77144759209E+01 -0.88304116209E+02  0.93985647679E+02  0.00000000000E+00 0.  1.
         11    1    4    4    0    0 -0.51635461868E+02 -0.54167430622E+02 -0.31967471601E+03  0.32831730919E+03  0.00000000000E+00 0. -1.
<mgrwt>
<rscale>  0 0.13220164E+03</rscale>
<asrwt>0</asrwt>
<pdfrwt beam="2">  1        1 0.82542285E-01 0.14096140E+03</pdfrwt>
<pdfrwt beam="1">  1       -1 0.73978695E-02 0.14096140E+03</pdfrwt>
<totfact> 0.38722617E+03</totfact>
</mgrwt>
</event>
<event>
 8    1  0.9424564E-006  0.1411386E+03  0.7546771E-02  0.1228089E+00
          2   -1    0    0  501    0  0.00000000000E+00  0.00000000000E+00  0.22741716274E+03  0.22741716274E+03  0.00000000000E+00 0. -1.
         -2   -1    0    0    0  501 -0.00000000000E+00 -0.00000000000E+00 -0.74548596775E+02  0.74548596775E+02  0.00000000000E+00 0.  1.
         23    2    1    2    0    0  0.20643720162E+01  0.65508688823E+02  0.31627291999E+02  0.14463884175E+03  0.12499783599E+03 0.  0.
         23    2    1    2    0    0 -0.20643720162E+01 -0.65508688823E+02  0.12124127397E+03  0.15732691776E+03  0.75872673580E+02 0.  0.
          5    1    3    3  502    0 -0.63574679890E+01  0.76764379491E+02  0.69572113458E+02  0.10390166663E+03  0.47000000000E+01 0. -1.
         -5    1    3    3    0  502  0.84218400052E+01 -0.11255690667E+02 -0.37944821459E+02  0.40737175123E+02  0.47000000000E+01 0. -1.
        -11    1    4    4    0    0 -0.42293996732E+01 -0.55471079080E+02  0.13151740576E+03  0.14279970747E+03  0.00000000000E+00 0. -1.
         11    1    4    4    0    0  0.21650276570E+01 -0.10037609744E+02 -0.10276131795E+02  0.14527210289E+02  0.00000000000E+00 0.  1.
<mgrwt>
<rscale>  0 0.12957393E+03</rscale>
<asrwt>0</asrwt>
<pdfrwt beam="1">  1        2 0.34987256E-01 0.14113862E+03</pdfrwt>
<pdfrwt beam="2">  1       -2 0.11469015E-01 0.14113862E+03</pdfrwt>
<totfact> 0.74939414E+03</totfact>
</mgrwt>
</event>
<event>
 8    1  0.9424564E-006  0.1584166E+03  0.7546771E-02  0.1199122E+00
          2   -1    0    0  501    0  0.00000000000E+00  0.00000000000E+00  0.37259121158E+03  0.37259121158E+03  0.00000000000E+00 0. -1.
         -2   -1    0    0    0  501 -0.00000000000E+00 -0.00000000000E+00 -0.77629138634E+02  0.77629138634E+02  0.00000000000E+00 0.  1.
         23    2    1    2    0    0  0.45713010547E+02 -0.85904823368E+02  0.39807333432E+02  0.16334149815E+03  0.12500601270E+03 0.  0.
         23    2    1    2    0    0 -0.45713010547E+02  0.85904823368E+02  0.25515473951E+03  0.28687885206E+03  0.87898900195E+02 0.  0.
          5    1    3    3  502    0  0.23599576034E+02 -0.97983591114E+02 -0.15787170164E+02  0.10212271470E+03  0.47000000000E+01 0.  1.
         -5    1    3    3    0  502  0.22113434512E+02  0.12078767746E+02  0.55594503596E+02  0.61218783444E+02  0.47000000000E+01 0.  1.
        -11    1    4    4    0    0 -0.18445043739E+01  0.41012714193E+02  0.19726476719E+03  0.20149152165E+03  0.00000000000E+00 0. -1.
         11    1    4    4    0    0 -0.43868506173E+02  0.44892109176E+02  0.57889972319E+02  0.85387330414E+02  0.00000000000E+00 0.  1.
<mgrwt>
<rscale>  0 0.15110453E+03</rscale>
<asrwt>0</asrwt>
<pdfrwt beam="1">  1        2 0.57321724E-01 0.15841661E+03</pdfrwt>
<pdfrwt beam="2">  1       -2 0.11942945E-01 0.15841661E+03</pdfrwt>
<totfact> 0.41783850E+03</totfact>
</mgrwt>
</event>
<event>
 8    1  0.9424564E-006  0.1590218E+03  0.7546771E-02  0.1201564E+00
         -2   -1    0    0    0  501 -0.00000000000E+00  0.00000000000E+00  0.49168795955E+03  0.49168795955E+03  0.00000000000E+00 0.  1.
          2   -1    0    0  501    0  0.00000000000E+00 -0.00000000000E+00 -0.10571381368E+03  0.10571381368E+03  0.00000000000E+00 0. -1.
         23    2    1    2    0    0 -0.93693279499E+02 -0.29755908122E+02  0.43643289559E+03  0.46450147115E+03  0.12499639857E+03 0.  0.
         23    2    1    2    0    0  0.93693279499E+02  0.29755908122E+02 -0.50458749713E+02  0.13290030208E+03  0.73841452989E+02 0.  0.
          5    1    3    3  502    0 -0.46715574938E+02 -0.99482903929E+01  0.33980452038E+02  0.58805395536E+02  0.47000000000E+01 0.  1.
         -5    1    3    3    0  502 -0.46977704562E+02 -0.19807617729E+02  0.40245244355E+03  0.40569607561E+03  0.47000000000E+01 0.  1.
        -11    1    4    4    0    0 -0.77850106302E+01  0.14796310066E+02 -0.19645872425E+02  0.25797237941E+02  0.00000000000E+00 0. -1.
         11    1    4    4    0    0  0.10147829013E+03  0.14959598056E+02 -0.30812877289E+02  0.10710306414E+03  0.00000000000E+00 0.  1.
<mgrwt>
<rscale>  0 0.14911579E+03</rscale>
<asrwt>0</asrwt>
<pdfrwt beam="2">  1        2 0.16263664E-01 0.15902184E+03</pdfrwt>
<pdfrwt beam="1">  1       -2 0.75644300E-01 0.15902184E+03</pdfrwt>
<totfact> 0.56612770E+02</totfact>
</mgrwt>
</event>
<event>
 8    1  0.9424564E-006  0.2520235E+03  0.7546771E-02  0.1114500E+00
         -1   -1    0    0    0  501 -0.00000000000E+00  0.00000000000E+00  0.69582392465E+03  0.69582392465E+03  0.00000000000E+00 0. -1.
          1   -1    0    0  501    0  0.00000000000E+00 -0.00000000000E+00 -0.10621274991E+03  0.10621274991E+03  0.00000000000E+00 0.  1.
         23    2    1    2    0    0 -0.11423112563E+03 -0.18666063710E+03  0.47781918307E+03  0.54021015987E+03  0.12499960644E+03 0.  0.
         23    2    1    2    0    0  0.11423112563E+03  0.18666063710E+03  0.11179199168E+03  0.26182651469E+03  0.90358900439E+02 0.  0.
          5    1    3    3  502    0 -0.10798908859E+02  0.13059394722E+01  0.13664182863E+03  0.13715466175E+03  0.47000000000E+01 0.  1.
         -5    1    3    3    0  502 -0.10343221678E+03 -0.18796657657E+03  0.34117735444E+03  0.40305549811E+03  0.47000000000E+01 0.  1.
        -11    1    4    4    0    0  0.57603421488E+02  0.81400085992E+02  0.10080774950E+03  0.14179679307E+03  0.00000000000E+00 0. -1.
         11    1    4    4    0    0  0.56627704146E+02  0.10526055111E+03  0.10984242174E+02  0.12002972162E+03  0.00000000000E+00 0.  1.
<mgrwt>
<rscale>  0 0.24811798E+03</rscale>
<asrwt>0</asrwt>
<pdfrwt beam="2">  1        1 0.16340424E-01 0.25202350E+03</pdfrwt>
<pdfrwt beam="1">  1       -1 0.10704983E+00 0.25202350E+03</pdfrwt>
<totfact> 0.28861867E+02</totfact>
</mgrwt>
</event>
<event>
 8    1  0.9424564E-006  0.1688995E+03  0.7546771E-02  0.1185745E+00
          1   -1    0    0  501    0  0.00000000000E+00  0.00000000000E+00  0.70061301928E+02  0.70061301928E+02  0.00000000000E+00 0. -1.
         -1   -1    0    0    0  501 -0.00000000000E+00 -0.00000000000E+00 -0.35230169376E+03  0.35230169376E+03  0.00000000000E+00 0.  1.
         23    2    1    2    0    0 -0.11054047661E+03  0.26119943873E+02 -0.14681394512E+03  0.22378865360E+03  0.12500231422E+03 0.  0.
         23    2    1    2    0    0  0.11054047661E+03 -0.26119943873E+02 -0.13542644671E+03  0.19857434209E+03  0.90498610098E+02 0.  0.
          5    1    3    3  502    0 -0.87050831689E+02  0.73010091677E+02 -0.11754455539E+03  0.16354550830E+03  0.47000000000E+01 0.  1.
         -5    1    3    3    0  502 -0.23489644923E+02 -0.46890147804E+02 -0.29269389733E+02  0.60243145295E+02  0.47000000000E+01 0.  1.
        -11    1    4    4    0    0  0.46207049271E+02 -0.49241105473E+02 -0.10238063243E+03  0.12264408574E+03  0.00000000000E+00 0.  1.
         11    1    4    4    0    0  0.64333427342E+02  0.23121161600E+02 -0.33045814275E+02  0.75930256343E+02  0.00000000000E+00 0. -1.
<mgrwt>
<rscale>  0 0.16264267E+03</rscale>
<asrwt>0</asrwt>
<pdfrwt beam="1">  1        1 0.10778662E-01 0.16889946E+03</pdfrwt>
<pdfrwt beam="2">  1       -1 0.54200260E-01 0.16889946E+03</pdfrwt>
<totfact> 0.20083327E+03</totfact>
</mgrwt>
</event>
<event>
 8    1  0.9424564E-006  0.1791637E+03  0.7546771E-02  0.1175335E+00
          2   -1    0    0  501    0  0.00000000000E+00  0.00000000000E+00  0.12102789010E+03  0.12102789010E+03  0.00000000000E+00 0. -1.
         -2   -1    0    0    0  501 -0.00000000000E+00 -0.00000000000E+00 -0.23097653688E+03  0.23097653688E+03  0.00000000000E+00 0.  1.
         23    2    1    2    0    0  0.12116229374E+03  0.42384533366E+02 -0.75804767887E+02  0.19454044664E+03  0.12499148952E+03 0.  0.
         23    2    1    2    0    0 -0.12116229374E+03 -0.42384533366E+02 -0.34143878887E+02  0.15746398034E+03  0.84571570551E+02 0.  0.
          5    1    3    3  502    0  0.19591433542E+02 -0.11779550806E+02  0.30076313180E+02  0.38069104270E+02  0.47000000000E+01 0.  1.
         -5    1    3    3    0  502  0.10157086020E+03  0.54164084172E+02 -0.10588108107E+03  0.15647134237E+03  0.47000000000E+01 0.  1.
        -11    1    4    4    0    0 -0.16225868388E+02  0.21605912142E+02 -0.20263834748E+02  0.33774505816E+02  0.00000000000E+00 0.  1.
         11    1    4    4    0    0 -0.10493642535E+03 -0.63990445509E+02 -0.13880044138E+02  0.12368947452E+03  0.00000000000E+00 0. -1.
<mgrwt>
<rscale>  0 0.17243220E+03</rscale>
<asrwt>0</asrwt>
<pdfrwt beam="1">  1        2 0.18619675E-01 0.17916368E+03</pdfrwt>
<pdfrwt beam="2">  1       -2 0.35534852E-01 0.17916368E+03</pdfrwt>
<totfact> 0.22098505E+03</totfact>
</mgrwt>
</event>
<event>
 8    1  0.9424564E-006  0.1177460E+03  0.7546771E-02  0.1255938E+00
         -1   -1    0    0    0  501 -0.00000000000E+00  0.00000000000E+00  0.25237464496E+03  0.25237464496E+03  0.00000000000E+00 0.  1.
          1   -1    0    0  501    0  0.00000000000E+00 -0.00000000000E+00 -0.50550765171E+02  0.50550765171E+02  0.00000000000E+00 0. -1.
         23    2    1    2    0    0 -0.25717239787E+02  0.16234069558E+02  0.15339960763E+03  0.19337929969E+03  0.11375057139E+03 0.  0.
         23    2    1    2    0    0  0.25717239787E+02 -0.16234069558E+02  0.48424272160E+02  0.10954611044E+03  0.93437244940E+02 0.  0.
          5    1    3    3  502    0 -0.32179797792E+02  0.13820386510E+02 -0.41767593189E+01  0.35581986842E+02  0.47000000000E+01 0. -1.
         -5    1    3    3    0  502  0.64625580046E+01  0.24136830485E+01  0.15757636695E+03  0.15779731285E+03  0.47000000000E+01 0.  1.
        -11    1    4    4    0    0 -0.14716441414E+02 -0.42412442857E+02  0.58745149297E+01  0.45275809023E+02  0.00000000000E+00 0. -1.
         11    1    4    4    0    0  0.40433681201E+02  0.26178373299E+02  0.42549757231E+02  0.64270301419E+02  0.00000000000E+00 0.  1.
<mgrwt>
<rscale>  0 0.11253978E+03</rscale>
<asrwt>0</asrwt>
<pdfrwt beam="2">  1        1 0.77770410E-02 0.11774597E+03</pdfrwt>
<pdfrwt beam="1">  1       -1 0.38826868E-01 0.11774597E+03</pdfrwt>
<totfact> 0.55428201E+03</totfact>
</mgrwt>
</event>
<event>
 8    1  0.9424564E-006  0.1704564E+03  0.7546771E-02  0.1183871E+00
         -2   -1    0    0    0  501 -0.00000000000E+00  0.00000000000E+00  0.18674151538E+02  0.18674151538E+02  0.00000000000E+00 0.  1.
          2   -1    0    0  501    0  0.00000000000E+00 -0.00000000000E+00 -0.13702507916E+04  0.13702507916E+04  0.00000000000E+00 0. -1.
         23    2    1    2    0    0 -0.79721304677E+01  0.11561689811E+03 -0.80464596467E+03  0.82250258325E+03  0.12499819600E+03 0.  0.
         23    2    1    2    0    0  0.79721304677E+01 -0.11561689811E+03 -0.54693067537E+03  0.56642235986E+03  0.90941212335E+02 0.  0.
          5    1    3    3  502    0  0.58446343276E+02  0.52227026711E+02 -0.37180537053E+03  0.38000652747E+03  0.47000000000E+01 0. -1.
         -5    1    3    3    0  502 -0.66418473744E+02  0.63389871402E+02 -0.43284059414E+03  0.44249605579E+03  0.47000000000E+01 0. -1.
        -11    1    4    4    0    0 -0.19057575621E+02 -0.75880346881E+02 -0.46419257524E+03  0.47073959377E+03  0.00000000000E+00 0.  1.
         11    1    4    4    0    0  0.27029706089E+02 -0.39736551232E+02 -0.82738100126E+02  0.95682766095E+02  0.00000000000E+00 0. -1.
<mgrwt>
<rscale>  0 0.16435018E+03</rscale>
<asrwt>0</asrwt>
<pdfrwt beam="2">  1        2 0.21080783E+00 0.17045636E+03</pdfrwt>
<pdfrwt beam="1">  1       -2 0.28729462E-02 0.17045636E+03</pdfrwt>
<totfact> 0.71463838E+03</totfact>
</mgrwt>
</event>
<event>
 8    1  0.9424564E-006  0.1415436E+03  0.7546771E-02  0.1222109E+00
         -1   -1    0    0    0  501 -0.00000000000E+00  0.00000000000E+00  0.77196190036E+02  0.77196190036E+02  0.00000000000E+00 0.  1.
          1   -1    0    0  501    0  0.00000000000E+00 -0.00000000000E+00 -0.20916370094E+03  0.20916370094E+03  0.00000000000E+00 0. -1.
         23    2    1    2    0    0  0.66335412198E+02 -0.30313178069E+01 -0.72020679058E+02  0.15881297037E+03  0.12500002219E+03 0.  0.
         23    2    1    2    0    0 -0.66335412198E+02  0.30313178069E+01 -0.59946831844E+02  0.12754692060E+03  0.90912147194E+02 0.  0.
          5    1    3    3  502    0  0.64237468949E+02  0.65497731982E+01  0.18743092377E+02  0.67399892120E+02  0.47000000000E+01 0.  1.
         -5    1    3    3    0  502  0.20979432490E+01 -0.95810910051E+01 -0.90763771435E+02  0.91413078254E+02  0.47000000000E+01 0.  1.
        -11    1    4    4    0    0 -0.15583369271E+02  0.30677678798E+00 -0.73347159310E+02  0.74984940413E+02  0.00000000000E+00 0. -1.
         11    1    4    4    0    0 -0.50752042927E+02  0.27245410189E+01  0.13400327466E+02  0.52561980187E+02  0.00000000000E+00 0.  1.
<mgrwt>
<rscale>  0 0.13367013E+03</rscale>
<asrwt>0</asrwt>
<pdfrwt beam="2">  1        1 0.32179030E-01 0.14154357E+03</pdfrwt>
<pdfrwt beam="1">  1       -1 0.11876337E-01 0.14154357E+03</pdfrwt>
<totfact> 0.61601084E+03</totfact>
</mgrwt>
</event>
<event>
 8    1  0.9424564E-006  0.2007519E+03  0.7546771E-02  0.1153249E+00
          1   -1    0    0  501    0  0.00000000000E+00  0.00000000000E+00  0.13232882673E+04  0.13232882673E+04  0.00000000000E+00 0. -1.
         -1   -1    0    0    0  501 -0.00000000000E+00 -0.00000000000E+00 -0.27818268006E+02  0.27818268006E+02  0.00000000000E+00 0.  1.
         23    2    1    2    0    0 -0.15612066687E+03  0.17465909679E+02  0.63170520296E+03  0.66283693229E+03  0.12499045859E+03 0.  0.
         23    2    1    2    0    0  0.15612066687E+03 -0.17465909679E+02  0.66376479635E+03  0.68826960303E+03  0.91938136566E+02 0.  0.
          5    1    3    3  502    0 -0.15379860561E+03  0.97622155547E+00  0.62597510278E+03  0.64460986915E+03  0.47000000000E+01 0. -1.
         -5    1    3    3    0  502 -0.23220612608E+01  0.16489688123E+02  0.57301001762E+01  0.18227063146E+02  0.47000000000E+01 0. -1.
        -11    1    4    4    0    0  0.48056260976E+02 -0.49706812328E+02  0.24076188471E+03  0.25049242810E+03  0.00000000000E+00 0.  1.
         11    1    4    4    0    0  0.10806440589E+03  0.32240902650E+02  0.42300291164E+03  0.43777717492E+03  0.00000000000E+00 0. -1.
<mgrwt>
<rscale>  0 0.19589559E+03</rscale>
<asrwt>0</asrwt>
<pdfrwt beam="1">  1        1 0.20358276E+00 0.20075192E+03</pdfrwt>
<pdfrwt beam="2">  1       -1 0.42797346E-02 0.20075192E+03</pdfrwt>
<totfact> 0.20892574E+03</totfact>
</mgrwt>
</event>
<event>
 8    1  0.9424564E-006  0.1264724E+03  0.7546771E-02  0.1248053E+00
          1   -1    0    0  501    0  0.00000000000E+00  0.00000000000E+00  0.33113462814E+03  0.33113462814E+03  0.00000000000E+00 0. -1.
         -1   -1    0    0    0  501 -0.00000000000E+00 -0.00000000000E+00 -0.37865386789E+02  0.37865386789E+02  0.00000000000E+00 0.  1.
         23    2    1    2    0    0 -0.12193009209E+02  0.14953580734E+02  0.13104422402E+03  0.18212042705E+03  0.12499192874E+03 0.  0.
         23    2    1    2    0    0  0.12193009209E+02 -0.14953580734E+02  0.16222501734E+03  0.18687958788E+03  0.90745496130E+02 0.  0.
          5    1    3    3  502    0 -0.33218311661E+02  0.47028035440E+02  0.14815940010E+02  0.59638028349E+02  0.47000000000E+01 0.  1.
         -5    1    3    3    0  502  0.21025302452E+02 -0.32074454706E+02  0.11622828401E+03  0.12248239870E+03  0.47000000000E+01 0.  1.
        -11    1    4    4    0    0  0.34278375803E+01 -0.41537752337E+02  0.15112526664E+03  0.15676728344E+03  0.00000000000E+00 0. -1.
         11    1    4    4    0    0  0.87651716290E+01  0.26584171603E+02  0.11099750695E+02  0.30112304445E+02  0.00000000000E+00 0.  1.
<mgrwt>
<rscale>  0 0.11704514E+03</rscale>
<asrwt>0</asrwt>
<pdfrwt beam="1">  1        1 0.50943787E-01 0.12647237E+03</pdfrwt>
<pdfrwt beam="2">  1       -1 0.58254444E-02 0.12647237E+03</pdfrwt>
<totfact> 0.10163007E+04</totfact>
</mgrwt>
</event>
<event>
 8    1  0.9424564E-006  0.1257510E+03  0.7546771E-02  0.1248807E+00
         -2   -1    0    0    0  501 -0.00000000000E+00  0.00000000000E+00  0.53913983281E+02  0.53913983281E+02  0.00000000000E+00 0.  1.
          2   -1    0    0  501    0  0.00000000000E+00 -0.00000000000E+00 -0.23895027413E+03  0.23895027413E+03  0.00000000000E+00 0. -1.
         23    2    1    2    0    0 -0.64222071139E+01 -0.12136370340E+02 -0.66594511917E+02  0.14229598005E+03  0.12499912277E+03 0.  0.
         23    2    1    2    0    0  0.64222071139E+01  0.12136370340E+02 -0.11844177893E+03  0.15056827736E+03  0.91944629644E+02 0.  0.
          5    1    3    3  502    0  0.36644124771E+02 -0.25987460796E+02 -0.82547106071E+02  0.94097049474E+02  0.47000000000E+01 0. -1.
         -5    1    3    3    0  502 -0.43066331885E+02  0.13851090457E+02  0.15952594154E+02  0.48198930581E+02  0.47000000000E+01 0. -1.
        -11    1    4    4    0    0  0.13165927716E+02  0.44608448564E+02 -0.28121227369E+02  0.54351253570E+02  0.00000000000E+00 0.  1.
         11    1    4    4    0    0 -0.67437206022E+01 -0.32472078224E+02 -0.90320551562E+02  0.96217023786E+02  0.00000000000E+00 0. -1.
<mgrwt>
<rscale>  0 0.11660377E+03</rscale>
<asrwt>0</asrwt>
<pdfrwt beam="2">  1        2 0.36761581E-01 0.12575101E+03</pdfrwt>
<pdfrwt beam="1">  1       -2 0.82944590E-02 0.12575101E+03</pdfrwt>
<totfact> 0.11710751E+04</totfact>
</mgrwt>
</event>
<event>
 8    1  0.9424564E-006  0.1411645E+03  0.7546771E-02  0.1222683E+00
         -2   -1    0    0    0  501 -0.00000000000E+00  0.00000000000E+00  0.17595678056E+03  0.17595678056E+03  0.00000000000E+00 0.  1.
          2   -1    0    0  501    0  0.00000000000E+00 -0.00000000000E+00 -0.12285596393E+03  0.12285596393E+03  0.00000000000E+00 0. -1.
         23    2    1    2    0    0 -0.58889319319E+02  0.28883177433E+02  0.10432415947E+03  0.17553045847E+03  0.12500088693E+03 0.  0.
         23    2    1    2    0    0  0.58889319319E+02 -0.28883177433E+02 -0.51223342832E+02  0.12328228602E+03  0.90953292006E+02 0.  0.
          5    1    3    3  502    0  0.12549796410E+02 -0.76825837348E+00 -0.22911949394E+02  0.26554378846E+02  0.47000000000E+01 0. -1.
         -5    1    3    3    0  502 -0.71439115729E+02  0.29651435807E+02  0.12723610886E+03  0.14897607962E+03  0.47000000000E+01 0. -1.
        -11    1    4    4    0    0  0.25915773382E+02 -0.17717392671E+02  0.24577402281E+02  0.39869562525E+02  0.00000000000E+00 0.  1.
         11    1    4    4    0    0  0.32973545936E+02 -0.11165784762E+02 -0.75800745113E+02  0.83412723494E+02  0.00000000000E+00 0. -1.
<mgrwt>
<rscale>  0 0.13326965E+03</rscale>
<asrwt>0</asrwt>
<pdfrwt beam="2">  1        2 0.18900917E-01 0.14116448E+03</pdfrwt>
<pdfrwt beam="1">  1       -2 0.27070274E-01 0.14116448E+03</pdfrwt>
<totfact> 0.35180624E+03</totfact>
</mgrwt>
</event>
<event>
 8    1  0.9424564E-006  0.1525982E+03  0.7546771E-02  0.1206221E+00
         -2   -1    0    0    0  501 -0.00000000000E+00  0.00000000000E+00  0.41678593828E+03  0.41678593828E+03  0.00000000000E+00 0. -1.
          2   -1    0    0  501    0  0.00000000000E+00 -0.00000000000E+00 -0.48579949632E+02  0.48579949632E+02  0.00000000000E+00 0.  1.
         23    2    1    2    0    0  0.86393280847E+02  0.14070931632E+02  0.24895085913E+03  0.29199783895E+03  0.12499767036E+03 0.  0.
         23    2    1    2    0    0 -0.86393280847E+02 -0.14070931632E+02  0.11925512952E+03  0.17336804897E+03  0.90404117128E+02 0.  0.
          5    1    3    3  502    0  0.25048710823E+02  0.42166336688E+02  0.20615260655E+03  0.21195854559E+03  0.47000000000E+01 0.  1.
         -5    1    3    3    0  502  0.61344570024E+02 -0.28095405055E+02  0.42798252587E+02  0.80039293358E+02  0.47000000000E+01 0.  1.
        -11    1    4    4    0    0 -0.83792455408E+02  0.21105520137E+02  0.62876700434E+02  0.10686485868E+03  0.00000000000E+00 0.  1.
         11    1    4    4    0    0 -0.26008254384E+01 -0.35176451770E+02  0.56378429084E+02  0.66503190285E+02  0.00000000000E+00 0. -1.
<mgrwt>
<rscale>  0 0.14541635E+03</rscale>
<asrwt>0</asrwt>
<pdfrwt beam="2">  1        2 0.74738387E-02 0.15259819E+03</pdfrwt>
<pdfrwt beam="1">  1       -2 0.64120911E-01 0.15259819E+03</pdfrwt>
<totfact> 0.20705109E+03</totfact>
</mgrwt>
</event>
<event>
 7    1  0.9424564E-006  0.1488032E+03  0.7546771E-02  0.1225013E+00
          3   -1    0    0  501    0  0.00000000000E+00  0.00000000000E+00  0.16693427667E+02  0.16693427667E+02  0.00000000000E+00 0. -1.
         -3   -1    0    0    0  501 -0.00000000000E+00 -0.00000000000E+00 -0.89370806630E+03  0.89370806630E+03  0.00000000000E+00 0.  1.
         23    2    1    2    0    0  0.70484989647E+01  0.52587539887E+01 -0.25439994550E+03  0.27025194983E+03  0.90771406744E+02 0.  0.
          5    1    1    2  502    0  0.56647825703E+01 -0.31578716872E+02 -0.22880679418E+02  0.39685269452E+02  0.47000000000E+01 0. -1.
         -5    1    1    2    0  502 -0.12713281535E+02  0.26319962883E+02 -0.59973401371E+03  0.60046427469E+03  0.47000000000E+01 0.  1.
        -11    1    3    3    0    0  0.64980744729E+01 -0.34765942832E+02 -0.45907052788E+02  0.57951300664E+02  0.00000000000E+00 0. -1.
         11    1    3    3    0    0  0.55042449185E+00  0.40024696821E+02 -0.20849289272E+03  0.21230064917E+03  0.00000000000E+00 0.  1.
<mgrwt>
<rscale>  0 0.13165991E+03</rscale>
<asrwt>0</asrwt>
<pdfrwt beam="1">  1        3 0.25682189E-02 0.14880317E+03</pdfrwt>
<pdfrwt beam="2">  1       -3 0.13749359E+00 0.14880317E+03</pdfrwt>
<totfact> 0.64859376E+02</totfact>
</mgrwt>
</event>
<event>
 8    1  0.9424564E-006  0.1321469E+03  0.7546771E-02  0.1236228E+00
         -1   -1    0    0    0  501 -0.00000000000E+00  0.00000000000E+00  0.22786570570E+03  0.22786570570E+03  0.00000000000E+00 0.  1.
          1   -1    0    0  501    0  0.00000000000E+00 -0.00000000000E+00 -0.68599422733E+02  0.68599422733E+02  0.00000000000E+00 0. -1.
         23    2    1    2    0    0  0.33353772872E+02 -0.26981191592E+02  0.13783561177E+03  0.19094884349E+03  0.12498938393E+03 0.  0.
         23    2    1    2    0    0 -0.33353772872E+02  0.26981191592E+02  0.21430671195E+02  0.10551628494E+03  0.93989115618E+02 0.  0.
          5    1    3    3  502    0 -0.45547655865E+02 -0.18193552441E+02  0.32753029071E+02  0.59164560495E+02  0.47000000000E+01 0.  1.
         -5    1    3    3    0  502  0.78901428738E+02 -0.87876391509E+01  0.10508258270E+03  0.13178428300E+03  0.47000000000E+01 0.  1.
        -11    1    4    4    0    0 -0.50573562971E+02  0.15380317696E+02 -0.22094595089E+02  0.57292325630E+02  0.00000000000E+00 0. -1.
         11    1    4    4    0    0  0.17219790098E+02  0.11600873896E+02  0.43525266284E+02  0.48223959307E+02  0.00000000000E+00 0.  1.
<mgrwt>
<rscale>  0 0.12426126E+03</rscale>
<asrwt>0</asrwt>
<pdfrwt beam="2">  1        1 0.10553757E-01 0.13214691E+03</pdfrwt>
<pdfrwt beam="1">  1       -1 0.35056262E-01 0.13214691E+03</pdfrwt>
<totfact> 0.44412531E+03</totfact>
</mgrwt>
</event>
<event>
 8    1  0.1446265E-005  0.1388657E+03  0.7546771E-02  0.1227107E+00
          2   -1    0    0  501    0  0.00000000000E+00  0.00000000000E+00  0.84232271278E+03  0.84232271278E+03  0.00000000000E+00 0. -1.
         -2   -1    0    0    0  501 -0.00000000000E+00 -0.00000000000E+00 -0.18030160729E+02  0.18030160729E+02  0.00000000000E+00 0.  1.
         23    2    1    2    0    0 -0.55539710865E+02  0.23956031872E+02  0.44853810885E+03  0.46954245166E+03  0.12500051150E+03 0.  0.
         23    2    1    2    0    0  0.55539710865E+02 -0.23956031872E+02  0.37575444321E+03  0.39081042186E+03  0.88785321387E+02 0.  0.
          5    1    3    3  502    0 -0.39846152289E+02 -0.49401265426E+02  0.19882021160E+03  0.20875767631E+03  0.47000000000E+01 0. -1.
         -5    1    3    3    0  502 -0.15693558576E+02  0.73357297299E+02  0.24971789725E+03  0.26078477535E+03  0.47000000000E+01 0. -1.
        -11    1    4    4    0    0 -0.85865484224E+01 -0.13753731401E+02  0.93909917261E+01  0.18737253450E+02  0.00000000000E+00 0.  1.
         11    1    4    4    0    0  0.64126259287E+02 -0.10202300472E+02  0.36636345148E+03  0.37207316841E+03  0.00000000000E+00 0. -1.
<mgrwt>
<rscale>  0 0.13023522E+03</rscale>
<asrwt>0</asrwt>
<pdfrwt beam="1">  1        2 0.12958808E+00 0.13886569E+03</pdfrwt>
<pdfrwt beam="2">  1       -2 0.27738715E-02 0.13886569E+03</pdfrwt>
<totfact> 0.15097203E+04</totfact>
</mgrwt>
</event>
<event>
 8    1  0.9876711E-006  0.1684613E+03  0.7546771E-02  0.1186378E+00
         -1   -1    0    0    0  501 -0.00000000000E+00  0.00000000000E+00  0.26132972369E+03  0.26132972369E+03  0.00000000000E+00 0.  1.
          1   -1    0    0  501    0  0.00000000000E+00 -0.00000000000E+00 -0.10215573512E+03  0.10215573512E+03  0.00000000000E+00 0. -1.
         23    2    1    2    0    0  0.96794205042E+02  0.58186211522E+02  0.13769953211E+03  0.21757844337E+03  0.12499785813E+03 0.  0.
         23    2    1    2    0    0 -0.96794205042E+02 -0.58186211522E+02  0.21474456457E+02  0.14590701543E+03  0.89849605073E+02 0.  0.
          5    1    3    3  502    0  0.21592602749E+02 -0.20135998498E+02  0.97038424870E+02  0.10153937576E+03  0.47000000000E+01 0. -1.
         -5    1    3    3    0  502  0.75201602293E+02  0.78322210020E+02  0.40661107242E+02  0.11603906761E+03  0.47000000000E+01 0. -1.
        -11    1    4    4    0    0 -0.59209632496E+02 -0.42693065061E+02  0.56451705530E+02  0.92278239265E+02  0.00000000000E+00 0.  1.
         11    1    4    4    0    0 -0.37584572546E+02 -0.15493146461E+02 -0.34977249073E+02  0.53628776169E+02  0.00000000000E+00 0. -1.
<mgrwt>
<rscale>  0 0.16207101E+03</rscale>
<asrwt>0</asrwt>
<pdfrwt beam="2">  1        1 0.15716267E-01 0.16846132E+03</pdfrwt>
<pdfrwt beam="1">  1       -1 0.40204573E-01 0.16846132E+03</pdfrwt>
<totfact> 0.21025174E+03</totfact>
</mgrwt>
</event>
<event>
 7    1  0.9424564E-006  0.1535170E+03  0.7546771E-02  0.1207764E+00
          2   -1    0    0  501    0  0.00000000000E+00  0.00000000000E+00  0.17953806131E+03  0.17953806131E+03  0.00000000000E+00 0.  1.
         -2   -1    0    0    0  501 -0.00000000000E+00 -0.00000000000E+00 -0.15911253987E+03  0.15911253987E+03  0.00000000000E+00 0. -1.
         23    2    1    2    0    0 -0.58529527619E+02 -0.54962357205E+02  0.10867751961E+03  0.16157466430E+03  0.88594596678E+02 0.  0.
          5    1    1    2  502    0 -0.15550461831E+02  0.74613786954E+02 -0.50139828535E+02  0.91351663764E+02  0.47000000000E+01 0. -1.
         -5    1    1    2    0  502  0.74079989449E+02 -0.19651429749E+02 -0.38112169635E+02  0.85724273122E+02  0.47000000000E+01 0. -1.
        -11    1    3    3    0    0  0.18009935820E+02  0.77046292566E+01  0.10594345000E+02  0.22270142483E+02  0.00000000000E+00 0. -1.
         11    1    3    3    0    0 -0.76539463439E+02 -0.62666986462E+02  0.98083174612E+02  0.13930452181E+03  0.00000000000E+00 0.  1.
<mgrwt>
<rscale>  0 0.14421737E+03</rscale>
<asrwt>0</asrwt>
<pdfrwt beam="1">  1        2 0.27621240E-01 0.15351701E+03</pdfrwt>
<pdfrwt beam="2">  1       -2 0.24478852E-01 0.15351701E+03</pdfrwt>
<totfact> 0.27602534E+03</totfact>
</mgrwt>
</event>
<event>
 8    1  0.9424564E-006  0.1638230E+03  0.7546771E-02  0.1191534E+00
          1   -1    0    0  501    0  0.00000000000E+00  0.00000000000E+00  0.43736866045E+02  0.43736866045E+02  0.00000000000E+00 0. -1.
         -1   -1    0    0    0  501 -0.00000000000E+00 -0.00000000000E+00 -0.56500305285E+03  0.56500305285E+03  0.00000000000E+00 0.  1.
         23    2    1    2    0    0 -0.10067337757E+03 -0.32824398538E+02 -0.35776105900E+03  0.39348562785E+03  0.12500157556E+03 0.  0.
         23    2    1    2    0    0  0.10067337757E+03  0.32824398538E+02 -0.16350512780E+03  0.21525429105E+03  0.91585549659E+02 0.  0.
          5    1    3    3  502    0  0.16093577664E+02 -0.39718727375E+02 -0.63096453622E+02  0.76418800082E+02  0.47000000000E+01 0.  1.
         -5    1    3    3    0  502 -0.11676695523E+03  0.68943288375E+01 -0.29466460538E+03  0.31706682777E+03  0.47000000000E+01 0.  1.
        -11    1    4    4    0    0  0.26141557651E+02  0.55916413473E+02 -0.78625150347E+02  0.99959694874E+02  0.00000000000E+00 0.  1.
         11    1    4    4    0    0  0.74531819919E+02 -0.23092014936E+02 -0.84879977452E+02  0.11529459617E+03  0.00000000000E+00 0. -1.
<mgrwt>
<rscale>  0 0.15751229E+03</rscale>
<asrwt>0</asrwt>
<pdfrwt beam="1">  1        1 0.67287494E-02 0.16382297E+03</pdfrwt>
<pdfrwt beam="2">  1       -1 0.86923537E-01 0.16382297E+03</pdfrwt>
<totfact> 0.14853037E+03</totfact>
</mgrwt>
</event>
<event>
 8    1  0.9424564E-006  0.1384719E+03  0.7546771E-02  0.1227801E+00
         -4   -1    0    0    0  501 -0.00000000000E+00  0.00000000000E+00  0.16023640188E+03  0.16023640188E+03  0.00000000000E+00 0.  1.
          4   -1    0    0  501    0  0.00000000000E+00 -0.00000000000E+00 -0.11270921285E+03  0.11270921285E+03  0.00000000000E+00 0. -1.
         23    2    1    2    0    0 -0.97173060773E+01  0.58841172364E+02  0.81740888066E+02  0.16079817341E+03  0.12497107740E+03 0.  0.
         23    2    1    2    0    0  0.97173060773E+01 -0.58841172364E+02 -0.34213699042E+02  0.11214744132E+03  0.88598881429E+02 0.  0.
          5    1    3    3  502    0 -0.66839112497E+02  0.39442625365E+02  0.50363785845E+02  0.92637943520E+02  0.47000000000E+01 0. -1.
         -5    1    3    3    0  502  0.57121806419E+02  0.19398547000E+02  0.31377102220E+02  0.68160229885E+02  0.47000000000E+01 0. -1.
        -11    1    4    4    0    0  0.42724643296E+02 -0.58219102910E+02 -0.32214995413E+02  0.79073794761E+02  0.00000000000E+00 0.  1.
         11    1    4    4    0    0 -0.33007337219E+02 -0.62206945457E+00 -0.19987036286E+01  0.33073646562E+02  0.00000000000E+00 0. -1.
<mgrwt>
<rscale>  0 0.12976730E+03</rscale>
<asrwt>0</asrwt>
<pdfrwt beam="2">  1        4 0.17339879E-01 0.13847195E+03</pdfrwt>
<pdfrwt beam="1">  1       -4 0.24651754E-01 0.13847195E+03</pdfrwt>
<totfact> 0.74471144E+02</totfact>
</mgrwt>
</event>
<event>
 8    1  0.9424564E-006  0.1342828E+03  0.7546771E-02  0.1232205E+00
         -2   -1    0    0    0  501 -0.00000000000E+00  0.00000000000E+00  0.43071688112E+03  0.43071688112E+03  0.00000000000E+00 0.  1.
          2   -1    0    0  501    0  0.00000000000E+00 -0.00000000000E+00 -0.41234002679E+02  0.41234002679E+02  0.00000000000E+00 0. -1.
         23    2    1    2    0    0 -0.47615799501E+02  0.11800087004E+02  0.31268093190E+03  0.34029580519E+03  0.12500145376E+03 0.  0.
         23    2    1    2    0    0  0.47615799501E+02 -0.11800087004E+02  0.76801946546E+02  0.13165507861E+03  0.95015863495E+02 0.  0.
          5    1    3    3  502    0 -0.11831679974E+02 -0.55046203121E+02  0.10638535164E+03  0.12045748699E+03  0.47000000000E+01 0.  1.
         -5    1    3    3    0  502 -0.35784119527E+02  0.66846290125E+02  0.20629558026E+03  0.21983831820E+03  0.47000000000E+01 0.  1.
        -11    1    4    4    0    0  0.44584268873E+02 -0.40114606765E+02  0.83108414740E+02  0.10248876674E+03  0.00000000000E+00 0.  1.
         11    1    4    4    0    0  0.30315306287E+01  0.28314519761E+02 -0.63064681944E+01  0.29166311874E+02  0.00000000000E+00 0. -1.
<mgrwt>
<rscale>  0 0.12685060E+03</rscale>
<asrwt>0</asrwt>
<pdfrwt beam="2">  1        2 0.63436930E-02 0.13428280E+03</pdfrwt>
<pdfrwt beam="1">  1       -2 0.66264133E-01 0.13428280E+03</pdfrwt>
<totfact> 0.23646716E+03</totfact>
</mgrwt>
</event>
<event>
 8    1  0.9424564E-006  0.1440862E+03  0.7546771E-02  0.1218733E+00
         -2   -1    0    0    0  501 -0.00000000000E+00  0.00000000000E+00  0.38149444297E+02  0.38149444297E+02  0.00000000000E+00 0.  1.
          2   -1    0    0  501    0  0.00000000000E+00 -0.00000000000E+00 -0.47198323567E+03  0.47198323567E+03  0.00000000000E+00 0. -1.
         23    2    1    2    0    0  0.71366331335E+02  0.14125631207E+02 -0.17228953105E+03  0.22459856336E+03  0.12437099922E+03 0.  0.
         23    2    1    2    0    0 -0.71366331335E+02 -0.14125631207E+02 -0.26154426032E+03  0.28553411661E+03  0.88496581494E+02 0.  0.
          5    1    3    3  502    0 -0.16722624836E+02 -0.10327423745E+02  0.85242838659E+01  0.21932972394E+02  0.47000000000E+01 0. -1.
         -5    1    3    3    0  502  0.88088956171E+02  0.24453054953E+02 -0.18081381492E+03  0.20266559097E+03  0.47000000000E+01 0. -1.
        -11    1    4    4    0    0 -0.69853582691E+02 -0.44582671065E+02 -0.17161107079E+03  0.19057150152E+03  0.00000000000E+00 0.  1.
         11    1    4    4    0    0 -0.15127486443E+01  0.30457039858E+02 -0.89933189538E+02  0.94962615096E+02  0.00000000000E+00 0. -1.
<mgrwt>
<rscale>  0 0.13605874E+03</rscale>
<asrwt>0</asrwt>
<pdfrwt beam="2">  1        2 0.72612801E-01 0.14408620E+03</pdfrwt>
<pdfrwt beam="1">  1       -2 0.58691457E-02 0.14408620E+03</pdfrwt>
<totfact> 0.97226489E+03</totfact>
</mgrwt>
</event>
<event>
 8    1  0.9424564E-006  0.1151354E+03  0.7546771E-02  0.1263659E+00
          1   -1    0    0  501    0  0.00000000000E+00  0.00000000000E+00  0.14225170215E+03  0.14225170215E+03  0.00000000000E+00 0. -1.
         -1   -1    0    0    0  501 -0.00000000000E+00 -0.00000000000E+00 -0.90141260715E+02  0.90141260715E+02  0.00000000000E+00 0.  1.
         23    2    1    2    0    0 -0.32606581884E+01 -0.27126904377E+02 -0.19972333576E+02  0.11685484934E+03  0.11184659526E+03 0.  0.
         23    2    1    2    0    0  0.32606581884E+01  0.27126904377E+02  0.72082775011E+02  0.11553811353E+03  0.86061770791E+02 0.  0.
          5    1    3    3  502    0  0.49229514298E+02  0.81827764445E+01 -0.18411023473E+02  0.53399987768E+02  0.47000000000E+01 0. -1.
         -5    1    3    3    0  502 -0.52490172486E+02 -0.35309680821E+02 -0.15613101027E+01  0.63454861568E+02  0.47000000000E+01 0.  1.
        -11    1    4    4    0    0  0.31618631510E+02  0.43432238885E+02  0.27816191445E+02  0.60496592793E+02  0.00000000000E+00 0.  1.
         11    1    4    4    0    0 -0.28357973321E+02 -0.16305334508E+02  0.44266583566E+02  0.55041520736E+02  0.00000000000E+00 0. -1.
<mgrwt>
<rscale>  0 0.10834833E+03</rscale>
<asrwt>0</asrwt>
<pdfrwt beam="1">  1        1 0.21884877E-01 0.11513541E+03</pdfrwt>
<pdfrwt beam="2">  1       -1 0.13867886E-01 0.11513541E+03</pdfrwt>
<totfact> 0.77304331E+03</totfact>
</mgrwt>
</event>
<event>
 6    1  0.9424564E-006  0.3439188E+03  0.7546771E-02  0.1112055E+00
          2   -1    0    0  501    0  0.00000000000E+00  0.00000000000E+00  0.22900175081E+03  0.22900175081E+03  0.00000000000E+00 0. -1.
         -2   -1    0    0    0  501 -0.00000000000E+00 -0.00000000000E+00 -0.28624618729E+03  0.28624618729E+03  0.00000000000E+00 0.  1.
          5    1    1    2  502    0 -0.17713858147E+03  0.56182157340E+02 -0.85268887603E+02  0.20451744434E+03  0.47000000000E+01 0. -1.
         -5    1    1    2    0  502  0.15530749810E+03  0.28682801665E+02 -0.68651112540E+02  0.17227358280E+03  0.47000000000E+01 0.  1.
        -11    1    1    2    0    0  0.31837796771E+02 -0.54879267001E+02  0.81798117828E+02  0.10351961809E+03  0.00000000000E+00 0. -1.
         11    1    1    2    0    0 -0.10006713407E+02 -0.29985692004E+02  0.14877445834E+02  0.34937292865E+02  0.00000000000E+00 0.  1.
<mgrwt>
<rscale>  0 0.25198737E+03</rscale>
<asrwt>0</asrwt>
<pdfrwt beam="1">  1        2 0.35231039E-01 0.34391876E+03</pdfrwt>
<pdfrwt beam="2">  1       -2 0.44037875E-01 0.34391876E+03</pdfrwt>
<totfact> 0.72864882E+02</totfact>
</mgrwt>
</event>
<event>
 8    1  0.9424564E-006  0.1253558E+03  0.7546771E-02  0.1249968E+00
          1   -1    0    0  501    0  0.00000000000E+00  0.00000000000E+00  0.19697748748E+03  0.19697748748E+03  0.00000000000E+00 0. -1.
         -1   -1    0    0    0  501 -0.00000000000E+00 -0.00000000000E+00 -0.60685974773E+02  0.60685974773E+02  0.00000000000E+00 0.  1.
         23    2    1    2    0    0 -0.92402062193E+01 -0.20218149703E+01  0.63103085892E+02  0.14034270164E+03  0.12499842122E+03 0.  0.
         23    2    1    2    0    0  0.92402062193E+01  0.20218149703E+01  0.73188426815E+02  0.11732076061E+03  0.91203870010E+02 0.  0.
          5    1    3    3  502    0  0.30633674902E+02 -0.32919494307E+02  0.75666747040E+02  0.88145684813E+02  0.47000000000E+01 0.  1.
         -5    1    3    3    0  502 -0.39873881122E+02  0.30897679337E+02 -0.12563661148E+02  0.52197016826E+02  0.47000000000E+01 0.  1.
        -11    1    4    4    0    0  0.80225944091E+01  0.44927086974E+02  0.22445075077E+02  0.50858495457E+02  0.00000000000E+00 0.  1.
         11    1    4    4    0    0  0.12176118103E+01 -0.42905272003E+02  0.50743351737E+02  0.66462265157E+02  0.00000000000E+00 0. -1.
<mgrwt>
<rscale>  0 0.11592908E+03</rscale>
<asrwt>0</asrwt>
<pdfrwt beam="1">  1        1 0.30304229E-01 0.12535579E+03</pdfrwt>
<pdfrwt beam="2">  1       -1 0.93363039E-02 0.12535579E+03</pdfrwt>
<totfact> 0.95077936E+03</totfact>
</mgrwt>
</event>
<event>
 8    1  0.9424564E-006  0.1281279E+03  0.7546771E-02  0.1244293E+00
          1   -1    0    0  501    0  0.00000000000E+00  0.00000000000E+00  0.12596591905E+03  0.12596591905E+03  0.00000000000E+00 0. -1.
         -1   -1    0    0    0  501 -0.00000000000E+00 -0.00000000000E+00 -0.11764536787E+03  0.11764536787E+03  0.00000000000E+00 0.  1.
         23    2    1    2    0    0  0.19776205147E+02 -0.20017100513E+02 -0.42236219228E+02  0.13490985134E+03  0.12499994868E+03 0.  0.
         23    2    1    2    0    0 -0.19776205147E+02  0.20017100513E+02  0.50556770414E+02  0.10870143558E+03  0.92022999627E+02 0.  0.
          5    1    3    3  502    0 -0.46492408582E+02 -0.27079626511E+02 -0.41474538645E+02  0.68096090809E+02  0.47000000000E+01 0.  1.
         -5    1    3    3    0  502  0.66268613729E+02  0.70625259976E+01 -0.76168058335E+00  0.66813760531E+02  0.47000000000E+01 0.  1.
        -11    1    4    4    0    0  0.25718189474E+02  0.13854883109E+02 -0.11597002695E+02  0.31430455410E+02  0.00000000000E+00 0.  1.
         11    1    4    4    0    0 -0.45494394621E+02  0.61622174036E+01  0.62153773109E+02  0.77270980173E+02  0.00000000000E+00 0. -1.
<mgrwt>
<rscale>  0 0.11927773E+03</rscale>
<asrwt>0</asrwt>
<pdfrwt beam="1">  1        1 0.19379372E-01 0.12812794E+03</pdfrwt>
<pdfrwt beam="2">  1       -1 0.18099287E-01 0.12812794E+03</pdfrwt>
<totfact> 0.59825889E+03</totfact>
</mgrwt>
</event>
<event>
 8    1  0.9424564E-006  0.1548630E+03  0.7546771E-02  0.1203316E+00
          2   -1    0    0  501    0  0.00000000000E+00  0.00000000000E+00  0.16351919965E+03  0.16351919965E+03  0.00000000000E+00 0.  1.
         -2   -1    0    0    0  501 -0.00000000000E+00 -0.00000000000E+00 -0.15561163836E+03  0.15561163836E+03  0.00000000000E+00 0. -1.
         23    2    1    2    0    0  0.12012209442E+02  0.90615973336E+02 -0.69127131487E+02  0.16959103734E+03  0.12500804710E+03 0.  0.
         23    2    1    2    0    0 -0.12012209442E+02 -0.90615973336E+02  0.77034692778E+02  0.14953980067E+03  0.89845758359E+02 0.  0.
          5    1    3    3  502    0  0.33339870082E+02  0.11459978486E+03 -0.39908366840E+02  0.12593421049E+03  0.47000000000E+01 0. -1.
         -5    1    3    3    0  502 -0.21327660639E+02 -0.23983811525E+02 -0.29218764647E+02  0.43656826856E+02  0.47000000000E+01 0. -1.
        -11    1    4    4    0    0 -0.33808009545E+02 -0.43581869996E+02  0.80501586759E+02  0.97585174962E+02  0.00000000000E+00 0.  1.
         11    1    4    4    0    0  0.21795800102E+02 -0.47034103340E+02 -0.34668939803E+01  0.51954625713E+02  0.00000000000E+00 0. -1.
<mgrwt>
<rscale>  0 0.14770945E+03</rscale>
<asrwt>0</asrwt>
<pdfrwt beam="1">  1        2 0.25156800E-01 0.15486304E+03</pdfrwt>
<pdfrwt beam="2">  1       -2 0.23940252E-01 0.15486304E+03</pdfrwt>
<totfact> 0.31817773E+03</totfact>
</mgrwt>
</event>
<event>
 7    1  0.9424564E-006  0.2307911E+03  0.7546771E-02  0.1150680E+00
         -2   -1    0    0    0  501 -0.00000000000E+00  0.00000000000E+00  0.86781877829E+02  0.86781877829E+02  0.00000000000E+00 0.  1.
          2   -1    0    0  501    0  0.00000000000E+00 -0.00000000000E+00 -0.39211119186E+03  0.39211119186E+03  0.00000000000E+00 0. -1.
         23    2    1    2    0    0 -0.18104523838E+02  0.88449170520E+02 -0.16644212851E+03  0.20953427535E+03  0.89725140589E+02 0.  0.
          5    1    1    2  502    0 -0.32573488487E+01 -0.13927667574E+03 -0.15810805646E+03  0.21078152254E+03  0.47000000000E+01 0. -1.
         -5    1    1    2    0  502  0.21361872687E+02  0.50827505223E+02  0.19220870937E+02  0.58577271800E+02  0.47000000000E+01 0.  1.
        -11    1    3    3    0    0 -0.41931838640E+02  0.98113173620E+01 -0.75900204030E+02  0.87266156165E+02  0.00000000000E+00 0.  1.
         11    1    3    3    0    0  0.23827314801E+02  0.78637853158E+02 -0.90541924476E+02  0.12226811918E+03  0.00000000000E+00 0. -1.
<mgrwt>
<rscale>  0 0.19888822E+03</rscale>
<asrwt>0</asrwt>
<pdfrwt beam="2">  1        2 0.60324798E-01 0.23079105E+03</pdfrwt>
<pdfrwt beam="1">  1       -2 0.13351058E-01 0.23079105E+03</pdfrwt>
<totfact> 0.33540179E+03</totfact>
</mgrwt>
</event>
<event>
 8    1  0.9424564E-006  0.1282705E+03  0.7546771E-02  0.1241329E+00
          1   -1    0    0  501    0  0.00000000000E+00  0.00000000000E+00  0.22187198833E+02  0.22187198833E+02  0.00000000000E+00 0. -1.
         -1   -1    0    0    0  501 -0.00000000000E+00 -0.00000000000E+00 -0.60608796744E+03  0.60608796744E+03  0.00000000000E+00 0.  1.
         23    2    1    2    0    0 -0.10578657629E+02  0.26776559411E+02 -0.36401903065E+03  0.38595746932E+03  0.12499768525E+03 0.  0.
         23    2    1    2    0    0  0.10578657629E+02 -0.26776559411E+02 -0.21988173797E+03  0.24231769696E+03  0.97678019218E+02 0.  0.
          5    1    3    3  502    0  0.39198631821E+02  0.57372916387E+02 -0.19536325302E+03  0.20740558069E+03  0.47000000000E+01 0.  1.
         -5    1    3    3    0  502 -0.49777289450E+02 -0.30596356976E+02 -0.16865577763E+03  0.17855188863E+03  0.47000000000E+01 0.  1.
        -11    1    4    4    0    0 -0.21556225448E+02 -0.34876637061E+02 -0.33311831041E+02  0.52827348557E+02  0.00000000000E+00 0. -1.
         11    1    4    4    0    0  0.32134883076E+02  0.81000776497E+01 -0.18656990692E+03  0.18949034840E+03  0.00000000000E+00 0.  1.
<mgrwt>
<rscale>  0 0.12107843E+03</rscale>
<asrwt>0</asrwt>
<pdfrwt beam="1">  1        1 0.34134152E-02 0.12827047E+03</pdfrwt>
<pdfrwt beam="2">  1       -1 0.93244302E-01 0.12827047E+03</pdfrwt>
<totfact> 0.32057005E+03</totfact>
</mgrwt>
</event>
<event>
 8    1  0.9424564E-006  0.1725832E+03  0.7546771E-02  0.1181205E+00
         -1   -1    0    0    0  501 -0.00000000000E+00  0.00000000000E+00  0.95818398980E+02  0.95818398980E+02  0.00000000000E+00 0.  1.
          1   -1    0    0  501    0  0.00000000000E+00 -0.00000000000E+00 -0.28171472042E+03  0.28171472042E+03  0.00000000000E+00 0. -1.
         23    2    1    2    0    0  0.11890257530E+03 -0.58523861445E+01 -0.65202971717E+02  0.18448950716E+03  0.12495150217E+03 0.  0.
         23    2    1    2    0    0 -0.11890257530E+03  0.58523861445E+01 -0.12069334973E+03  0.19304361225E+03  0.92341099868E+02 0.  0.
          5    1    3    3  502    0  0.12039457028E+03 -0.47830479493E+02 -0.56112935708E+02  0.14125635871E+03  0.47000000000E+01 0.  1.
         -5    1    3    3    0  502 -0.14919949814E+01  0.41978093349E+02 -0.90900360098E+01  0.43233148450E+02  0.47000000000E+01 0.  1.
        -11    1    4    4    0    0 -0.46784998141E+02  0.44031351123E+02 -0.29571535728E+02  0.70725325437E+02  0.00000000000E+00 0. -1.
         11    1    4    4    0    0 -0.72117577158E+02 -0.38178964978E+02 -0.91121813997E+02  0.12231828681E+03  0.00000000000E+00 0.  1.
<mgrwt>
<rscale>  0 0.16682055E+03</rscale>
<asrwt>0</asrwt>
<pdfrwt beam="2">  1        1 0.43340725E-01 0.17258317E+03</pdfrwt>
<pdfrwt beam="1">  1       -1 0.14741292E-01 0.17258317E+03</pdfrwt>
<totfact> 0.30697409E+03</totfact>
</mgrwt>
</event>
<event>
 8    1  0.9424564E-006  0.1277717E+03  0.7546771E-02  0.1245568E+00
          1   -1    0    0  501    0  0.00000000000E+00  0.00000000000E+00  0.19958189954E+03  0.19958189954E+03  0.00000000000E+00 0. -1.
         -1   -1    0    0    0  501 -0.00000000000E+00 -0.00000000000E+00 -0.62062503646E+02  0.62062503646E+02  0.00000000000E+00 0.  1.
         23    2    1    2    0    0  0.23807402685E+02 -0.11303813236E+02  0.72962825870E+02  0.14713656755E+03  0.12502410542E+03 0.  0.
         23    2    1    2    0    0 -0.23807402685E+02  0.11303813236E+02  0.64556570021E+02  0.11450783563E+03  0.90829098155E+02 0.  0.
          5    1    3    3  502    0  0.31645951010E+02 -0.34927011570E+02 -0.19533424707E+02  0.51234822468E+02  0.47000000000E+01 0.  1.
         -5    1    3    3    0  502 -0.78385483253E+01  0.23623198333E+02  0.92496250577E+02  0.95901745084E+02  0.47000000000E+01 0.  1.
        -11    1    4    4    0    0 -0.53696683857E+02  0.25522821506E+02  0.52391373295E+02  0.79243954158E+02  0.00000000000E+00 0. -1.
         11    1    4    4    0    0  0.29889281172E+02 -0.14219008270E+02  0.12165196726E+02  0.35263881473E+02  0.00000000000E+00 0.  1.
<mgrwt>
<rscale>  0 0.11851419E+03</rscale>
<asrwt>0</asrwt>
<pdfrwt beam="1">  1        1 0.30704907E-01 0.12777165E+03</pdfrwt>
<pdfrwt beam="2">  1       -1 0.95480775E-02 0.12777165E+03</pdfrwt>
<totfact> 0.90545515E+03</totfact>
</mgrwt>
</event>
<event>
 8    1  0.9424564E-006  0.1457487E+03  0.7546771E-02  0.1214925E+00
         -1   -1    0    0    0  501 -0.00000000000E+00  0.00000000000E+00  0.47332337656E+02  0.47332337656E+02  0.00000000000E+00 0.  1.
          1   -1    0    0  501    0  0.00000000000E+00 -0.00000000000E+00 -0.37732456739E+03  0.37732456739E+03  0.00000000000E+00 0. -1.
         23    2    1    2    0    0 -0.73036147836E+02  0.16825974885E+02 -0.15786873526E+03  0.21486093272E+03  0.12500116207E+03 0.  0.
         23    2    1    2    0    0  0.73036147836E+02 -0.16825974885E+02 -0.17212349448E+03  0.20979597232E+03  0.93650735874E+02 0.  0.
          5    1    3    3  502    0 -0.11366703797E+02 -0.23305739933E+02 -0.13517491777E+03  0.13771967130E+03  0.47000000000E+01 0.  1.
         -5    1    3    3    0  502 -0.61669444039E+02  0.40131714818E+02 -0.22693817488E+02  0.77141261426E+02  0.47000000000E+01 0.  1.
        -11    1    4    4    0    0  0.13645596011E+02  0.33747189455E+02 -0.87151275052E+02  0.94447974196E+02  0.00000000000E+00 0. -1.
         11    1    4    4    0    0  0.59390551825E+02 -0.50573164340E+02 -0.84972219426E+02  0.11534799813E+03  0.00000000000E+00 0.  1.
<mgrwt>
<rscale>  0 0.13882031E+03</rscale>
<asrwt>0</asrwt>
<pdfrwt beam="2">  1        1 0.58049932E-01 0.14574870E+03</pdfrwt>
<pdfrwt beam="1">  1       -1 0.72818983E-02 0.14574870E+03</pdfrwt>
<totfact> 0.62452375E+03</totfact>
</mgrwt>
</event>
<event>
 8    1  0.9424564E-006  0.1266713E+03  0.7546771E-02  0.1248618E+00
          1   -1    0    0  501    0  0.00000000000E+00  0.00000000000E+00  0.45579771583E+03  0.45579771583E+03  0.00000000000E+00 0. -1.
         -1   -1    0    0    0  501 -0.00000000000E+00 -0.00000000000E+00 -0.26349015339E+02  0.26349015339E+02  0.00000000000E+00 0.  1.
         23    2    1    2    0    0  0.19518065176E+02 -0.68666405786E+01  0.22423140464E+03  0.25753707730E+03  0.12497006738E+03 0.  0.
         23    2    1    2    0    0 -0.19518065176E+02  0.68666405786E+01  0.20521729585E+03  0.22460965386E+03  0.88922733148E+02 0.  0.
          5    1    3    3  502    0  0.35332640207E+02 -0.15145770438E+02  0.23363341472E+03  0.23682156215E+03  0.47000000000E+01 0.  1.
         -5    1    3    3    0  502 -0.15814575031E+02  0.82791298589E+01 -0.94020100801E+01  0.20715515156E+02  0.47000000000E+01 0.  1.
        -11    1    4    4    0    0  0.25654894845E+02  0.22018837007E+02  0.38594096248E+02  0.51307963103E+02  0.00000000000E+00 0.  1.
         11    1    4    4    0    0 -0.45172960021E+02 -0.15152196429E+02  0.16662319960E+03  0.17330169076E+03  0.00000000000E+00 0. -1.
<mgrwt>
<rscale>  0 0.11671435E+03</rscale>
<asrwt>0</asrwt>
<pdfrwt beam="1">  1        1 0.70122720E-01 0.12667132E+03</pdfrwt>
<pdfrwt beam="2">  1       -1 0.40536950E-02 0.12667132E+03</pdfrwt>
<totfact> 0.11616705E+04</totfact>
</mgrwt>
</event>
<event>
 8    1  0.9424564E-006  0.1475137E+03  0.7546771E-02  0.1213321E+00
         -4   -1    0    0    0  501 -0.00000000000E+00  0.00000000000E+00  0.45512941193E+02  0.45512941193E+02  0.00000000000E+00 0.  1.
          4   -1    0    0  501    0  0.00000000000E+00 -0.00000000000E+00 -0.49876700196E+03  0.49876700196E+03  0.00000000000E+00 0. -1.
         23    2    1    2    0    0 -0.78036543638E+02  0.68562980984E+01 -0.11992750675E+03  0.19011286725E+03  0.12499433768E+03 0.  0.
         23    2    1    2    0    0  0.78036543638E+02 -0.68562980984E+01 -0.33332655401E+03  0.35416707590E+03  0.90504226831E+02 0.  0.
          5    1    3    3  502    0  0.22473915265E+02 -0.16621448544E+02  0.41509761950E+01  0.28647338837E+02  0.47000000000E+01 0. -1.
         -5    1    3    3    0  502 -0.10051045890E+03  0.23477746642E+02 -0.12407848295E+03  0.16146552842E+03  0.47000000000E+01 0. -1.
        -11    1    4    4    0    0  0.53369478247E+02 -0.36374440750E+02 -0.11006268973E+03  0.12761346644E+03  0.00000000000E+00 0.  1.
         11    1    4    4    0    0  0.24667065391E+02  0.29518142651E+02 -0.22326386429E+03  0.22655360945E+03  0.00000000000E+00 0. -1.
<mgrwt>
<rscale>  0 0.14000594E+03</rscale>
<asrwt>0</asrwt>
<pdfrwt beam="2">  1        4 0.76733388E-01 0.14751371E+03</pdfrwt>
<pdfrwt beam="1">  1       -4 0.70019907E-02 0.14751371E+03</pdfrwt>
<totfact> 0.36289252E+02</totfact>
</mgrwt>
</event>
<event>
 7    1  0.9424564E-006  0.1534287E+03  0.7546771E-02  0.1210718E+00
         -4   -1    0    0    0  501 -0.00000000000E+00  0.00000000000E+00  0.51148832265E+03  0.51148832265E+03  0.00000000000E+00 0.  1.
          4   -1    0    0  501    0  0.00000000000E+00 -0.00000000000E+00 -0.34556930608E+02  0.34556930608E+02  0.00000000000E+00 0. -1.
         23    2    1    2    0    0  0.61404386821E+02  0.16033953899E+02  0.19767288762E+03  0.22741429950E+03  0.92817599181E+02 0.  0.
          5    1    1    2  502    0 -0.32479843877E+02 -0.75130027833E+02  0.11171803471E+03  0.13857297940E+03  0.47000000000E+01 0. -1.
         -5    1    1    2    0  502 -0.28924542944E+02  0.59096073934E+02  0.16754046972E+03  0.18005797436E+03  0.47000000000E+01 0.  1.
        -11    1    3    3    0    0 -0.14905640619E+02 -0.15361575570E+00  0.59322380601E-03  0.14906432182E+02  0.00000000000E+00 0. -1.
         11    1    3    3    0    0  0.76310027440E+02  0.16187569654E+02  0.19767229440E+03  0.21250786732E+03  0.00000000000E+00 0.  1.
<mgrwt>
<rscale>  0 0.14195802E+03</rscale>
<asrwt>0</asrwt>
<pdfrwt beam="2">  1        4 0.53164512E-02 0.15342872E+03</pdfrwt>
<pdfrwt beam="1">  1       -4 0.78690505E-01 0.15342872E+03</pdfrwt>
<totfact> 0.54182134E+02</totfact>
</mgrwt>
</event>
<event>
 8    1  0.9424564E-006  0.3345601E+03  0.7546771E-02  0.1070030E+00
         -2   -1    0    0    0  501 -0.00000000000E+00  0.00000000000E+00  0.11386903958E+03  0.11386903958E+03  0.00000000000E+00 0.  1.
          2   -1    0    0  501    0  0.00000000000E+00 -0.00000000000E+00 -0.95931176455E+03  0.95931176455E+03  0.00000000000E+00 0. -1.
         23    2    1    2    0    0 -0.26368942066E+02 -0.31442612775E+03 -0.42496390586E+03  0.54085563016E+03  0.11122670758E+03 0.  0.
         23    2    1    2    0    0  0.26368942066E+02  0.31442612775E+03 -0.42047881911E+03  0.53232517397E+03  0.83717038923E+02 0.  0.
          5    1    3    3  502    0 -0.60020656603E+02 -0.18817545501E+03 -0.30509305798E+03  0.36347812192E+03  0.47000000000E+01 0. -1.
         -5    1    3    3    0  502  0.33651714537E+02 -0.12625067274E+03 -0.11987084787E+03  0.17737750824E+03  0.47000000000E+01 0.  1.
        -11    1    4    4    0    0 -0.17174809371E+02  0.20278027327E+03 -0.29900553779E+03  0.36168926571E+03  0.00000000000E+00 0.  1.
         11    1    4    4    0    0  0.43543751436E+02  0.11164585448E+03 -0.12147328132E+03  0.17063590826E+03  0.00000000000E+00 0. -1.
<mgrwt>
<rscale>  0 0.33251315E+03</rscale>
<asrwt>0</asrwt>
<pdfrwt beam="2">  1        2 0.14758642E+00 0.33456015E+03</pdfrwt>
<pdfrwt beam="1">  1       -2 0.17518314E-01 0.33456015E+03</pdfrwt>
<totfact> 0.73399386E+02</totfact>
</mgrwt>
</event>
<event>
 8    1  0.9424564E-006  0.2056020E+03  0.7546771E-02  0.1149117E+00
         -1   -1    0    0    0  501 -0.00000000000E+00  0.00000000000E+00  0.50827482587E+03  0.50827482587E+03  0.00000000000E+00 0.  1.
          1   -1    0    0  501    0  0.00000000000E+00 -0.00000000000E+00 -0.80893185742E+02  0.80893185742E+02  0.00000000000E+00 0. -1.
         23    2    1    2    0    0 -0.12644446394E+03 -0.10323935983E+03  0.29748445520E+03  0.36162022470E+03  0.12500247177E+03 0.  0.
         23    2    1    2    0    0  0.12644446394E+03  0.10323935983E+03  0.12989718493E+03  0.22754778691E+03  0.90874357205E+02 0.  0.
          5    1    3    3  502    0 -0.82549290160E+02  0.57705411483E+01  0.84765780104E+02  0.11855383557E+03  0.47000000000E+01 0.  1.
         -5    1    3    3    0  502 -0.43895173777E+02 -0.10900990098E+03  0.21271867509E+03  0.24306638913E+03  0.47000000000E+01 0.  1.
        -11    1    4    4    0    0  0.17456335594E+02  0.67284721485E+02  0.67607685641E+02  0.96967811956E+02  0.00000000000E+00 0.  1.
         11    1    4    4    0    0  0.10898812834E+03  0.35954638346E+02  0.62289499292E+02  0.13057997496E+03  0.00000000000E+00 0. -1.
<mgrwt>
<rscale>  0 0.20073866E+03</rscale>
<asrwt>0</asrwt>
<pdfrwt beam="2">  1        1 0.12445106E-01 0.20560201E+03</pdfrwt>
<pdfrwt beam="1">  1       -1 0.78196125E-01 0.20560201E+03</pdfrwt>
<totfact> 0.81486611E+02</totfact>
</mgrwt>
</event>
<event>
 8    1  0.9424564E-006  0.1359138E+03  0.7546771E-02  0.1231119E+00
         -2   -1    0    0    0  501 -0.00000000000E+00  0.00000000000E+00  0.70521202396E+02  0.70521202396E+02  0.00000000000E+00 0.  1.
          2   -1    0    0  501    0  0.00000000000E+00 -0.00000000000E+00 -0.25851037988E+03  0.25851037988E+03  0.00000000000E+00 0. -1.
         23    2    1    2    0    0  0.14319041709E+02 -0.51387197128E+02 -0.30176128809E+02  0.13922341756E+03  0.12500752883E+03 0.  0.
         23    2    1    2    0    0 -0.14319041709E+02  0.51387197128E+02 -0.15781304867E+03  0.18980816471E+03  0.90975282770E+02 0.  0.
          5    1    3    3  502    0 -0.38049628241E+02 -0.16925039986E+02 -0.57104320762E+02  0.70832369984E+02  0.47000000000E+01 0.  1.
         -5    1    3    3    0  502  0.52368669950E+02 -0.34462157142E+02  0.26928191953E+02  0.68391047580E+02  0.47000000000E+01 0.  1.
        -11    1    4    4    0    0 -0.52845367345E+02  0.35953926682E+02 -0.93031529841E+02  0.11287242018E+03  0.00000000000E+00 0.  1.
         11    1    4    4    0    0  0.38526325635E+02  0.15433270446E+02 -0.64781518831E+02  0.76935744525E+02  0.00000000000E+00 0. -1.
<mgrwt>
<rscale>  0 0.12756203E+03</rscale>
<asrwt>0</asrwt>
<pdfrwt beam="2">  1        2 0.39770828E-01 0.13591380E+03</pdfrwt>
<pdfrwt beam="1">  1       -2 0.10849416E-01 0.13591380E+03</pdfrwt>
<totfact> 0.71193709E+03</totfact>
</mgrwt>
</event>
<event>
 8    1  0.9424564E-006  0.2749289E+03  0.7546771E-02  0.1100353E+00
         -2   -1    0    0    0  501 -0.00000000000E+00  0.00000000000E+00  0.74487040157E+02  0.74487040157E+02  0.00000000000E+00 0.  1.
          2   -1    0    0  501    0  0.00000000000E+00 -0.00000000000E+00 -0.11276561198E+04  0.11276561198E+04  0.00000000000E+00 0. -1.
         23    2    1    2    0    0  0.16801884177E+03  0.17813086088E+03 -0.31098239644E+03  0.41508544786E+03  0.12499977337E+03 0.  0.
         23    2    1    2    0    0 -0.16801884177E+03 -0.17813086088E+03 -0.74218668323E+03  0.78705771212E+03  0.93047486044E+02 0.  0.
          5    1    3    3  502    0  0.85826110649E+00  0.66038441681E+02 -0.12278497204E+03  0.13949928943E+03  0.47000000000E+01 0. -1.
         -5    1    3    3    0  502  0.16716058067E+03  0.11209241920E+03 -0.18819742440E+03  0.27558615844E+03  0.47000000000E+01 0. -1.
        -11    1    4    4    0    0 -0.38987434755E+02 -0.10761157303E+03 -0.34790941470E+03  0.36625296116E+03  0.00000000000E+00 0.  1.
         11    1    4    4    0    0 -0.12903140702E+03 -0.70519287844E+02 -0.39427726853E+03  0.42080475097E+03  0.00000000000E+00 0. -1.
<mgrwt>
<rscale>  0 0.27162555E+03</rscale>
<asrwt>0</asrwt>
<pdfrwt beam="2">  1        2 0.17348555E+00 0.27492886E+03</pdfrwt>
<pdfrwt beam="1">  1       -2 0.11459545E-01 0.27492886E+03</pdfrwt>
<totfact> 0.11737034E+03</totfact>
</mgrwt>
</event>
<event>
 8    1  0.9424564E-006  0.1251491E+03  0.7546771E-02  0.1250536E+00
          2   -1    0    0  501    0  0.00000000000E+00  0.00000000000E+00  0.33051139123E+03  0.33051139123E+03  0.00000000000E+00 0. -1.
         -2   -1    0    0    0  501 -0.00000000000E+00 -0.00000000000E+00 -0.40019528005E+02  0.40019528005E+02  0.00000000000E+00 0.  1.
         23    2    1    2    0    0  0.59344796571E+01 -0.14182619465E+01  0.10303655762E+03  0.16210749627E+03  0.12500031450E+03 0.  0.
         23    2    1    2    0    0 -0.59344796571E+01  0.14182619465E+01  0.18745530560E+03  0.20842342296E+03  0.90904357023E+02 0.  0.
          5    1    3    3  502    0 -0.36742354821E+02 -0.48266379999E+02  0.41489791468E+02  0.73641950490E+02  0.47000000000E+01 0. -1.
         -5    1    3    3    0  502  0.42676834478E+02  0.46848118052E+02  0.61546766156E+02  0.88465545781E+02  0.47000000000E+01 0. -1.
        -11    1    4    4    0    0 -0.14464865891E+02  0.44489384485E+02  0.10665293417E+03  0.11646195106E+03  0.00000000000E+00 0. -1.
         11    1    4    4    0    0  0.85303862341E+01 -0.43071122538E+02  0.80802371431E+02  0.91961471904E+02  0.00000000000E+00 0.  1.
<mgrwt>
<rscale>  0 0.11560087E+03</rscale>
<asrwt>0</asrwt>
<pdfrwt beam="1">  1        2 0.50847905E-01 0.12514914E+03</pdfrwt>
<pdfrwt beam="2">  1       -2 0.61568507E-02 0.12514914E+03</pdfrwt>
<totfact> 0.13099525E+04</totfact>
</mgrwt>
</event>
<event>
 8    1  0.9424564E-006  0.1346091E+03  0.7546771E-02  0.1235472E+00
          1   -1    0    0  501    0  0.00000000000E+00  0.00000000000E+00  0.19473094126E+03  0.19473094126E+03  0.00000000000E+00 0. -1.
         -1   -1    0    0    0  501 -0.00000000000E+00 -0.00000000000E+00 -0.83394791370E+02  0.83394791370E+02  0.00000000000E+00 0.  1.
         23    2    1    2    0    0 -0.37279306318E+02 -0.33253231975E+02  0.80265450402E+01  0.13484816216E+03  0.12499630913E+03 0.  0.
         23    2    1    2    0    0  0.37279306318E+02  0.33253231975E+02  0.10330960485E+03  0.14327757047E+03  0.85790813201E+02 0.  0.
          5    1    3    3  502    0 -0.50329762123E+02  0.37110288768E+02  0.72509622627E+01  0.63126261901E+02  0.47000000000E+01 0. -1.
         -5    1    3    3    0  502  0.13050455806E+02 -0.70363520743E+02  0.77558277752E+00  0.71721900259E+02  0.47000000000E+01 0. -1.
        -11    1    4    4    0    0 -0.11863561960E+02  0.22747343218E+02 -0.28612491744E+01  0.25814191304E+02  0.00000000000E+00 0.  1.
         11    1    4    4    0    0  0.49142868277E+02  0.10505888757E+02  0.10617085403E+03  0.11746337917E+03  0.00000000000E+00 0. -1.
<mgrwt>
<rscale>  0 0.12474296E+03</rscale>
<asrwt>0</asrwt>
<pdfrwt beam="1">  1        1 0.29958606E-01 0.13460907E+03</pdfrwt>
<pdfrwt beam="2">  1       -1 0.12829968E-01 0.13460907E+03</pdfrwt>
<totfact> 0.59556277E+03</totfact>
</mgrwt>
</event>
<event>
 8    1  0.9424564E-006  0.2895610E+03  0.7546771E-02  0.1092260E+00
          2   -1    0    0  501    0  0.00000000000E+00  0.00000000000E+00  0.93397084068E+03  0.93397084068E+03  0.00000000000E+00 0. -1.
         -2   -1    0    0    0  501 -0.00000000000E+00 -0.00000000000E+00 -0.12133987787E+03  0.12133987787E+03  0.00000000000E+00 0.  1.
         23    2    1    2    0    0  0.18497591233E+03 -0.18440310616E+03  0.12766856290E+03  0.31645672065E+03  0.12500000156E+03 0.  0.
         23    2    1    2    0    0 -0.18497591233E+03  0.18440310616E+03  0.68496239992E+03  0.73885399790E+03  0.92255878950E+02 0.  0.
          5    1    3    3  502    0  0.35725451238E+02 -0.89370544745E+02  0.97169933275E+02  0.13684841273E+03  0.47000000000E+01 0. -1.
         -5    1    3    3    0  502  0.14925046109E+03 -0.95032561417E+02  0.30498629621E+02  0.17960830792E+03  0.47000000000E+01 0. -1.
        -11    1    4    4    0    0 -0.63559226692E+02  0.26727712822E+02  0.26962182888E+03  0.27829853852E+03  0.00000000000E+00 0.  1.
         11    1    4    4    0    0 -0.12141668564E+03  0.15767539334E+03  0.41534057104E+03  0.46055545938E+03  0.00000000000E+00 0. -1.
<mgrwt>
<rscale>  0 0.28636964E+03</rscale>
<asrwt>0</asrwt>
<pdfrwt beam="1">  1        2 0.14368782E+00 0.28956104E+03</pdfrwt>
<pdfrwt beam="2">  1       -2 0.18667674E-01 0.28956104E+03</pdfrwt>
<totfact> 0.68534033E+02</totfact>
</mgrwt>
</event>
<event>
 8    1  0.9424564E-006  0.1757430E+03  0.7546771E-02  0.1176568E+00
          2   -1    0    0  501    0  0.00000000000E+00  0.00000000000E+00  0.27605673084E+03  0.27605673084E+03  0.00000000000E+00 0. -1.
         -2   -1    0    0    0  501 -0.00000000000E+00 -0.00000000000E+00 -0.13780395551E+03  0.13780395551E+03  0.00000000000E+00 0.  1.
         23    2    1    2    0    0 -0.38163339786E+02  0.11750169216E+03 -0.34922514595E+02  0.17917917710E+03  0.12499002887E+03 0.  0.
         23    2    1    2    0    0  0.38163339786E+02 -0.11750169216E+03  0.17317528992E+03  0.23468150925E+03  0.99109240634E+02 0.  0.
          5    1    3    3  502    0 -0.71206191691E+02  0.12231590839E+03 -0.32991902848E+02  0.14540309087E+03  0.47000000000E+01 0.  1.
         -5    1    3    3    0  502  0.33042851905E+02 -0.48142162260E+01 -0.19306117462E+01  0.33776086239E+02  0.47000000000E+01 0.  1.
        -11    1    4    4    0    0  0.39881004721E+02 -0.50371050059E+02  0.15077266035E+03  0.16389061086E+03  0.00000000000E+00 0.  1.
         11    1    4    4    0    0 -0.17176649349E+01 -0.67130642102E+02  0.22402629572E+02  0.70790898381E+02  0.00000000000E+00 0. -1.
<mgrwt>
<rscale>  0 0.17123275E+03</rscale>
<asrwt>0</asrwt>
<pdfrwt beam="1">  1        2 0.42470266E-01 0.17574298E+03</pdfrwt>
<pdfrwt beam="2">  1       -2 0.21200609E-01 0.17574298E+03</pdfrwt>
<totfact> 0.22365135E+03</totfact>
</mgrwt>
</event>
<event>
 8    1  0.9424564E-006  0.1398409E+03  0.7546771E-02  0.1222684E+00
          1   -1    0    0  501    0  0.00000000000E+00  0.00000000000E+00  0.61370760801E+03  0.61370760801E+03  0.00000000000E+00 0. -1.
         -1   -1    0    0    0  501 -0.00000000000E+00 -0.00000000000E+00 -0.30400399686E+02  0.30400399686E+02  0.00000000000E+00 0.  1.
         23    2    1    2    0    0  0.59649265228E+02 -0.19296325458E+02  0.20159975319E+03  0.24535270209E+03  0.12500041968E+03 0.  0.
         23    2    1    2    0    0 -0.59649265228E+02  0.19296325458E+02  0.38170745513E+03  0.39875530560E+03  0.96823702785E+02 0.  0.
          5    1    3    3  502    0  0.15297473773E+02 -0.35461855908E+02  0.19332021089E+03  0.19719622173E+03  0.47000000000E+01 0.  1.
         -5    1    3    3    0  502  0.44351791455E+02  0.16165530450E+02  0.82795422999E+01  0.48156480360E+02  0.47000000000E+01 0.  1.
        -11    1    4    4    0    0  0.21026875012E+02  0.23735502415E+02  0.15142457170E+03  0.15470909625E+03  0.00000000000E+00 0.  1.
         11    1    4    4    0    0 -0.80676140239E+02 -0.44391769571E+01  0.23028288343E+03  0.24404620935E+03  0.00000000000E+00 0. -1.
<mgrwt>
<rscale>  0 0.13326880E+03</rscale>
<asrwt>0</asrwt>
<pdfrwt beam="1">  1        1 0.94416545E-01 0.13984094E+03</pdfrwt>
<pdfrwt beam="2">  1       -1 0.46769850E-02 0.13984094E+03</pdfrwt>
<totfact> 0.63955059E+03</totfact>
</mgrwt>
</event>
<event>
 8    1  0.9424564E-006  0.4300873E+03  0.7546771E-02  0.1034469E+00
          1   -1    0    0  501    0  0.00000000000E+00  0.00000000000E+00  0.70562103807E+03  0.70562103807E+03  0.00000000000E+00 0. -1.
         -1   -1    0    0    0  501 -0.00000000000E+00 -0.00000000000E+00 -0.31352281028E+03  0.31352281028E+03  0.00000000000E+00 0.  1.
         23    2    1    2    0    0 -0.13767951095E+03  0.38778876816E+03 -0.18218216398E+02  0.43047296269E+03  0.12505715394E+03 0.  0.
         23    2    1    2    0    0  0.13767951095E+03 -0.38778876816E+03  0.41031644419E+03  0.58867088566E+03  0.94010907920E+02 0.  0.
          5    1    3    3  502    0 -0.11100525188E+03  0.13080320806E+03 -0.10716041064E+02  0.17195513578E+03  0.47000000000E+01 0.  1.
         -5    1    3    3    0  502 -0.26674259071E+02  0.25698556010E+03 -0.75021753333E+01  0.25851782691E+03  0.47000000000E+01 0.  1.
        -11    1    4    4    0    0  0.11380593184E+03 -0.18046513092E+03  0.20246494979E+03  0.29412838947E+03  0.00000000000E+00 0.  1.
         11    1    4    4    0    0  0.23873579111E+02 -0.20732363724E+03  0.20785149440E+03  0.29454249619E+03  0.00000000000E+00 0. -1.
<mgrwt>
<rscale>  0 0.42807803E+03</rscale>
<asrwt>0</asrwt>
<pdfrwt beam="1">  1        1 0.10855708E+00 0.43008728E+03</pdfrwt>
<pdfrwt beam="2">  1       -1 0.48234279E-01 0.43008728E+03</pdfrwt>
<totfact> 0.12104676E+02</totfact>
</mgrwt>
</event>
<event>
 8    1  0.9424564E-006  0.1341426E+03  0.7546771E-02  0.1238242E+00
          4   -1    0    0  501    0  0.00000000000E+00  0.00000000000E+00  0.59926776017E+02  0.59926776017E+02  0.00000000000E+00 0. -1.
         -4   -1    0    0    0  501 -0.00000000000E+00 -0.00000000000E+00 -0.23103060998E+03  0.23103060998E+03  0.00000000000E+00 0.  1.
         23    2    1    2    0    0 -0.35565179015E+02  0.33233553039E+02 -0.13265800207E+03  0.18865945798E+03  0.12499957826E+03 0.  0.
         23    2    1    2    0    0  0.35565179015E+02 -0.33233553039E+02 -0.38445831895E+02  0.10229792802E+03  0.81347606487E+02 0.  0.
          5    1    3    3  502    0  0.44817213201E+02  0.21605533534E+02 -0.69821153137E+02  0.85863060182E+02  0.47000000000E+01 0.  1.
         -5    1    3    3    0  502 -0.80382392217E+02  0.11628019506E+02 -0.62836848930E+02  0.10279639779E+03  0.47000000000E+01 0.  1.
        -11    1    4    4    0    0  0.39843399090E+00 -0.25273793078E+02  0.20939560605E+02  0.32823597678E+02  0.00000000000E+00 0. -1.
         11    1    4    4    0    0  0.35166745024E+02 -0.79597599611E+01 -0.59385392499E+02  0.69474330343E+02  0.00000000000E+00 0.  1.
<mgrwt>
<rscale>  0 0.12299166E+03</rscale>
<asrwt>0</asrwt>
<pdfrwt beam="1">  1        4 0.92195038E-02 0.13414263E+03</pdfrwt>
<pdfrwt beam="2">  1       -4 0.35543171E-01 0.13414263E+03</pdfrwt>
<totfact> 0.10994036E+03</totfact>
</mgrwt>
</event>
<event>
 8    1  0.9424564E-006  0.1397942E+03  0.7546771E-02  0.1223550E+00
         -1   -1    0    0    0  501 -0.00000000000E+00  0.00000000000E+00  0.69305699328E+02  0.69305699328E+02  0.00000000000E+00 0.  1.
          1   -1    0    0  501    0  0.00000000000E+00 -0.00000000000E+00 -0.36319369922E+03  0.36319369922E+03  0.00000000000E+00 0. -1.
         23    2    1    2    0    0 -0.22022277806E+02 -0.58581071731E+02 -0.26804714692E+02  0.14234081453E+03  0.12500276823E+03 0.  0.
         23    2    1    2    0    0  0.22022277806E+02  0.58581071731E+02 -0.26708328520E+03  0.29015858402E+03  0.94561091169E+02 0.  0.
          5    1    3    3  502    0 -0.23920701373E+02  0.36831883059E+02 -0.10689257633E+02  0.45443787173E+02  0.47000000000E+01 0. -1.
         -5    1    3    3    0  502  0.18984235662E+01 -0.95412954790E+02 -0.16115457058E+02  0.96897027354E+02  0.47000000000E+01 0. -1.
        -11    1    4    4    0    0  0.15498104926E+02  0.69885074104E+02 -0.26768714216E+03  0.27709298244E+03  0.00000000000E+00 0. -1.
         11    1    4    4    0    0  0.65241728806E+01 -0.11304002373E+02  0.60385696196E+00  0.13065601581E+02  0.00000000000E+00 0.  1.
<mgrwt>
<rscale>  0 0.13266786E+03</rscale>
<asrwt>0</asrwt>
<pdfrwt beam="2">  1        1 0.55875954E-01 0.13979419E+03</pdfrwt>
<pdfrwt beam="1">  1       -1 0.10662415E-01 0.13979419E+03</pdfrwt>
<totfact> 0.36640913E+03</totfact>
</mgrwt>
</event>
<event>
 8    1  0.9424564E-006  0.1302025E+03  0.7546771E-02  0.1241123E+00
          2   -1    0    0  501    0  0.00000000000E+00  0.00000000000E+00  0.22212625188E+03  0.22212625188E+03  0.00000000000E+00 0. -1.
         -2   -1    0    0    0  501 -0.00000000000E+00 -0.00000000000E+00 -0.59011368447E+02  0.59011368447E+02  0.00000000000E+00 0.  1.
         23    2    1    2    0    0 -0.42564704738E+01  0.36273311445E+02  0.80038589494E+02  0.15283610241E+03  0.12497530847E+03 0.  0.
         23    2    1    2    0    0  0.42564704738E+01 -0.36273311445E+02  0.83076293935E+02  0.12830151792E+03  0.90695855591E+02 0.  0.
          5    1    3    3  502    0  0.27978475833E+02  0.74548612636E+02  0.45196931348E+02  0.91679568930E+02  0.47000000000E+01 0. -1.
         -5    1    3    3    0  502 -0.32234946307E+02 -0.38275301191E+02  0.34841658146E+02  0.61156533477E+02  0.47000000000E+01 0. -1.
        -11    1    4    4    0    0 -0.36581713956E+02 -0.41945107311E+02  0.56137853701E+02  0.79051074891E+02  0.00000000000E+00 0. -1.
         11    1    4    4    0    0  0.40838184430E+02  0.56717958658E+01  0.26938440234E+02  0.49250443025E+02  0.00000000000E+00 0.  1.
<mgrwt>
<rscale>  0 0.12120473E+03</rscale>
<asrwt>0</asrwt>
<pdfrwt beam="1">  1        2 0.34173269E-01 0.13020253E+03</pdfrwt>
<pdfrwt beam="2">  1       -2 0.90786722E-02 0.13020253E+03</pdfrwt>
<totfact> 0.11036968E+04</totfact>
</mgrwt>
</event>
<event>
 8    1  0.9424564E-006  0.1511858E+03  0.7546771E-02  0.1207790E+00
         -1   -1    0    0    0  501 -0.00000000000E+00  0.00000000000E+00  0.84342570145E+03  0.84342570145E+03  0.00000000000E+00 0.  1.
          1   -1    0    0  501    0  0.00000000000E+00 -0.00000000000E+00 -0.28214536220E+02  0.28214536220E+02  0.00000000000E+00 0. -1.
         23    2    1    2    0    0 -0.19942652202E+02  0.82674390817E+02  0.63169284296E+03  0.64953290009E+03  0.12499750472E+03 0.  0.
         23    2    1    2    0    0  0.19942652202E+02 -0.82674390817E+02  0.18351832227E+03  0.22210733758E+03  0.91760179391E+02 0.  0.
          5    1    3    3  502    0 -0.18251741251E+02  0.40263915685E+02  0.58330318546E+03  0.58499487616E+03  0.47000000000E+01 0.  1.
         -5    1    3    3    0  502 -0.16909109519E+01  0.42410475131E+02  0.48389657502E+02  0.64538023938E+02  0.47000000000E+01 0.  1.
        -11    1    4    4    0    0  0.35440199604E+01 -0.55122246859E+02  0.18179155898E+03  0.18999787655E+03  0.00000000000E+00 0.  1.
         11    1    4    4    0    0  0.16398632242E+02 -0.27552143958E+02  0.17267632925E+01  0.32109461029E+02  0.00000000000E+00 0. -1.
<mgrwt>
<rscale>  0 0.14419721E+03</rscale>
<asrwt>0</asrwt>
<pdfrwt beam="2">  1        1 0.43406985E-02 0.15118578E+03</pdfrwt>
<pdfrwt beam="1">  1       -1 0.12975778E+00 0.15118578E+03</pdfrwt>
<totfact> 0.10918882E+03</totfact>
</mgrwt>
</event>
<event>
 8    1  0.9424564E-006  0.1297414E+03  0.7546771E-02  0.1242105E+00
          1   -1    0    0  501    0  0.00000000000E+00  0.00000000000E+00  0.50985111053E+03  0.50985111053E+03  0.00000000000E+00 0. -1.
         -1   -1    0    0    0  501 -0.00000000000E+00 -0.00000000000E+00 -0.31038109980E+02  0.31038109980E+02  0.00000000000E+00 0.  1.
         23    2    1    2    0    0 -0.16970950493E+01  0.34673061102E+02  0.15110055844E+03  0.19915874781E+03  0.12501090661E+03 0.  0.
         23    2    1    2    0    0  0.16970950493E+01 -0.34673061102E+02  0.32771244211E+03  0.34173047270E+03  0.90438763579E+02 0.  0.
          5    1    3    3  502    0  0.41221835470E+02  0.18881465856E+01  0.32224826250E+01  0.41656682673E+02  0.47000000000E+01 0. -1.
         -5    1    3    3    0  502 -0.42918930519E+02  0.32784914516E+02  0.14787807581E+03  0.15750206514E+03  0.47000000000E+01 0. -1.
        -11    1    4    4    0    0 -0.12947825465E+01 -0.64961808429E+02  0.19376977510E+03  0.20437328289E+03  0.00000000000E+00 0.  1.
         11    1    4    4    0    0  0.29918775958E+01  0.30288747327E+02  0.13394266701E+03  0.13735718981E+03  0.00000000000E+00 0. -1.
<mgrwt>
<rscale>  0 0.12060324E+03</rscale>
<asrwt>0</asrwt>
<pdfrwt beam="1">  1        1 0.78438626E-01 0.12974139E+03</pdfrwt>
<pdfrwt beam="2">  1       -1 0.47750942E-02 0.12974139E+03</pdfrwt>
<totfact> 0.79122610E+03</totfact>
</mgrwt>
</event>
<event>
 8    1  0.9424564E-006  0.1517570E+03  0.7546771E-02  0.1209340E+00
         -2   -1    0    0    0  501 -0.00000000000E+00  0.00000000000E+00  0.32484587075E+02  0.32484587075E+02  0.00000000000E+00 0.  1.
          2   -1    0    0  501    0  0.00000000000E+00 -0.00000000000E+00 -0.56697702039E+03  0.56697702039E+03  0.00000000000E+00 0. -1.
         23    2    1    2    0    0 -0.65089661653E+02 -0.56284715710E+02 -0.29765486661E+03  0.33410869501E+03  0.12500226872E+03 0.  0.
         23    2    1    2    0    0  0.65089661653E+02  0.56284715710E+02 -0.23683756670E+03  0.26535291245E+03  0.83159496576E+02 0.  0.
          5    1    3    3  502    0 -0.91816111592E+01 -0.54539493766E+02 -0.35218804979E+02  0.65736691336E+02  0.47000000000E+01 0.  1.
         -5    1    3    3    0  502 -0.55908050494E+02 -0.17452219442E+01 -0.26243606163E+03  0.26837200367E+03  0.47000000000E+01 0.  1.
        -11    1    4    4    0    0  0.72948291453E+02  0.14612972204E+02 -0.17711710509E+03  0.19210794127E+03  0.00000000000E+00 0.  1.
         11    1    4    4    0    0 -0.78586297998E+01  0.41671743506E+02 -0.59720461606E+02  0.73244971183E+02  0.00000000000E+00 0. -1.
<mgrwt>
<rscale>  0 0.14300626E+03</rscale>
<asrwt>0</asrwt>
<pdfrwt beam="2">  1        2 0.87227228E-01 0.15175704E+03</pdfrwt>
<pdfrwt beam="1">  1       -2 0.49976291E-02 0.15175704E+03</pdfrwt>
<totfact> 0.10150398E+04</totfact>
</mgrwt>
</event>
<event>
 7    1  0.9424564E-006  0.3500358E+03  0.7546771E-02  0.1062600E+00
          1   -1    0    0  501    0  0.00000000000E+00  0.00000000000E+00  0.11882894131E+03  0.11882894131E+03  0.00000000000E+00 0. -1.
         -1   -1    0    0    0  501 -0.00000000000E+00 -0.00000000000E+00 -0.25777620224E+03  0.25777620224E+03  0.00000000000E+00 0.  1.
         23    2    1    2    0    0 -0.75964115629E+02  0.75499795341E+01 -0.10705132566E+03  0.18144631529E+03  0.12504091311E+03 0.  0.
          5    1    3    3  502    0 -0.44571243289E+02  0.27435207698E+02  0.14288408693E+02  0.54456725689E+02  0.47000000000E+01 0. -1.
         -5    1    3    3    0  502 -0.31392872340E+02 -0.19885228164E+02 -0.12133973435E+03  0.12698958960E+03  0.47000000000E+01 0. -1.
        -11    1    1    2    0    0  0.32503650432E+02  0.80479426621E+02 -0.42081350088E+02  0.96458620278E+02  0.00000000000E+00 0.  1.
         11    1    1    2    0    0  0.43460465197E+02 -0.88029406155E+02  0.10185414820E+02  0.98700207994E+02  0.00000000000E+00 0. -1.
<mgrwt>
<rscale>  0 0.35003585E+03</rscale>
<asrwt>0</asrwt>
<pdfrwt beam="1">  1        1 0.18281376E-01 0.35003585E+03</pdfrwt>
<pdfrwt beam="2">  1       -1 0.39657877E-01 0.35003585E+03</pdfrwt>
<totfact> 0.18066950E+03</totfact>
</mgrwt>
</event>
<event>
 8    1  0.9424564E-006  0.1752547E+03  0.7546771E-02  0.1178587E+00
         -2   -1    0    0    0  501 -0.00000000000E+00  0.00000000000E+00  0.96549129439E+03  0.96549129439E+03  0.00000000000E+00 0.  1.
          2   -1    0    0  501    0  0.00000000000E+00 -0.00000000000E+00 -0.32398420932E+02  0.32398420932E+02  0.00000000000E+00 0. -1.
         23    2    1    2    0    0 -0.56665468419E+02 -0.10899751846E+03  0.68116917370E+03  0.70335313935E+03  0.12499104402E+03 0.  0.
         23    2    1    2    0    0  0.56665468419E+02  0.10899751846E+03  0.25192369975E+03  0.29453657597E+03  0.90525188468E+02 0.  0.
          5    1    3    3  502    0  0.26588720179E+02 -0.36244687060E+02  0.78271510617E+02  0.90383387606E+02  0.47000000000E+01 0. -1.
         -5    1    3    3    0  502 -0.83254188598E+02 -0.72752831399E+02  0.60289766309E+03  0.61296975174E+03  0.47000000000E+01 0. -1.
        -11    1    4    4    0    0  0.63108668881E+02  0.45663374022E+02  0.19162074469E+03  0.20684863453E+03  0.00000000000E+00 0.  1.
         11    1    4    4    0    0 -0.64432004626E+01  0.63334144436E+02  0.60302955066E+02  0.87687941436E+02  0.00000000000E+00 0. -1.
<mgrwt>
<rscale>  0 0.16929324E+03</rscale>
<asrwt>0</asrwt>
<pdfrwt beam="2">  1        2 0.49843732E-02 0.17525466E+03</pdfrwt>
<pdfrwt beam="1">  1       -2 0.14853710E+00 0.17525466E+03</pdfrwt>
<totfact> 0.50730526E+02</totfact>
</mgrwt>
</event>
<event>
 8    1  0.9424564E-006  0.1324603E+03  0.7546771E-02  0.1236806E+00
         -3   -1    0    0    0  501 -0.00000000000E+00  0.00000000000E+00  0.33059809185E+03  0.33059809185E+03  0.00000000000E+00 0.  1.
          3   -1    0    0  501    0  0.00000000000E+00 -0.00000000000E+00 -0.52431176182E+02  0.52431176182E+02  0.00000000000E+00 0. -1.
         23    2    1    2    0    0 -0.65124611225E+01 -0.43336980651E+02  0.24108673684E+03  0.27507913879E+03  0.12500084750E+03 0.  0.
         23    2    1    2    0    0  0.65124611225E+01  0.43336980651E+02  0.37080178828E+02  0.10795012924E+03  0.91420920472E+02 0.  0.
          5    1    3    3  502    0 -0.46047564939E+02 -0.32047533080E+01  0.27058818605E+02  0.53711435885E+02  0.47000000000E+01 0.  1.
         -5    1    3    3    0  502  0.39535103816E+02 -0.40132227343E+02  0.21402791823E+03  0.22136770290E+03  0.47000000000E+01 0.  1.
        -11    1    4    4    0    0 -0.92228786618E+01  0.58139753997E+01  0.60181268482E+02  0.61160844311E+02  0.00000000000E+00 0.  1.
         11    1    4    4    0    0  0.15735339784E+02  0.37523005252E+02 -0.23101089654E+02  0.46789284932E+02  0.00000000000E+00 0. -1.
<mgrwt>
<rscale>  0 0.12389515E+03</rscale>
<asrwt>0</asrwt>
<pdfrwt beam="2">  1        3 0.80663350E-02 0.13246025E+03</pdfrwt>
<pdfrwt beam="1">  1       -3 0.50861244E-01 0.13246025E+03</pdfrwt>
<totfact> 0.93392617E+02</totfact>
</mgrwt>
</event>
<event>
 8    1  0.9424564E-006  0.2027963E+03  0.7546771E-02  0.1151576E+00
         -2   -1    0    0    0  501 -0.00000000000E+00  0.00000000000E+00  0.70408045831E+03  0.70408045831E+03  0.00000000000E+00 0.  1.
          2   -1    0    0  501    0  0.00000000000E+00 -0.00000000000E+00 -0.59316726957E+02  0.59316726957E+02  0.00000000000E+00 0. -1.
         23    2    1    2    0    0  0.10946302076E+03 -0.11627076960E+03  0.46072763942E+03  0.50338482330E+03  0.12500111133E+03 0.  0.
         23    2    1    2    0    0 -0.10946302076E+03  0.11627076960E+03  0.18403609193E+03  0.26001236196E+03  0.90752963923E+02 0.  0.
          5    1    3    3  502    0 -0.35862416198E+01  0.22767526227E+02  0.51544762081E+02  0.56658396354E+02  0.47000000000E+01 0.  1.
         -5    1    3    3    0  502  0.11304926238E+03 -0.13903829582E+03  0.40918287734E+03  0.44672642695E+03  0.47000000000E+01 0.  1.
        -11    1    4    4    0    0 -0.80821280533E+02  0.12644853108E+03  0.13256902053E+03  0.20023949562E+03  0.00000000000E+00 0.  1.
         11    1    4    4    0    0 -0.28641740229E+02 -0.10177761487E+02  0.51467071398E+02  0.59772866340E+02  0.00000000000E+00 0. -1.
<mgrwt>
<rscale>  0 0.19783745E+03</rscale>
<asrwt>0</asrwt>
<pdfrwt beam="2">  1        2 0.91256508E-02 0.20279626E+03</pdfrwt>
<pdfrwt beam="1">  1       -2 0.10832006E+00 0.20279626E+03</pdfrwt>
<totfact> 0.50794094E+02</totfact>
</mgrwt>
</event>
<event>
 7    1  0.9424564E-006  0.1651120E+03  0.7546771E-02  0.1196720E+00
          1   -1    0    0  501    0  0.00000000000E+00  0.00000000000E+00  0.20785270525E+03  0.20785270525E+03  0.00000000000E+00 0. -1.
         -1   -1    0    0    0  501 -0.00000000000E+00 -0.00000000000E+00 -0.10053332001E+03  0.10053332001E+03  0.00000000000E+00 0.  1.
         23    2    1    2    0    0 -0.79354211643E+02  0.15479960957E+02  0.63418819876E+02  0.13753746171E+03  0.91421477581E+02 0.  0.
          5    1    1    2  502    0  0.84613017829E+02  0.89411104977E+01  0.86384269288E+02  0.12134099976E+03  0.47000000000E+01 0. -1.
         -5    1    1    2    0  502 -0.52588061861E+01 -0.24421071455E+02 -0.42483703916E+02  0.49507563785E+02  0.47000000000E+01 0.  1.
        -11    1    3    3    0    0 -0.62197983304E+00  0.34006955348E+02  0.41655992496E+02  0.53778077148E+02  0.00000000000E+00 0.  1.
         11    1    3    3    0    0 -0.78732231810E+02 -0.18526994391E+02  0.21762827380E+02  0.83759384564E+02  0.00000000000E+00 0. -1.
<mgrwt>
<rscale>  0 0.15309556E+03</rscale>
<asrwt>0</asrwt>
<pdfrwt beam="1">  1        1 0.31977339E-01 0.16511200E+03</pdfrwt>
<pdfrwt beam="2">  1       -1 0.15466665E-01 0.16511200E+03</pdfrwt>
<totfact> 0.41480425E+03</totfact>
</mgrwt>
</event>
<event>
 8    1  0.9424564E-006  0.1297661E+03  0.7546771E-02  0.1242541E+00
         -1   -1    0    0    0  501 -0.00000000000E+00  0.00000000000E+00  0.18368288667E+02  0.18368288667E+02  0.00000000000E+00 0.  1.
          1   -1    0    0  501    0  0.00000000000E+00 -0.00000000000E+00 -0.69937940566E+03  0.69937940566E+03  0.00000000000E+00 0. -1.
         23    2    1    2    0    0 -0.12283078795E+02  0.32618175157E+02 -0.35860601015E+03  0.38136269141E+03  0.12499765001E+03 0.  0.
         23    2    1    2    0    0  0.12283078795E+02 -0.32618175157E+02 -0.32240510685E+03  0.33638500292E+03  0.89414752108E+02 0.  0.
          5    1    3    3  502    0  0.48308939613E+02  0.15127031963E+02 -0.73777845998E+02  0.89598221537E+02  0.47000000000E+01 0. -1.
         -5    1    3    3    0  502 -0.60592018408E+02  0.17491143194E+02 -0.28482816415E+03  0.29176446987E+03  0.47000000000E+01 0. -1.
        -11    1    4    4    0    0  0.50874841524E+02 -0.22584256249E+02 -0.20330068280E+03  0.21078298261E+03  0.00000000000E+00 0.  1.
         11    1    4    4    0    0 -0.38591762729E+02 -0.10033918908E+02 -0.11910442404E+03  0.12560202031E+03  0.00000000000E+00 0. -1.
<mgrwt>
<rscale>  0 0.12033785E+03</rscale>
<asrwt>0</asrwt>
<pdfrwt beam="2">  1        1 0.10759682E+00 0.12976607E+03</pdfrwt>
<pdfrwt beam="1">  1       -1 0.28258907E-02 0.12976607E+03</pdfrwt>
<totfact> 0.11088915E+04</totfact>
</mgrwt>
</event>
<event>
 8    1  0.1059840E-005  0.2252475E+03  0.7546771E-02  0.1133108E+00
         -1   -1    0    0    0  501 -0.00000000000E+00  0.00000000000E+00  0.80712217013E+02  0.80712217013E+02  0.00000000000E+00 0.  1.
          1   -1    0    0  501    0  0.00000000000E+00 -0.00000000000E+00 -0.59028577925E+03  0.59028577925E+03  0.00000000000E+00 0. -1.
         23    2    1    2    0    0  0.16171863857E+03  0.94654221662E+02 -0.22912068125E+03  0.32129852710E+03  0.12499646875E+03 0.  0.
         23    2    1    2    0    0 -0.16171863857E+03 -0.94654221662E+02 -0.28045288098E+03  0.34969946916E+03  0.92323131106E+02 0.  0.
          5    1    3    3  502    0  0.85837638822E+02  0.20714167114E+01 -0.16342889231E+03  0.18467128593E+03  0.47000000000E+01 0. -1.
         -5    1    3    3    0  502  0.75880999751E+02  0.92582804950E+02 -0.65691788941E+02  0.13662724117E+03  0.47000000000E+01 0. -1.
        -11    1    4    4    0    0 -0.89473211965E+02 -0.16390019267E+01 -0.14296915835E+03  0.16866630436E+03  0.00000000000E+00 0. -1.
         11    1    4    4    0    0 -0.72245426608E+02 -0.93015219735E+02 -0.13748372263E+03  0.18103316480E+03  0.00000000000E+00 0.  1.
<mgrwt>
<rscale>  0 0.22104238E+03</rscale>
<asrwt>0</asrwt>
<pdfrwt beam="2">  1        1 0.90813195E-01 0.22524755E+03</pdfrwt>
<pdfrwt beam="1">  1       -1 0.12417264E-01 0.22524755E+03</pdfrwt>
<totfact> 0.15580292E+03</totfact>
</mgrwt>
</event>
<event>
 8    1  0.9424564E-006  0.1252256E+03  0.7546771E-02  0.1250526E+00
          2   -1    0    0  501    0  0.00000000000E+00  0.00000000000E+00  0.10684718922E+03  0.10684718922E+03  0.00000000000E+00 0.  1.
         -2   -1    0    0    0  501 -0.00000000000E+00 -0.00000000000E+00 -0.11011826659E+03  0.11011826659E+03  0.00000000000E+00 0. -1.
         23    2    1    2    0    0  0.34477965431E+01 -0.65179309109E+01 -0.10822695396E+02  0.12569240174E+03  0.12500831331E+03 0.  0.
         23    2    1    2    0    0 -0.34477965431E+01  0.65179309109E+01  0.75516180301E+01  0.91273054069E+02  0.90660756339E+02 0.  0.
          5    1    3    3  502    0  0.18807314910E+02  0.22101381322E+02 -0.59858086838E+02  0.66687830302E+02  0.47000000000E+01 0.  1.
         -5    1    3    3    0  502 -0.15359518367E+02 -0.28619312233E+02  0.49035391442E+02  0.59004571442E+02  0.47000000000E+01 0.  1.
        -11    1    4    4    0    0  0.31392944570E+02  0.25422318644E+02 -0.17881420291E+02  0.44176424093E+02  0.00000000000E+00 0. -1.
         11    1    4    4    0    0 -0.34840741113E+02 -0.18904387733E+02  0.25433038321E+02  0.47096629976E+02  0.00000000000E+00 0.  1.
<mgrwt>
<rscale>  0 0.11560659E+03</rscale>
<asrwt>0</asrwt>
<pdfrwt beam="1">  1        2 0.16438029E-01 0.12522559E+03</pdfrwt>
<pdfrwt beam="2">  1       -2 0.16941272E-01 0.12522559E+03</pdfrwt>
<totfact> 0.91211499E+03</totfact>
</mgrwt>
</event>
<event>
 8    1  0.9424564E-006  0.1369679E+03  0.7546771E-02  0.1229340E+00
         -4   -1    0    0    0  501 -0.00000000000E+00  0.00000000000E+00  0.47474095536E+03  0.47474095536E+03  0.00000000000E+00 0.  1.
          4   -1    0    0  501    0  0.00000000000E+00 -0.00000000000E+00 -0.40973608367E+02  0.40973608367E+02  0.00000000000E+00 0. -1.
         23    2    1    2    0    0  0.44667481241E+02 -0.33767681392E+02  0.36177181811E+03  0.38683207403E+03  0.12499905973E+03 0.  0.
         23    2    1    2    0    0 -0.44667481241E+02  0.33767681392E+02  0.71995528877E+02  0.12888248969E+03  0.91059869225E+02 0.  0.
          5    1    3    3  502    0  0.55811298626E+02  0.32594842715E+02  0.12723019800E+03  0.14278283549E+03  0.47000000000E+01 0. -1.
         -5    1    3    3    0  502 -0.11143817386E+02 -0.66362524107E+02  0.23454162011E+03  0.24404923855E+03  0.47000000000E+01 0. -1.
        -11    1    4    4    0    0  0.16891804694E+02  0.24572495706E+02  0.57805526589E+02  0.65043212676E+02  0.00000000000E+00 0.  1.
         11    1    4    4    0    0 -0.61559285934E+02  0.91951856856E+01  0.14190002288E+02  0.63839277013E+02  0.00000000000E+00 0. -1.
<mgrwt>
<rscale>  0 0.12873814E+03</rscale>
<asrwt>0</asrwt>
<pdfrwt beam="2">  1        4 0.63036324E-02 0.13696790E+03</pdfrwt>
<pdfrwt beam="1">  1       -4 0.73037066E-01 0.13696790E+03</pdfrwt>
<totfact> 0.47358844E+02</totfact>
</mgrwt>
</event>
<event>
 8    1  0.9424564E-006  0.1359157E+03  0.7546771E-02  0.1230537E+00
          1   -1    0    0  501    0  0.00000000000E+00  0.00000000000E+00  0.24760648467E+02  0.24760648467E+02  0.00000000000E+00 0. -1.
         -1   -1    0    0    0  501 -0.00000000000E+00 -0.00000000000E+00 -0.60394913056E+03  0.60394913056E+03  0.00000000000E+00 0.  1.
         23    2    1    2    0    0 -0.47675273654E+02  0.23915457226E+02 -0.36299969491E+03  0.38761043822E+03  0.12501276936E+03 0.  0.
         23    2    1    2    0    0  0.47675273654E+02 -0.23915457226E+02 -0.21618878718E+03  0.24109934080E+03  0.92446847538E+02 0.  0.
          5    1    3    3  502    0  0.29508368753E+02 -0.17714171302E+02 -0.19471348279E+03  0.19778767927E+03  0.47000000000E+01 0.  1.
         -5    1    3    3    0  502 -0.77183642407E+02  0.41629628528E+02 -0.16828621212E+03  0.18982275895E+03  0.47000000000E+01 0.  1.
        -11    1    4    4    0    0  0.14398645463E+02 -0.38085268195E+02 -0.27875410492E+02  0.49344170423E+02  0.00000000000E+00 0.  1.
         11    1    4    4    0    0  0.33276628191E+02  0.14169810969E+02 -0.18831337669E+03  0.19175517038E+03  0.00000000000E+00 0. -1.
<mgrwt>
<rscale>  0 0.12794516E+03</rscale>
<asrwt>0</asrwt>
<pdfrwt beam="1">  1        1 0.38093308E-02 0.13591568E+03</pdfrwt>
<pdfrwt beam="2">  1       -1 0.92915244E-01 0.13591568E+03</pdfrwt>
<totfact> 0.27860727E+03</totfact>
</mgrwt>
</event>
<event>
 8    1  0.9424564E-006  0.2313965E+03  0.7546771E-02  0.1129540E+00
         -3   -1    0    0    0  501 -0.00000000000E+00  0.00000000000E+00  0.63385888171E+03  0.63385888171E+03  0.00000000000E+00 0.  1.
          3   -1    0    0  501    0  0.00000000000E+00 -0.00000000000E+00 -0.12201530670E+03  0.12201530670E+03  0.00000000000E+00 0. -1.
         23    2    1    2    0    0  0.16129706616E+03 -0.10909830021E+03  0.49317881804E+03  0.54476572205E+03  0.12500065080E+03 0.  0.
         23    2    1    2    0    0 -0.16129706616E+03  0.10909830021E+03  0.18664756969E+02  0.21110846636E+03  0.79367680793E+02 0.  0.
          5    1    3    3  502    0  0.16660537656E+03 -0.11869549164E+03  0.38559398713E+03  0.43652122989E+03  0.47000000000E+01 0.  1.
         -5    1    3    3    0  502 -0.53083103949E+01  0.95971914253E+01  0.10758483091E+03  0.10824449216E+03  0.47000000000E+01 0.  1.
        -11    1    4    4    0    0 -0.12938556964E+03  0.84825273839E+02 -0.19275908605E+02  0.15590866995E+03  0.00000000000E+00 0. -1.
         11    1    4    4    0    0 -0.31911496524E+02  0.24273026373E+02  0.37940665574E+02  0.55199796411E+02  0.00000000000E+00 0.  1.
<mgrwt>
<rscale>  0 0.22592693E+03</rscale>
<asrwt>0</asrwt>
<pdfrwt beam="2">  1        3 0.18771586E-01 0.23139651E+03</pdfrwt>
<pdfrwt beam="1">  1       -3 0.97516749E-01 0.23139651E+03</pdfrwt>
<totfact> 0.59421147E+01</totfact>
</mgrwt>
</event>
<event>
 8    1  0.9424564E-006  0.1476976E+03  0.7546771E-02  0.1212938E+00
          1   -1    0    0  501    0  0.00000000000E+00  0.00000000000E+00  0.63839661594E+02  0.63839661594E+02  0.00000000000E+00 0. -1.
         -1   -1    0    0    0  501 -0.00000000000E+00 -0.00000000000E+00 -0.43328552460E+03  0.43328552460E+03  0.00000000000E+00 0.  1.
         23    2    1    2    0    0  0.69916333749E+01  0.78362408203E+02 -0.34381580244E+03  0.37419767002E+03  0.12500016114E+03 0.  0.
         23    2    1    2    0    0 -0.69916333749E+01 -0.78362408203E+02 -0.25630060563E+02  0.12292751617E+03  0.90910528933E+02 0.  0.
          5    1    3    3  502    0 -0.11280919259E+02  0.18501942154E+02  0.24326676653E+01  0.22306700221E+02  0.47000000000E+01 0.  1.
         -5    1    3    3    0  502  0.18272552634E+02  0.59860466049E+02 -0.34624847011E+03  0.35189096980E+03  0.47000000000E+01 0.  1.
        -11    1    4    4    0    0  0.19234489720E+02  0.91569021853E+01  0.11614603423E+02  0.24263418249E+02  0.00000000000E+00 0.  1.
         11    1    4    4    0    0 -0.26226123095E+02 -0.87519310388E+02 -0.37244663985E+02  0.98664097922E+02  0.00000000000E+00 0. -1.
<mgrwt>
<rscale>  0 0.14029096E+03</rscale>
<asrwt>0</asrwt>
<pdfrwt beam="1">  1        1 0.98214860E-02 0.14769763E+03</pdfrwt>
<pdfrwt beam="2">  1       -1 0.66659314E-01 0.14769763E+03</pdfrwt>
<totfact> 0.15239329E+03</totfact>
</mgrwt>
</event>
<event>
 8    1  0.9424564E-006  0.1421592E+03  0.7546771E-02  0.1216217E+00
          4   -1    0    0  501    0  0.00000000000E+00  0.00000000000E+00  0.15533523514E+03  0.15533523514E+03  0.00000000000E+00 0. -1.
         -4   -1    0    0    0  501 -0.00000000000E+00 -0.00000000000E+00 -0.12655232983E+03  0.12655232983E+03  0.00000000000E+00 0.  1.
         23    2    1    2    0    0  0.82554357292E+02  0.29258070280E+02 -0.26301338909E+02  0.14457181499E+03  0.11197317838E+03 0.  0.
         23    2    1    2    0    0 -0.82554357292E+02 -0.29258070280E+02  0.55084244222E+02  0.13731574998E+03  0.90277819240E+02 0.  0.
          5    1    3    3  502    0  0.28978582000E+02 -0.13273519284E+02  0.38518137948E+02  0.50216346740E+02  0.47000000000E+01 0. -1.
         -5    1    3    3    0  502  0.53575775293E+02  0.42531589564E+02 -0.64819476858E+02  0.94355468253E+02  0.47000000000E+01 0.  1.
        -11    1    4    4    0    0 -0.32224040773E+02 -0.36473078623E+02  0.69151088906E+02  0.84560909201E+02  0.00000000000E+00 0. -1.
         11    1    4    4    0    0 -0.50330316520E+02  0.72150083431E+01 -0.14066844684E+02  0.52754840780E+02  0.00000000000E+00 0.  1.
<mgrwt>
<rscale>  0 0.13787538E+03</rscale>
<asrwt>0</asrwt>
<pdfrwt beam="1">  1        4 0.23897728E-01 0.14215924E+03</pdfrwt>
<pdfrwt beam="2">  1       -4 0.19469589E-01 0.14215924E+03</pdfrwt>
<totfact> 0.64467121E+02</totfact>
</mgrwt>
</event>
<event>
 8    1  0.9424564E-006  0.3133150E+03  0.7546771E-02  0.1080255E+00
          2   -1    0    0  501    0  0.00000000000E+00  0.00000000000E+00  0.10890015890E+04  0.10890015890E+04  0.00000000000E+00 0. -1.
         -2   -1    0    0    0  501 -0.00000000000E+00 -0.00000000000E+00 -0.89140431196E+02  0.89140431196E+02  0.00000000000E+00 0.  1.
         23    2    1    2    0    0  0.16079474612E+03  0.23809417026E+03  0.41094417767E+03  0.51676051162E+03  0.12499009927E+03 0.  0.
         23    2    1    2    0    0 -0.16079474612E+03 -0.23809417026E+03  0.58891698018E+03  0.66138150862E+03  0.89769182398E+02 0.  0.
          5    1    3    3  502    0  0.10519780238E+03  0.19420738801E+03  0.21465315347E+03  0.30802784530E+03  0.47000000000E+01 0.  1.
         -5    1    3    3    0  502  0.55596943747E+02  0.43886782254E+02  0.19629102419E+03  0.20873266632E+03  0.47000000000E+01 0.  1.
        -11    1    4    4    0    0 -0.64136538967E+02 -0.40046416514E+02  0.10250310659E+03  0.12737385119E+03  0.00000000000E+00 0.  1.
         11    1    4    4    0    0 -0.96658207155E+02 -0.19804775375E+03  0.48641387358E+03  0.53400765743E+03  0.00000000000E+00 0. -1.
<mgrwt>
<rscale>  0 0.31019038E+03</rscale>
<asrwt>0</asrwt>
<pdfrwt beam="1">  1        2 0.16753870E+00 0.31331503E+03</pdfrwt>
<pdfrwt beam="2">  1       -2 0.13713913E-01 0.31331503E+03</pdfrwt>
<totfact> 0.92126548E+02</totfact>
</mgrwt>
</event>
<event>
 8    1  0.9424564E-006  0.1355673E+03  0.7546771E-02  0.1231035E+00
         -2   -1    0    0    0  501 -0.00000000000E+00  0.00000000000E+00  0.36060220271E+02  0.36060220271E+02  0.00000000000E+00 0.  1.
          2   -1    0    0  501    0  0.00000000000E+00 -0.00000000000E+00 -0.41403379442E+03  0.41403379442E+03  0.00000000000E+00 0. -1.
         23    2    1    2    0    0 -0.49500849028E+02 -0.17407732932E+02 -0.18034162262E+03  0.22561380999E+03  0.12500050875E+03 0.  0.
         23    2    1    2    0    0  0.49500849028E+02  0.17407732932E+02 -0.19763195154E+03  0.22448020471E+03  0.92626188611E+02 0.  0.
          5    1    3    3  502    0 -0.71097680189E+02  0.31923451764E+02 -0.13057235628E+03  0.15213552223E+03  0.47000000000E+01 0. -1.
         -5    1    3    3    0  502  0.21596831161E+02 -0.49331184696E+02 -0.49769266339E+02  0.73478287756E+02  0.47000000000E+01 0. -1.
        -11    1    4    4    0    0  0.50447748797E+01 -0.35840093785E+02 -0.54468992606E+02  0.65397501723E+02  0.00000000000E+00 0. -1.
         11    1    4    4    0    0  0.44456074149E+02  0.53247826717E+02 -0.14316295893E+03  0.15908270298E+03  0.00000000000E+00 0.  1.
<mgrwt>
<rscale>  0 0.12761719E+03</rscale>
<asrwt>0</asrwt>
<pdfrwt beam="2">  1        2 0.63697507E-01 0.13556729E+03</pdfrwt>
<pdfrwt beam="1">  1       -2 0.55477262E-02 0.13556729E+03</pdfrwt>
<totfact> 0.12145100E+04</totfact>
</mgrwt>
</event>
<event>
 8    1  0.9424564E-006  0.1496309E+03  0.7546771E-02  0.1208794E+00
          1   -1    0    0  501    0  0.00000000000E+00  0.00000000000E+00  0.40008621573E+03  0.40008621573E+03  0.00000000000E+00 0. -1.
         -1   -1    0    0    0  501 -0.00000000000E+00 -0.00000000000E+00 -0.17629232273E+03  0.17629232273E+03  0.00000000000E+00 0.  1.
         23    2    1    2    0    0  0.81348017492E+02  0.36569425524E+02 -0.13156163964E+03  0.19924326387E+03  0.12014403997E+03 0.  0.
         23    2    1    2    0    0 -0.81348017492E+02 -0.36569425524E+02  0.35535553264E+03  0.37713527460E+03  0.89435104592E+02 0.  0.
          5    1    3    3  502    0 -0.20703119357E+02 -0.35411296538E+01 -0.70365431685E+02  0.73583576473E+02  0.47000000000E+01 0. -1.
         -5    1    3    3    0  502  0.10205113685E+03  0.40110555177E+02 -0.61196207951E+02  0.12565968740E+03  0.47000000000E+01 0.  1.
        -11    1    4    4    0    0 -0.74623487773E+02 -0.55810438759E+02  0.33720175318E+03  0.34984066709E+03  0.00000000000E+00 0. -1.
         11    1    4    4    0    0 -0.67245297193E+01  0.19241013236E+02  0.18153779462E+02  0.27294607509E+02  0.00000000000E+00 0.  1.
<mgrwt>
<rscale>  0 0.14342435E+03</rscale>
<asrwt>0</asrwt>
<pdfrwt beam="1">  1        1 0.61551725E-01 0.14963092E+03</pdfrwt>
<pdfrwt beam="2">  1       -1 0.27121896E-01 0.14963092E+03</pdfrwt>
<totfact> 0.73701587E+02</totfact>
</mgrwt>
</event>
<event>
 8    1  0.9424564E-006  0.2699360E+03  0.7546771E-02  0.1103252E+00
          2   -1    0    0  501    0  0.00000000000E+00  0.00000000000E+00  0.21009113139E+03  0.21009113139E+03  0.00000000000E+00 0. -1.
         -2   -1    0    0    0  501 -0.00000000000E+00 -0.00000000000E+00 -0.47562073916E+03  0.47562073916E+03  0.00000000000E+00 0.  1.
         23    2    1    2    0    0 -0.64298930950E+02 -0.23044676849E+03 -0.32466301840E+03  0.42222213686E+03  0.12500156685E+03 0.  0.
         23    2    1    2    0    0  0.64298930950E+02  0.23044676849E+03  0.59133410634E+02  0.26348973369E+03  0.93220243933E+02 0.  0.
          5    1    3    3  502    0 -0.68685650463E+02 -0.12433890347E+03 -0.26400489192E+03  0.29983087642E+03  0.47000000000E+01 0. -1.
         -5    1    3    3    0  502  0.43867195133E+01 -0.10610786501E+03 -0.60658126479E+02  0.12239126044E+03  0.47000000000E+01 0. -1.
        -11    1    4    4    0    0  0.45454601511E+02  0.39738700020E+02 -0.69590356253E+01  0.60775926604E+02  0.00000000000E+00 0. -1.
         11    1    4    4    0    0  0.18844329440E+02  0.19070806846E+03  0.66092446259E+02  0.20271380708E+03  0.00000000000E+00 0.  1.
<mgrwt>
<rscale>  0 0.26658216E+03</rscale>
<asrwt>0</asrwt>
<pdfrwt beam="1">  1        2 0.32321713E-01 0.26993602E+03</pdfrwt>
<pdfrwt beam="2">  1       -2 0.73172421E-01 0.26993602E+03</pdfrwt>
<totfact> 0.28127034E+02</totfact>
</mgrwt>
</event>
<event>
 8    1  0.9424564E-006  0.1336574E+03  0.7546771E-02  0.1231076E+00
         -3   -1    0    0    0  501 -0.00000000000E+00  0.00000000000E+00  0.31278935136E+03  0.31278935136E+03  0.00000000000E+00 0.  1.
          3   -1    0    0  501    0  0.00000000000E+00 -0.00000000000E+00 -0.50991193687E+02  0.50991193687E+02  0.00000000000E+00 0. -1.
         23    2    1    2    0    0 -0.92211985077E+01  0.59526785134E+02  0.18732188733E+03  0.23011690536E+03  0.11931400593E+03 0.  0.
         23    2    1    2    0    0  0.92211985077E+01 -0.59526785134E+02  0.74476270348E+02  0.13366363969E+03  0.93224380286E+02 0.  0.
          5    1    3    3  502    0  0.16666241850E+02  0.90816553795E+02  0.13708950993E+03  0.16535124370E+03  0.47000000000E+01 0. -1.
         -5    1    3    3    0  502 -0.25887440358E+02 -0.31289768661E+02  0.50232377395E+02  0.64765661657E+02  0.47000000000E+01 0.  1.
        -11    1    4    4    0    0  0.27780459764E+02 -0.24593637842E+02 -0.11649136021E+02  0.38888344488E+02  0.00000000000E+00 0. -1.
         11    1    4    4    0    0 -0.18559261256E+02 -0.34933147292E+02  0.86125406369E+02  0.94775295201E+02  0.00000000000E+00 0.  1.
<mgrwt>
<rscale>  0 0.12759034E+03</rscale>
<asrwt>0</asrwt>
<pdfrwt beam="2">  1        3 0.78447992E-02 0.13365740E+03</pdfrwt>
<pdfrwt beam="1">  1       -3 0.48121438E-01 0.13365740E+03</pdfrwt>
<totfact> 0.10926192E+03</totfact>
</mgrwt>
</event>
<event>
 8    1  0.9424564E-006  0.3604898E+03  0.7546771E-02  0.1059502E+00
         -1   -1    0    0    0  501 -0.00000000000E+00  0.00000000000E+00  0.10436848916E+03  0.10436848916E+03  0.00000000000E+00 0.  1.
          1   -1    0    0  501    0  0.00000000000E+00 -0.00000000000E+00 -0.13496622844E+04  0.13496622844E+04  0.00000000000E+00 0. -1.
         23    2    1    2    0    0 -0.26877296392E+03 -0.20515500912E+03 -0.39516217813E+03  0.53488882519E+03  0.12500169753E+03 0.  0.
         23    2    1    2    0    0  0.26877296392E+03  0.20515500912E+03 -0.85013161713E+03  0.91914194840E+03  0.88151409297E+02 0.  0.
          5    1    3    3  502    0 -0.66546278972E+02 -0.82334430659E+01 -0.30743703908E+02  0.73915236317E+02  0.47000000000E+01 0.  1.
         -5    1    3    3    0  502 -0.20222668495E+03 -0.19692156605E+03 -0.36441847422E+03  0.46097358887E+03  0.47000000000E+01 0.  1.
        -11    1    4    4    0    0  0.59078377144E+02  0.56766100159E+02 -0.31597236717E+03  0.32642178479E+03  0.00000000000E+00 0. -1.
         11    1    4    4    0    0  0.20969458678E+03  0.14838890896E+03 -0.53415924996E+03  0.59272016361E+03  0.00000000000E+00 0.  1.
<mgrwt>
<rscale>  0 0.35769131E+03</rscale>
<asrwt>0</asrwt>
<pdfrwt beam="2">  1        1 0.20764035E+00 0.36048982E+03</pdfrwt>
<pdfrwt beam="1">  1       -1 0.16056691E-01 0.36048982E+03</pdfrwt>
<totfact> 0.25821103E+02</totfact>
</mgrwt>
</event>
<event>
 8    1  0.9424564E-006  0.1265844E+03  0.7546771E-02  0.1247774E+00
          1   -1    0    0  501    0  0.00000000000E+00  0.00000000000E+00  0.40496971953E+02  0.40496971953E+02  0.00000000000E+00 0. -1.
         -1   -1    0    0    0  501 -0.00000000000E+00 -0.00000000000E+00 -0.29831331941E+03  0.29831331941E+03  0.00000000000E+00 0.  1.
         23    2    1    2    0    0  0.16828231343E+02  0.10089589991E+02 -0.15558345201E+03  0.20057375885E+03  0.12505452012E+03 0.  0.
         23    2    1    2    0    0 -0.16828231343E+02 -0.10089589991E+02 -0.10223289545E+03  0.13823653252E+03  0.90954850419E+02 0.  0.
          5    1    3    3  502    0 -0.30315030502E+02  0.12237967954E+01  0.65799983556E+01  0.31398807800E+02  0.47000000000E+01 0.  1.
         -5    1    3    3    0  502  0.47143261845E+02  0.88657931957E+01 -0.16216345037E+03  0.16917495105E+03  0.47000000000E+01 0.  1.
        -11    1    4    4    0    0  0.21266420294E+02  0.17927219016E+02 -0.82382441023E+02  0.86951207023E+02  0.00000000000E+00 0.  1.
         11    1    4    4    0    0 -0.38094651637E+02 -0.28016809007E+02 -0.19850454422E+02  0.51285325494E+02  0.00000000000E+00 0. -1.
<mgrwt>
<rscale>  0 0.11720902E+03</rscale>
<asrwt>0</asrwt>
<pdfrwt beam="1">  1        1 0.62303034E-02 0.12658445E+03</pdfrwt>
<pdfrwt beam="2">  1       -1 0.45894357E-01 0.12658445E+03</pdfrwt>
<totfact> 0.55903338E+03</totfact>
</mgrwt>
</event>
<event>
 8    1  0.9424564E-006  0.1300819E+03  0.7546771E-02  0.1241489E+00
          1   -1    0    0  501    0  0.00000000000E+00  0.00000000000E+00  0.29911026438E+03  0.29911026438E+03  0.00000000000E+00 0. -1.
         -1   -1    0    0    0  501 -0.00000000000E+00 -0.00000000000E+00 -0.47650476599E+02  0.47650476599E+02  0.00000000000E+00 0.  1.
         23    2    1    2    0    0  0.46979043611E+01 -0.35699618671E+02  0.89801299272E+02  0.15806822016E+03  0.12499902317E+03 0.  0.
         23    2    1    2    0    0 -0.46979043611E+01  0.35699618671E+02  0.16165848851E+03  0.18869252083E+03  0.90414973478E+02 0.  0.
          5    1    3    3  502    0  0.55821841413E+02 -0.23794081227E+02  0.85826695105E+02  0.10521667108E+03  0.47000000000E+01 0.  1.
         -5    1    3    3    0  502 -0.51123937052E+02 -0.11905537445E+02  0.39746041665E+01  0.52851549077E+02  0.47000000000E+01 0.  1.
        -11    1    4    4    0    0 -0.37435096794E+02  0.46483361368E+02  0.78020540356E+02  0.98230820385E+02  0.00000000000E+00 0. -1.
         11    1    4    4    0    0  0.32737192433E+02 -0.10783742697E+02  0.83637948155E+02  0.90461700440E+02  0.00000000000E+00 0.  1.
<mgrwt>
<rscale>  0 0.12098020E+03</rscale>
<asrwt>0</asrwt>
<pdfrwt beam="1">  1        1 0.46016963E-01 0.13008185E+03</pdfrwt>
<pdfrwt beam="2">  1       -1 0.73308427E-02 0.13008185E+03</pdfrwt>
<totfact> 0.81961279E+03</totfact>
</mgrwt>
</event>
<event>
 8    1  0.9424564E-006  0.1858371E+03  0.7546771E-02  0.1166243E+00
          2   -1    0    0  501    0  0.00000000000E+00  0.00000000000E+00  0.61003293027E+03  0.61003293027E+03  0.00000000000E+00 0. -1.
         -2   -1    0    0    0  501 -0.00000000000E+00 -0.00000000000E+00 -0.72670701818E+02  0.72670701818E+02  0.00000000000E+00 0.  1.
         23    2    1    2    0    0  0.43153174283E+02 -0.14169078374E+03  0.94469409064E+02  0.20847033642E+03  0.11223607830E+03 0.  0.
         23    2    1    2    0    0 -0.43153174283E+02  0.14169078374E+03  0.44289281939E+03  0.47423329567E+03  0.82490572810E+02 0.  0.
          5    1    3    3  502    0  0.48292846423E+02 -0.10508986401E+03  0.11728282366E+03  0.16478297624E+03  0.47000000000E+01 0. -1.
         -5    1    3    3    0  502 -0.51396721393E+01 -0.36600919726E+02 -0.22813414592E+02  0.43687360184E+02  0.47000000000E+01 0.  1.
        -11    1    4    4    0    0  0.30735785194E+01  0.94054096793E+02  0.18030062286E+03  0.20338125433E+03  0.00000000000E+00 0. -1.
         11    1    4    4    0    0 -0.46226752803E+02  0.47636686947E+02  0.26259219653E+03  0.27085204133E+03  0.00000000000E+00 0.  1.
<mgrwt>
<rscale>  0 0.18162100E+03</rscale>
<asrwt>0</asrwt>
<pdfrwt beam="1">  1        2 0.93851217E-01 0.18583706E+03</pdfrwt>
<pdfrwt beam="2">  1       -2 0.11180108E-01 0.18583706E+03</pdfrwt>
<totfact> 0.27110280E+03</totfact>
</mgrwt>
</event>
<event>
 8    1  0.9424564E-006  0.2604295E+03  0.7546771E-02  0.1109030E+00
         -2   -1    0    0    0  501 -0.00000000000E+00  0.00000000000E+00  0.27571201617E+03  0.27571201617E+03  0.00000000000E+00 0.  1.
          2   -1    0    0  501    0  0.00000000000E+00 -0.00000000000E+00 -0.25415335150E+03  0.25415335150E+03  0.00000000000E+00 0. -1.
         23    2    1    2    0    0 -0.20942836570E+03 -0.91303321672E+02  0.87377469284E+02  0.27469680455E+03  0.12500790130E+03 0.  0.
         23    2    1    2    0    0  0.20942836570E+03  0.91303321672E+02 -0.65818804615E+02  0.25516856312E+03  0.92640939435E+02 0.  0.
          5    1    3    3  502    0 -0.20522794012E+03 -0.73232072417E+02  0.37345949464E+02  0.22112949549E+03  0.47000000000E+01 0. -1.
         -5    1    3    3    0  502 -0.42004255777E+01 -0.18071249254E+02  0.50031519820E+02  0.53567309062E+02  0.47000000000E+01 0. -1.
        -11    1    4    4    0    0  0.91204544082E+02 -0.60840058422E+01 -0.92015463476E+01  0.91869213795E+02  0.00000000000E+00 0.  1.
         11    1    4    4    0    0  0.11822382161E+03  0.97387327514E+02 -0.56617258267E+02  0.16329934933E+03  0.00000000000E+00 0. -1.
<mgrwt>
<rscale>  0 0.25688378E+03</rscale>
<asrwt>0</asrwt>
<pdfrwt beam="2">  1        2 0.39100516E-01 0.26042948E+03</pdfrwt>
<pdfrwt beam="1">  1       -2 0.42417233E-01 0.26042948E+03</pdfrwt>
<totfact> 0.69826976E+02</totfact>
</mgrwt>
</event>
<event>
 8    1  0.9424564E-006  0.1260981E+03  0.7546771E-02  0.1249524E+00
         -1   -1    0    0    0  501 -0.00000000000E+00  0.00000000000E+00  0.96016393336E+02  0.96016393336E+02  0.00000000000E+00 0. -1.
          1   -1    0    0  501    0  0.00000000000E+00 -0.00000000000E+00 -0.12812153051E+03  0.12812153051E+03  0.00000000000E+00 0.  1.
         23    2    1    2    0    0  0.16061882827E+02  0.42747015976E+01  0.44470847304E+01  0.12617652509E+03  0.12499792705E+03 0.  0.
         23    2    1    2    0    0 -0.16061882827E+02 -0.42747015976E+01 -0.36552221904E+02  0.97961398756E+02  0.89353867104E+02 0.  0.
          5    1    3    3  502    0  0.28390034738E+02 -0.53380213056E+02  0.21954616287E+02  0.64494467938E+02  0.47000000000E+01 0. -1.
         -5    1    3    3    0  502 -0.12328151911E+02  0.57654914654E+02 -0.17507531557E+02  0.61682057152E+02  0.47000000000E+01 0. -1.
        -11    1    4    4    0    0 -0.18467217887E+02 -0.17201031355E+02 -0.63306162061E+02  0.68151183197E+02  0.00000000000E+00 0.  1.
         11    1    4    4    0    0  0.24053350605E+01  0.12926329758E+02  0.26753940157E+02  0.29810215559E+02  0.00000000000E+00 0. -1.
<mgrwt>
<rscale>  0 0.11618670E+03</rscale>
<asrwt>0</asrwt>
<pdfrwt beam="2">  1        1 0.19711005E-01 0.12609813E+03</pdfrwt>
<pdfrwt beam="1">  1       -1 0.14771753E-01 0.12609813E+03</pdfrwt>
<totfact> 0.80533731E+03</totfact>
</mgrwt>
</event>
<event>
 8    1  0.9424564E-006  0.1251492E+03  0.7546771E-02  0.1252583E+00
         -1   -1    0    0    0  501 -0.00000000000E+00  0.00000000000E+00  0.31766061680E+02  0.31766061680E+02  0.00000000000E+00 0.  1.
          1   -1    0    0  501    0  0.00000000000E+00 -0.00000000000E+00 -0.41774859179E+03  0.41774859179E+03  0.00000000000E+00 0. -1.
         23    2    1    2    0    0 -0.47121081860E+01 -0.39420921435E+01 -0.13671575040E+03  0.18534704453E+03  0.12499834580E+03 0.  0.
         23    2    1    2    0    0  0.47121081860E+01  0.39420921435E+01 -0.24926677971E+03  0.26416760894E+03  0.87251671003E+02 0.  0.
          5    1    3    3  502    0  0.27104485284E+02 -0.47157970656E+02 -0.22471395261E+02  0.59038808626E+02  0.47000000000E+01 0. -1.
         -5    1    3    3    0  502 -0.31816593470E+02  0.43215878513E+02 -0.11424435514E+03  0.12630823590E+03  0.47000000000E+01 0. -1.
        -11    1    4    4    0    0  0.35829306090E+02 -0.41528770418E+01 -0.21156347061E+03  0.21461614026E+03  0.00000000000E+00 0. -1.
         11    1    4    4    0    0 -0.31117197904E+02  0.80949691853E+01 -0.37703309094E+02  0.49551468678E+02  0.00000000000E+00 0.  1.
<mgrwt>
<rscale>  0 0.11442820E+03</rscale>
<asrwt>0</asrwt>
<pdfrwt beam="2">  1        1 0.64269009E-01 0.12514923E+03</pdfrwt>
<pdfrwt beam="1">  1       -1 0.48870868E-02 0.12514923E+03</pdfrwt>
<totfact> 0.98493364E+03</totfact>
</mgrwt>
</event>
<event>
 8    1  0.9424564E-006  0.1377737E+03  0.7546771E-02  0.1222189E+00
         -1   -1    0    0    0  501 -0.00000000000E+00  0.00000000000E+00  0.72773695489E+02  0.72773695489E+02  0.00000000000E+00 0.  1.
          1   -1    0    0  501    0  0.00000000000E+00 -0.00000000000E+00 -0.47072673478E+03  0.47072673478E+03  0.00000000000E+00 0. -1.
         23    2    1    2    0    0  0.13117351749E+02 -0.79591052898E+02 -0.11463026011E+02  0.13824970328E+03  0.11169054961E+03 0.  0.
         23    2    1    2    0    0 -0.13117351749E+02  0.79591052898E+02 -0.38649001328E+03  0.40525072699E+03  0.91360936636E+02 0.  0.
          5    1    3    3  502    0 -0.14535943243E+02  0.70758016481E+01 -0.39501065565E+02  0.42939315268E+02  0.47000000000E+01 0. -1.
         -5    1    3    3    0  502  0.27653294992E+02 -0.86666854546E+02  0.28038039553E+02  0.95310388011E+02  0.47000000000E+01 0.  1.
        -11    1    4    4    0    0 -0.14892935712E+01  0.65730640427E+02 -0.38058065903E+03  0.38621803830E+03  0.00000000000E+00 0. -1.
         11    1    4    4    0    0 -0.11628058178E+02  0.13860412471E+02 -0.59093542491E+01  0.19032688682E+02  0.00000000000E+00 0.  1.
<mgrwt>
<rscale>  0 0.13361453E+03</rscale>
<asrwt>0</asrwt>
<pdfrwt beam="2">  1        1 0.72419497E-01 0.13777365E+03</pdfrwt>
<pdfrwt beam="1">  1       -1 0.11195953E-01 0.13777365E+03</pdfrwt>
<totfact> 0.24454133E+03</totfact>
</mgrwt>
</event>
<event>
 8    1  0.9424564E-006  0.1409020E+03  0.7546771E-02  0.1223368E+00
          2   -1    0    0  501    0  0.00000000000E+00  0.00000000000E+00  0.59137732146E+03  0.59137732146E+03  0.00000000000E+00 0. -1.
         -2   -1    0    0    0  501 -0.00000000000E+00 -0.00000000000E+00 -0.51946826817E+02  0.51946826817E+02  0.00000000000E+00 0.  1.
         23    2    1    2    0    0  0.29709975775E+02 -0.57874950176E+02  0.63439281640E+02  0.15452477144E+03  0.12498467912E+03 0.  0.
         23    2    1    2    0    0 -0.29709975775E+02  0.57874950176E+02  0.47599121300E+03  0.48879937684E+03  0.90138800884E+02 0.  0.
          5    1    3    3  502    0 -0.89423811434E+00 -0.81645824433E+02  0.77850370937E+02  0.11291417344E+03  0.47000000000E+01 0. -1.
         -5    1    3    3    0  502  0.30604213889E+02  0.23770874258E+02 -0.14411089297E+02  0.41610597995E+02  0.47000000000E+01 0. -1.
        -11    1    4    4    0    0  0.26604558443E+02  0.45251275027E+02  0.19493273455E+03  0.20187682240E+03  0.00000000000E+00 0.  1.
         11    1    4    4    0    0 -0.56314534218E+02  0.12623675148E+02  0.28105847845E+03  0.28692255444E+03  0.00000000000E+00 0. -1.
<mgrwt>
<rscale>  0 0.13279379E+03</rscale>
<asrwt>0</asrwt>
<pdfrwt beam="1">  1        2 0.90981122E-01 0.14090196E+03</pdfrwt>
<pdfrwt beam="2">  1       -2 0.79918199E-02 0.14090196E+03</pdfrwt>
<totfact> 0.47118979E+03</totfact>
</mgrwt>
</event>
<event>
 7    1  0.9424564E-006  0.1688418E+03  0.7546771E-02  0.1195935E+00
          3   -1    0    0  501    0  0.00000000000E+00  0.00000000000E+00  0.19247390607E+03  0.19247390607E+03  0.00000000000E+00 0. -1.
         -3   -1    0    0    0  501 -0.00000000000E+00 -0.00000000000E+00 -0.14344744468E+03  0.14344744468E+03  0.00000000000E+00 0.  1.
         23    2    1    2    0    0 -0.40470438861E+02 -0.58466257763E+02  0.10651141201E+03  0.15756199768E+03  0.91787485563E+02 0.  0.
          5    1    1    2  502    0  0.26079710928E+02  0.10570708717E+03 -0.66889074131E+02  0.12786859598E+03  0.47000000000E+01 0. -1.
         -5    1    1    2    0  502  0.14390727933E+02 -0.47240829403E+02  0.94041235029E+01  0.50490757094E+02  0.47000000000E+01 0.  1.
        -11    1    3    3    0    0 -0.94860732595E+01 -0.55868244943E+02  0.11808110510E+02  0.57885039974E+02  0.00000000000E+00 0.  1.
         11    1    3    3    0    0 -0.30984365602E+02 -0.25980128196E+01  0.94703301502E+02  0.99676957707E+02  0.00000000000E+00 0. -1.
<mgrwt>
<rscale>  0 0.15375370E+03</rscale>
<asrwt>0</asrwt>
<pdfrwt beam="1">  1        3 0.29611370E-01 0.16884176E+03</pdfrwt>
<pdfrwt beam="2">  1       -3 0.22068838E-01 0.16884176E+03</pdfrwt>
<totfact> 0.49491229E+02</totfact>
</mgrwt>
</event>
<event>
 8    1  0.9424564E-006  0.1868382E+03  0.7546771E-02  0.1166789E+00
         -1   -1    0    0    0  501 -0.00000000000E+00  0.00000000000E+00  0.48919761104E+02  0.48919761104E+02  0.00000000000E+00 0.  1.
          1   -1    0    0  501    0  0.00000000000E+00 -0.00000000000E+00 -0.75622711044E+03  0.75622711044E+03  0.00000000000E+00 0. -1.
         23    2    1    2    0    0  0.13856767808E+03  0.91044926240E+01 -0.20912499655E+03  0.28043138770E+03  0.12499842333E+03 0.  0.
         23    2    1    2    0    0 -0.13856767808E+03 -0.91044926240E+01 -0.49818235278E+03  0.52471548384E+03  0.88638530892E+02 0.  0.
          5    1    3    3  502    0  0.63176546345E+02 -0.79983662345E+01 -0.19029954316E+03  0.20072681932E+03  0.47000000000E+01 0.  1.
         -5    1    3    3    0  502  0.75391131733E+02  0.17102858858E+02 -0.18825453393E+02  0.79704568380E+02  0.47000000000E+01 0.  1.
        -11    1    4    4    0    0 -0.40339331566E+01  0.25197479049E+02 -0.91220703849E+02  0.94722765890E+02  0.00000000000E+00 0.  1.
         11    1    4    4    0    0 -0.13453374492E+03 -0.34301971673E+02 -0.40696164894E+03  0.42999271795E+03  0.00000000000E+00 0. -1.
<mgrwt>
<rscale>  0 0.18105136E+03</rscale>
<asrwt>0</asrwt>
<pdfrwt beam="2">  1        1 0.11634262E+00 0.18683816E+03</pdfrwt>
<pdfrwt beam="1">  1       -1 0.75261178E-02 0.18683816E+03</pdfrwt>
<totfact> 0.23558630E+03</totfact>
</mgrwt>
</event>
<event>
 8    1  0.9424564E-006  0.1451464E+03  0.7546771E-02  0.1217022E+00
          1   -1    0    0  501    0  0.00000000000E+00  0.00000000000E+00  0.39086908261E+03  0.39086908261E+03  0.00000000000E+00 0. -1.
         -1   -1    0    0    0  501 -0.00000000000E+00 -0.00000000000E+00 -0.51460824873E+02  0.51460824873E+02  0.00000000000E+00 0.  1.
         23    2    1    2    0    0  0.30251883141E+02 -0.66227514965E+02  0.10012090956E+03  0.17632834716E+03  0.12556364644E+03 0.  0.
         23    2    1    2    0    0 -0.30251883141E+02  0.66227514965E+02  0.23928734817E+03  0.26600156033E+03  0.90538030294E+02 0.  0.
          5    1    3    3  502    0  0.65028433946E+02  0.47333392568E+01  0.53379006527E+02  0.84394964659E+02  0.47000000000E+01 0. -1.
         -5    1    3    3    0  502 -0.34776550804E+02 -0.70960854222E+02  0.46741903037E+02  0.91933382497E+02  0.47000000000E+01 0.  1.
        -11    1    4    4    0    0 -0.18054465644E+02 -0.21228878977E+02  0.59023563562E+02  0.65271816949E+02  0.00000000000E+00 0.  1.
         11    1    4    4    0    0 -0.12197417498E+02  0.87456393942E+02  0.18026378461E+03  0.20072974338E+03  0.00000000000E+00 0. -1.
<mgrwt>
<rscale>  0 0.13729037E+03</rscale>
<asrwt>0</asrwt>
<pdfrwt beam="1">  1        1 0.60133703E-01 0.14514644E+03</pdfrwt>
<pdfrwt beam="2">  1       -1 0.79170503E-02 0.14514644E+03</pdfrwt>
<totfact> 0.52652993E+03</totfact>
</mgrwt>
</event>
<event>
 8    1  0.9424564E-006  0.1381995E+03  0.7546771E-02  0.1228110E+00
         -1   -1    0    0    0  501 -0.00000000000E+00  0.00000000000E+00  0.45639953494E+02  0.45639953494E+02  0.00000000000E+00 0.  1.
          1   -1    0    0  501    0  0.00000000000E+00 -0.00000000000E+00 -0.48833995558E+03  0.48833995558E+03  0.00000000000E+00 0. -1.
         23    2    1    2    0    0 -0.49890280622E+02  0.31381065931E+02 -0.88654727530E+02  0.16419121154E+03  0.12500112733E+03 0.  0.
         23    2    1    2    0    0  0.49890280622E+02 -0.31381065931E+02 -0.35404527456E+03  0.36978869753E+03  0.89004567228E+02 0.  0.
          5    1    3    3  502    0 -0.57050561965E+02 -0.36127647360E+02 -0.28797694016E+02  0.73562019446E+02  0.47000000000E+01 0. -1.
         -5    1    3    3    0  502  0.71602813429E+01  0.67508713291E+02 -0.59857033515E+02  0.90629192097E+02  0.47000000000E+01 0. -1.
        -11    1    4    4    0    0 -0.20055434321E+02 -0.30850791979E+02 -0.12019805364E+03  0.12570427164E+03  0.00000000000E+00 0. -1.
         11    1    4    4    0    0  0.69945714943E+02 -0.53027395161E+00 -0.23384722092E+03  0.24408442589E+03  0.00000000000E+00 0.  1.
<mgrwt>
<rscale>  0 0.12956033E+03</rscale>
<asrwt>0</asrwt>
<pdfrwt beam="2">  1        1 0.75129223E-01 0.13819947E+03</pdfrwt>
<pdfrwt beam="1">  1       -1 0.70215314E-02 0.13819947E+03</pdfrwt>
<totfact> 0.47340955E+03</totfact>
</mgrwt>
</event>
<event>
 8    1  0.9424564E-006  0.1591027E+03  0.7546771E-02  0.1196671E+00
         -2   -1    0    0    0  501 -0.00000000000E+00  0.00000000000E+00  0.82833825345E+02  0.82833825345E+02  0.00000000000E+00 0.  1.
          2   -1    0    0  501    0  0.00000000000E+00 -0.00000000000E+00 -0.34482018713E+03  0.34482018713E+03  0.00000000000E+00 0. -1.
         23    2    1    2    0    0 -0.88804246988E+02 -0.42422966518E+02 -0.35225395275E+02  0.16295548916E+03  0.12501104193E+03 0.  0.
         23    2    1    2    0    0  0.88804246988E+02  0.42422966518E+02 -0.22676096651E+03  0.26469852331E+03  0.94651307132E+02 0.  0.
          5    1    3    3  502    0 -0.10280216117E+03 -0.71515674610E+02 -0.35775088657E+02  0.13032545041E+03  0.47000000000E+01 0.  1.
         -5    1    3    3    0  502  0.13997914187E+02  0.29092708092E+02  0.54969338192E+00  0.32630038745E+02  0.47000000000E+01 0.  1.
        -11    1    4    4    0    0  0.73890396011E+02  0.19928001853E+01 -0.68857407710E+02  0.10102031712E+03  0.00000000000E+00 0.  1.
         11    1    4    4    0    0  0.14913850976E+02  0.40430166333E+02 -0.15790355880E+03  0.16367820619E+03  0.00000000000E+00 0. -1.
<mgrwt>
<rscale>  0 0.15313616E+03</rscale>
<asrwt>0</asrwt>
<pdfrwt beam="2">  1        2 0.53049260E-01 0.15910268E+03</pdfrwt>
<pdfrwt beam="1">  1       -2 0.12743665E-01 0.15910268E+03</pdfrwt>
<totfact> 0.40905964E+03</totfact>
</mgrwt>
</event>
<event>
 8    1  0.9424564E-006  0.1266274E+03  0.7546771E-02  0.1247148E+00
          2   -1    0    0  501    0  0.00000000000E+00  0.00000000000E+00  0.11033327711E+03  0.11033327711E+03  0.00000000000E+00 0. -1.
         -2   -1    0    0    0  501 -0.00000000000E+00 -0.00000000000E+00 -0.13157751156E+03  0.13157751156E+03  0.00000000000E+00 0.  1.
         23    2    1    2    0    0 -0.17531304502E+02 -0.99550688669E+01 -0.59993900678E+02  0.14012050455E+03  0.12501214998E+03 0.  0.
         23    2    1    2    0    0  0.17531304502E+02  0.99550688669E+01  0.38749666228E+02  0.10179028412E+03  0.91941694973E+02 0.  0.
          5    1    3    3  502    0  0.45671087707E+02  0.11333760952E+02  0.41459279894E+01  0.47471898093E+02  0.47000000000E+01 0.  1.
         -5    1    3    3    0  502 -0.63202392209E+02 -0.21288829819E+02 -0.64139828668E+02  0.92648606452E+02  0.47000000000E+01 0.  1.
        -11    1    4    4    0    0  0.38404984858E+02 -0.10906359150E+02  0.55106987556E+02  0.68049038269E+02  0.00000000000E+00 0. -1.
         11    1    4    4    0    0 -0.20873680356E+02  0.20861428017E+02 -0.16357321327E+02  0.33741245850E+02  0.00000000000E+00 0.  1.
<mgrwt>
<rscale>  0 0.11757722E+03</rscale>
<asrwt>0</asrwt>
<pdfrwt beam="1">  1        2 0.16974350E-01 0.12662736E+03</pdfrwt>
<pdfrwt beam="2">  1       -2 0.20242694E-01 0.12662736E+03</pdfrwt>
<totfact> 0.65318966E+03</totfact>
</mgrwt>
</event>
<event>
 8    1  0.9424564E-006  0.1348453E+03  0.7546771E-02  0.1236082E+00
          3   -1    0    0  501    0  0.00000000000E+00  0.00000000000E+00  0.30009617195E+03  0.30009617195E+03  0.00000000000E+00 0. -1.
         -3   -1    0    0    0  501 -0.00000000000E+00 -0.00000000000E+00 -0.53948158200E+02  0.53948158200E+02  0.00000000000E+00 0.  1.
         23    2    1    2    0    0 -0.38024409602E+02  0.33355132299E+02  0.68173318936E+02  0.15109881993E+03  0.12499932557E+03 0.  0.
         23    2    1    2    0    0  0.38024409602E+02 -0.33355132299E+02  0.17797469481E+03  0.20294551022E+03  0.83387454385E+02 0.  0.
          5    1    3    3  502    0 -0.58907396362E+02  0.69773286374E+02  0.55647078273E+02  0.10703775109E+03  0.47000000000E+01 0.  1.
         -5    1    3    3    0  502  0.20882986760E+02 -0.36418154075E+02  0.12526240663E+02  0.44061068841E+02  0.47000000000E+01 0.  1.
        -11    1    4    4    0    0 -0.66639015446E+01 -0.11806555246E+02 -0.41547604771E+01  0.14179716682E+02  0.00000000000E+00 0.  1.
         11    1    4    4    0    0  0.44688311146E+02 -0.21548577053E+02  0.18212945529E+03  0.18876579354E+03  0.00000000000E+00 0. -1.
<mgrwt>
<rscale>  0 0.12435412E+03</rscale>
<asrwt>0</asrwt>
<pdfrwt beam="1">  1        3 0.46168641E-01 0.13484529E+03</pdfrwt>
<pdfrwt beam="2">  1       -3 0.82997168E-02 0.13484529E+03</pdfrwt>
<totfact> 0.10839043E+03</totfact>
</mgrwt>
</event>
<event>
 8    1  0.9424564E-006  0.1290052E+03  0.7546771E-02  0.1244145E+00
          1   -1    0    0  501    0  0.00000000000E+00  0.00000000000E+00  0.39390140833E+03  0.39390140833E+03  0.00000000000E+00 0. -1.
         -1   -1    0    0    0  501 -0.00000000000E+00 -0.00000000000E+00 -0.33998971694E+02  0.33998971694E+02  0.00000000000E+00 0.  1.
         23    2    1    2    0    0  0.30061673941E+02 -0.10554560135E+02  0.15107486938E+03  0.19866038470E+03  0.12500891693E+03 0.  0.
         23    2    1    2    0    0 -0.30061673941E+02  0.10554560135E+02  0.20882756725E+03  0.22923999532E+03  0.89033250131E+02 0.  0.
          5    1    3    3  502    0 -0.47050780448E+02 -0.10364678971E+02  0.37189882052E+02  0.61044081106E+02  0.47000000000E+01 0.  1.
         -5    1    3    3    0  502  0.77112454389E+02 -0.18988116363E+00  0.11388498733E+03  0.13761630360E+03  0.47000000000E+01 0.  1.
        -11    1    4    4    0    0 -0.11710053437E+02 -0.32278117315E+02  0.34049788313E+02  0.48356905329E+02  0.00000000000E+00 0.  1.
         11    1    4    4    0    0 -0.18351620503E+02  0.42832677450E+02  0.17477777894E+03  0.18088308999E+03  0.00000000000E+00 0. -1.
<mgrwt>
<rscale>  0 0.11936714E+03</rscale>
<asrwt>0</asrwt>
<pdfrwt beam="1">  1        1 0.60600213E-01 0.12900516E+03</pdfrwt>
<pdfrwt beam="2">  1       -1 0.52306113E-02 0.12900516E+03</pdfrwt>
<totfact> 0.96153074E+03</totfact>
</mgrwt>
</event>
<event>
 8    1  0.9424564E-006  0.1445761E+03  0.7546771E-02  0.1212863E+00
         -1   -1    0    0    0  501 -0.00000000000E+00  0.00000000000E+00  0.39553729238E+02  0.39553729238E+02  0.00000000000E+00 0.  1.
          1   -1    0    0  501    0  0.00000000000E+00 -0.00000000000E+00 -0.47097289923E+03  0.47097289923E+03  0.00000000000E+00 0. -1.
         23    2    1    2    0    0 -0.42705281817E+02 -0.58751919855E+02 -0.22622112736E+03  0.26847392219E+03  0.12500687680E+03 0.  0.
         23    2    1    2    0    0  0.42705281817E+02  0.58751919855E+02 -0.20519804263E+03  0.24205270628E+03  0.10586664601E+03 0.  0.
          5    1    3    3  502    0  0.14370778379E+02 -0.53932906397E+02 -0.19537917372E+03  0.20324957365E+03  0.47000000000E+01 0. -1.
         -5    1    3    3    0  502 -0.57076060196E+02 -0.48190134582E+01 -0.30841953642E+02  0.65224348542E+02  0.47000000000E+01 0. -1.
        -11    1    4    4    0    0  0.69471782191E+02  0.21136525810E+02 -0.77209891020E+02  0.10599268142E+03  0.00000000000E+00 0.  1.
         11    1    4    4    0    0 -0.26766500373E+02  0.37615394045E+02 -0.12798815161E+03  0.13606002486E+03  0.00000000000E+00 0. -1.
<mgrwt>
<rscale>  0 0.14034690E+03</rscale>
<asrwt>0</asrwt>
<pdfrwt beam="2">  1        1 0.72457369E-01 0.14457610E+03</pdfrwt>
<pdfrwt beam="1">  1       -1 0.60851891E-02 0.14457610E+03</pdfrwt>
<totfact> 0.61613573E+03</totfact>
</mgrwt>
</event>
<event>
 8    1  0.9424564E-006  0.1697936E+03  0.7546771E-02  0.1184603E+00
          2   -1    0    0  501    0  0.00000000000E+00  0.00000000000E+00  0.10491039822E+04  0.10491039822E+04  0.00000000000E+00 0. -1.
         -2   -1    0    0    0  501 -0.00000000000E+00 -0.00000000000E+00 -0.24290939828E+02  0.24290939828E+02  0.00000000000E+00 0.  1.
         23    2    1    2    0    0 -0.70122718893E+02  0.91047817464E+02  0.47791517404E+03  0.50718119710E+03  0.12499180909E+03 0.  0.
         23    2    1    2    0    0  0.70122718893E+02 -0.91047817464E+02  0.54689786829E+03  0.56621372489E+03  0.91070319785E+02 0.  0.
          5    1    3    3  502    0 -0.56285285727E+02  0.12247224671E+03  0.39127624362E+03  0.41386794201E+03  0.47000000000E+01 0.  1.
         -5    1    3    3    0  502 -0.13837433166E+02 -0.31424429245E+02  0.86638930420E+02  0.93313255083E+02  0.47000000000E+01 0.  1.
        -11    1    4    4    0    0 -0.69604174199E+01 -0.34722718795E+02  0.57037770686E+02  0.67137336081E+02  0.00000000000E+00 0.  1.
         11    1    4    4    0    0  0.77083136313E+02 -0.56325098669E+02  0.48986009760E+03  0.49907638881E+03  0.00000000000E+00 0. -1.
<mgrwt>
<rscale>  0 0.16368071E+03</rscale>
<asrwt>0</asrwt>
<pdfrwt beam="1">  1        2 0.16140058E+00 0.16979356E+03</pdfrwt>
<pdfrwt beam="2">  1       -2 0.37370685E-02 0.16979356E+03</pdfrwt>
<totfact> 0.73168686E+03</totfact>
</mgrwt>
</event>
<event>
 8    1  0.9424564E-006  0.1991640E+03  0.7546771E-02  0.1154568E+00
          2   -1    0    0  501    0  0.00000000000E+00  0.00000000000E+00  0.16577006525E+03  0.16577006525E+03  0.00000000000E+00 0. -1.
         -2   -1    0    0    0  501 -0.00000000000E+00 -0.00000000000E+00 -0.23875092917E+03  0.23875092917E+03  0.00000000000E+00 0.  1.
         23    2    1    2    0    0 -0.20681266145E+02  0.15365855934E+03 -0.98199347461E+02  0.22205724417E+03  0.12501056044E+03 0.  0.
         23    2    1    2    0    0  0.20681266145E+02 -0.15365855934E+03  0.25218483535E+02  0.18246375025E+03  0.92835233696E+02 0.  0.
          5    1    3    3  502    0  0.47132672113E+02  0.34780513658E+02 -0.11213309318E+02  0.59824754213E+02  0.47000000000E+01 0. -1.
         -5    1    3    3    0  502 -0.67813938257E+02  0.11887804568E+03 -0.86986038143E+02  0.16223248996E+03  0.47000000000E+01 0. -1.
        -11    1    4    4    0    0  0.47556473709E+02 -0.36475130304E+02  0.15139062972E+02  0.61816215914E+02  0.00000000000E+00 0. -1.
         11    1    4    4    0    0 -0.26875207564E+02 -0.11718342903E+03  0.10079420563E+02  0.12064753433E+03  0.00000000000E+00 0.  1.
<mgrwt>
<rscale>  0 0.19438166E+03</rscale>
<asrwt>0</asrwt>
<pdfrwt beam="1">  1        2 0.25503087E-01 0.19916402E+03</pdfrwt>
<pdfrwt beam="2">  1       -2 0.36730912E-01 0.19916402E+03</pdfrwt>
<totfact> 0.14610677E+03</totfact>
</mgrwt>
</event>
<event>
 8    1  0.9424564E-006  0.1349782E+03  0.7546771E-02  0.1233251E+00
          2   -1    0    0  501    0  0.00000000000E+00  0.00000000000E+00  0.95266131786E+03  0.95266131786E+03  0.00000000000E+00 0. -1.
         -2   -1    0    0    0  501 -0.00000000000E+00 -0.00000000000E+00 -0.14892865104E+02  0.14892865104E+02  0.00000000000E+00 0.  1.
         23    2    1    2    0    0  0.50960661221E+02  0.23393831160E+00  0.55127607922E+03  0.56756006109E+03  0.12498825427E+03 0.  0.
         23    2    1    2    0    0 -0.50960661221E+02 -0.23393831160E+00  0.38649237354E+03  0.39999412188E+03  0.89565054641E+02 0.  0.
          5    1    3    3  502    0  0.52575637815E+02  0.52628710250E+02  0.22392662810E+03  0.23600678720E+03  0.47000000000E+01 0. -1.
         -5    1    3    3    0  502 -0.16149765940E+01 -0.52394771939E+02  0.32734945112E+03  0.33155327389E+03  0.47000000000E+01 0. -1.
        -11    1    4    4    0    0 -0.31887405989E+01 -0.31814399462E+02  0.55224300456E+02  0.63812596254E+02  0.00000000000E+00 0.  1.
         11    1    4    4    0    0 -0.47771920622E+02  0.31580461150E+02  0.33126807308E+03  0.33618152563E+03  0.00000000000E+00 0. -1.
<mgrwt>
<rscale>  0 0.12617050E+03</rscale>
<asrwt>0</asrwt>
<pdfrwt beam="1">  1        2 0.14656323E+00 0.13497817E+03</pdfrwt>
<pdfrwt beam="2">  1       -2 0.22912108E-02 0.13497817E+03</pdfrwt>
<totfact> 0.16968124E+04</totfact>
</mgrwt>
</event>
<event>
 7    1  0.9424564E-006  0.1661096E+03  0.7546771E-02  0.1207058E+00
         -3   -1    0    0    0  501 -0.00000000000E+00  0.00000000000E+00  0.60369432081E+03  0.60369432081E+03  0.00000000000E+00 0.  1.
          3   -1    0    0  501    0  0.00000000000E+00 -0.00000000000E+00 -0.72219447968E+02  0.72219447968E+02  0.00000000000E+00 0. -1.
         23    2    1    2    0    0 -0.14887658981E+01 -0.20901937440E+02 -0.21775509798E+02  0.98264740147E+02  0.93502293643E+02 0.  0.
          5    1    1    2  502    0  0.61280505693E+01  0.47208560068E+02  0.36458195281E+02  0.60145582969E+02  0.47000000000E+01 0. -1.
         -5    1    1    2    0  502 -0.46392846712E+01 -0.26306622628E+02  0.51679218736E+03  0.51750344566E+03  0.47000000000E+01 0.  1.
        -11    1    3    3    0    0 -0.14979956405E+02  0.31793210926E+02  0.82954922296E+01  0.36111252349E+02  0.00000000000E+00 0.  1.
         11    1    3    3    0    0  0.13491190507E+02 -0.52695148366E+02 -0.30071002028E+02  0.62153487799E+02  0.00000000000E+00 0. -1.
<mgrwt>
<rscale>  0 0.14476449E+03</rscale>
<asrwt>0</asrwt>
<pdfrwt beam="2">  1        3 0.11110685E-01 0.16610965E+03</pdfrwt>
<pdfrwt beam="1">  1       -3 0.92876046E-01 0.16610965E+03</pdfrwt>
<totfact> 0.15863057E+02</totfact>
</mgrwt>
</event>
<event>
 8    1  0.9424564E-006  0.1782927E+03  0.7546771E-02  0.1173529E+00
         -2   -1    0    0    0  501 -0.00000000000E+00  0.00000000000E+00  0.25197532323E+03  0.25197532323E+03  0.00000000000E+00 0.  1.
          2   -1    0    0  501    0  0.00000000000E+00 -0.00000000000E+00 -0.13831552359E+03  0.13831552359E+03  0.00000000000E+00 0. -1.
         23    2    1    2    0    0  0.12637318953E+03 -0.47416804415E+02  0.13866714676E+03  0.22586910364E+03  0.11648921846E+03 0.  0.
         23    2    1    2    0    0 -0.12637318953E+03  0.47416804415E+02 -0.25007347122E+02  0.16442174317E+03  0.90501965970E+02 0.  0.
          5    1    3    3  502    0  0.37312189098E+02 -0.40569142342E+02 -0.61454150395E+01  0.55658879720E+02  0.47000000000E+01 0. -1.
         -5    1    3    3    0  502  0.89061000435E+02 -0.68476620734E+01  0.14481256180E+03  0.17021022392E+03  0.47000000000E+01 0.  1.
        -11    1    4    4    0    0 -0.12004799792E+03  0.57840611464E+01 -0.14828932284E+02  0.12109861437E+03  0.00000000000E+00 0. -1.
         11    1    4    4    0    0 -0.63251916096E+01  0.41632743269E+02 -0.10178414837E+02  0.43323128807E+02  0.00000000000E+00 0.  1.
<mgrwt>
<rscale>  0 0.17420852E+03</rscale>
<asrwt>0</asrwt>
<pdfrwt beam="2">  1        2 0.21279311E-01 0.17829266E+03</pdfrwt>
<pdfrwt beam="1">  1       -2 0.38765434E-01 0.17829266E+03</pdfrwt>
<totfact> 0.16116123E+03</totfact>
</mgrwt>
</event>
<event>
 8    1  0.9424564E-006  0.1631643E+03  0.7546771E-02  0.1191979E+00
         -2   -1    0    0    0  501 -0.00000000000E+00  0.00000000000E+00  0.36385851700E+02  0.36385851700E+02  0.00000000000E+00 0.  1.
          2   -1    0    0  501    0  0.00000000000E+00 -0.00000000000E+00 -0.67528109597E+03  0.67528109597E+03  0.00000000000E+00 0. -1.
         23    2    1    2    0    0 -0.89171739179E+02 -0.55179630664E+02 -0.25300395176E+03  0.30105414381E+03  0.12500482867E+03 0.  0.
         23    2    1    2    0    0  0.89171739179E+02  0.55179630664E+02 -0.38589129251E+03  0.41061280387E+03  0.93243736259E+02 0.  0.
          5    1    3    3  502    0  0.24211076824E+02 -0.40914513091E+01 -0.79900333379E+01  0.26245892013E+02  0.47000000000E+01 0.  1.
         -5    1    3    3    0  502 -0.11338281600E+03 -0.51088179355E+02 -0.24501391842E+03  0.27480825180E+03  0.47000000000E+01 0.  1.
        -11    1    4    4    0    0  0.92151185781E+02  0.82048210824E+01 -0.23519812802E+03  0.25273962798E+03  0.00000000000E+00 0. -1.
         11    1    4    4    0    0 -0.29794466020E+01  0.46974809582E+02 -0.15069316449E+03  0.15787317588E+03  0.00000000000E+00 0.  1.
<mgrwt>
<rscale>  0 0.15712735E+03</rscale>
<asrwt>0</asrwt>
<pdfrwt beam="2">  1        2 0.10388939E+00 0.16316433E+03</pdfrwt>
<pdfrwt beam="1">  1       -2 0.55978236E-02 0.16316433E+03</pdfrwt>
<totfact> 0.70185869E+03</totfact>
</mgrwt>
</event>
<event>
 8    1  0.9424564E-006  0.1409504E+03  0.7546771E-02  0.1222857E+00
         -4   -1    0    0    0  501 -0.00000000000E+00  0.00000000000E+00  0.47705456919E+03  0.47705456919E+03  0.00000000000E+00 0.  1.
          4   -1    0    0  501    0  0.00000000000E+00 -0.00000000000E+00 -0.33925102364E+02  0.33925102364E+02  0.00000000000E+00 0. -1.
         23    2    1    2    0    0  0.18744975068E+02 -0.62375346027E+02  0.27149656140E+03  0.30590424554E+03  0.12499986681E+03 0.  0.
         23    2    1    2    0    0 -0.18744975068E+02  0.62375346027E+02  0.17163290543E+03  0.20507542602E+03  0.91411258874E+02 0.  0.
          5    1    3    3  502    0 -0.61674137561E+01 -0.96079470226E+02  0.21293889760E+03  0.23373995316E+03  0.47000000000E+01 0.  1.
         -5    1    3    3    0  502  0.24912388824E+02  0.33704124199E+02  0.58557663800E+02  0.72164292380E+02  0.47000000000E+01 0.  1.
        -11    1    4    4    0    0  0.14226859646E+02  0.29677249915E+02  0.15050048565E+03  0.15405693389E+03  0.00000000000E+00 0.  1.
         11    1    4    4    0    0 -0.32971834714E+02  0.32698096112E+02  0.21132419779E+02  0.51018492132E+02  0.00000000000E+00 0. -1.
<mgrwt>
<rscale>  0 0.13314898E+03</rscale>
<asrwt>0</asrwt>
<pdfrwt beam="2">  1        4 0.52192469E-02 0.14095043E+03</pdfrwt>
<pdfrwt beam="1">  1       -4 0.73393006E-01 0.14095043E+03</pdfrwt>
<totfact> 0.63993704E+02</totfact>
</mgrwt>
</event>
<event>
 8    1  0.9424564E-006  0.1375913E+03  0.7546771E-02  0.1228439E+00
         -1   -1    0    0    0  501 -0.00000000000E+00  0.00000000000E+00  0.83503463364E+02  0.83503463364E+02  0.00000000000E+00 0.  1.
          1   -1    0    0  501    0  0.00000000000E+00 -0.00000000000E+00 -0.20133810814E+03  0.20133810814E+03  0.00000000000E+00 0. -1.
         23    2    1    2    0    0 -0.42128582579E+02 -0.39141744527E+02 -0.19071359933E+02  0.13890670124E+03  0.12499784496E+03 0.  0.
         23    2    1    2    0    0  0.42128582579E+02  0.39141744527E+02 -0.98763284840E+02  0.14593487026E+03  0.90751894142E+02 0.  0.
          5    1    3    3  502    0  0.42999224722E+02 -0.27642949531E+02 -0.11003488879E+02  0.52499835742E+02  0.47000000000E+01 0.  1.
         -5    1    3    3    0  502 -0.85127807300E+02 -0.11498794996E+02 -0.80678710543E+01  0.86406865500E+02  0.47000000000E+01 0.  1.
        -11    1    4    4    0    0  0.15666551880E+02 -0.19349128198E+02 -0.72352685687E+02  0.76516277588E+02  0.00000000000E+00 0. -1.
         11    1    4    4    0    0  0.26462030698E+02  0.58490872724E+02 -0.26410599153E+02  0.69418592670E+02  0.00000000000E+00 0.  1.
<mgrwt>
<rscale>  0 0.12933975E+03</rscale>
<asrwt>0</asrwt>
<pdfrwt beam="2">  1        1 0.30975093E-01 0.13759126E+03</pdfrwt>
<pdfrwt beam="1">  1       -1 0.12846687E-01 0.13759126E+03</pdfrwt>
<totfact> 0.57099702E+03</totfact>
</mgrwt>
</event>
<event>
 7    1  0.9424564E-006  0.1855799E+03  0.7546771E-02  0.1186573E+00
          1   -1    0    0  501    0  0.00000000000E+00  0.00000000000E+00  0.32793737550E+03  0.32793737550E+03  0.00000000000E+00 0. -1.
         -1   -1    0    0    0  501 -0.00000000000E+00 -0.00000000000E+00 -0.10604528798E+03  0.10604528798E+03  0.00000000000E+00 0.  1.
         23    2    1    2    0    0 -0.48992671363E+02  0.26405844658E+02  0.22393168425E+03  0.24839152642E+03  0.91953252828E+02 0.  0.
          5    1    1    2  502    0  0.51954511695E+02  0.46019511740E+02 -0.60622860256E+02  0.92272899228E+02  0.47000000000E+01 0.  1.
         -5    1    1    2    0  502 -0.29618403326E+01 -0.72425356398E+02  0.58583263523E+02  0.93318237835E+02  0.47000000000E+01 0. -1.
        -11    1    3    3    0    0 -0.70523898575E+02  0.23927056169E+02  0.20952561934E+03  0.22236706016E+03  0.00000000000E+00 0. -1.
         11    1    3    3    0    0  0.21531227212E+02  0.24787884891E+01  0.14406064919E+02  0.26024466260E+02  0.00000000000E+00 0.  1.
<mgrwt>
<rscale>  0 0.16189553E+03</rscale>
<asrwt>0</asrwt>
<pdfrwt beam="1">  1        1 0.50451904E-01 0.18557993E+03</pdfrwt>
<pdfrwt beam="2">  1       -1 0.16314660E-01 0.18557993E+03</pdfrwt>
<totfact> 0.21682339E+03</totfact>
</mgrwt>
</event>
<event>
 8    1  0.9424564E-006  0.2012775E+03  0.7546771E-02  0.1150542E+00
         -2   -1    0    0    0  501 -0.00000000000E+00  0.00000000000E+00  0.26968291458E+03  0.26968291458E+03  0.00000000000E+00 0.  1.
          2   -1    0    0  501    0  0.00000000000E+00 -0.00000000000E+00 -0.14495921198E+03  0.14495921198E+03  0.00000000000E+00 0. -1.
         23    2    1    2    0    0 -0.15514058054E+03 -0.28676358400E+02  0.82620056654E+02  0.21757459916E+03  0.12498679601E+03 0.  0.
         23    2    1    2    0    0  0.15514058054E+03  0.28676358400E+02  0.42103645941E+02  0.19706752739E+03  0.11032660645E+03 0.  0.
          5    1    3    3  502    0 -0.21263170160E+02  0.17071592878E+02  0.70221513125E+02  0.75476569836E+02  0.47000000000E+01 0.  1.
         -5    1    3    3    0  502 -0.13387741038E+03 -0.45747951277E+02  0.12398543529E+02  0.14209802932E+03  0.47000000000E+01 0.  1.
        -11    1    4    4    0    0  0.69603400319E+02  0.64422240575E+02  0.43522769005E+02  0.10435080181E+03  0.00000000000E+00 0.  1.
         11    1    4    4    0    0  0.85537180221E+02 -0.35745882176E+02 -0.14191230639E+01  0.92716725584E+02  0.00000000000E+00 0. -1.
<mgrwt>
<rscale>  0 0.19905076E+03</rscale>
<asrwt>0</asrwt>
<pdfrwt beam="2">  1        2 0.22301417E-01 0.20127750E+03</pdfrwt>
<pdfrwt beam="1">  1       -2 0.41489679E-01 0.20127750E+03</pdfrwt>
<totfact> 0.13479667E+03</totfact>
</mgrwt>
</event>
<event>
 8    1  0.9424564E-006  0.2875336E+03  0.7546771E-02  0.1093274E+00
         -1   -1    0    0    0  501 -0.00000000000E+00  0.00000000000E+00  0.25986842694E+03  0.25986842694E+03  0.00000000000E+00 0.  1.
          1   -1    0    0  501    0  0.00000000000E+00 -0.00000000000E+00 -0.30514402260E+03  0.30514402260E+03  0.00000000000E+00 0. -1.
         23    2    1    2    0    0  0.15065317279E+03 -0.21060411939E+03 -0.30727721399E+02  0.28917080416E+03  0.12500035015E+03 0.  0.
         23    2    1    2    0    0 -0.15065317279E+03  0.21060411939E+03 -0.14547874254E+02  0.27584164538E+03  0.93949449730E+02 0.  0.
          5    1    3    3  502    0  0.53409740011E+02 -0.67437380909E+02 -0.70739298615E+02  0.11147438737E+03  0.47000000000E+01 0.  1.
         -5    1    3    3    0  502  0.97243432779E+02 -0.14316673848E+03  0.40011577216E+02  0.17769641678E+03  0.47000000000E+01 0.  1.
        -11    1    4    4    0    0 -0.35938302371E+02  0.13047690515E+03 -0.12325207647E+02  0.13589589802E+03  0.00000000000E+00 0.  1.
         11    1    4    4    0    0 -0.11471487042E+03  0.80127214239E+02 -0.22226666073E+01  0.13994574736E+03  0.00000000000E+00 0. -1.
<mgrwt>
<rscale>  0 0.28446588E+03</rscale>
<asrwt>0</asrwt>
<pdfrwt beam="2">  1        1 0.46945234E-01 0.28753358E+03</pdfrwt>
<pdfrwt beam="1">  1       -1 0.39979758E-01 0.28753358E+03</pdfrwt>
<totfact> 0.53200822E+02</totfact>
</mgrwt>
</event>
<event>
 8    1  0.9424564E-006  0.1293463E+03  0.7546771E-02  0.1242343E+00
         -1   -1    0    0    0  501 -0.00000000000E+00  0.00000000000E+00  0.76774030473E+03  0.76774030473E+03  0.00000000000E+00 0.  1.
          1   -1    0    0  501    0  0.00000000000E+00 -0.00000000000E+00 -0.17901850264E+02  0.17901850264E+02  0.00000000000E+00 0. -1.
         23    2    1    2    0    0  0.29110036863E+02  0.16066741060E+02  0.52417357049E+03  0.53989664750E+03  0.12499969428E+03 0.  0.
         23    2    1    2    0    0 -0.29110036863E+02 -0.16066741060E+02  0.22566488398E+03  0.24574550750E+03  0.91436755070E+02 0.  0.
          5    1    3    3  502    0  0.56127463349E+02  0.22867110779E+02  0.11796390066E+03  0.13270557168E+03  0.47000000000E+01 0.  1.
         -5    1    3    3    0  502 -0.27017426486E+02 -0.68003697187E+01  0.40620966983E+03  0.40719107582E+03  0.47000000000E+01 0.  1.
        -11    1    4    4    0    0 -0.28549909154E+02 -0.36340100007E+02  0.21983946158E+03  0.22464436127E+03  0.00000000000E+00 0.  1.
         11    1    4    4    0    0 -0.56012770844E+00  0.20273358947E+02  0.58254224014E+01  0.21101146229E+02  0.00000000000E+00 0. -1.
<mgrwt>
<rscale>  0 0.12045851E+03</rscale>
<asrwt>0</asrwt>
<pdfrwt beam="2">  1        1 0.27541314E-02 0.12934627E+03</pdfrwt>
<pdfrwt beam="1">  1       -1 0.11811387E+00 0.12934627E+03</pdfrwt>
<totfact> 0.25444867E+03</totfact>
</mgrwt>
</event>
<event>
 8    1  0.1100059E-005  0.4219243E+03  0.7546771E-02  0.1037102E+00
          2   -1    0    0  501    0  0.00000000000E+00  0.00000000000E+00  0.14951808437E+03  0.14951808437E+03  0.00000000000E+00 0.  1.
         -2   -1    0    0    0  501 -0.00000000000E+00 -0.00000000000E+00 -0.11812413484E+04  0.11812413484E+04  0.00000000000E+00 0. -1.
         23    2    1    2    0    0  0.35685210892E+03  0.18722226228E+03 -0.59138032818E+03  0.72646458684E+03  0.12499800094E+03 0.  0.
         23    2    1    2    0    0 -0.35685210892E+03 -0.18722226228E+03 -0.44034293586E+03  0.60429484594E+03  0.94205926185E+02 0.  0.
          5    1    3    3  502    0  0.65532710749E+02  0.13994690861E+02 -0.37059076539E+02  0.76719311157E+02  0.47000000000E+01 0.  1.
         -5    1    3    3    0  502  0.29131939817E+03  0.17322757142E+03 -0.55432125164E+03  0.64974527569E+03  0.47000000000E+01 0.  1.
        -11    1    4    4    0    0 -0.23917748250E+03 -0.91352422781E+02 -0.32457574341E+03  0.41340119314E+03  0.00000000000E+00 0. -1.
         11    1    4    4    0    0 -0.11767462642E+03 -0.95869839497E+02 -0.11576719246E+03  0.19089365279E+03  0.00000000000E+00 0.  1.
<mgrwt>
<rscale>  0 0.41989062E+03</rscale>
<asrwt>0</asrwt>
<pdfrwt beam="1">  1        2 0.23002781E-01 0.42192429E+03</pdfrwt>
<pdfrwt beam="2">  1       -2 0.18172945E+00 0.42192429E+03</pdfrwt>
<totfact> 0.44231197E+01</totfact>
</mgrwt>
</event>
<event>
 8    1  0.9424564E-006  0.1267506E+03  0.7546771E-02  0.1246973E+00
          1   -1    0    0  501    0  0.00000000000E+00  0.00000000000E+00  0.18981580063E+03  0.18981580063E+03  0.00000000000E+00 0. -1.
         -1   -1    0    0    0  501 -0.00000000000E+00 -0.00000000000E+00 -0.94079662345E+02  0.94079662345E+02  0.00000000000E+00 0.  1.
         23    2    1    2    0    0 -0.13585763541E+02  0.15987734028E+02 -0.26592685756E+02  0.12951022432E+03  0.12500218661E+03 0.  0.
         23    2    1    2    0    0  0.13585763541E+02 -0.15987734028E+02  0.12232882404E+03  0.15438523866E+03  0.91816556860E+02 0.  0.
          5    1    3    3  502    0 -0.12864637178E+02 -0.15598638034E+02 -0.71471317155E+02  0.74424831704E+02  0.47000000000E+01 0. -1.
         -5    1    3    3    0  502 -0.72112636233E+00  0.31586372062E+02  0.44878631399E+02  0.55085392615E+02  0.47000000000E+01 0. -1.
        -11    1    4    4    0    0 -0.26878304591E+02 -0.26899983313E+02  0.99810365216E+02  0.10680899477E+03  0.00000000000E+00 0. -1.
         11    1    4    4    0    0  0.40464068132E+02  0.10912249285E+02  0.22518458825E+02  0.47576243883E+02  0.00000000000E+00 0.  1.
<mgrwt>
<rscale>  0 0.11768088E+03</rscale>
<asrwt>0</asrwt>
<pdfrwt beam="1">  1        1 0.29202431E-01 0.12675065E+03</pdfrwt>
<pdfrwt beam="2">  1       -1 0.14473794E-01 0.12675065E+03</pdfrwt>
<totfact> 0.50774223E+03</totfact>
</mgrwt>
</event>
<event>
 8    1  0.9424564E-006  0.2232364E+03  0.7546771E-02  0.1134775E+00
         -2   -1    0    0    0  501 -0.00000000000E+00  0.00000000000E+00  0.31146533035E+02  0.31146533035E+02  0.00000000000E+00 0.  1.
          2   -1    0    0  501    0  0.00000000000E+00 -0.00000000000E+00 -0.14792979204E+04  0.14792979204E+04  0.00000000000E+00 0. -1.
         23    2    1    2    0    0  0.53588129433E+02  0.17702430599E+03 -0.74545556182E+03  0.77816352382E+03  0.12500073051E+03 0.  0.
         23    2    1    2    0    0 -0.53588129433E+02 -0.17702430599E+03 -0.70269582556E+03  0.73228092964E+03  0.90800022667E+02 0.  0.
          5    1    3    3  502    0 -0.14379728797E+02 -0.11114433793E+02 -0.12059137935E+03  0.12204375450E+03  0.47000000000E+01 0.  1.
         -5    1    3    3    0  502  0.67967858230E+02  0.18813873978E+03 -0.62486418247E+03  0.65611976932E+03  0.47000000000E+01 0.  1.
        -11    1    4    4    0    0 -0.55527897113E+02 -0.53612471215E+02 -0.19319689159E+03  0.20804490705E+03  0.00000000000E+00 0.  1.
         11    1    4    4    0    0  0.19397676797E+01 -0.12341183477E+03 -0.50949893397E+03  0.52423602259E+03  0.00000000000E+00 0. -1.
<mgrwt>
<rscale>  0 0.21880813E+03</rscale>
<asrwt>0</asrwt>
<pdfrwt beam="2">  1        2 0.22758421E+00 0.22323637E+03</pdfrwt>
<pdfrwt beam="1">  1       -2 0.47917762E-02 0.22323637E+03</pdfrwt>
<totfact> 0.29223085E+03</totfact>
</mgrwt>
</event>
<event>
 8    1  0.9424564E-006  0.1301886E+03  0.7546771E-02  0.1240275E+00
         -1   -1    0    0    0  501 -0.00000000000E+00  0.00000000000E+00  0.98188523265E+02  0.98188523265E+02  0.00000000000E+00 0.  1.
          1   -1    0    0  501    0  0.00000000000E+00 -0.00000000000E+00 -0.15649098293E+03  0.15649098293E+03  0.00000000000E+00 0. -1.
         23    2    1    2    0    0  0.33779549472E+02 -0.13500719565E+02  0.15059761274E+02  0.13105673343E+03  0.12500297427E+03 0.  0.
         23    2    1    2    0    0 -0.33779549472E+02  0.13500719565E+02 -0.73362220944E+02  0.12362277277E+03  0.92613428259E+02 0.  0.
          5    1    3    3  502    0  0.67570396049E+02  0.29754137115E+02  0.17091466772E+02  0.75929410205E+02  0.47000000000E+01 0. -1.
         -5    1    3    3    0  502 -0.33790846576E+02 -0.43254856680E+02 -0.20317054979E+01  0.55127323226E+02  0.47000000000E+01 0. -1.
        -11    1    4    4    0    0 -0.50824754256E+02 -0.99692363393E+00 -0.84511505123E+02  0.98622228732E+02  0.00000000000E+00 0. -1.
         11    1    4    4    0    0  0.17045204784E+02  0.14497643199E+02  0.11149284179E+02  0.25000544037E+02  0.00000000000E+00 0.  1.
<mgrwt>
<rscale>  0 0.12172710E+03</rscale>
<asrwt>0</asrwt>
<pdfrwt beam="2">  1        1 0.24075536E-01 0.13018860E+03</pdfrwt>
<pdfrwt beam="1">  1       -1 0.15105927E-01 0.13018860E+03</pdfrwt>
<totfact> 0.60551845E+03</totfact>
</mgrwt>
</event>
<event>
 8    1  0.9424564E-006  0.1566559E+03  0.7546771E-02  0.1200775E+00
         -2   -1    0    0    0  501 -0.00000000000E+00  0.00000000000E+00  0.23678728537E+03  0.23678728537E+03  0.00000000000E+00 0.  1.
          2   -1    0    0  501    0  0.00000000000E+00 -0.00000000000E+00 -0.95424126928E+02  0.95424126928E+02  0.00000000000E+00 0. -1.
         23    2    1    2    0    0  0.94364148885E+02 -0.36386102167E+01  0.12491316944E+03  0.20036056399E+03  0.12499289430E+03 0.  0.
         23    2    1    2    0    0 -0.94364148885E+02  0.36386102167E+01  0.16449988998E+02  0.13185084830E+03  0.90532933129E+02 0.  0.
          5    1    3    3  502    0  0.12474694343E+03 -0.17452690994E+01  0.90646149009E+02  0.15428434850E+03  0.47000000000E+01 0. -1.
         -5    1    3    3    0  502 -0.30382794550E+02 -0.18933411173E+01  0.34267020431E+02  0.46076215496E+02  0.47000000000E+01 0. -1.
        -11    1    4    4    0    0 -0.40518419315E+02 -0.18216957158E+02  0.48266266025E+02  0.65599026425E+02  0.00000000000E+00 0.  1.
         11    1    4    4    0    0 -0.53845729570E+02  0.21855567375E+02 -0.31816277027E+02  0.66251821877E+02  0.00000000000E+00 0. -1.
<mgrwt>
<rscale>  0 0.14975421E+03</rscale>
<asrwt>0</asrwt>
<pdfrwt beam="2">  1        2 0.14680635E-01 0.15665585E+03</pdfrwt>
<pdfrwt beam="1">  1       -2 0.36428813E-01 0.15665585E+03</pdfrwt>
<totfact> 0.27653094E+03</totfact>
</mgrwt>
</event>
<event>
 8    1  0.9424564E-006  0.1257406E+03  0.7546771E-02  0.1249322E+00
          2   -1    0    0  501    0  0.00000000000E+00  0.00000000000E+00  0.23403039386E+03  0.23403039386E+03  0.00000000000E+00 0.  1.
         -2   -1    0    0    0  501 -0.00000000000E+00 -0.00000000000E+00 -0.79485338899E+02  0.79485338899E+02  0.00000000000E+00 0. -1.
         23    2    1    2    0    0  0.29616476892E+01 -0.13283862705E+02 -0.87781394354E+01  0.12604665676E+03  0.12500188632E+03 0.  0.
         23    2    1    2    0    0 -0.29616476892E+01  0.13283862705E+02  0.16332319440E+03  0.18746907600E+03  0.91021735111E+02 0.  0.
          5    1    3    3  502    0  0.15904715187E+02  0.49718237618E+00 -0.64718258836E+02  0.66811302804E+02  0.47000000000E+01 0.  1.
         -5    1    3    3    0  502 -0.12943067498E+02 -0.13781045081E+02  0.55940119401E+02  0.59235353957E+02  0.47000000000E+01 0.  1.
        -11    1    4    4    0    0 -0.33340573834E+01 -0.24420251231E+02  0.14205744879E+03  0.14417969124E+03  0.00000000000E+00 0.  1.
         11    1    4    4    0    0  0.37240969429E+00  0.37704113936E+02  0.21265745605E+02  0.43289384759E+02  0.00000000000E+00 0. -1.
<mgrwt>
<rscale>  0 0.11630365E+03</rscale>
<asrwt>0</asrwt>
<pdfrwt beam="1">  1        2 0.36004676E-01 0.12574062E+03</pdfrwt>
<pdfrwt beam="2">  1       -2 0.12228514E-01 0.12574062E+03</pdfrwt>
<totfact> 0.65099748E+03</totfact>
</mgrwt>
</event>
<event>
 8    1  0.9424564E-006  0.1266097E+03  0.7546771E-02  0.1247510E+00
         -1   -1    0    0    0  501 -0.00000000000E+00  0.00000000000E+00  0.14167704153E+03  0.14167704153E+03  0.00000000000E+00 0.  1.
          1   -1    0    0  501    0  0.00000000000E+00 -0.00000000000E+00 -0.86497403750E+02  0.86497403750E+02  0.00000000000E+00 0. -1.
         23    2    1    2    0    0 -0.11060612225E+02  0.16797005221E+02  0.43933882183E+02  0.13401572520E+03  0.12500220826E+03 0.  0.
         23    2    1    2    0    0  0.11060612225E+02 -0.16797005221E+02  0.11245755600E+02  0.94158720082E+02  0.91295788628E+02 0.  0.
          5    1    3    3  502    0  0.51965223088E+02  0.91943651746E+01 -0.57125609269E+01  0.53288311232E+02  0.47000000000E+01 0.  1.
         -5    1    3    3    0  502 -0.63025835314E+02  0.76026400468E+01  0.49646443110E+02  0.80727413970E+02  0.47000000000E+01 0.  1.
        -11    1    4    4    0    0  0.18240589805E+02 -0.49646876886E+02  0.24147420511E+02  0.58143180325E+02  0.00000000000E+00 0.  1.
         11    1    4    4    0    0 -0.71799775794E+01  0.32849871665E+02 -0.12901664911E+02  0.36015539756E+02  0.00000000000E+00 0. -1.
<mgrwt>
<rscale>  0 0.11736417E+03</rscale>
<asrwt>0</asrwt>
<pdfrwt beam="2">  1        1 0.13307293E-01 0.12660975E+03</pdfrwt>
<pdfrwt beam="1">  1       -1 0.21796468E-01 0.12660975E+03</pdfrwt>
<totfact> 0.71976775E+03</totfact>
</mgrwt>
</event>
<event>
 8    1  0.9424564E-006  0.1661204E+03  0.7546771E-02  0.1190044E+00
          2   -1    0    0  501    0  0.00000000000E+00  0.00000000000E+00  0.13997621654E+04  0.13997621654E+04  0.00000000000E+00 0. -1.
         -2   -1    0    0    0  501 -0.00000000000E+00 -0.00000000000E+00 -0.16732339103E+02  0.16732339103E+02  0.00000000000E+00 0.  1.
         23    2    1    2    0    0  0.97517684771E+02  0.49613822923E+02  0.69071524686E+03  0.71041081336E+03  0.12499896487E+03 0.  0.
         23    2    1    2    0    0 -0.97517684771E+02 -0.49613822923E+02  0.69231457940E+03  0.70608369112E+03  0.85343258288E+02 0.  0.
          5    1    3    3  502    0  0.58030082494E+01  0.55346747357E+02  0.43644874379E+03  0.44000742415E+03  0.47000000000E+01 0. -1.
         -5    1    3    3    0  502  0.91714676522E+02 -0.57329244334E+01  0.25426650307E+03  0.27040338921E+03  0.47000000000E+01 0. -1.
        -11    1    4    4    0    0  0.13941079130E+02 -0.70560878351E+01  0.39907589802E+02  0.42857412273E+02  0.00000000000E+00 0.  1.
         11    1    4    4    0    0 -0.11145876390E+03 -0.42557735088E+02  0.65240698960E+03  0.66322627884E+03  0.00000000000E+00 0. -1.
<mgrwt>
<rscale>  0 0.15881234E+03</rscale>
<asrwt>0</asrwt>
<pdfrwt beam="1">  1        2 0.21534793E+00 0.16612035E+03</pdfrwt>
<pdfrwt beam="2">  1       -2 0.25742071E-02 0.16612035E+03</pdfrwt>
<totfact> 0.80936284E+03</totfact>
</mgrwt>
</event>
<event>
 8    1  0.9424564E-006  0.1174967E+03  0.7546771E-02  0.1257233E+00
         -1   -1    0    0    0  501 -0.00000000000E+00  0.00000000000E+00  0.97495409229E+02  0.97495409229E+02  0.00000000000E+00 0.  1.
          1   -1    0    0  501    0  0.00000000000E+00 -0.00000000000E+00 -0.14429153365E+03  0.14429153365E+03  0.00000000000E+00 0. -1.
         23    2    1    2    0    0 -0.34074370874E+02 -0.80584422356E+01  0.26799612609E+02  0.12051432594E+03  0.11215829117E+03 0.  0.
         23    2    1    2    0    0  0.34074370874E+02  0.80584422356E+01 -0.73595737032E+02  0.12127261694E+03  0.89803751980E+02 0.  0.
          5    1    3    3  502    0 -0.49254492921E+02 -0.29577967532E+01  0.63289357957E+02  0.80388969798E+02  0.47000000000E+01 0. -1.
         -5    1    3    3    0  502  0.15180122048E+02 -0.51006454823E+01 -0.36489745348E+02  0.40125356139E+02  0.47000000000E+01 0.  1.
        -11    1    4    4    0    0  0.27733862728E+02  0.22181389699E+02 -0.91175799748E+02  0.97847880154E+02  0.00000000000E+00 0. -1.
         11    1    4    4    0    0  0.63405081453E+01 -0.14122947464E+02  0.17580062717E+02  0.23424736791E+02  0.00000000000E+00 0.  1.
<mgrwt>
<rscale>  0 0.11182155E+03</rscale>
<asrwt>0</asrwt>
<pdfrwt beam="2">  1        1 0.22198697E-01 0.11749674E+03</pdfrwt>
<pdfrwt beam="1">  1       -1 0.14999294E-01 0.11749674E+03</pdfrwt>
<totfact> 0.67309833E+03</totfact>
</mgrwt>
</event>
<event>
 8    1  0.9424564E-006  0.1928390E+03  0.7546771E-02  0.1161000E+00
          1   -1    0    0  501    0  0.00000000000E+00  0.00000000000E+00  0.68110161589E+02  0.68110161589E+02  0.00000000000E+00 0. -1.
         -1   -1    0    0    0  501 -0.00000000000E+00 -0.00000000000E+00 -0.48704025907E+03  0.48704025907E+03  0.00000000000E+00 0.  1.
         23    2    1    2    0    0 -0.90851782206E+02 -0.11536239494E+03 -0.21445122974E+03  0.28840288036E+03  0.12499745185E+03 0.  0.
         23    2    1    2    0    0  0.90851782206E+02  0.11536239494E+03 -0.20447886774E+03  0.26674754030E+03  0.88204956796E+02 0.  0.
          5    1    3    3  502    0  0.30908105954E+02 -0.26875390685E+02 -0.34530721481E+02  0.53777861283E+02  0.47000000000E+01 0.  1.
         -5    1    3    3    0  502 -0.12175988816E+03 -0.88487004258E+02 -0.17992050826E+03  0.23462501908E+03  0.47000000000E+01 0.  1.
        -11    1    4    4    0    0  0.47985764727E+02  0.32939099961E+02 -0.14548573728E+03  0.15669625928E+03  0.00000000000E+00 0.  1.
         11    1    4    4    0    0  0.42866017478E+02  0.82423294982E+02 -0.58993130467E+02  0.11005128101E+03  0.00000000000E+00 0. -1.
<mgrwt>
<rscale>  0 0.18721197E+03</rscale>
<asrwt>0</asrwt>
<pdfrwt beam="1">  1        1 0.10478486E-01 0.19283903E+03</pdfrwt>
<pdfrwt beam="2">  1       -1 0.74929272E-01 0.19283903E+03</pdfrwt>
<totfact> 0.11162677E+03</totfact>
</mgrwt>
</event>
<event>
 8    1  0.9424564E-006  0.1420499E+03  0.7546771E-02  0.1221859E+00
         -1   -1    0    0    0  501 -0.00000000000E+00  0.00000000000E+00  0.34747491696E+02  0.34747491696E+02  0.00000000000E+00 0.  1.
          1   -1    0    0  501    0  0.00000000000E+00 -0.00000000000E+00 -0.59180401133E+03  0.59180401133E+03  0.00000000000E+00 0. -1.
         23    2    1    2    0    0  0.62290348941E+02 -0.25948266097E+02 -0.15975999684E+03  0.21377890843E+03  0.12499906005E+03 0.  0.
         23    2    1    2    0    0 -0.62290348941E+02  0.25948266097E+02 -0.39729652280E+03  0.41277259460E+03  0.89349245892E+02 0.  0.
          5    1    3    3  502    0  0.54203695894E+02 -0.20933944301E+02 -0.48402197865E+01  0.58496054570E+02  0.47000000000E+01 0.  1.
         -5    1    3    3    0  502  0.80866530467E+01 -0.50143217961E+01 -0.15491977705E+03  0.15528285386E+03  0.47000000000E+01 0.  1.
        -11    1    4    4    0    0 -0.38781953207E+01  0.44685078980E+02 -0.23558797071E+03  0.23981970025E+03  0.00000000000E+00 0.  1.
         11    1    4    4    0    0 -0.58412153620E+02 -0.18736812883E+02 -0.16170855208E+03  0.17295289435E+03  0.00000000000E+00 0. -1.
<mgrwt>
<rscale>  0 0.13384541E+03</rscale>
<asrwt>0</asrwt>
<pdfrwt beam="2">  1        1 0.91046772E-01 0.14204987E+03</pdfrwt>
<pdfrwt beam="1">  1       -1 0.53457679E-02 0.14204987E+03</pdfrwt>
<totfact> 0.55185237E+03</totfact>
</mgrwt>
</event>
<event>
 8    1  0.9424564E-006  0.1369278E+03  0.7546771E-02  0.1229345E+00
          1   -1    0    0  501    0  0.00000000000E+00  0.00000000000E+00  0.13821845566E+03  0.13821845566E+03  0.00000000000E+00 0. -1.
         -1   -1    0    0    0  501 -0.00000000000E+00 -0.00000000000E+00 -0.10775104784E+03  0.10775104784E+03  0.00000000000E+00 0.  1.
         23    2    1    2    0    0 -0.20833901695E+02  0.51920594553E+02  0.21607758446E+02  0.13862220526E+03  0.12497768188E+03 0.  0.
         23    2    1    2    0    0  0.20833901695E+02 -0.51920594553E+02  0.88596493721E+01  0.10734729824E+03  0.91187441320E+02 0.  0.
          5    1    3    3  502    0 -0.12561403340E+02  0.73146618745E+02  0.58766807890E+02  0.94783144057E+02  0.47000000000E+01 0.  1.
         -5    1    3    3    0  502 -0.82724983550E+01 -0.21226024192E+02 -0.37159049444E+02  0.43839061208E+02  0.47000000000E+01 0.  1.
        -11    1    4    4    0    0  0.58306868010E+01 -0.53103743229E+02 -0.33048450247E+02  0.62818822953E+02  0.00000000000E+00 0.  1.
         11    1    4    4    0    0  0.15003214894E+02  0.11831486768E+01  0.41908099619E+02  0.44528475290E+02  0.00000000000E+00 0. -1.
<mgrwt>
<rscale>  0 0.12873465E+03</rscale>
<asrwt>0</asrwt>
<pdfrwt beam="1">  1        1 0.21264378E-01 0.13692779E+03</pdfrwt>
<pdfrwt beam="2">  1       -1 0.16577084E-01 0.13692779E+03</pdfrwt>
<totfact> 0.61394697E+03</totfact>
</mgrwt>
</event>
<event>
 8    1  0.9424564E-006  0.1291995E+03  0.7546771E-02  0.1245750E+00
         -1   -1    0    0    0  501 -0.00000000000E+00  0.00000000000E+00  0.31023207852E+03  0.31023207852E+03  0.00000000000E+00 0.  1.
          1   -1    0    0  501    0  0.00000000000E+00 -0.00000000000E+00 -0.39768729848E+02  0.39768729848E+02  0.00000000000E+00 0. -1.
         23    2    1    2    0    0 -0.23685588262E+02 -0.22487168639E+02  0.18016927083E+03  0.22170585922E+03  0.12500336803E+03 0.  0.
         23    2    1    2    0    0  0.23685588262E+02  0.22487168639E+02  0.90294077847E+02  0.12829494915E+03  0.85087564528E+02 0.  0.
          5    1    3    3  502    0 -0.24209770685E+02  0.49736925267E+02  0.94028864690E+02  0.10919428614E+03  0.47000000000E+01 0. -1.
         -5    1    3    3    0  502  0.52418242346E+00 -0.72224093905E+02  0.86140406136E+02  0.11251157308E+03  0.47000000000E+01 0. -1.
        -11    1    4    4    0    0  0.54331669667E+02  0.25535567189E+02  0.64585335000E+02  0.88177440525E+02  0.00000000000E+00 0.  1.
         11    1    4    4    0    0 -0.30646081405E+02 -0.30483985504E+01  0.25708742847E+02  0.40117508621E+02  0.00000000000E+00 0. -1.
<mgrwt>
<rscale>  0 0.11840593E+03</rscale>
<asrwt>0</asrwt>
<pdfrwt beam="2">  1        1 0.61182663E-02 0.12919954E+03</pdfrwt>
<pdfrwt beam="1">  1       -1 0.47728011E-01 0.12919954E+03</pdfrwt>
<totfact> 0.53473513E+03</totfact>
</mgrwt>
</event>
<event>
 8    1  0.9424564E-006  0.1302669E+03  0.7546771E-02  0.1241017E+00
          4   -1    0    0  501    0  0.00000000000E+00  0.00000000000E+00  0.12091883752E+03  0.12091883752E+03  0.00000000000E+00 0. -1.
         -4   -1    0    0    0  501 -0.00000000000E+00 -0.00000000000E+00 -0.12562659245E+03  0.12562659245E+03  0.00000000000E+00 0.  1.
         23    2    1    2    0    0 -0.34495283394E+02 -0.12422689114E+02 -0.48961665861E+02  0.13916434386E+03  0.12500088839E+03 0.  0.
         23    2    1    2    0    0  0.34495283394E+02  0.12422689114E+02  0.44253910938E+02  0.10738108611E+03  0.90708551077E+02 0.  0.
          5    1    3    3  502    0 -0.65716162301E+02  0.11402437629E+00 -0.72401880784E+02  0.97891518173E+02  0.47000000000E+01 0.  1.
         -5    1    3    3    0  502  0.31220878907E+02 -0.12536713490E+02  0.23440214923E+02  0.41272825691E+02  0.47000000000E+01 0.  1.
        -11    1    4    4    0    0 -0.34404710402E+01  0.45417475684E+02  0.10255632776E+02  0.46687920730E+02  0.00000000000E+00 0.  1.
         11    1    4    4    0    0  0.37935754434E+02 -0.32994786569E+02  0.33998278162E+02  0.60693165375E+02  0.00000000000E+00 0. -1.
<mgrwt>
<rscale>  0 0.12126978E+03</rscale>
<asrwt>0</asrwt>
<pdfrwt beam="1">  1        4 0.18602898E-01 0.13026692E+03</pdfrwt>
<pdfrwt beam="2">  1       -4 0.19327168E-01 0.13026692E+03</pdfrwt>
<totfact> 0.10098197E+03</totfact>
</mgrwt>
</event>
<event>
 8    1  0.9424564E-006  0.1320082E+03  0.7546771E-02  0.1236820E+00
         -1   -1    0    0    0  501 -0.00000000000E+00  0.00000000000E+00  0.10804058642E+03  0.10804058642E+03  0.00000000000E+00 0.  1.
          1   -1    0    0  501    0  0.00000000000E+00 -0.00000000000E+00 -0.14561474194E+03  0.14561474194E+03  0.00000000000E+00 0. -1.
         23    2    1    2    0    0 -0.41855507676E+02  0.70078983789E+01  0.23997193768E+02  0.13417165630E+03  0.12500069553E+03 0.  0.
         23    2    1    2    0    0  0.41855507676E+02 -0.70078983789E+01 -0.61571349286E+02  0.11948367206E+03  0.93189713349E+02 0.  0.
          5    1    3    3  502    0  0.10422107753E+02 -0.25670561181E+02  0.57390032370E+02  0.63900734399E+02  0.47000000000E+01 0.  1.
         -5    1    3    3    0  502 -0.52277615430E+02  0.32678459560E+02 -0.33392838602E+02  0.70270921896E+02  0.47000000000E+01 0.  1.
        -11    1    4    4    0    0  0.56516484748E+02 -0.15637127006E+02 -0.76816246097E+02  0.96640407975E+02  0.00000000000E+00 0. -1.
         11    1    4    4    0    0 -0.14660977071E+02  0.86292286273E+01  0.15244896810E+02  0.22843264087E+02  0.00000000000E+00 0.  1.
<mgrwt>
<rscale>  0 0.12388634E+03</rscale>
<asrwt>0</asrwt>
<pdfrwt beam="2">  1        1 0.22402268E-01 0.13200821E+03</pdfrwt>
<pdfrwt beam="1">  1       -1 0.16621629E-01 0.13200821E+03</pdfrwt>
<totfact> 0.57099445E+03</totfact>
</mgrwt>
</event>
<event>
 8    1  0.9424564E-006  0.1315687E+03  0.7546771E-02  0.1232244E+00
          1   -1    0    0  501    0  0.00000000000E+00  0.00000000000E+00  0.24575010151E+03  0.24575010151E+03  0.00000000000E+00 0. -1.
         -1   -1    0    0    0  501 -0.00000000000E+00 -0.00000000000E+00 -0.61236519473E+02  0.61236519473E+02  0.00000000000E+00 0.  1.
         23    2    1    2    0    0 -0.29355761092E+01  0.66731253837E+02  0.93111164226E+02  0.16118312953E+03  0.11335181735E+03 0.  0.
         23    2    1    2    0    0  0.29355761092E+01 -0.66731253837E+02  0.91402417810E+02  0.14580349145E+03  0.91883503910E+02 0.  0.
          5    1    3    3  502    0 -0.50663408917E+02  0.47051610668E+02  0.21078959023E+02  0.72436507254E+02  0.47000000000E+01 0. -1.
         -5    1    3    3    0  502  0.47727832808E+02  0.19679643169E+02  0.72032205203E+02  0.88746622281E+02  0.47000000000E+01 0.  1.
        -11    1    4    4    0    0  0.90864190977E+01  0.10908417479E+02 -0.10419614530E+02  0.17610364870E+02  0.00000000000E+00 0.  1.
         11    1    4    4    0    0 -0.61508429886E+01 -0.77639671316E+02  0.10182203234E+03  0.12819312658E+03  0.00000000000E+00 0. -1.
<mgrwt>
<rscale>  0 0.12682532E+03</rscale>
<asrwt>0</asrwt>
<pdfrwt beam="1">  1        1 0.37807707E-01 0.13156866E+03</pdfrwt>
<pdfrwt beam="2">  1       -1 0.94210032E-02 0.13156866E+03</pdfrwt>
<totfact> 0.71584364E+03</totfact>
</mgrwt>
</event>
<event>
 8    1  0.9424564E-006  0.1253270E+03  0.7546771E-02  0.1250771E+00
         -2   -1    0    0    0  501 -0.00000000000E+00  0.00000000000E+00  0.31263143072E+02  0.31263143072E+02  0.00000000000E+00 0.  1.
          2   -1    0    0  501    0  0.00000000000E+00 -0.00000000000E+00 -0.45359396656E+03  0.45359396656E+03  0.00000000000E+00 0. -1.
         23    2    1    2    0    0  0.47166377985E+01  0.76291651412E+01 -0.13745235476E+03  0.18601074454E+03  0.12500558557E+03 0.  0.
         23    2    1    2    0    0 -0.47166377985E+01 -0.76291651412E+01 -0.28487846872E+03  0.29884636509E+03  0.89849636334E+02 0.  0.
          5    1    3    3  502    0  0.38558323939E+02  0.67516575171E+01  0.47935499150E+01  0.39716461889E+02  0.47000000000E+01 0.  1.
         -5    1    3    3    0  502 -0.33841686140E+02  0.87750762417E+00 -0.14224590468E+03  0.14629428266E+03  0.47000000000E+01 0.  1.
        -11    1    4    4    0    0  0.42344254678E+02 -0.16298299470E+01 -0.11914578237E+03  0.12645714573E+03  0.00000000000E+00 0.  1.
         11    1    4    4    0    0 -0.47060892477E+02 -0.59993351943E+01 -0.16573268635E+03  0.17238921935E+03  0.00000000000E+00 0. -1.
<mgrwt>
<rscale>  0 0.11546511E+03</rscale>
<asrwt>0</asrwt>
<pdfrwt beam="2">  1        2 0.69783685E-01 0.12532696E+03</pdfrwt>
<pdfrwt beam="1">  1       -2 0.48097145E-02 0.12532696E+03</pdfrwt>
<totfact> 0.13559449E+04</totfact>
</mgrwt>
</event>
<event>
 8    1  0.9424564E-006  0.2420297E+03  0.7546771E-02  0.1121030E+00
          1   -1    0    0  501    0  0.00000000000E+00  0.00000000000E+00  0.10778192285E+04  0.10778192285E+04  0.00000000000E+00 0. -1.
         -1   -1    0    0    0  501 -0.00000000000E+00 -0.00000000000E+00 -0.75642822006E+02  0.75642822006E+02  0.00000000000E+00 0.  1.
         23    2    1    2    0    0 -0.16363237997E+03 -0.12719395777E+03  0.18294743896E+03  0.30339436530E+03  0.12499806720E+03 0.  0.
         23    2    1    2    0    0  0.16363237997E+03  0.12719395777E+03  0.81922896750E+03  0.85006768517E+03  0.92331519589E+02 0.  0.
          5    1    3    3  502    0 -0.13467032225E+03 -0.14836290507E+03  0.17561677297E+03  0.26647887016E+03  0.47000000000E+01 0.  1.
         -5    1    3    3    0  502 -0.28962057725E+02  0.21168947296E+02  0.73306659867E+01  0.36915495136E+02  0.47000000000E+01 0.  1.
        -11    1    4    4    0    0  0.70453359714E+02  0.41234192659E+01  0.20796263807E+03  0.21961133239E+03  0.00000000000E+00 0.  1.
         11    1    4    4    0    0  0.93179020258E+02  0.12307053851E+03  0.61126632942E+03  0.63045635277E+03  0.00000000000E+00 0. -1.
<mgrwt>
<rscale>  0 0.23815254E+03</rscale>
<asrwt>0</asrwt>
<pdfrwt beam="1">  1        1 0.16581833E+00 0.24202970E+03</pdfrwt>
<pdfrwt beam="2">  1       -1 0.11637358E-01 0.24202970E+03</pdfrwt>
<totfact> 0.67666550E+02</totfact>
</mgrwt>
</event>
<event>
 8    1  0.9424564E-006  0.1437742E+03  0.7546771E-02  0.1218568E+00
          2   -1    0    0  501    0  0.00000000000E+00  0.00000000000E+00  0.66124740027E+03  0.66124740027E+03  0.00000000000E+00 0. -1.
         -2   -1    0    0    0  501 -0.00000000000E+00 -0.00000000000E+00 -0.25463286704E+02  0.25463286704E+02  0.00000000000E+00 0.  1.
         23    2    1    2    0    0  0.31026593047E+02  0.63909679015E+02  0.35794110749E+03  0.38573678988E+03  0.12499575228E+03 0.  0.
         23    2    1    2    0    0 -0.31026593047E+02 -0.63909679015E+02  0.27784300608E+03  0.30097389709E+03  0.91331561682E+02 0.  0.
          5    1    3    3  502    0  0.23133491027E+02 -0.40045334629E+01  0.28727713407E+01  0.24115088856E+02  0.47000000000E+01 0.  1.
         -5    1    3    3    0  502  0.78931020198E+01  0.67914212478E+02  0.35506833615E+03  0.36162170102E+03  0.47000000000E+01 0.  1.
        -11    1    4    4    0    0  0.28055434404E+02 -0.43286192922E+02  0.15031872596E+03  0.15892300423E+03  0.00000000000E+00 0. -1.
         11    1    4    4    0    0 -0.59082027451E+02 -0.20623486093E+02  0.12752428011E+03  0.14205089287E+03  0.00000000000E+00 0.  1.
<mgrwt>
<rscale>  0 0.13617661E+03</rscale>
<asrwt>0</asrwt>
<pdfrwt beam="1">  1        2 0.10173036E+00 0.14377425E+03</pdfrwt>
<pdfrwt beam="2">  1       -2 0.39174292E-02 0.14377425E+03</pdfrwt>
<totfact> 0.12202913E+04</totfact>
</mgrwt>
</event>
<event>
 8    1  0.9424564E-006  0.1317882E+03  0.7546771E-02  0.1238718E+00
         -1   -1    0    0    0  501 -0.00000000000E+00  0.00000000000E+00  0.32519808911E+03  0.32519808911E+03  0.00000000000E+00 0.  1.
          1   -1    0    0  501    0  0.00000000000E+00 -0.00000000000E+00 -0.43490828301E+02  0.43490828301E+02  0.00000000000E+00 0. -1.
         23    2    1    2    0    0 -0.16249424332E+01 -0.41710329242E+02  0.20383548322E+03  0.24272829981E+03  0.12500292519E+03 0.  0.
         23    2    1    2    0    0  0.16249424332E+01  0.41710329242E+02  0.77871777591E+02  0.12596061760E+03  0.89775672865E+02 0.  0.
          5    1    3    3  502    0  0.13504040613E+02 -0.39871768745E+02  0.21758587972E+03  0.22167052603E+03  0.47000000000E+01 0. -1.
         -5    1    3    3    0  502 -0.15128983046E+02 -0.18385604961E+01 -0.13750396501E+02  0.21057773782E+02  0.47000000000E+01 0. -1.
        -11    1    4    4    0    0  0.31267532971E+02  0.17231001126E+02 -0.35920758867E+01  0.35881318637E+02  0.00000000000E+00 0. -1.
         11    1    4    4    0    0 -0.29642590538E+02  0.24479328115E+02  0.81463853477E+02  0.90079298966E+02  0.00000000000E+00 0.  1.
<mgrwt>
<rscale>  0 0.12269363E+03</rscale>
<asrwt>0</asrwt>
<pdfrwt beam="2">  1        1 0.66908969E-02 0.13178818E+03</pdfrwt>
<pdfrwt beam="1">  1       -1 0.50030474E-01 0.13178818E+03</pdfrwt>
<totfact> 0.43553862E+03</totfact>
</mgrwt>
</event>
<event>
 8    1  0.9424564E-006  0.1401761E+03  0.7546771E-02  0.1223835E+00
         -2   -1    0    0    0  501 -0.00000000000E+00  0.00000000000E+00  0.41897751254E+03  0.41897751254E+03  0.00000000000E+00 0.  1.
          2   -1    0    0  501    0  0.00000000000E+00 -0.00000000000E+00 -0.10121115923E+03  0.10121115923E+03  0.00000000000E+00 0. -1.
         23    2    1    2    0    0  0.39598754751E+02 -0.49540571641E+02  0.37082421426E+03  0.39643404025E+03  0.12500808282E+03 0.  0.
         23    2    1    2    0    0 -0.39598754751E+02  0.49540571641E+02 -0.53057860948E+02  0.12375463152E+03  0.92074657736E+02 0.  0.
          5    1    3    3  502    0  0.50689392881E+02  0.29314268133E+02  0.12783494638E+03  0.14068619116E+03  0.47000000000E+01 0.  1.
         -5    1    3    3    0  502 -0.11090638130E+02 -0.78854839774E+02  0.24298926788E+03  0.25574784909E+03  0.47000000000E+01 0.  1.
        -11    1    4    4    0    0 -0.47765017868E+02  0.72778392918E+01  0.80765799605E+01  0.48986682073E+02  0.00000000000E+00 0.  1.
         11    1    4    4    0    0  0.81662631167E+01  0.42262732349E+02 -0.61134440908E+02  0.74767949444E+02  0.00000000000E+00 0. -1.
<mgrwt>
<rscale>  0 0.13247064E+03</rscale>
<asrwt>0</asrwt>
<pdfrwt beam="2">  1        2 0.15570948E-01 0.14017614E+03</pdfrwt>
<pdfrwt beam="1">  1       -2 0.64458078E-01 0.14017614E+03</pdfrwt>
<totfact> 0.83438331E+02</totfact>
</mgrwt>
</event>
<event>
 8    1  0.9424564E-006  0.1262509E+03  0.7546771E-02  0.1247837E+00
          2   -1    0    0  501    0  0.00000000000E+00  0.00000000000E+00  0.50115286780E+03  0.50115286780E+03  0.00000000000E+00 0.  1.
         -2   -1    0    0    0  501 -0.00000000000E+00 -0.00000000000E+00 -0.28303395935E+02  0.28303395935E+02  0.00000000000E+00 0. -1.
         23    2    1    2    0    0  0.91341973874E+01  0.15181166736E+02  0.16554143017E+03  0.20819043627E+03  0.12500156506E+03 0.  0.
         23    2    1    2    0    0 -0.91341973874E+01 -0.15181166736E+02  0.30730804170E+03  0.32126582746E+03  0.91976073079E+02 0.  0.
          5    1    3    3  502    0  0.22369949269E+02 -0.97355236936E+01  0.17599293575E+03  0.17773800519E+03  0.47000000000E+01 0. -1.
         -5    1    3    3    0  502 -0.13235751882E+02  0.24916690430E+02 -0.10451505588E+02  0.30452431084E+02  0.47000000000E+01 0. -1.
        -11    1    4    4    0    0 -0.20168539941E+02  0.35582279452E+02  0.11466148714E+03  0.12173793676E+03  0.00000000000E+00 0.  1.
         11    1    4    4    0    0  0.11034342553E+02 -0.50763446188E+02  0.19264655456E+03  0.19952789070E+03  0.00000000000E+00 0. -1.
<mgrwt>
<rscale>  0 0.11717164E+03</rscale>
<asrwt>0</asrwt>
<pdfrwt beam="1">  1        2 0.77100435E-01 0.12625091E+03</pdfrwt>
<pdfrwt beam="2">  1       -2 0.43543690E-02 0.12625091E+03</pdfrwt>
<totfact> 0.14121362E+04</totfact>
</mgrwt>
</event>
<event>
 8    1  0.9424564E-006  0.1480015E+03  0.7546771E-02  0.1212692E+00
         -1   -1    0    0    0  501 -0.00000000000E+00  0.00000000000E+00  0.11223850381E+03  0.11223850381E+03  0.00000000000E+00 0.  1.
          1   -1    0    0  501    0  0.00000000000E+00 -0.00000000000E+00 -0.25240973565E+03  0.25240973565E+03  0.00000000000E+00 0. -1.
         23    2    1    2    0    0  0.76598352956E+02  0.20302033422E+02  0.35159691425E+02  0.15212049755E+03  0.12499984655E+03 0.  0.
         23    2    1    2    0    0 -0.76598352956E+02 -0.20302033422E+02 -0.17533092326E+03  0.21252774191E+03  0.90264213257E+02 0.  0.
          5    1    3    3  502    0  0.38363458740E+01 -0.46196919760E+02 -0.20899008066E+01  0.46640439860E+02  0.47000000000E+01 0. -1.
         -5    1    3    3    0  502  0.72762007082E+02  0.66498953182E+02  0.37249592231E+02  0.10548005769E+03  0.47000000000E+01 0. -1.
        -11    1    4    4    0    0 -0.39060700020E+02  0.10269895211E+02 -0.15473096491E+03  0.15991522921E+03  0.00000000000E+00 0. -1.
         11    1    4    4    0    0 -0.37537652936E+02 -0.30571928633E+02 -0.20599958352E+02  0.52612512698E+02  0.00000000000E+00 0.  1.
<mgrwt>
<rscale>  0 0.14047433E+03</rscale>
<asrwt>0</asrwt>
<pdfrwt beam="2">  1        1 0.38832267E-01 0.14800149E+03</pdfrwt>
<pdfrwt beam="1">  1       -1 0.17267462E-01 0.14800149E+03</pdfrwt>
<totfact> 0.27226833E+03</totfact>
</mgrwt>
</event>
<event>
 8    1  0.9424564E-006  0.1800333E+03  0.7546771E-02  0.1174319E+00
         -3   -1    0    0    0  501 -0.00000000000E+00  0.00000000000E+00  0.34070227917E+03  0.34070227917E+03  0.00000000000E+00 0.  1.
          3   -1    0    0  501    0  0.00000000000E+00 -0.00000000000E+00 -0.87787980905E+02  0.87787980905E+02  0.00000000000E+00 0. -1.
         23    2    1    2    0    0  0.82988230244E+02 -0.99512053565E+02  0.18834399752E+03  0.26054836882E+03  0.12498918324E+03 0.  0.
         23    2    1    2    0    0 -0.82988230244E+02  0.99512053565E+02  0.64570300745E+02  0.16794189126E+03  0.85120267482E+02 0.  0.
          5    1    3    3  502    0  0.78821670632E+02 -0.17684959379E+01  0.10838659178E+03  0.13411087434E+03  0.47000000000E+01 0. -1.
         -5    1    3    3    0  502  0.41665596120E+01 -0.97743557627E+02  0.79957405738E+02  0.12643749447E+03  0.47000000000E+01 0. -1.
        -11    1    4    4    0    0 -0.53206954153E+02  0.35484647881E+02  0.72739246072E+02  0.96856275608E+02  0.00000000000E+00 0. -1.
         11    1    4    4    0    0 -0.29781276092E+02  0.64027405684E+02 -0.81689453267E+01  0.71085615648E+02  0.00000000000E+00 0.  1.
<mgrwt>
<rscale>  0 0.17342852E+03</rscale>
<asrwt>0</asrwt>
<pdfrwt beam="2">  1        3 0.13505843E-01 0.18003331E+03</pdfrwt>
<pdfrwt beam="1">  1       -3 0.52415735E-01 0.18003331E+03</pdfrwt>
<totfact> 0.38921685E+02</totfact>
</mgrwt>
</event>
<event>
 8    1  0.9424564E-006  0.1400139E+03  0.7546771E-02  0.1224226E+00
         -1   -1    0    0    0  501 -0.00000000000E+00  0.00000000000E+00  0.24813458988E+03  0.24813458988E+03  0.00000000000E+00 0.  1.
          1   -1    0    0  501    0  0.00000000000E+00 -0.00000000000E+00 -0.63691269169E+02  0.63691269169E+02  0.00000000000E+00 0. -1.
         23    2    1    2    0    0  0.30324846189E+02  0.55306665281E+02  0.97717011938E+02  0.17074102434E+03  0.12500183778E+03 0.  0.
         23    2    1    2    0    0 -0.30324846189E+02 -0.55306665281E+02  0.86726308777E+02  0.14108483471E+03  0.91679083935E+02 0.  0.
          5    1    3    3  502    0  0.70143883785E+02  0.33527701026E+01  0.70734014003E+02  0.99783747357E+02  0.47000000000E+01 0.  1.
         -5    1    3    3    0  502 -0.39819037595E+02  0.51953895178E+02  0.26982997936E+02  0.70957276982E+02  0.47000000000E+01 0.  1.
        -11    1    4    4    0    0 -0.53552647051E+02 -0.60762641225E+02  0.44065497783E+02  0.92204949269E+02  0.00000000000E+00 0. -1.
         11    1    4    4    0    0  0.23227800862E+02  0.54559759448E+01  0.42660810994E+02  0.48879885444E+02  0.00000000000E+00 0.  1.
<mgrwt>
<rscale>  0 0.13220066E+03</rscale>
<asrwt>0</asrwt>
<pdfrwt beam="2">  1        1 0.97986569E-02 0.14001387E+03</pdfrwt>
<pdfrwt beam="1">  1       -1 0.38174552E-01 0.14001387E+03</pdfrwt>
<totfact> 0.42443281E+03</totfact>
</mgrwt>
</event>
<event>
 8    1  0.9424564E-006  0.1381851E+03  0.7546771E-02  0.1226079E+00
         -2   -1    0    0    0  501 -0.00000000000E+00  0.00000000000E+00  0.32616247062E+02  0.32616247062E+02  0.00000000000E+00 0. -1.
          2   -1    0    0  501    0  0.00000000000E+00 -0.00000000000E+00 -0.50623451247E+03  0.50623451247E+03  0.00000000000E+00 0.  1.
         23    2    1    2    0    0  0.29729063176E+02  0.50870412758E+02 -0.19683215653E+03  0.24049533743E+03  0.12499397340E+03 0.  0.
         23    2    1    2    0    0 -0.29729063176E+02 -0.50870412758E+02 -0.27678610888E+03  0.29835542211E+03  0.94518737522E+02 0.  0.
          5    1    3    3  502    0  0.35419676356E+02  0.46811333354E+02 -0.21368695032E+03  0.22165301067E+03  0.47000000000E+01 0. -1.
         -5    1    3    3    0  502 -0.56906131795E+01  0.40590794037E+01  0.16854793786E+02  0.18842326754E+02  0.47000000000E+01 0. -1.
        -11    1    4    4    0    0 -0.53596038505E+02 -0.16286611758E+02 -0.22394022230E+03  0.23083979776E+03  0.00000000000E+00 0.  1.
         11    1    4    4    0    0  0.23866975329E+02 -0.34583801000E+02 -0.52845886575E+02  0.67515624346E+02  0.00000000000E+00 0. -1.
<mgrwt>
<rscale>  0 0.13093242E+03</rscale>
<asrwt>0</asrwt>
<pdfrwt beam="2">  1        2 0.77882225E-01 0.13818506E+03</pdfrwt>
<pdfrwt beam="1">  1       -2 0.50178847E-02 0.13818506E+03</pdfrwt>
<totfact> 0.11373814E+04</totfact>
</mgrwt>
</event>
<event>
 8    1  0.9424564E-006  0.1532269E+03  0.7546771E-02  0.1205048E+00
         -1   -1    0    0    0  501 -0.00000000000E+00  0.00000000000E+00  0.18303170117E+03  0.18303170117E+03  0.00000000000E+00 0.  1.
          1   -1    0    0  501    0  0.00000000000E+00 -0.00000000000E+00 -0.11322707646E+03  0.11322707646E+03  0.00000000000E+00 0. -1.
         23    2    1    2    0    0 -0.86633315970E+02  0.18643887756E+02  0.70778833678E+02  0.16878423461E+03  0.12500219425E+03 0.  0.
         23    2    1    2    0    0  0.86633315970E+02 -0.18643887756E+02 -0.97420896666E+00  0.12747454303E+03  0.91629056804E+02 0.  0.
          5    1    3    3  502    0  0.24960035240E+02 -0.22752443995E+02  0.16583209095E+02  0.37917936268E+02  0.47000000000E+01 0.  1.
         -5    1    3    3    0  502 -0.11159335121E+03  0.41396331751E+02  0.54195624583E+02  0.13086629834E+03  0.47000000000E+01 0.  1.
        -11    1    4    4    0    0  0.84121136116E+02 -0.47050831624E+02 -0.11515473454E+02  0.97070862914E+02  0.00000000000E+00 0. -1.
         11    1    4    4    0    0  0.25121798545E+01  0.28406943868E+02  0.10541264488E+02  0.30403680115E+02  0.00000000000E+00 0.  1.
<mgrwt>
<rscale>  0 0.14633692E+03</rscale>
<asrwt>0</asrwt>
<pdfrwt beam="2">  1        1 0.17419550E-01 0.15322687E+03</pdfrwt>
<pdfrwt beam="1">  1       -1 0.28158723E-01 0.15322687E+03</pdfrwt>
<totfact> 0.33757049E+03</totfact>
</mgrwt>
</event>
<event>
 8    1  0.9424564E-006  0.1424846E+03  0.7546771E-02  0.1220669E+00
         -2   -1    0    0    0  501 -0.00000000000E+00  0.00000000000E+00  0.51136595713E+02  0.51136595713E+02  0.00000000000E+00 0.  1.
          2   -1    0    0  501    0  0.00000000000E+00 -0.00000000000E+00 -0.32343332760E+03  0.32343332760E+03  0.00000000000E+00 0. -1.
         23    2    1    2    0    0  0.25594665410E+02 -0.63408124937E+02 -0.16751791290E+03  0.21991840978E+03  0.12500471436E+03 0.  0.
         23    2    1    2    0    0 -0.25594665410E+02  0.63408124937E+02 -0.10477881898E+03  0.15465151353E+03  0.90900013882E+02 0.  0.
          5    1    3    3  502    0 -0.13566999673E+02  0.34257055249E+02 -0.44890818130E+02  0.58265640535E+02  0.47000000000E+01 0. -1.
         -5    1    3    3    0  502  0.39161665083E+02 -0.97665180187E+02 -0.12262709477E+03  0.16165276924E+03  0.47000000000E+01 0. -1.
        -11    1    4    4    0    0  0.11337311869E+02  0.50924880935E+02 -0.10319652498E+03  0.11563477378E+03  0.00000000000E+00 0. -1.
         11    1    4    4    0    0 -0.36931977278E+02  0.12483244003E+02 -0.15822940037E+01  0.39016739751E+02  0.00000000000E+00 0.  1.
<mgrwt>
<rscale>  0 0.13468256E+03</rscale>
<asrwt>0</asrwt>
<pdfrwt beam="2">  1        2 0.49758972E-01 0.14248458E+03</pdfrwt>
<pdfrwt beam="1">  1       -2 0.78671687E-02 0.14248458E+03</pdfrwt>
<totfact> 0.93046918E+03</totfact>
</mgrwt>
</event>
<event>
 8    1  0.9424564E-006  0.1252249E+03  0.7546771E-02  0.1250383E+00
          3   -1    0    0  501    0  0.00000000000E+00  0.00000000000E+00  0.12745977637E+03  0.12745977637E+03  0.00000000000E+00 0. -1.
         -3   -1    0    0    0  501 -0.00000000000E+00 -0.00000000000E+00 -0.14764837804E+03  0.14764837804E+03  0.00000000000E+00 0.  1.
         23    2    1    2    0    0 -0.72689525966E+01 -0.23898987036E+01 -0.94959887538E+02  0.15715807887E+03  0.12499092857E+03 0.  0.
         23    2    1    2    0    0  0.72689525966E+01  0.23898987036E+01  0.74771285874E+02  0.11795007554E+03  0.90900637189E+02 0.  0.
          5    1    3    3  502    0 -0.55773601701E+02  0.32084858532E+02 -0.39310127323E+02  0.75548056916E+02  0.47000000000E+01 0. -1.
         -5    1    3    3    0  502  0.48504649104E+02 -0.34474757236E+02 -0.55649760215E+02  0.81610021953E+02  0.47000000000E+01 0. -1.
        -11    1    4    4    0    0 -0.60593155182E+01  0.30959471494E+02  0.79998574499E+02  0.85994046896E+02  0.00000000000E+00 0. -1.
         11    1    4    4    0    0  0.13328268115E+02 -0.28569572791E+02 -0.52272886252E+01  0.31956028645E+02  0.00000000000E+00 0.  1.
<mgrwt>
<rscale>  0 0.11568928E+03</rscale>
<asrwt>0</asrwt>
<pdfrwt beam="1">  1        3 0.19609196E-01 0.12522492E+03</pdfrwt>
<pdfrwt beam="2">  1       -3 0.22715135E-01 0.12522492E+03</pdfrwt>
<totfact> 0.94586057E+02</totfact>
</mgrwt>
</event>
<event>
 8    1  0.9424564E-006  0.1343262E+03  0.7546771E-02  0.1233335E+00
          3   -1    0    0  501    0  0.00000000000E+00  0.00000000000E+00  0.33347889626E+02  0.33347889626E+02  0.00000000000E+00 0. -1.
         -3   -1    0    0    0  501 -0.00000000000E+00 -0.00000000000E+00 -0.44634521985E+03  0.44634521985E+03  0.00000000000E+00 0.  1.
         23    2    1    2    0    0 -0.63052175738E+01 -0.48771184840E+02 -0.28065447444E+03  0.31114380472E+03  0.12500059580E+03 0.  0.
         23    2    1    2    0    0  0.63052175738E+01  0.48771184840E+02 -0.13234285578E+03  0.16854930475E+03  0.92064392780E+02 0.  0.
          5    1    3    3  502    0 -0.21509095067E+02 -0.74036373963E+02 -0.91929995793E+02  0.12007181171E+03  0.47000000000E+01 0.  1.
         -5    1    3    3    0  502  0.15203877494E+02  0.25265189122E+02 -0.18872447865E+03  0.19107199301E+03  0.47000000000E+01 0.  1.
        -11    1    4    4    0    0 -0.16125678074E+02  0.39049867761E+02 -0.95076862752E+01  0.43305031622E+02  0.00000000000E+00 0. -1.
         11    1    4    4    0    0  0.22430895648E+02  0.97213170795E+01 -0.12283516950E+03  0.12524427313E+03  0.00000000000E+00 0.  1.
<mgrwt>
<rscale>  0 0.12611600E+03</rscale>
<asrwt>0</asrwt>
<pdfrwt beam="1">  1        3 0.51304450E-02 0.13432622E+03</pdfrwt>
<pdfrwt beam="2">  1       -3 0.68668490E-01 0.13432622E+03</pdfrwt>
<totfact> 0.10442169E+03</totfact>
</mgrwt>
</event>
<event>
 8    1  0.9424564E-006  0.1631380E+03  0.7546771E-02  0.1191606E+00
         -1   -1    0    0    0  501 -0.00000000000E+00  0.00000000000E+00  0.12242879202E+03  0.12242879202E+03  0.00000000000E+00 0.  1.
          1   -1    0    0  501    0  0.00000000000E+00 -0.00000000000E+00 -0.19294214803E+03  0.19294214803E+03  0.00000000000E+00 0. -1.
         23    2    1    2    0    0 -0.80530869360E+02  0.67115286051E+02 -0.16905502151E+02  0.16401160166E+03  0.12499730771E+03 0.  0.
         23    2    1    2    0    0  0.80530869360E+02 -0.67115286051E+02 -0.53607853862E+02  0.15135933839E+03  0.95111328357E+02 0.  0.
          5    1    3    3  502    0 -0.79627140767E+02  0.53935302842E+02 -0.63507073459E+02  0.11534616083E+03  0.47000000000E+01 0.  1.
         -5    1    3    3    0  502 -0.90372859308E+00  0.13179983209E+02  0.46601571308E+02  0.48665440829E+02  0.47000000000E+01 0.  1.
        -11    1    4    4    0    0  0.57779459179E+01 -0.62963115750E+02 -0.80974913065E+01  0.63744081839E+02  0.00000000000E+00 0.  1.
         11    1    4    4    0    0  0.74752923442E+02 -0.41521703008E+01 -0.45510362556E+02  0.87615256555E+02  0.00000000000E+00 0. -1.
<mgrwt>
<rscale>  0 0.15744988E+03</rscale>
<asrwt>0</asrwt>
<pdfrwt beam="2">  1        1 0.29683407E-01 0.16313801E+03</pdfrwt>
<pdfrwt beam="1">  1       -1 0.18835199E-01 0.16313801E+03</pdfrwt>
<totfact> 0.33255925E+03</totfact>
</mgrwt>
</event>
<event>
 8    1  0.9424564E-006  0.1391388E+03  0.7546771E-02  0.1225332E+00
          3   -1    0    0  501    0  0.00000000000E+00  0.00000000000E+00  0.36892045394E+02  0.36892045394E+02  0.00000000000E+00 0.  1.
         -3   -1    0    0    0  501 -0.00000000000E+00 -0.00000000000E+00 -0.51163709681E+03  0.51163709681E+03  0.00000000000E+00 0. -1.
         23    2    1    2    0    0 -0.55987261647E+02  0.24516438616E+02 -0.37294058994E+03  0.39805060533E+03  0.12499588614E+03 0.  0.
         23    2    1    2    0    0  0.55987261647E+02 -0.24516438616E+02 -0.10180446148E+03  0.15047853688E+03  0.92433827433E+02 0.  0.
          5    1    3    3  502    0 -0.16993203906E+02 -0.50924231292E+02 -0.15506549378E+03  0.16416285716E+03  0.47000000000E+01 0.  1.
         -5    1    3    3    0  502 -0.38994057741E+02  0.75440669908E+02 -0.21787509616E+03  0.23388774817E+03  0.47000000000E+01 0.  1.
        -11    1    4    4    0    0  0.57143903529E+02  0.99264729904E+01 -0.19400162640E+02  0.61158211934E+02  0.00000000000E+00 0.  1.
         11    1    4    4    0    0 -0.11566418812E+01 -0.34442911606E+02 -0.82404298841E+02  0.89320324943E+02  0.00000000000E+00 0. -1.
<mgrwt>
<rscale>  0 0.13144206E+03</rscale>
<asrwt>0</asrwt>
<pdfrwt beam="1">  1        3 0.56756988E-02 0.13913878E+03</pdfrwt>
<pdfrwt beam="2">  1       -3 0.78713406E-01 0.13913878E+03</pdfrwt>
<totfact> 0.66790799E+02</totfact>
</mgrwt>
</event>
<event>
 8    1  0.9424564E-006  0.1760677E+03  0.7546771E-02  0.1177021E+00
         -2   -1    0    0    0  501 -0.00000000000E+00  0.00000000000E+00  0.16898645595E+03  0.16898645595E+03  0.00000000000E+00 0.  1.
          2   -1    0    0  501    0  0.00000000000E+00 -0.00000000000E+00 -0.16468934699E+03  0.16468934699E+03  0.00000000000E+00 0. -1.
         23    2    1    2    0    0  0.12136318536E+02  0.12340251567E+03  0.18940661416E+02  0.17708353945E+03  0.12499744073E+03 0.  0.
         23    2    1    2    0    0 -0.12136318536E+02 -0.12340251567E+03 -0.14643552457E+02  0.15659226350E+03  0.94505196989E+02 0.  0.
          5    1    3    3  502    0 -0.35328101599E+02 -0.76781218129E+01  0.66038429660E+01  0.37050358420E+02  0.47000000000E+01 0. -1.
         -5    1    3    3    0  502  0.47464420134E+02  0.13108063748E+03  0.12336818450E+02  0.14003318103E+03  0.47000000000E+01 0. -1.
        -11    1    4    4    0    0 -0.49611837641E+02 -0.40740727887E+02  0.24217908915E+01  0.64241780906E+02  0.00000000000E+00 0. -1.
         11    1    4    4    0    0  0.37475519105E+02 -0.82661787779E+02 -0.17065343349E+02  0.92350482590E+02  0.00000000000E+00 0.  1.
<mgrwt>
<rscale>  0 0.17079514E+03</rscale>
<asrwt>0</asrwt>
<pdfrwt beam="2">  1        2 0.25336823E-01 0.17606769E+03</pdfrwt>
<pdfrwt beam="1">  1       -2 0.25997916E-01 0.17606769E+03</pdfrwt>
<totfact> 0.27481510E+03</totfact>
</mgrwt>
</event>
<event>
 8    1  0.9424564E-006  0.1306258E+03  0.7546771E-02  0.1240602E+00
         -1   -1    0    0    0  501 -0.00000000000E+00  0.00000000000E+00  0.29931882005E+03  0.29931882005E+03  0.00000000000E+00 0.  1.
          1   -1    0    0  501    0  0.00000000000E+00 -0.00000000000E+00 -0.44306051873E+02  0.44306051873E+02  0.00000000000E+00 0. -1.
         23    2    1    2    0    0 -0.27088939888E+02  0.26508200978E+02  0.12405542827E+03  0.18014672343E+03  0.12500638902E+03 0.  0.
         23    2    1    2    0    0  0.27088939888E+02 -0.26508200978E+02  0.13095733990E+03  0.16347814849E+03  0.90215213668E+02 0.  0.
          5    1    3    3  502    0 -0.23351244210E+02  0.14335507011E+02  0.14909507363E+03  0.15166482239E+03  0.47000000000E+01 0. -1.
         -5    1    3    3    0  502 -0.37376956774E+01  0.12172693967E+02 -0.25039645359E+02  0.28481901045E+02  0.47000000000E+01 0. -1.
        -11    1    4    4    0    0 -0.11935254764E+02 -0.38295043017E+02  0.11112834854E+03  0.11814597105E+03  0.00000000000E+00 0.  1.
         11    1    4    4    0    0  0.39024194652E+02  0.11786842039E+02  0.19828991365E+02  0.45332177446E+02  0.00000000000E+00 0. -1.
<mgrwt>
<rscale>  0 0.12152499E+03</rscale>
<asrwt>0</asrwt>
<pdfrwt beam="2">  1        1 0.68163159E-02 0.13062577E+03</pdfrwt>
<pdfrwt beam="1">  1       -1 0.46049048E-01 0.13062577E+03</pdfrwt>
<totfact> 0.49322184E+03</totfact>
</mgrwt>
</event>
<event>
 8    1  0.9424564E-006  0.2311608E+03  0.7546771E-02  0.1128849E+00
         -2   -1    0    0    0  501 -0.00000000000E+00  0.00000000000E+00  0.67225108034E+02  0.67225108034E+02  0.00000000000E+00 0.  1.
          2   -1    0    0  501    0  0.00000000000E+00 -0.00000000000E+00 -0.87305451826E+03  0.87305451826E+03  0.00000000000E+00 0. -1.
         23    2    1    2    0    0  0.78124715251E+02  0.17806123210E+03 -0.23133553525E+03  0.32703434844E+03  0.12500424666E+03 0.  0.
         23    2    1    2    0    0 -0.78124715251E+02 -0.17806123210E+03 -0.57449387498E+03  0.61324527785E+03  0.90649241066E+02 0.  0.
          5    1    3    3  502    0 -0.32249488074E+02  0.48906623628E+02 -0.39872982934E+02  0.71019941452E+02  0.47000000000E+01 0.  1.
         -5    1    3    3    0  502  0.11037420333E+03  0.12915460847E+03 -0.19146255231E+03  0.25601440699E+03  0.47000000000E+01 0.  1.
        -11    1    4    4    0    0 -0.31952020324E+02 -0.84664363451E+02 -0.39918545047E+03  0.40931407245E+03  0.00000000000E+00 0. -1.
         11    1    4    4    0    0 -0.46172694927E+02 -0.93396868650E+02 -0.17530842451E+03  0.20393120539E+03  0.00000000000E+00 0.  1.
<mgrwt>
<rscale>  0 0.22688812E+03</rscale>
<asrwt>0</asrwt>
<pdfrwt beam="2">  1        2 0.13431608E+00 0.23116084E+03</pdfrwt>
<pdfrwt beam="1">  1       -2 0.10342324E-01 0.23116084E+03</pdfrwt>
<totfact> 0.19848043E+03</totfact>
</mgrwt>
</event>
<event>
 8    1  0.9424564E-006  0.1881177E+03  0.7546771E-02  0.1165164E+00
         -2   -1    0    0    0  501 -0.00000000000E+00  0.00000000000E+00  0.30713230054E+02  0.30713230054E+02  0.00000000000E+00 0.  1.
          2   -1    0    0  501    0  0.00000000000E+00 -0.00000000000E+00 -0.13187155150E+04  0.13187155150E+04  0.00000000000E+00 0. -1.
         23    2    1    2    0    0 -0.97901100014E+02 -0.10087783927E+03 -0.35763689265E+03  0.40409454110E+03  0.12500914895E+03 0.  0.
         23    2    1    2    0    0  0.97901100014E+02  0.10087783927E+03 -0.93036539232E+03  0.94533420398E+03  0.91192270227E+02 0.  0.
          5    1    3    3  502    0 -0.11443453919E+03 -0.48110197254E+02 -0.29679510382E+03  0.32174411958E+03  0.47000000000E+01 0.  1.
         -5    1    3    3    0  502  0.16533439171E+02 -0.52767642016E+02 -0.60841788834E+02  0.82350421512E+02  0.47000000000E+01 0.  1.
        -11    1    4    4    0    0  0.84101917943E+02  0.21247623742E+02 -0.48277519361E+03  0.49050635234E+03  0.00000000000E+00 0.  1.
         11    1    4    4    0    0  0.13799182071E+02  0.79630215527E+02 -0.44759019871E+03  0.45482785164E+03  0.00000000000E+00 0. -1.
<mgrwt>
<rscale>  0 0.18275362E+03</rscale>
<asrwt>0</asrwt>
<pdfrwt beam="2">  1        2 0.20287933E+00 0.18811765E+03</pdfrwt>
<pdfrwt beam="1">  1       -2 0.47251119E-02 0.18811765E+03</pdfrwt>
<totfact> 0.36362787E+03</totfact>
</mgrwt>
</event>
<event>
 8    1  0.9424564E-006  0.1174272E+03  0.7546771E-02  0.1255197E+00
          1   -1    0    0  501    0  0.00000000000E+00  0.00000000000E+00  0.77113717814E+02  0.77113717814E+02  0.00000000000E+00 0. -1.
         -1   -1    0    0    0  501 -0.00000000000E+00 -0.00000000000E+00 -0.19026898239E+04  0.19026898239E+04  0.00000000000E+00 0.  1.
         23    2    1    2    0    0 -0.24294834806E+02 -0.55095425257E+01 -0.18672797308E+04  0.18709683964E+04  0.11475431671E+03 0.  0.
         23    2    1    2    0    0  0.24294834806E+02  0.55095425257E+01  0.41703624759E+02  0.10883514527E+03  0.97392517532E+02 0.  0.
          5    1    3    3  502    0  0.25722855344E+02  0.32449434132E+01 -0.11635344494E+03  0.11929966091E+03  0.47000000000E+01 0. -1.
         -5    1    3    3    0  502 -0.50017690150E+02 -0.87544859389E+01 -0.17509262859E+04  0.17516687355E+04  0.47000000000E+01 0.  1.
        -11    1    4    4    0    0  0.12180447870E+02  0.39391029124E+00 -0.31856944799E+02  0.34108406699E+02  0.00000000000E+00 0.  1.
         11    1    4    4    0    0  0.12114386936E+02  0.51156322345E+01  0.73560569558E+02  0.74726738573E+02  0.00000000000E+00 0. -1.
<mgrwt>
<rscale>  0 0.11295316E+03</rscale>
<asrwt>0</asrwt>
<pdfrwt beam="1">  1        1 0.11863650E-01 0.11742720E+03</pdfrwt>
<pdfrwt beam="2">  1       -1 0.29272149E+00 0.11742720E+03</pdfrwt>
<totfact> 0.23243877E+01</totfact>
</mgrwt>
</event>
<event>
 8    1  0.9424564E-006  0.1274571E+03  0.7546771E-02  0.1246855E+00
          2   -1    0    0  501    0  0.00000000000E+00  0.00000000000E+00  0.30538245705E+02  0.30538245705E+02  0.00000000000E+00 0. -1.
         -2   -1    0    0    0  501 -0.00000000000E+00 -0.00000000000E+00 -0.42890926238E+03  0.42890926238E+03  0.00000000000E+00 0.  1.
         23    2    1    2    0    0 -0.17420023713E+02 -0.17730191683E+02 -0.28980847258E+03  0.31659795897E+03  0.12500999931E+03 0.  0.
         23    2    1    2    0    0  0.17420023713E+02  0.17730191683E+02 -0.10856254410E+03  0.14284954911E+03  0.89455859375E+02 0.  0.
          5    1    3    3  502    0 -0.73384856937E+01  0.33994500064E+02 -0.24431023976E+03  0.24681787346E+03  0.47000000000E+01 0.  1.
         -5    1    3    3    0  502 -0.10081538020E+02 -0.51724691747E+02 -0.45498232813E+02  0.69780085513E+02  0.47000000000E+01 0.  1.
        -11    1    4    4    0    0  0.90422572420E+01 -0.30532423087E+02 -0.80097443886E+02  0.86195079863E+02  0.00000000000E+00 0. -1.
         11    1    4    4    0    0  0.83777664714E+01  0.48262614770E+02 -0.28465100211E+02  0.56654469246E+02  0.00000000000E+00 0.  1.
<mgrwt>
<rscale>  0 0.11775044E+03</rscale>
<asrwt>0</asrwt>
<pdfrwt beam="1">  1        2 0.46981914E-02 0.12745712E+03</pdfrwt>
<pdfrwt beam="2">  1       -2 0.65986043E-01 0.12745712E+03</pdfrwt>
<totfact> 0.35074332E+03</totfact>
</mgrwt>
</event>
<event>
 8    1  0.1106307E-005  0.1445982E+03  0.7546771E-02  0.1217326E+00
          2   -1    0    0  501    0  0.00000000000E+00  0.00000000000E+00  0.27054628667E+03  0.27054628667E+03  0.00000000000E+00 0. -1.
         -2   -1    0    0    0  501 -0.00000000000E+00 -0.00000000000E+00 -0.64663274622E+02  0.64663274622E+02  0.00000000000E+00 0.  1.
         23    2    1    2    0    0 -0.67849936679E+02  0.26065534104E+02  0.87894400699E+02  0.16921605780E+03  0.12500249025E+03 0.  0.
         23    2    1    2    0    0  0.67849936679E+02 -0.26065534104E+02  0.11798861135E+03  0.16599350349E+03  0.91375624855E+02 0.  0.
          5    1    3    3  502    0  0.26866643900E+02 -0.12692651313E+02 -0.55057661565E+01  0.30583057610E+02  0.47000000000E+01 0. -1.
         -5    1    3    3    0  502 -0.94716580579E+02  0.38758185417E+02  0.93400166856E+02  0.13863300019E+03  0.47000000000E+01 0. -1.
        -11    1    4    4    0    0  0.20036083280E+02 -0.30117356873E+02 -0.25418046359E+01  0.36262385319E+02  0.00000000000E+00 0.  1.
         11    1    4    4    0    0  0.47813853398E+02  0.40518227695E+01  0.12053041598E+03  0.12973111817E+03  0.00000000000E+00 0. -1.
<mgrwt>
<rscale>  0 0.13707059E+03</rscale>
<asrwt>0</asrwt>
<pdfrwt beam="1">  1        2 0.41622505E-01 0.14459823E+03</pdfrwt>
<pdfrwt beam="2">  1       -2 0.99481963E-02 0.14459823E+03</pdfrwt>
<totfact> 0.78099694E+03</totfact>
</mgrwt>
</event>
<event>
 8    1  0.9424564E-006  0.1405809E+03  0.7546771E-02  0.1223504E+00
          4   -1    0    0  501    0  0.00000000000E+00  0.00000000000E+00  0.15449256022E+03  0.15449256022E+03  0.00000000000E+00 0. -1.
         -4   -1    0    0    0  501 -0.00000000000E+00 -0.00000000000E+00 -0.10397289130E+03  0.10397289130E+03  0.00000000000E+00 0.  1.
         23    2    1    2    0    0 -0.63659133101E+02 -0.92981612199E+01  0.15199001445E+02  0.14140015775E+03  0.12499621570E+03 0.  0.
         23    2    1    2    0    0  0.63659133101E+02  0.92981612199E+01  0.35320667467E+02  0.11706529377E+03  0.91201932138E+02 0.  0.
          5    1    3    3  502    0  0.27343269422E+02  0.27967160417E+02 -0.81306589764E+01  0.40224545490E+02  0.47000000000E+01 0.  1.
         -5    1    3    3    0  502 -0.91002402522E+02 -0.37265321637E+02  0.23329660422E+02  0.10117561226E+03  0.47000000000E+01 0.  1.
        -11    1    4    4    0    0 -0.15467991031E+01  0.39500035259E+02  0.90493234276E+01  0.40552874465E+02  0.00000000000E+00 0.  1.
         11    1    4    4    0    0  0.65205932204E+02 -0.30201874039E+02  0.26271344040E+02  0.76512419304E+02  0.00000000000E+00 0. -1.
<mgrwt>
<rscale>  0 0.13269981E+03</rscale>
<asrwt>0</asrwt>
<pdfrwt beam="1">  1        4 0.23768086E-01 0.14058092E+03</pdfrwt>
<pdfrwt beam="2">  1       -4 0.15995829E-01 0.14058092E+03</pdfrwt>
<totfact> 0.92114025E+02</totfact>
</mgrwt>
</event>
<event>
 8    1  0.9424564E-006  0.1315623E+03  0.7546771E-02  0.1237364E+00
         -1   -1    0    0    0  501 -0.00000000000E+00  0.00000000000E+00  0.12691669274E+03  0.12691669274E+03  0.00000000000E+00 0.  1.
          1   -1    0    0  501    0  0.00000000000E+00 -0.00000000000E+00 -0.16080958251E+03  0.16080958251E+03  0.00000000000E+00 0. -1.
         23    2    1    2    0    0  0.26659404524E+02 -0.31257814883E+02  0.63849833444E+02  0.14623759581E+03  0.12498343233E+03 0.  0.
         23    2    1    2    0    0 -0.26659404524E+02  0.31257814883E+02 -0.97742723210E+02  0.14148867944E+03  0.93689015514E+02 0.  0.
          5    1    3    3  502    0 -0.33572521552E+02 -0.44136277758E+02 -0.23386146057E+01  0.55701744461E+02  0.47000000000E+01 0.  1.
         -5    1    3    3    0  502  0.60231926077E+02  0.12878462875E+02  0.66188448049E+02  0.90535851352E+02  0.47000000000E+01 0.  1.
        -11    1    4    4    0    0 -0.25875737447E+02 -0.29359599175E+02 -0.23534909691E+02  0.45666528512E+02  0.00000000000E+00 0.  1.
         11    1    4    4    0    0 -0.78366707716E+00  0.60617414058E+02 -0.74207813518E+02  0.95822150927E+02  0.00000000000E+00 0. -1.
<mgrwt>
<rscale>  0 0.12354297E+03</rscale>
<asrwt>0</asrwt>
<pdfrwt beam="2">  1        1 0.24739936E-01 0.13156228E+03</pdfrwt>
<pdfrwt beam="1">  1       -1 0.19525645E-01 0.13156228E+03</pdfrwt>
<totfact> 0.39009356E+03</totfact>
</mgrwt>
</event>
<event>
 8    1  0.9424564E-006  0.1440055E+03  0.7546771E-02  0.1218568E+00
         -1   -1    0    0    0  501 -0.00000000000E+00  0.00000000000E+00  0.34652373179E+02  0.34652373179E+02  0.00000000000E+00 0.  1.
          1   -1    0    0  501    0  0.00000000000E+00 -0.00000000000E+00 -0.51978086993E+03  0.51978086993E+03  0.00000000000E+00 0. -1.
         23    2    1    2    0    0 -0.56353975611E+02  0.44009022366E+02 -0.19598184270E+03  0.24320046256E+03  0.12500007083E+03 0.  0.
         23    2    1    2    0    0  0.56353975611E+02 -0.44009022366E+02 -0.28914665406E+03  0.31123278055E+03  0.90263456163E+02 0.  0.
          5    1    3    3  502    0 -0.75197099971E+02 -0.13480571506E+02 -0.71615467673E+02  0.10481982094E+03  0.47000000000E+01 0.  1.
         -5    1    3    3    0  502  0.18843124360E+02  0.57489593871E+02 -0.12436637502E+03  0.13838064162E+03  0.47000000000E+01 0.  1.
        -11    1    4    4    0    0 -0.20097539879E+02 -0.14431935523E+02 -0.27249830791E+02  0.36806862815E+02  0.00000000000E+00 0. -1.
         11    1    4    4    0    0  0.76451515490E+02 -0.29577086843E+02 -0.26189682327E+03  0.27442591773E+03  0.00000000000E+00 0.  1.
<mgrwt>
<rscale>  0 0.13617659E+03</rscale>
<asrwt>0</asrwt>
<pdfrwt beam="2">  1        1 0.79966285E-01 0.14400549E+03</pdfrwt>
<pdfrwt beam="1">  1       -1 0.53311345E-02 0.14400549E+03</pdfrwt>
<totfact> 0.65955972E+03</totfact>
</mgrwt>
</event>
<event>
 8    1  0.9424564E-006  0.4578064E+03  0.7546771E-02  0.1026043E+00
          1   -1    0    0  501    0  0.00000000000E+00  0.00000000000E+00  0.31930941158E+03  0.31930941158E+03  0.00000000000E+00 0. -1.
         -1   -1    0    0    0  501 -0.00000000000E+00 -0.00000000000E+00 -0.75239821180E+03  0.75239821180E+03  0.00000000000E+00 0.  1.
         23    2    1    2    0    0  0.22384166920E+03  0.37927841310E+03 -0.42139088485E+03  0.62221938499E+03  0.12501790956E+03 0.  0.
         23    2    1    2    0    0 -0.22384166920E+03 -0.37927841310E+03 -0.11697915372E+02  0.44948823839E+03  0.89138250563E+02 0.  0.
          5    1    3    3  502    0  0.15002249756E+03  0.23375357425E+03 -0.34225710073E+03  0.44080550842E+03  0.47000000000E+01 0.  1.
         -5    1    3    3    0  502  0.73819171637E+02  0.14552483886E+03 -0.79133784115E+02  0.18141387658E+03  0.47000000000E+01 0.  1.
        -11    1    4    4    0    0 -0.10364643790E+03 -0.16874609836E+03  0.38945701501E+02  0.20182813844E+03  0.00000000000E+00 0.  1.
         11    1    4    4    0    0 -0.12019523130E+03 -0.21053231475E+03 -0.50643616873E+02  0.24766009995E+03  0.00000000000E+00 0. -1.
<mgrwt>
<rscale>  0 0.45567393E+03</rscale>
<asrwt>0</asrwt>
<pdfrwt beam="1">  1        1 0.49124525E-01 0.45780638E+03</pdfrwt>
<pdfrwt beam="2">  1       -1 0.11575357E+00 0.45780638E+03</pdfrwt>
<totfact> 0.57251748E+01</totfact>
</mgrwt>
</event>
<event>
 8    1  0.9424564E-006  0.1794807E+03  0.7546771E-02  0.1174106E+00
         -1   -1    0    0    0  501 -0.00000000000E+00  0.00000000000E+00  0.10572253133E+03  0.10572253133E+03  0.00000000000E+00 0.  1.
          1   -1    0    0  501    0  0.00000000000E+00 -0.00000000000E+00 -0.39950300680E+03  0.39950300680E+03  0.00000000000E+00 0. -1.
         23    2    1    2    0    0  0.39221689005E+02 -0.12266930787E+03 -0.87350820966E+01  0.17969317905E+03  0.12500894750E+03 0.  0.
         23    2    1    2    0    0 -0.39221689005E+02  0.12266930787E+03 -0.28504539337E+03  0.32553235909E+03  0.90190579048E+02 0.  0.
          5    1    3    3  502    0 -0.18764286537E+02 -0.89428207620E+02  0.36866201797E+02  0.98644359202E+02  0.47000000000E+01 0. -1.
         -5    1    3    3    0  502  0.57985975542E+02 -0.33241100254E+02 -0.45601283893E+02  0.81048819846E+02  0.47000000000E+01 0. -1.
        -11    1    4    4    0    0  0.18021021644E+02  0.45401765031E+02 -0.42973037020E+02  0.65059660311E+02  0.00000000000E+00 0.  1.
         11    1    4    4    0    0 -0.57242710649E+02  0.77267542843E+02 -0.24207235635E+03  0.26047269878E+03  0.00000000000E+00 0. -1.
<mgrwt>
<rscale>  0 0.17363826E+03</rscale>
<asrwt>0</asrwt>
<pdfrwt beam="2">  1        1 0.61462000E-01 0.17948074E+03</pdfrwt>
<pdfrwt beam="1">  1       -1 0.16265005E-01 0.17948074E+03</pdfrwt>
<totfact> 0.16965872E+03</totfact>
</mgrwt>
</event>
<event>
 7    1  0.9424564E-006  0.1965034E+03  0.7546771E-02  0.1185240E+00
          3   -1    0    0  501    0  0.00000000000E+00  0.00000000000E+00  0.32416334040E+02  0.32416334040E+02  0.00000000000E+00 0. -1.
         -3   -1    0    0    0  501 -0.00000000000E+00 -0.00000000000E+00 -0.85146462175E+03  0.85146462175E+03  0.00000000000E+00 0.  1.
         23    2    1    2    0    0  0.80062656955E+01  0.37429992893E+01 -0.92990407552E+02  0.13170170254E+03  0.92844020919E+02 0.  0.
          5    1    1    2  502    0 -0.28252428124E+02  0.88206865220E+02 -0.24485836391E+03  0.26183269303E+03  0.47000000000E+01 0. -1.
         -5    1    1    2    0  502  0.20246162429E+02 -0.91949864509E+02 -0.48119951625E+03  0.49034656022E+03  0.47000000000E+01 0.  1.
        -11    1    3    3    0    0  0.21303694836E+02 -0.39649144694E+02 -0.62524226464E+02  0.77040125801E+02  0.00000000000E+00 0.  1.
         11    1    3    3    0    0 -0.13297429141E+02  0.43392143983E+02 -0.30466181089E+02  0.54661576736E+02  0.00000000000E+00 0. -1.
<mgrwt>
<rscale>  0 0.16310066E+03</rscale>
<asrwt>0</asrwt>
<pdfrwt beam="1">  1        3 0.49871282E-02 0.19650339E+03</pdfrwt>
<pdfrwt beam="2">  1       -3 0.13099456E+00 0.19650339E+03</pdfrwt>
<totfact> 0.26731660E+02</totfact>
</mgrwt>
</event>
<event>
 8    1  0.9424564E-006  0.1727573E+03  0.7546771E-02  0.1181140E+00
         -1   -1    0    0    0  501 -0.00000000000E+00  0.00000000000E+00  0.11539305604E+03  0.11539305604E+03  0.00000000000E+00 0.  1.
          1   -1    0    0  501    0  0.00000000000E+00 -0.00000000000E+00 -0.23183239667E+03  0.23183239667E+03  0.00000000000E+00 0. -1.
         23    2    1    2    0    0 -0.14655240329E+02 -0.11834360182E+03 -0.35352774516E+02  0.17633746238E+03  0.12500039125E+03 0.  0.
         23    2    1    2    0    0  0.14655240329E+02  0.11834360182E+03 -0.81086566106E+02  0.17088799033E+03  0.91693456000E+02 0.  0.
          5    1    3    3  502    0  0.56540932227E+01 -0.71732210463E+02 -0.80575791193E+02  0.10812967638E+03  0.47000000000E+01 0. -1.
         -5    1    3    3    0  502 -0.20309333551E+02 -0.46611391360E+02  0.45223016677E+02  0.68207786002E+02  0.47000000000E+01 0. -1.
        -11    1    4    4    0    0  0.36876536010E+02  0.66494028363E+02 -0.50385466596E+01  0.76201848196E+02  0.00000000000E+00 0.  1.
         11    1    4    4    0    0 -0.22221295681E+02  0.51849573460E+02 -0.76048019447E+02  0.94686142130E+02  0.00000000000E+00 0. -1.
<mgrwt>
<rscale>  0 0.16688115E+03</rscale>
<asrwt>0</asrwt>
<pdfrwt beam="2">  1        1 0.35666522E-01 0.17275729E+03</pdfrwt>
<pdfrwt beam="1">  1       -1 0.17752778E-01 0.17275729E+03</pdfrwt>
<totfact> 0.29141107E+03</totfact>
</mgrwt>
</event>
<event>
 8    1  0.9424564E-006  0.1288162E+03  0.7546771E-02  0.1243479E+00
          1   -1    0    0  501    0  0.00000000000E+00  0.00000000000E+00  0.48498520620E+02  0.48498520620E+02  0.00000000000E+00 0. -1.
         -1   -1    0    0    0  501 -0.00000000000E+00 -0.00000000000E+00 -0.27991175109E+03  0.27991175109E+03  0.00000000000E+00 0.  1.
         23    2    1    2    0    0  0.26092675719E+01  0.31016219777E+02 -0.17341476756E+03  0.21602380309E+03  0.12499915089E+03 0.  0.
         23    2    1    2    0    0 -0.26092675719E+01 -0.31016219777E+02 -0.57998462911E+02  0.11238646863E+03  0.91093811338E+02 0.  0.
          5    1    3    3  502    0  0.40097058411E+01  0.77269088875E+02 -0.13511841391E+03  0.15577440616E+03  0.47000000000E+01 0. -1.
         -5    1    3    3    0  502 -0.14004382693E+01 -0.46252869098E+02 -0.38296353656E+02  0.60249396931E+02  0.47000000000E+01 0. -1.
        -11    1    4    4    0    0  0.13137623987E+02  0.17168001132E+02  0.12941845622E+02  0.25195809076E+02  0.00000000000E+00 0. -1.
         11    1    4    4    0    0 -0.15746891559E+02 -0.48184220909E+02 -0.70940308533E+02  0.87190659552E+02  0.00000000000E+00 0.  1.
<mgrwt>
<rscale>  0 0.11976903E+03</rscale>
<asrwt>0</asrwt>
<pdfrwt beam="1">  1        1 0.74613107E-02 0.12881616E+03</pdfrwt>
<pdfrwt beam="2">  1       -1 0.43063347E-01 0.12881616E+03</pdfrwt>
<totfact> 0.49168978E+03</totfact>
</mgrwt>
</event>
<event>
 8    1  0.9424564E-006  0.1295487E+03  0.7546771E-02  0.1244230E+00
         -1   -1    0    0    0  501 -0.00000000000E+00  0.00000000000E+00  0.21782934406E+02  0.21782934406E+02  0.00000000000E+00 0.  1.
          1   -1    0    0  501    0  0.00000000000E+00 -0.00000000000E+00 -0.60014656287E+03  0.60014656287E+03  0.00000000000E+00 0. -1.
         23    2    1    2    0    0 -0.14844594126E+02  0.30639525753E+02 -0.26459615825E+03  0.29460818587E+03  0.12499485472E+03 0.  0.
         23    2    1    2    0    0  0.14844594126E+02 -0.30639525753E+02 -0.31376747022E+03  0.32732131141E+03  0.86775993362E+02 0.  0.
          5    1    3    3  502    0 -0.36431570582E+02  0.32972800239E+02 -0.26766785881E+03  0.27218125860E+03  0.47000000000E+01 0. -1.
         -5    1    3    3    0  502  0.21586976455E+02 -0.23332744860E+01  0.30717005646E+01  0.22426927268E+02  0.47000000000E+01 0. -1.
        -11    1    4    4    0    0  0.42312827320E+02  0.10481266994E+02 -0.13709124698E+03  0.14385493496E+03  0.00000000000E+00 0. -1.
         11    1    4    4    0    0 -0.27468233193E+02 -0.41120792747E+02 -0.17667622324E+03  0.18346637645E+03  0.00000000000E+00 0.  1.
<mgrwt>
<rscale>  0 0.11931561E+03</rscale>
<asrwt>0</asrwt>
<pdfrwt beam="2">  1        1 0.92330219E-01 0.12954866E+03</pdfrwt>
<pdfrwt beam="1">  1       -1 0.33512215E-02 0.12954866E+03</pdfrwt>
<totfact> 0.10703052E+04</totfact>
</mgrwt>
</event>
<event>
 8    1  0.9424564E-006  0.1570996E+03  0.7546771E-02  0.1197167E+00
         -4   -1    0    0    0  501 -0.00000000000E+00  0.00000000000E+00  0.82243024107E+03  0.82243024107E+03  0.00000000000E+00 0.  1.
          4   -1    0    0  501    0  0.00000000000E+00 -0.00000000000E+00 -0.26890810475E+02  0.26890810475E+02  0.00000000000E+00 0. -1.
         23    2    1    2    0    0 -0.81383213311E+02 -0.49314917806E+02  0.42484825092E+03  0.45296394279E+03  0.12500043454E+03 0.  0.
         23    2    1    2    0    0  0.81383213311E+02  0.49314917806E+02  0.37069117968E+03  0.39635710875E+03  0.10311070963E+03 0.  0.
          5    1    3    3  502    0 -0.10772154758E+03 -0.57844059408E+02  0.28231647076E+03  0.30769229221E+03  0.47000000000E+01 0.  1.
         -5    1    3    3    0  502  0.26338334271E+02  0.85291416022E+01  0.14253178016E+03  0.14527165059E+03  0.47000000000E+01 0.  1.
        -11    1    4    4    0    0  0.46608013828E+02  0.37930488257E+02  0.34832758198E+03  0.35347295973E+03  0.00000000000E+00 0.  1.
         11    1    4    4    0    0  0.34775199482E+02  0.11384429548E+02  0.22363597695E+02  0.42884149018E+02  0.00000000000E+00 0. -1.
<mgrwt>
<rscale>  0 0.15272279E+03</rscale>
<asrwt>0</asrwt>
<pdfrwt beam="2">  1        4 0.41370484E-02 0.15709964E+03</pdfrwt>
<pdfrwt beam="1">  1       -4 0.12652771E+00 0.15709964E+03</pdfrwt>
<totfact> 0.27052454E+02</totfact>
</mgrwt>
</event>
<event>
 8    1  0.9424564E-006  0.1321839E+03  0.7546771E-02  0.1237637E+00
          2   -1    0    0  501    0  0.00000000000E+00  0.00000000000E+00  0.47534155645E+03  0.47534155645E+03  0.00000000000E+00 0. -1.
         -2   -1    0    0    0  501 -0.00000000000E+00 -0.00000000000E+00 -0.28531799938E+02  0.28531799938E+02  0.00000000000E+00 0.  1.
         23    2    1    2    0    0 -0.36775095002E+01  0.42841827298E+02  0.23881970452E+03  0.27296048643E+03  0.12499451844E+03 0.  0.
         23    2    1    2    0    0  0.36775095002E+01 -0.42841827298E+02  0.20799005199E+03  0.23091286996E+03  0.90619785608E+02 0.  0.
          5    1    3    3  502    0  0.45732067759E+02  0.21875988893E+02  0.20045161371E+03  0.20681615109E+03  0.47000000000E+01 0. -1.
         -5    1    3    3    0  502 -0.49409577259E+02  0.20965838405E+02  0.38368090808E+02  0.66144335338E+02  0.47000000000E+01 0. -1.
        -11    1    4    4    0    0  0.32645898487E+02 -0.29617123274E+02  0.38709203564E+02  0.58662859797E+02  0.00000000000E+00 0.  1.
         11    1    4    4    0    0 -0.28968388986E+02 -0.13224704024E+02  0.16928084843E+03  0.17225001016E+03  0.00000000000E+00 0. -1.
<mgrwt>
<rscale>  0 0.12337109E+03</rscale>
<asrwt>0</asrwt>
<pdfrwt beam="1">  1        2 0.73129465E-01 0.13218387E+03</pdfrwt>
<pdfrwt beam="2">  1       -2 0.43895080E-02 0.13218387E+03</pdfrwt>
<totfact> 0.14837746E+04</totfact>
</mgrwt>
</event>
<event>
 8    1  0.9424564E-006  0.1256472E+03  0.7546771E-02  0.1249839E+00
          1   -1    0    0  501    0  0.00000000000E+00  0.00000000000E+00  0.24458738817E+03  0.24458738817E+03  0.00000000000E+00 0. -1.
         -1   -1    0    0    0  501 -0.00000000000E+00 -0.00000000000E+00 -0.48111785015E+02  0.48111785015E+02  0.00000000000E+00 0.  1.
         23    2    1    2    0    0  0.10777834724E+02 -0.67387068685E+01  0.11560451373E+03  0.17073846002E+03  0.12500258495E+03 0.  0.
         23    2    1    2    0    0 -0.10777834724E+02  0.67387068685E+01  0.80871089426E+02  0.12196071316E+03  0.90403045072E+02 0.  0.
          5    1    3    3  502    0  0.24120351805E+02  0.30303010294E+02  0.12418525134E+03  0.13016962185E+03  0.47000000000E+01 0.  1.
         -5    1    3    3    0  502 -0.13342517081E+02 -0.37041717162E+02 -0.85807376089E+01  0.40568838168E+02  0.47000000000E+01 0.  1.
        -11    1    4    4    0    0 -0.50502151350E+02  0.83431671069E+01  0.50763241187E+02  0.72090099072E+02  0.00000000000E+00 0.  1.
         11    1    4    4    0    0  0.39724316627E+02 -0.16044602384E+01  0.30107848239E+02  0.49870614090E+02  0.00000000000E+00 0. -1.
<mgrwt>
<rscale>  0 0.11600404E+03</rscale>
<asrwt>0</asrwt>
<pdfrwt beam="1">  1        1 0.37628828E-01 0.12564720E+03</pdfrwt>
<pdfrwt beam="2">  1       -1 0.74018133E-02 0.12564720E+03</pdfrwt>
<totfact> 0.10327674E+04</totfact>
</mgrwt>
</event>
<event>
 8    1  0.9424564E-006  0.1472730E+03  0.7546771E-02  0.1213745E+00
          1   -1    0    0  501    0  0.00000000000E+00  0.00000000000E+00  0.27468568730E+03  0.27468568730E+03  0.00000000000E+00 0. -1.
         -1   -1    0    0    0  501 -0.00000000000E+00 -0.00000000000E+00 -0.67707303890E+02  0.67707303890E+02  0.00000000000E+00 0.  1.
         23    2    1    2    0    0 -0.48535174750E+02  0.60896335474E+02  0.77591955450E+02  0.16646273427E+03  0.12500121395E+03 0.  0.
         23    2    1    2    0    0  0.48535174750E+02 -0.60896335474E+02  0.12938642796E+03  0.17593025692E+03  0.90258410674E+02 0.  0.
          5    1    3    3  502    0  0.20757000186E+01 -0.35995235393E+02  0.94641819954E+01  0.37571614850E+02  0.47000000000E+01 0. -1.
         -5    1    3    3    0  502 -0.50610874768E+02  0.96891570867E+02  0.68127773454E+02  0.12889111942E+03  0.47000000000E+01 0. -1.
        -11    1    4    4    0    0 -0.22667067851E+02 -0.30636924036E+02  0.64678226195E+02  0.75071232993E+02  0.00000000000E+00 0. -1.
         11    1    4    4    0    0  0.71202242601E+02 -0.30259411439E+02  0.64708201770E+02  0.10085902393E+03  0.00000000000E+00 0.  1.
<mgrwt>
<rscale>  0 0.13969115E+03</rscale>
<asrwt>0</asrwt>
<pdfrwt beam="1">  1        1 0.42259336E-01 0.14727298E+03</pdfrwt>
<pdfrwt beam="2">  1       -1 0.10416508E-01 0.14727298E+03</pdfrwt>
<totfact> 0.53891001E+03</totfact>
</mgrwt>
</event>
<event>
 8    1  0.9424564E-006  0.1269155E+03  0.7546771E-02  0.1246675E+00
          2   -1    0    0  501    0  0.00000000000E+00  0.00000000000E+00  0.59096477432E+03  0.59096477432E+03  0.00000000000E+00 0. -1.
         -2   -1    0    0    0  501 -0.00000000000E+00 -0.00000000000E+00 -0.21480239973E+02  0.21480239973E+02  0.00000000000E+00 0.  1.
         23    2    1    2    0    0  0.21096744665E+02 -0.60760716339E+01  0.26798912363E+03  0.29652272611E+03  0.12500226171E+03 0.  0.
         23    2    1    2    0    0 -0.21096744665E+02  0.60760716339E+01  0.30149541072E+03  0.31592228819E+03  0.91790076844E+02 0.  0.
          5    1    3    3  502    0  0.44504599436E+02  0.46443003338E+02  0.10087556810E+03  0.11973129152E+03  0.47000000000E+01 0.  1.
         -5    1    3    3    0  502 -0.23407854771E+02 -0.52519074972E+02  0.16711355553E+03  0.17679143458E+03  0.47000000000E+01 0.  1.
        -11    1    4    4    0    0 -0.53716301778E+02  0.39531901466E+01  0.12037543722E+03  0.13187613383E+03  0.00000000000E+00 0.  1.
         11    1    4    4    0    0  0.32619557113E+02  0.21228814873E+01  0.18111997350E+03  0.18404615436E+03  0.00000000000E+00 0. -1.
<mgrwt>
<rscale>  0 0.11785691E+03</rscale>
<asrwt>0</asrwt>
<pdfrwt beam="1">  1        2 0.90917645E-01 0.12691555E+03</pdfrwt>
<pdfrwt beam="2">  1       -2 0.33046528E-02 0.12691555E+03</pdfrwt>
<totfact> 0.17692807E+04</totfact>
</mgrwt>
</event>
<event>
 8    1  0.9424564E-006  0.1719467E+03  0.7546771E-02  0.1182153E+00
          2   -1    0    0  501    0  0.00000000000E+00  0.00000000000E+00  0.30315661597E+03  0.30315661597E+03  0.00000000000E+00 0. -1.
         -2   -1    0    0    0  501 -0.00000000000E+00 -0.00000000000E+00 -0.85472617904E+02  0.85472617904E+02  0.00000000000E+00 0.  1.
         23    2    1    2    0    0  0.10772459390E+03  0.48350830193E+02  0.10240290268E+03  0.20013005364E+03  0.12499317174E+03 0.  0.
         23    2    1    2    0    0 -0.10772459390E+03 -0.48350830193E+02  0.11528109538E+03  0.18849918023E+03  0.91103342869E+02 0.  0.
          5    1    3    3  502    0  0.13536351971E+03  0.31427898352E+02  0.86174524830E+02  0.16358219338E+03  0.47000000000E+01 0.  1.
         -5    1    3    3    0  502 -0.27638925805E+02  0.16922931841E+02  0.16228377849E+02  0.36547860257E+02  0.47000000000E+01 0.  1.
        -11    1    4    4    0    0 -0.73098374494E+02 -0.25010532680E+02  0.12375389002E+03  0.14589011068E+03  0.00000000000E+00 0. -1.
         11    1    4    4    0    0 -0.34626219409E+02 -0.23340297513E+02 -0.84727946412E+01  0.42609069546E+02  0.00000000000E+00 0.  1.
<mgrwt>
<rscale>  0 0.16593680E+03</rscale>
<asrwt>0</asrwt>
<pdfrwt beam="1">  1        2 0.46639479E-01 0.17194675E+03</pdfrwt>
<pdfrwt beam="2">  1       -2 0.13149634E-01 0.17194675E+03</pdfrwt>
<totfact> 0.44779538E+03</totfact>
</mgrwt>
</event>
<event>
 8    1  0.9424564E-006  0.1663441E+03  0.7546771E-02  0.1188271E+00
          1   -1    0    0  501    0  0.00000000000E+00  0.00000000000E+00  0.13741898354E+03  0.13741898354E+03  0.00000000000E+00 0. -1.
         -1   -1    0    0    0  501 -0.00000000000E+00 -0.00000000000E+00 -0.17649172047E+03  0.17649172047E+03  0.00000000000E+00 0.  1.
         23    2    1    2    0    0  0.44161440963E+02  0.10047683755E+03 -0.35741137582E+02  0.17014048529E+03  0.12499811226E+03 0.  0.
         23    2    1    2    0    0 -0.44161440963E+02 -0.10047683755E+03 -0.33315993401E+01  0.14377021872E+03  0.92805972242E+02 0.  0.
          5    1    3    3  502    0  0.38745200062E+02  0.10627844129E+03  0.18848923291E+02  0.11477660702E+03  0.47000000000E+01 0. -1.
         -5    1    3    3    0  502  0.54162409008E+01 -0.58016037347E+01 -0.54590060873E+02  0.55363878273E+02  0.47000000000E+01 0. -1.
        -11    1    4    4    0    0 -0.33933356117E+02 -0.27488845688E+02 -0.41957925002E+02  0.60560521507E+02  0.00000000000E+00 0.  1.
         11    1    4    4    0    0 -0.10228084846E+02 -0.72987991862E+02  0.38626325662E+02  0.83209697211E+02  0.00000000000E+00 0. -1.
<mgrwt>
<rscale>  0 0.16037756E+03</rscale>
<asrwt>0</asrwt>
<pdfrwt beam="1">  1        1 0.21141382E-01 0.16634409E+03</pdfrwt>
<pdfrwt beam="2">  1       -1 0.27152572E-01 0.16634409E+03</pdfrwt>
<totfact> 0.28102367E+03</totfact>
</mgrwt>
</event>
<event>
 7    1  0.9424564E-006  0.2470982E+03  0.7546771E-02  0.1153514E+00
         -2   -1    0    0    0  501 -0.00000000000E+00  0.00000000000E+00  0.32109268800E+02  0.32109268800E+02  0.00000000000E+00 0.  1.
          2   -1    0    0  501    0  0.00000000000E+00 -0.00000000000E+00 -0.94336874897E+03  0.94336874897E+03  0.00000000000E+00 0. -1.
         23    2    1    2    0    0  0.76210651791E+01 -0.22944320218E+02 -0.32781693690E+03  0.34186715037E+03  0.93939778147E+02 0.  0.
          5    1    1    2  502    0  0.12025823521E+02  0.35751020966E+02 -0.60208597685E+03  0.60328465044E+03  0.47000000000E+01 0. -1.
         -5    1    1    2    0  502 -0.19646888700E+02 -0.12806700747E+02  0.18643433582E+02  0.30326216964E+02  0.47000000000E+01 0.  1.
        -11    1    3    3    0    0 -0.42857886964E+02 -0.13552898269E+02 -0.17372377853E+03  0.17944478469E+03  0.00000000000E+00 0.  1.
         11    1    3    3    0    0  0.50478952143E+02 -0.93914219490E+01 -0.15409315838E+03  0.16242236568E+03  0.00000000000E+00 0. -1.
<mgrwt>
<rscale>  0 0.19558985E+03</rscale>
<asrwt>0</asrwt>
<pdfrwt beam="2">  1        2 0.14513368E+00 0.24709822E+03</pdfrwt>
<pdfrwt beam="1">  1       -2 0.49398867E-02 0.24709822E+03</pdfrwt>
<totfact> 0.56509619E+03</totfact>
</mgrwt>
</event>
<event>
 8    1  0.9424564E-006  0.1856275E+03  0.7546771E-02  0.1168522E+00
         -2   -1    0    0    0  501 -0.00000000000E+00  0.00000000000E+00  0.32163012608E+02  0.32163012608E+02  0.00000000000E+00 0. -1.
          2   -1    0    0  501    0  0.00000000000E+00 -0.00000000000E+00 -0.10317983929E+04  0.10317983929E+04  0.00000000000E+00 0.  1.
         23    2    1    2    0    0 -0.90536696419E+02  0.10312239970E+03 -0.36991569040E+03  0.41387824850E+03  0.12500585530E+03 0.  0.
         23    2    1    2    0    0  0.90536696419E+02 -0.10312239970E+03 -0.62971968991E+03  0.65008315702E+03  0.85029997476E+02 0.  0.
          5    1    3    3  502    0 -0.87074960664E+02  0.92056582310E+02 -0.37818823674E+03  0.39887955016E+03  0.47000000000E+01 0. -1.
         -5    1    3    3    0  502 -0.34617357544E+01  0.11065817385E+02  0.82725463472E+01  0.14998698340E+02  0.47000000000E+01 0. -1.
        -11    1    4    4    0    0 -0.27521876698E+01 -0.57413425907E+02 -0.21519853958E+03  0.22274264848E+03  0.00000000000E+00 0. -1.
         11    1    4    4    0    0  0.93288884089E+02 -0.45708973789E+02 -0.41452115033E+03  0.42734050855E+03  0.00000000000E+00 0.  1.
<mgrwt>
<rscale>  0 0.17925908E+03</rscale>
<asrwt>0</asrwt>
<pdfrwt beam="2">  1        2 0.15873821E+00 0.18562755E+03</pdfrwt>
<pdfrwt beam="1">  1       -2 0.49481561E-02 0.18562755E+03</pdfrwt>
<totfact> 0.49318391E+03</totfact>
</mgrwt>
</event>
<event>
 8    1  0.9424564E-006  0.1624586E+03  0.7546771E-02  0.1193489E+00
         -1   -1    0    0    0  501 -0.00000000000E+00  0.00000000000E+00  0.75177013394E+02  0.75177013394E+02  0.00000000000E+00 0.  1.
          1   -1    0    0  501    0  0.00000000000E+00 -0.00000000000E+00 -0.45644041402E+03  0.45644041402E+03  0.00000000000E+00 0. -1.
         23    2    1    2    0    0  0.73398508488E+02  0.73359531470E+02 -0.45386453111E+02  0.16867940809E+03  0.12499540264E+03 0.  0.
         23    2    1    2    0    0 -0.73398508488E+02 -0.73359531470E+02 -0.33587694752E+03  0.36293801933E+03  0.90231480617E+02 0.  0.
          5    1    3    3  502    0  0.62484250042E+02  0.60206090070E+02  0.29465533490E+02  0.91757083915E+02  0.47000000000E+01 0.  1.
         -5    1    3    3    0  502  0.10914258446E+02  0.13153441400E+02 -0.74851986601E+02  0.76922324173E+02  0.47000000000E+01 0.  1.
        -11    1    4    4    0    0  0.11691164576E+02 -0.45917273020E+02 -0.13465151470E+03  0.14274491130E+03  0.00000000000E+00 0.  1.
         11    1    4    4    0    0 -0.85089673064E+02 -0.27442258451E+02 -0.20122543282E+03  0.22019310803E+03  0.00000000000E+00 0. -1.
<mgrwt>
<rscale>  0 0.15582801E+03</rscale>
<asrwt>0</asrwt>
<pdfrwt beam="2">  1        1 0.70221602E-01 0.16245865E+03</pdfrwt>
<pdfrwt beam="1">  1       -1 0.11565694E-01 0.16245865E+03</pdfrwt>
<totfact> 0.24334827E+03</totfact>
</mgrwt>
</event>
<event>
 8    1  0.9424564E-006  0.1356444E+03  0.7546771E-02  0.1232191E+00
         -3   -1    0    0    0  501 -0.00000000000E+00  0.00000000000E+00  0.82225527176E+02  0.82225527176E+02  0.00000000000E+00 0.  1.
          3   -1    0    0  501    0  0.00000000000E+00 -0.00000000000E+00 -0.20275240020E+03  0.20275240020E+03  0.00000000000E+00 0. -1.
         23    2    1    2    0    0 -0.52669218763E+02  0.11163207764E+00 -0.14172267468E+02  0.13638272265E+03  0.12500133922E+03 0.  0.
         23    2    1    2    0    0  0.52669218763E+02 -0.11163207764E+00 -0.10635460556E+03  0.14859520472E+03  0.89415735061E+02 0.  0.
          5    1    3    3  502    0 -0.84782342210E+02  0.23742508214E+02  0.11219038765E+02  0.88880307592E+02  0.47000000000E+01 0.  1.
         -5    1    3    3    0  502  0.32113123447E+02 -0.23630876136E+02 -0.25391306234E+02  0.47502415062E+02  0.47000000000E+01 0.  1.
        -11    1    4    4    0    0  0.28465381180E+02  0.19393466970E+01 -0.11818267143E+03  0.12157788787E+03  0.00000000000E+00 0. -1.
         11    1    4    4    0    0  0.24203837583E+02 -0.20509787747E+01  0.11828065876E+02  0.27017316855E+02  0.00000000000E+00 0.  1.
<mgrwt>
<rscale>  0 0.12685991E+03</rscale>
<asrwt>0</asrwt>
<pdfrwt beam="2">  1        3 0.31192677E-01 0.13564437E+03</pdfrwt>
<pdfrwt beam="1">  1       -3 0.12650081E-01 0.13564437E+03</pdfrwt>
<totfact> 0.11423584E+03</totfact>
</mgrwt>
</event>
<event>
 8    1  0.9424564E-006  0.2390930E+03  0.7546771E-02  0.1123084E+00
          1   -1    0    0  501    0  0.00000000000E+00  0.00000000000E+00  0.50313109315E+03  0.50313109315E+03  0.00000000000E+00 0. -1.
         -1   -1    0    0    0  501 -0.00000000000E+00 -0.00000000000E+00 -0.10777189496E+03  0.10777189496E+03  0.00000000000E+00 0.  1.
         23    2    1    2    0    0  0.17011195071E+03  0.11225341063E+03  0.16953904129E+03  0.29310228659E+03  0.12500623948E+03 0.  0.
         23    2    1    2    0    0 -0.17011195071E+03 -0.11225341063E+03  0.22582015689E+03  0.31780070152E+03  0.91998036144E+02 0.  0.
          5    1    3    3  502    0  0.94274685715E+01  0.25008315441E+02  0.89374569614E+02  0.93403408388E+02  0.47000000000E+01 0.  1.
         -5    1    3    3    0  502  0.16068448214E+03  0.87245095193E+02  0.80164471679E+02  0.19969887820E+03  0.47000000000E+01 0.  1.
        -11    1    4    4    0    0 -0.17842222574E+03 -0.97459119529E+02  0.22071728707E+03  0.30008147465E+03  0.00000000000E+00 0. -1.
         11    1    4    4    0    0  0.83102750310E+01 -0.14794291105E+02  0.51028698237E+01  0.17719226869E+02  0.00000000000E+00 0.  1.
<mgrwt>
<rscale>  0 0.23512519E+03</rscale>
<asrwt>0</asrwt>
<pdfrwt beam="1">  1        1 0.77404782E-01 0.23909300E+03</pdfrwt>
<pdfrwt beam="2">  1       -1 0.16580292E-01 0.23909300E+03</pdfrwt>
<totfact> 0.12247820E+03</totfact>
</mgrwt>
</event>
<event>
 7    1  0.9424564E-006  0.1859067E+03  0.7546771E-02  0.1186902E+00
         -1   -1    0    0    0  501 -0.00000000000E+00  0.00000000000E+00  0.16355270373E+03  0.16355270373E+03  0.00000000000E+00 0.  1.
          1   -1    0    0  501    0  0.00000000000E+00 -0.00000000000E+00 -0.16300227898E+03  0.16300227898E+03  0.00000000000E+00 0. -1.
         23    2    1    2    0    0 -0.33545962868E+02 -0.41921476830E+02 -0.70623952387E+02  0.12748944319E+03  0.91559126408E+02 0.  0.
          5    1    1    2  502    0  0.69041547906E+02 -0.42740676990E+02  0.69725454726E+02  0.10713183394E+03  0.47000000000E+01 0. -1.
         -5    1    1    2    0  502 -0.35495585038E+02  0.84662153820E+02  0.14489224110E+01  0.91933705586E+02  0.47000000000E+01 0.  1.
        -11    1    3    3    0    0 -0.58198337275E+02 -0.21597524412E+02 -0.72548105614E+02  0.95481553980E+02  0.00000000000E+00 0.  1.
         11    1    3    3    0    0  0.24652374406E+02 -0.20323952418E+02  0.19241532268E+01  0.32007889206E+02  0.00000000000E+00 0. -1.
<mgrwt>
<rscale>  0 0.16160009E+03</rscale>
<asrwt>0</asrwt>
<pdfrwt beam="2">  1        1 0.25077274E-01 0.18590669E+03</pdfrwt>
<pdfrwt beam="1">  1       -1 0.25161954E-01 0.18590669E+03</pdfrwt>
<totfact> 0.25791868E+03</totfact>
</mgrwt>
</event>
<event>
 8    1  0.9424564E-006  0.1832076E+03  0.7546771E-02  0.1168773E+00
          1   -1    0    0  501    0  0.00000000000E+00  0.00000000000E+00  0.41948587104E+03  0.41948587104E+03  0.00000000000E+00 0. -1.
         -1   -1    0    0    0  501 -0.00000000000E+00 -0.00000000000E+00 -0.82929435523E+02  0.82929435523E+02  0.00000000000E+00 0.  1.
         23    2    1    2    0    0 -0.12652385398E+03 -0.43989988003E+02  0.88640346516E+02  0.20352427905E+03  0.12498646510E+03 0.  0.
         23    2    1    2    0    0  0.12652385398E+03  0.43989988003E+02  0.24791608900E+03  0.29889102752E+03  0.99649658674E+02 0.  0.
          5    1    3    3  502    0 -0.71134743897E+02 -0.29988623027E+02  0.11646348163E+03  0.13980451300E+03  0.47000000000E+01 0. -1.
         -5    1    3    3    0  502 -0.55389110086E+02 -0.14001364976E+02 -0.27823135118E+02  0.63719766047E+02  0.47000000000E+01 0. -1.
        -11    1    4    4    0    0  0.83515893316E+02 -0.23641518686E+02  0.12744890866E+03  0.15419808741E+03  0.00000000000E+00 0.  1.
         11    1    4    4    0    0  0.43007960667E+02  0.67631506690E+02  0.12046718034E+03  0.14469294011E+03  0.00000000000E+00 0. -1.
<mgrwt>
<rscale>  0 0.17900141E+03</rscale>
<asrwt>0</asrwt>
<pdfrwt beam="1">  1        1 0.64536287E-01 0.18320759E+03</pdfrwt>
<pdfrwt beam="2">  1       -1 0.12758375E-01 0.18320759E+03</pdfrwt>
<totfact> 0.23374145E+03</totfact>
</mgrwt>
</event>
<event>
 8    1  0.9424564E-006  0.2740188E+03  0.7546771E-02  0.1101066E+00
         -2   -1    0    0    0  501 -0.00000000000E+00  0.00000000000E+00  0.91469700701E+03  0.91469700701E+03  0.00000000000E+00 0.  1.
          2   -1    0    0  501    0  0.00000000000E+00 -0.00000000000E+00 -0.77865848311E+02  0.77865848311E+02  0.00000000000E+00 0. -1.
         23    2    1    2    0    0 -0.17894913473E+03  0.16563970739E+03  0.43244606314E+03  0.51195301609E+03  0.12500795042E+03 0.  0.
         23    2    1    2    0    0  0.17894913473E+03 -0.16563970739E+03  0.40438509555E+03  0.48060983923E+03  0.89438283602E+02 0.  0.
          5    1    3    3  502    0 -0.73762325301E+02  0.62655309976E+02  0.29497724360E+03  0.31048386873E+03  0.47000000000E+01 0.  1.
         -5    1    3    3    0  502 -0.10518680943E+03  0.10298439742E+03  0.13746881954E+03  0.20146914735E+03  0.47000000000E+01 0.  1.
        -11    1    4    4    0    0  0.42257037178E+02 -0.90131087354E+02  0.11769083010E+03  0.15414409359E+03  0.00000000000E+00 0. -1.
         11    1    4    4    0    0  0.13669209755E+03 -0.75508620039E+02  0.28669426546E+03  0.32646574565E+03  0.00000000000E+00 0.  1.
<mgrwt>
<rscale>  0 0.27037395E+03</rscale>
<asrwt>0</asrwt>
<pdfrwt beam="2">  1        2 0.11979362E-01 0.27401878E+03</pdfrwt>
<pdfrwt beam="1">  1       -2 0.14072261E+00 0.27401878E+03</pdfrwt>
<totfact> 0.19158990E+02</totfact>
</mgrwt>
</event>
<event>
 8    1  0.9424564E-006  0.1286087E+03  0.7546771E-02  0.1244568E+00
          2   -1    0    0  501    0  0.00000000000E+00  0.00000000000E+00  0.37312936796E+03  0.37312936796E+03  0.00000000000E+00 0. -1.
         -2   -1    0    0    0  501 -0.00000000000E+00 -0.00000000000E+00 -0.34585747874E+02  0.34585747874E+02  0.00000000000E+00 0.  1.
         23    2    1    2    0    0  0.19500639157E+01  0.30188327470E+02  0.15666669703E+03  0.20269346290E+03  0.12500019231E+03 0.  0.
         23    2    1    2    0    0 -0.19500639157E+01 -0.30188327470E+02  0.18187692306E+03  0.20502165294E+03  0.89663399268E+02 0.  0.
          5    1    3    3  502    0  0.13800657419E+02 -0.28288657963E+02 -0.32055236548E+01  0.31985491968E+02  0.47000000000E+01 0. -1.
         -5    1    3    3    0  502 -0.11850593504E+02  0.58476985433E+02  0.15987222068E+03  0.17070797093E+03  0.47000000000E+01 0. -1.
        -11    1    4    4    0    0  0.42984799259E+02 -0.74363059949E+01  0.96366149695E+02  0.10578008518E+03  0.00000000000E+00 0.  1.
         11    1    4    4    0    0 -0.44934863175E+02 -0.22752021475E+02  0.85510773366E+02  0.99241567759E+02  0.00000000000E+00 0. -1.
<mgrwt>
<rscale>  0 0.11911290E+03</rscale>
<asrwt>0</asrwt>
<pdfrwt beam="1">  1        2 0.57404515E-01 0.12860865E+03</pdfrwt>
<pdfrwt beam="2">  1       -2 0.53208846E-02 0.12860865E+03</pdfrwt>
<totfact> 0.14390340E+04</totfact>
</mgrwt>
</event>
<event>
 8    1  0.9424564E-006  0.1855690E+03  0.7546771E-02  0.1167646E+00
         -2   -1    0    0    0  501 -0.00000000000E+00  0.00000000000E+00  0.10334406035E+04  0.10334406035E+04  0.00000000000E+00 0.  1.
          2   -1    0    0  501    0  0.00000000000E+00 -0.00000000000E+00 -0.43139563116E+02  0.43139563116E+02  0.00000000000E+00 0. -1.
         23    2    1    2    0    0 -0.12808964090E+03  0.49036569745E+02  0.81529007450E+03  0.83614218548E+03  0.12499722989E+03 0.  0.
         23    2    1    2    0    0  0.12808964090E+03 -0.49036569745E+02  0.17501096593E+03  0.24043798119E+03  0.91487940850E+02 0.  0.
          5    1    3    3  502    0 -0.18571179708E+00  0.53387777818E+02  0.32569794917E+03  0.33007807167E+03  0.47000000000E+01 0. -1.
         -5    1    3    3    0  502 -0.12790392911E+03 -0.43512080732E+01  0.48959212533E+03  0.50606411380E+03  0.47000000000E+01 0. -1.
        -11    1    4    4    0    0  0.12227653318E+03 -0.36290570526E+02  0.94561602316E+02  0.15877799818E+03  0.00000000000E+00 0. -1.
         11    1    4    4    0    0  0.58131077271E+01 -0.12745999219E+02  0.80449363617E+02  0.81659983002E+02  0.00000000000E+00 0.  1.
<mgrwt>
<rscale>  0 0.18016208E+03</rscale>
<asrwt>0</asrwt>
<pdfrwt beam="2">  1        2 0.66368566E-02 0.18556899E+03</pdfrwt>
<pdfrwt beam="1">  1       -2 0.15899084E+00 0.18556899E+03</pdfrwt>
<totfact> 0.29334443E+02</totfact>
</mgrwt>
</event>
<event>
 7    1  0.9424564E-006  0.2265029E+03  0.7546771E-02  0.1165719E+00
         -1   -1    0    0    0  501 -0.00000000000E+00  0.00000000000E+00  0.91976466179E+02  0.91976466179E+02  0.00000000000E+00 0.  1.
          1   -1    0    0  501    0  0.00000000000E+00 -0.00000000000E+00 -0.28059383254E+03  0.28059383254E+03  0.00000000000E+00 0. -1.
         23    2    1    2    0    0 -0.10497921534E+02 -0.88872877442E+01 -0.57622855085E+02  0.11091570911E+03  0.93769455901E+02 0.  0.
          5    1    1    2  502    0 -0.92722592973E+01  0.59685385063E+02 -0.17893347201E+03  0.18891161264E+03  0.47000000000E+01 0. -1.
         -5    1    1    2    0  502  0.19770180832E+02 -0.50798097319E+02  0.47938960738E+02  0.72742976967E+02  0.47000000000E+01 0.  1.
        -11    1    3    3    0    0  0.38932716463E+02 -0.17722278252E+02 -0.37264701287E+02  0.56731768170E+02  0.00000000000E+00 0.  1.
         11    1    3    3    0    0 -0.49430637998E+02  0.88349905082E+01 -0.20358153798E+02  0.54183940944E+02  0.00000000000E+00 0. -1.
<mgrwt>
<rscale>  0 0.18216979E+03</rscale>
<asrwt>0</asrwt>
<pdfrwt beam="2">  1        1 0.43168281E-01 0.22650290E+03</pdfrwt>
<pdfrwt beam="1">  1       -1 0.14150226E-01 0.22650290E+03</pdfrwt>
<totfact> 0.33260852E+03</totfact>
</mgrwt>
</event>
<event>
 8    1  0.9424564E-006  0.1555038E+03  0.7546771E-02  0.1200986E+00
          4   -1    0    0  501    0  0.00000000000E+00  0.00000000000E+00  0.20153441357E+03  0.20153441357E+03  0.00000000000E+00 0. -1.
         -4   -1    0    0    0  501 -0.00000000000E+00 -0.00000000000E+00 -0.15269611033E+03  0.15269611033E+03  0.00000000000E+00 0.  1.
         23    2    1    2    0    0 -0.51430464571E+02  0.76890687243E+02 -0.74779360213E+02  0.17254969561E+03  0.12499669704E+03 0.  0.
         23    2    1    2    0    0  0.51430464571E+02 -0.76890687243E+02  0.12361766345E+03  0.18168082829E+03  0.95756598616E+02 0.  0.
          5    1    3    3  502    0 -0.20441714769E+02 -0.32382997582E+02 -0.43649974156E+01  0.38828667728E+02  0.47000000000E+01 0. -1.
         -5    1    3    3    0  502 -0.30988749801E+02  0.10927368483E+03 -0.70414362798E+02  0.13372102788E+03  0.47000000000E+01 0. -1.
        -11    1    4    4    0    0  0.25652914231E+02  0.15869864251E+02  0.79630782958E+01  0.31198320721E+02  0.00000000000E+00 0.  1.
         11    1    4    4    0    0  0.25777550340E+02 -0.92760551495E+02  0.11565458516E+03  0.15048250757E+03  0.00000000000E+00 0. -1.
<mgrwt>
<rscale>  0 0.14958361E+03</rscale>
<asrwt>0</asrwt>
<pdfrwt beam="1">  1        4 0.31005294E-01 0.15550384E+03</pdfrwt>
<pdfrwt beam="2">  1       -4 0.23491709E-01 0.15550384E+03</pdfrwt>
<totfact> 0.28641460E+02</totfact>
</mgrwt>
</event>
<event>
 8    1  0.9424564E-006  0.1277983E+03  0.7546771E-02  0.1245548E+00
          1   -1    0    0  501    0  0.00000000000E+00  0.00000000000E+00  0.41103548948E+03  0.41103548948E+03  0.00000000000E+00 0. -1.
         -1   -1    0    0    0  501 -0.00000000000E+00 -0.00000000000E+00 -0.30110315070E+02  0.30110315070E+02  0.00000000000E+00 0.  1.
         23    2    1    2    0    0 -0.67870108590E+01 -0.25149244803E+02  0.21102996318E+03  0.24671047069E+03  0.12511539855E+03 0.  0.
         23    2    1    2    0    0  0.67870108590E+01  0.25149244803E+02  0.16989521123E+03  0.19443533386E+03  0.90896469821E+02 0.  0.
          5    1    3    3  502    0  0.18380345718E+02 -0.44079987700E+02  0.18287576058E+02  0.51355699415E+02  0.47000000000E+01 0. -1.
         -5    1    3    3    0  502 -0.25167356577E+02  0.18930742897E+02  0.19274238713E+03  0.19535477127E+03  0.47000000000E+01 0. -1.
        -11    1    4    4    0    0  0.16318864310E+02 -0.99999558818E+01 -0.15150195241E+01  0.19198951381E+02  0.00000000000E+00 0. -1.
         11    1    4    4    0    0 -0.95318534505E+01  0.35149200685E+02  0.17141023075E+03  0.17523638248E+03  0.00000000000E+00 0.  1.
<mgrwt>
<rscale>  0 0.11852648E+03</rscale>
<asrwt>0</asrwt>
<pdfrwt beam="1">  1        1 0.63236225E-01 0.12779832E+03</pdfrwt>
<pdfrwt beam="2">  1       -1 0.46323565E-02 0.12779832E+03</pdfrwt>
<totfact> 0.10895576E+04</totfact>
</mgrwt>
</event>
<event>
 8    1  0.9424564E-006  0.1286231E+03  0.7546771E-02  0.1242140E+00
         -1   -1    0    0    0  501 -0.00000000000E+00  0.00000000000E+00  0.56311766068E+03  0.56311766068E+03  0.00000000000E+00 0.  1.
          1   -1    0    0  501    0  0.00000000000E+00 -0.00000000000E+00 -0.27055889308E+02  0.27055889308E+02  0.00000000000E+00 0. -1.
         23    2    1    2    0    0  0.53407692969E+01 -0.29845792721E+02  0.40979278355E+03  0.42950440261E+03  0.12499844500E+03 0.  0.
         23    2    1    2    0    0 -0.53407692969E+01  0.29845792721E+02  0.12626898782E+03  0.16066914737E+03  0.94611957348E+02 0.  0.
          5    1    3    3  502    0  0.44159528753E+02  0.32137442405E+02  0.19466780922E+03  0.20223878246E+03  0.47000000000E+01 0.  1.
         -5    1    3    3    0  502 -0.38818759456E+02 -0.61983235126E+02  0.21512497434E+03  0.22726562016E+03  0.47000000000E+01 0.  1.
        -11    1    4    4    0    0  0.10785909164E+02 -0.27136489638E+02  0.11238161652E+02  0.31289314209E+02  0.00000000000E+00 0. -1.
         11    1    4    4    0    0 -0.16126678461E+02  0.56982282360E+02  0.11503082617E+03  0.12937983317E+03  0.00000000000E+00 0.  1.
<mgrwt>
<rscale>  0 0.12058211E+03</rscale>
<asrwt>0</asrwt>
<pdfrwt beam="2">  1        1 0.41624449E-02 0.12862312E+03</pdfrwt>
<pdfrwt beam="1">  1       -1 0.86633478E-01 0.12862312E+03</pdfrwt>
<totfact> 0.28515680E+03</totfact>
</mgrwt>
</event>
<event>
 8    1  0.9424564E-006  0.1272684E+03  0.7546771E-02  0.1246944E+00
         -2   -1    0    0    0  501 -0.00000000000E+00  0.00000000000E+00  0.81249191266E+02  0.81249191266E+02  0.00000000000E+00 0.  1.
          2   -1    0    0  501    0  0.00000000000E+00 -0.00000000000E+00 -0.19613681401E+03  0.19613681401E+03  0.00000000000E+00 0. -1.
         23    2    1    2    0    0 -0.23863064027E+02 -0.15414158661E+01  0.28392132255E+01  0.12730008944E+03  0.12500171940E+03 0.  0.
         23    2    1    2    0    0  0.23863064027E+02  0.15414158661E+01 -0.11772683597E+03  0.15008591583E+03  0.89968619175E+02 0.  0.
          5    1    3    3  502    0 -0.16311335813E+01 -0.14698743862E+02 -0.58528574942E+02  0.60550786556E+02  0.47000000000E+01 0. -1.
         -5    1    3    3    0  502 -0.22231930446E+02  0.13157327996E+02  0.61367788167E+02  0.66749302887E+02  0.47000000000E+01 0. -1.
        -11    1    4    4    0    0  0.34890343064E+02 -0.18265148247E+02 -0.10875343396E+02  0.40856147317E+02  0.00000000000E+00 0.  1.
         11    1    4    4    0    0 -0.11027279037E+02  0.19806564113E+02 -0.10685149257E+03  0.10922976851E+03  0.00000000000E+00 0. -1.
<mgrwt>
<rscale>  0 0.11769796E+03</rscale>
<asrwt>0</asrwt>
<pdfrwt beam="2">  1        2 0.30174894E-01 0.12726842E+03</pdfrwt>
<pdfrwt beam="1">  1       -2 0.12499876E-01 0.12726842E+03</pdfrwt>
<totfact> 0.76039725E+03</totfact>
</mgrwt>
</event>
<event>
 8    1  0.9424564E-006  0.1940686E+03  0.7546771E-02  0.1160057E+00
         -2   -1    0    0    0  501 -0.00000000000E+00  0.00000000000E+00  0.42241505562E+02  0.42241505562E+02  0.00000000000E+00 0.  1.
          2   -1    0    0  501    0  0.00000000000E+00 -0.00000000000E+00 -0.95937493180E+03  0.95937493180E+03  0.00000000000E+00 0. -1.
         23    2    1    2    0    0  0.27257346570E+02 -0.14593852955E+03 -0.27287875154E+03  0.33485138891E+03  0.12498648833E+03 0.  0.
         23    2    1    2    0    0 -0.27257346570E+02  0.14593852955E+03 -0.64425467469E+03  0.66676504845E+03  0.86432208223E+02 0.  0.
          5    1    3    3  502    0 -0.17931197340E+02 -0.12355868135E+03 -0.24957412408E+03  0.27910143136E+03  0.47000000000E+01 0. -1.
         -5    1    3    3    0  502  0.45188543911E+02 -0.22379848201E+02 -0.23304627458E+02  0.55749957554E+02  0.47000000000E+01 0. -1.
        -11    1    4    4    0    0  0.16270837356E+02 -0.27270410154E+01 -0.49967586941E+02  0.52620686481E+02  0.00000000000E+00 0.  1.
         11    1    4    4    0    0 -0.43528183926E+02  0.14866557056E+03 -0.59428708775E+03  0.61414436197E+03  0.00000000000E+00 0. -1.
<mgrwt>
<rscale>  0 0.18824156E+03</rscale>
<asrwt>0</asrwt>
<pdfrwt beam="2">  1        2 0.14759614E+00 0.19406865E+03</pdfrwt>
<pdfrwt beam="1">  1       -2 0.64986933E-02 0.19406865E+03</pdfrwt>
<totfact> 0.36068645E+03</totfact>
</mgrwt>
</event>
<event>
 8    1  0.9424564E-006  0.1895809E+03  0.7546771E-02  0.1163832E+00
         -2   -1    0    0    0  501 -0.00000000000E+00  0.00000000000E+00  0.49573128108E+03  0.49573128108E+03  0.00000000000E+00 0. -1.
          2   -1    0    0  501    0  0.00000000000E+00 -0.00000000000E+00 -0.70802619912E+02  0.70802619912E+02  0.00000000000E+00 0.  1.
         23    2    1    2    0    0  0.10092839027E+03 -0.10064324669E+03  0.14124416713E+03  0.23641242775E+03  0.12500127270E+03 0.  0.
         23    2    1    2    0    0 -0.10092839027E+03  0.10064324669E+03  0.28368449403E+03  0.33012147325E+03  0.90485865613E+02 0.  0.
          5    1    3    3  502    0  0.50367419998E+02 -0.12352355922E+03  0.92496135095E+02  0.16239634136E+03  0.47000000000E+01 0. -1.
         -5    1    3    3    0  502  0.50560970269E+02  0.22880312531E+02  0.48748032038E+02  0.74016086385E+02  0.47000000000E+01 0. -1.
        -11    1    4    4    0    0  0.15203461528E+01  0.41097411925E+02  0.32597795549E+02  0.52477852414E+02  0.00000000000E+00 0.  1.
         11    1    4    4    0    0 -0.10244873642E+03  0.59545834766E+02  0.25108669848E+03  0.27764362083E+03  0.00000000000E+00 0. -1.
<mgrwt>
<rscale>  0 0.18416531E+03</rscale>
<asrwt>0</asrwt>
<pdfrwt beam="2">  1        2 0.10892711E-01 0.18958091E+03</pdfrwt>
<pdfrwt beam="1">  1       -2 0.76266349E-01 0.18958091E+03</pdfrwt>
<totfact> 0.90212054E+02</totfact>
</mgrwt>
</event>
<event>
 8    1  0.9424564E-006  0.1254129E+03  0.7546771E-02  0.1250666E+00
         -2   -1    0    0    0  501 -0.00000000000E+00  0.00000000000E+00  0.59791102684E+03  0.59791102684E+03  0.00000000000E+00 0.  1.
          2   -1    0    0  501    0  0.00000000000E+00 -0.00000000000E+00 -0.41607290840E+02  0.41607290840E+02  0.00000000000E+00 0. -1.
         23    2    1    2    0    0  0.44155211033E+01  0.92193647516E+01  0.53118554308E+03  0.54578977585E+03  0.12499561885E+03 0.  0.
         23    2    1    2    0    0 -0.44155211033E+01 -0.92193647516E+01  0.25118192920E+02  0.93728541830E+02  0.89719688057E+02 0.  0.
          5    1    3    3  502    0 -0.16810814285E+02 -0.17478607830E+02  0.15947593326E+02  0.29402736973E+02  0.47000000000E+01 0. -1.
         -5    1    3    3    0  502  0.21226335388E+02  0.26697972582E+02  0.51523794975E+03  0.51638703888E+03  0.47000000000E+01 0. -1.
        -11    1    4    4    0    0  0.41221361210E+02  0.38887272037E+01  0.19968367434E+02  0.45968016242E+02  0.00000000000E+00 0.  1.
         11    1    4    4    0    0 -0.45636882313E+02 -0.13108091955E+02  0.51498254864E+01  0.47760525588E+02  0.00000000000E+00 0. -1.
<mgrwt>
<rscale>  0 0.11552575E+03</rscale>
<asrwt>0</asrwt>
<pdfrwt beam="2">  1        2 0.64011221E-02 0.12541291E+03</pdfrwt>
<pdfrwt beam="1">  1       -2 0.91986306E-01 0.12541291E+03</pdfrwt>
<totfact> 0.11412296E+03</totfact>
</mgrwt>
</event>
<event>
 8    1  0.9424564E-006  0.1269608E+03  0.7546771E-02  0.1244164E+00
         -2   -1    0    0    0  501 -0.00000000000E+00  0.00000000000E+00  0.21607288007E+03  0.21607288007E+03  0.00000000000E+00 0.  1.
          2   -1    0    0  501    0  0.00000000000E+00 -0.00000000000E+00 -0.83541709689E+02  0.83541709689E+02  0.00000000000E+00 0. -1.
         23    2    1    2    0    0  0.17468191463E+02  0.13667246467E+02  0.15252805046E+03  0.19845366015E+03  0.12500847055E+03 0.  0.
         23    2    1    2    0    0 -0.17468191463E+02 -0.13667246467E+02 -0.19996880080E+02  0.10116092961E+03  0.96652610560E+02 0.  0.
          5    1    3    3  502    0 -0.21235023008E+02  0.20023488664E+02 -0.99889436159E+01  0.31204731932E+02  0.47000000000E+01 0. -1.
         -5    1    3    3    0  502  0.38703214470E+02 -0.63562421968E+01  0.16251699408E+03  0.16724892822E+03  0.47000000000E+01 0. -1.
        -11    1    4    4    0    0 -0.88293874282E+01  0.34798888602E+02  0.16859436964E+02  0.39663098026E+02  0.00000000000E+00 0.  1.
         11    1    4    4    0    0 -0.86388040343E+01 -0.48466135069E+02 -0.36856317044E+02  0.61497831586E+02  0.00000000000E+00 0. -1.
<mgrwt>
<rscale>  0 0.11935529E+03</rscale>
<asrwt>0</asrwt>
<pdfrwt beam="2">  1        2 0.12852571E-01 0.12696082E+03</pdfrwt>
<pdfrwt beam="1">  1       -2 0.33241981E-01 0.12696082E+03</pdfrwt>
<totfact> 0.37870387E+03</totfact>
</mgrwt>
</event>
<event>
 8    1  0.9424564E-006  0.1469783E+03  0.7546771E-02  0.1213665E+00
         -2   -1    0    0    0  501 -0.00000000000E+00  0.00000000000E+00  0.90099628588E+02  0.90099628588E+02  0.00000000000E+00 0.  1.
          2   -1    0    0  501    0  0.00000000000E+00 -0.00000000000E+00 -0.19842054760E+03  0.19842054760E+03  0.00000000000E+00 0. -1.
         23    2    1    2    0    0 -0.71064684252E+02 -0.30456216427E+02 -0.52748478892E+02  0.15615707614E+03  0.12499943975E+03 0.  0.
         23    2    1    2    0    0  0.71064684252E+02  0.30456216427E+02 -0.55572440123E+02  0.13236310005E+03  0.91945221114E+02 0.  0.
          5    1    3    3  502    0 -0.21183662517E+02  0.36127089132E+02  0.18970362347E+02  0.46215568527E+02  0.47000000000E+01 0. -1.
         -5    1    3    3    0  502 -0.49881021736E+02 -0.66583305559E+02 -0.71718841238E+02  0.10994150762E+03  0.47000000000E+01 0. -1.
        -11    1    4    4    0    0  0.72313609392E+02  0.13940389516E+02  0.75713183479E+00  0.73648936257E+02  0.00000000000E+00 0.  1.
         11    1    4    4    0    0 -0.12489251394E+01  0.16515826912E+02 -0.56329571958E+02  0.58714163790E+02  0.00000000000E+00 0. -1.
<mgrwt>
<rscale>  0 0.13975091E+03</rscale>
<asrwt>0</asrwt>
<pdfrwt beam="2">  1        2 0.30526238E-01 0.14697833E+03</pdfrwt>
<pdfrwt beam="1">  1       -2 0.13861481E-01 0.14697833E+03</pdfrwt>
<totfact> 0.64197859E+03</totfact>
</mgrwt>
</event>
<event>
 8    1  0.9424564E-006  0.1628017E+03  0.7546771E-02  0.1193025E+00
         -1   -1    0    0    0  501 -0.00000000000E+00  0.00000000000E+00  0.49503228507E+02  0.49503228507E+02  0.00000000000E+00 0.  1.
          1   -1    0    0  501    0  0.00000000000E+00 -0.00000000000E+00 -0.59102644472E+03  0.59102644472E+03  0.00000000000E+00 0. -1.
         23    2    1    2    0    0  0.69296062328E+02  0.77952098053E+02 -0.13593370436E+03  0.21209045824E+03  0.12500366655E+03 0.  0.
         23    2    1    2    0    0 -0.69296062328E+02 -0.77952098053E+02 -0.40558951186E+03  0.42843921499E+03  0.90436911532E+02 0.  0.
          5    1    3    3  502    0 -0.10431268220E+02 -0.19233685299E+02  0.52600206218E+01  0.22989211031E+02  0.47000000000E+01 0.  1.
         -5    1    3    3    0  502  0.79727330549E+02  0.97185783352E+02 -0.14119372498E+03  0.18910124721E+03  0.47000000000E+01 0.  1.
        -11    1    4    4    0    0  0.36191195391E+00 -0.66354660197E+02 -0.22326227776E+03  0.23291439754E+03  0.00000000000E+00 0. -1.
         11    1    4    4    0    0 -0.69657974282E+02 -0.11597437856E+02 -0.18232723410E+03  0.19552481745E+03  0.00000000000E+00 0.  1.
<mgrwt>
<rscale>  0 0.15622548E+03</rscale>
<asrwt>0</asrwt>
<pdfrwt beam="2">  1        1 0.90927142E-01 0.16280169E+03</pdfrwt>
<pdfrwt beam="1">  1       -1 0.76158816E-02 0.16280169E+03</pdfrwt>
<totfact> 0.32728583E+03</totfact>
</mgrwt>
</event>
<event>
 8    1  0.9424564E-006  0.1640728E+03  0.7546771E-02  0.1191217E+00
          1   -1    0    0  501    0  0.00000000000E+00  0.00000000000E+00  0.72290654663E+03  0.72290654663E+03  0.00000000000E+00 0. -1.
         -1   -1    0    0    0  501 -0.00000000000E+00 -0.00000000000E+00 -0.32074917688E+02  0.32074917688E+02  0.00000000000E+00 0.  1.
         23    2    1    2    0    0 -0.10181108910E+03  0.29353818834E+02  0.38344014179E+03  0.41706860402E+03  0.12527064133E+03 0.  0.
         23    2    1    2    0    0  0.10181108910E+03 -0.29353818834E+02  0.30739148715E+03  0.33791286029E+03  0.92024074215E+02 0.  0.
          5    1    3    3  502    0  0.21316053180E+02  0.26830812781E+02  0.44129338777E+02  0.56069199910E+02  0.47000000000E+01 0. -1.
         -5    1    3    3    0  502 -0.12312714229E+03  0.25230060530E+01  0.33931080302E+03  0.36099940411E+03  0.47000000000E+01 0. -1.
        -11    1    4    4    0    0  0.11099588256E+03 -0.46921692538E+02  0.26540962989E+03  0.29148585353E+03  0.00000000000E+00 0.  1.
         11    1    4    4    0    0 -0.91847934521E+01  0.17567873704E+02  0.41981857261E+02  0.46427006756E+02  0.00000000000E+00 0. -1.
<mgrwt>
<rscale>  0 0.15778783E+03</rscale>
<asrwt>0</asrwt>
<pdfrwt beam="1">  1        1 0.11121638E+00 0.16407278E+03</pdfrwt>
<pdfrwt beam="2">  1       -1 0.49346032E-02 0.16407278E+03</pdfrwt>
<totfact> 0.47236748E+03</totfact>
</mgrwt>
</event>
<event>
 8    1  0.9424564E-006  0.1334626E+03  0.7546771E-02  0.1236644E+00
         -4   -1    0    0    0  501 -0.00000000000E+00  0.00000000000E+00  0.10121415251E+03  0.10121415251E+03  0.00000000000E+00 0.  1.
          4   -1    0    0  501    0  0.00000000000E+00 -0.00000000000E+00 -0.14641232865E+03  0.14641232865E+03  0.00000000000E+00 0. -1.
         23    2    1    2    0    0  0.28259516863E+02 -0.37271117142E+02  0.10094890881E+02  0.13384387063E+03  0.12499815365E+03 0.  0.
         23    2    1    2    0    0 -0.28259516863E+02  0.37271117142E+02 -0.55293067026E+02  0.11378261054E+03  0.87757750272E+02 0.  0.
          5    1    3    3  502    0 -0.20952646188E+02  0.31923873854E+02 -0.20342226252E+02  0.43520607452E+02  0.47000000000E+01 0.  1.
         -5    1    3    3    0  502  0.49212163050E+02 -0.69194990996E+02  0.30437117133E+02  0.90323263174E+02  0.47000000000E+01 0.  1.
        -11    1    4    4    0    0  0.25465764738E+02  0.19273466289E+02  0.35036604664E+01  0.32128605839E+02  0.00000000000E+00 0.  1.
         11    1    4    4    0    0 -0.53725281600E+02  0.17997650853E+02 -0.58796727493E+02  0.81654004697E+02  0.00000000000E+00 0. -1.
<mgrwt>
<rscale>  0 0.12399800E+03</rscale>
<asrwt>0</asrwt>
<pdfrwt beam="2">  1        4 0.22524974E-01 0.13346263E+03</pdfrwt>
<pdfrwt beam="1">  1       -4 0.15571408E-01 0.13346263E+03</pdfrwt>
<totfact> 0.10540979E+03</totfact>
</mgrwt>
</event>
<event>
 6    1  0.9424564E-006  0.3726843E+03  0.7546771E-02  0.1054649E+00
         -2   -1    0    0    0  501 -0.00000000000E+00  0.00000000000E+00  0.75731074697E+02  0.75731074697E+02  0.00000000000E+00 0.  1.
          2   -1    0    0  501    0  0.00000000000E+00 -0.00000000000E+00 -0.18363745203E+04  0.18363745203E+04  0.00000000000E+00 0. -1.
          5    1    1    2  502    0  0.19285327296E+01 -0.28133043430E+01 -0.12277029558E+03  0.12290756444E+03  0.47000000000E+01 0. -1.
         -5    1    1    2    0  502 -0.22487868791E+03  0.25716594287E+03 -0.60844979846E+03  0.69780942505E+03  0.47000000000E+01 0.  1.
        -11    1    1    2    0    0  0.22252191051E+02 -0.11750935893E+03 -0.34249294122E+03  0.36277406774E+03  0.00000000000E+00 0.  1.
         11    1    1    2    0    0  0.20069796413E+03 -0.13684327959E+03 -0.68693041035E+03  0.72861453777E+03  0.00000000000E+00 0. -1.
<mgrwt>
<rscale>  0 0.37011534E+03</rscale>
<asrwt>0</asrwt>
<pdfrwt beam="2">  1        2 0.28251911E+00 0.37268425E+03</pdfrwt>
<pdfrwt beam="1">  1       -2 0.11650936E-01 0.37268425E+03</pdfrwt>
<totfact> 0.46417473E+02</totfact>
</mgrwt>
</event>
<event>
 8    1  0.9424564E-006  0.1453509E+03  0.7546771E-02  0.1215973E+00
          1   -1    0    0  501    0  0.00000000000E+00  0.00000000000E+00  0.10088189991E+03  0.10088189991E+03  0.00000000000E+00 0. -1.
         -1   -1    0    0    0  501 -0.00000000000E+00 -0.00000000000E+00 -0.18738752886E+03  0.18738752886E+03  0.00000000000E+00 0.  1.
         23    2    1    2    0    0  0.49937093967E+02 -0.54842365456E+02 -0.88115518016E+02  0.16997420532E+03  0.12500195021E+03 0.  0.
         23    2    1    2    0    0 -0.49937093967E+02  0.54842365456E+02  0.16098890644E+01  0.11829522344E+03  0.92139946513E+02 0.  0.
          5    1    3    3  502    0  0.61614124723E+02 -0.74076931414E+02 -0.20584794629E+02  0.98638308497E+02  0.47000000000E+01 0. -1.
         -5    1    3    3    0  502 -0.11677030756E+02  0.19234565959E+02 -0.67530723387E+02  0.71335896826E+02  0.47000000000E+01 0. -1.
        -11    1    4    4    0    0 -0.20852572581E+02  0.77011427763E+02  0.10998409582E+02  0.80539150745E+02  0.00000000000E+00 0.  1.
         11    1    4    4    0    0 -0.29084521387E+02 -0.22169062308E+02 -0.93885205179E+01  0.37756072696E+02  0.00000000000E+00 0. -1.
<mgrwt>
<rscale>  0 0.13805275E+03</rscale>
<asrwt>0</asrwt>
<pdfrwt beam="1">  1        1 0.15520292E-01 0.14535091E+03</pdfrwt>
<pdfrwt beam="2">  1       -1 0.28828850E-01 0.14535091E+03</pdfrwt>
<totfact> 0.37563216E+03</totfact>
</mgrwt>
</event>
<event>
 8    1  0.9424564E-006  0.1447391E+03  0.7546771E-02  0.1219717E+00
          2   -1    0    0  501    0  0.00000000000E+00  0.00000000000E+00  0.22581736377E+03  0.22581736377E+03  0.00000000000E+00 0. -1.
         -2   -1    0    0    0  501 -0.00000000000E+00 -0.00000000000E+00 -0.72263342593E+02  0.72263342593E+02  0.00000000000E+00 0.  1.
         23    2    1    2    0    0 -0.55367651026E+02  0.47524041194E+02  0.89699848643E+02  0.17028059766E+03  0.12500123128E+03 0.  0.
         23    2    1    2    0    0  0.55367651026E+02 -0.47524041194E+02  0.63854172531E+02  0.12780010870E+03  0.83255036856E+02 0.  0.
          5    1    3    3  502    0 -0.23351931422E+02 -0.34119907560E+02  0.68154488638E+02  0.79853648098E+02  0.47000000000E+01 0. -1.
         -5    1    3    3    0  502 -0.32015719604E+02  0.81643948754E+02  0.21545360005E+02  0.90426949565E+02  0.47000000000E+01 0. -1.
        -11    1    4    4    0    0 -0.45171000067E+01 -0.37709693661E+02 -0.22748984398E+01  0.38047343552E+02  0.00000000000E+00 0.  1.
         11    1    4    4    0    0  0.59884751033E+02 -0.98143475336E+01  0.66129070970E+02  0.89752765145E+02  0.00000000000E+00 0. -1.
<mgrwt>
<rscale>  0 0.13535706E+03</rscale>
<asrwt>0</asrwt>
<pdfrwt beam="1">  1        2 0.34741133E-01 0.14473914E+03</pdfrwt>
<pdfrwt beam="2">  1       -2 0.11117437E-01 0.14473914E+03</pdfrwt>
<totfact> 0.79478220E+03</totfact>
</mgrwt>
</event>
<event>
 8    1  0.9424564E-006  0.1335169E+03  0.7546771E-02  0.1234934E+00
          2   -1    0    0  501    0  0.00000000000E+00  0.00000000000E+00  0.30875389445E+03  0.30875389445E+03  0.00000000000E+00 0. -1.
         -2   -1    0    0    0  501 -0.00000000000E+00 -0.00000000000E+00 -0.61825928857E+02  0.61825928857E+02  0.00000000000E+00 0.  1.
         23    2    1    2    0    0  0.36576049981E+01  0.46754569983E+02  0.39806577911E+02  0.13932453838E+03  0.12500958148E+03 0.  0.
         23    2    1    2    0    0 -0.36576049981E+01 -0.46754569983E+02  0.20712138769E+03  0.23125528493E+03  0.91544359101E+02 0.  0.
          5    1    3    3  502    0 -0.50915367870E+02  0.35374025533E+02 -0.11715626190E+02  0.63269599847E+02  0.47000000000E+01 0.  1.
         -5    1    3    3    0  502  0.54572972868E+02  0.11380544450E+02  0.51522204101E+02  0.76054938532E+02  0.47000000000E+01 0.  1.
        -11    1    4    4    0    0 -0.11610925318E+02  0.12285912133E+02  0.12645410889E+01  0.16951586588E+02  0.00000000000E+00 0.  1.
         11    1    4    4    0    0  0.79533203202E+01 -0.59040482117E+02  0.20585684660E+03  0.21430369834E+03  0.00000000000E+00 0. -1.
<mgrwt>
<rscale>  0 0.12508682E+03</rscale>
<asrwt>0</asrwt>
<pdfrwt beam="1">  1        2 0.47500598E-01 0.13351690E+03</pdfrwt>
<pdfrwt beam="2">  1       -2 0.95116816E-02 0.13351690E+03</pdfrwt>
<totfact> 0.72455965E+03</totfact>
</mgrwt>
</event>
<event>
 8    1  0.9424564E-006  0.1437110E+03  0.7546771E-02  0.1217877E+00
          2   -1    0    0  501    0  0.00000000000E+00  0.00000000000E+00  0.12369710727E+03  0.12369710727E+03  0.00000000000E+00 0. -1.
         -2   -1    0    0    0  501 -0.00000000000E+00 -0.00000000000E+00 -0.15529435622E+03  0.15529435622E+03  0.00000000000E+00 0.  1.
         23    2    1    2    0    0  0.67881562323E+02  0.20511050090E+02 -0.63595333264E+02  0.15715347567E+03  0.12499695526E+03 0.  0.
         23    2    1    2    0    0 -0.67881562323E+02 -0.20511050090E+02  0.31998084306E+02  0.12183798782E+03  0.93765709069E+02 0.  0.
          5    1    3    3  502    0 -0.19981188315E+02  0.36474707275E+02 -0.52350075297E+02  0.67024417497E+02  0.47000000000E+01 0. -1.
         -5    1    3    3    0  502  0.87862750638E+02 -0.15963657184E+02 -0.11245257967E+02  0.90129058173E+02  0.47000000000E+01 0. -1.
        -11    1    4    4    0    0 -0.43800257889E+02  0.12922661146E+02 -0.24568194641E+02  0.51856088844E+02  0.00000000000E+00 0.  1.
         11    1    4    4    0    0 -0.24081304433E+02 -0.33433711236E+02  0.56566278947E+02  0.69981898975E+02  0.00000000000E+00 0. -1.
<mgrwt>
<rscale>  0 0.13667322E+03</rscale>
<asrwt>0</asrwt>
<pdfrwt beam="1">  1        2 0.19030324E-01 0.14371099E+03</pdfrwt>
<pdfrwt beam="2">  1       -2 0.23891439E-01 0.14371099E+03</pdfrwt>
<totfact> 0.43496907E+03</totfact>
</mgrwt>
</event>
<event>
 8    1  0.9424564E-006  0.1458232E+03  0.7546771E-02  0.1215148E+00
          1   -1    0    0  501    0  0.00000000000E+00  0.00000000000E+00  0.23874171242E+03  0.23874171242E+03  0.00000000000E+00 0. -1.
         -1   -1    0    0    0  501 -0.00000000000E+00 -0.00000000000E+00 -0.77009288554E+02  0.77009288554E+02  0.00000000000E+00 0.  1.
         23    2    1    2    0    0  0.70218219743E+02 -0.26620020381E+02  0.55327505983E+02  0.15596647012E+03  0.12500073206E+03 0.  0.
         23    2    1    2    0    0 -0.70218219743E+02  0.26620020381E+02  0.10640491788E+03  0.15978453085E+03  0.92573570096E+02 0.  0.
          5    1    3    3  502    0 -0.16358365948E+02  0.11128574004E+02  0.57899129828E+02  0.61366444664E+02  0.47000000000E+01 0.  1.
         -5    1    3    3    0  502  0.86576585691E+02 -0.37748594384E+02 -0.25716238452E+01  0.94600025460E+02  0.47000000000E+01 0.  1.
        -11    1    4    4    0    0 -0.40029375343E+02  0.14520354533E+02 -0.57875198825E+01  0.42973095915E+02  0.00000000000E+00 0.  1.
         11    1    4    4    0    0 -0.30188844400E+02  0.12099665848E+02  0.11219243777E+03  0.11681143493E+03  0.00000000000E+00 0. -1.
<mgrwt>
<rscale>  0 0.13865667E+03</rscale>
<asrwt>0</asrwt>
<pdfrwt beam="1">  1        1 0.36729494E-01 0.14582320E+03</pdfrwt>
<pdfrwt beam="2">  1       -1 0.11847583E-01 0.14582320E+03</pdfrwt>
<totfact> 0.52567528E+03</totfact>
</mgrwt>
</event>
<event>
 8    1  0.9424564E-006  0.1329688E+03  0.7546771E-02  0.1235991E+00
         -2   -1    0    0    0  501 -0.00000000000E+00  0.00000000000E+00  0.21785659140E+02  0.21785659140E+02  0.00000000000E+00 0.  1.
          2   -1    0    0  501    0  0.00000000000E+00 -0.00000000000E+00 -0.64989095033E+03  0.64989095033E+03  0.00000000000E+00 0. -1.
         23    2    1    2    0    0 -0.48264671543E+01 -0.45111093804E+02 -0.30091664615E+03  0.32898558833E+03  0.12498953489E+03 0.  0.
         23    2    1    2    0    0  0.48264671543E+01  0.45111093804E+02 -0.32718864504E+03  0.34269102114E+03  0.91249224410E+02 0.  0.
          5    1    3    3  502    0  0.28361071242E+02  0.29444359479E+02 -0.48198292100E+02  0.63375752686E+02  0.47000000000E+01 0. -1.
         -5    1    3    3    0  502 -0.33187538396E+02 -0.74555453283E+02 -0.25271835405E+03  0.26560983564E+03  0.47000000000E+01 0. -1.
        -11    1    4    4    0    0  0.26851032685E+02  0.48692564193E+02 -0.30882878674E+03  0.31379477893E+03  0.00000000000E+00 0. -1.
         11    1    4    4    0    0 -0.22024565530E+02 -0.35814703891E+01 -0.18359858301E+02  0.28896242209E+02  0.00000000000E+00 0.  1.
<mgrwt>
<rscale>  0 0.12441180E+03</rscale>
<asrwt>0</asrwt>
<pdfrwt beam="2">  1        2 0.99983225E-01 0.13296875E+03</pdfrwt>
<pdfrwt beam="1">  1       -2 0.33516398E-02 0.13296875E+03</pdfrwt>
<totfact> 0.15599741E+04</totfact>
</mgrwt>
</event>
<event>
 8    1  0.9424564E-006  0.1261151E+03  0.7546771E-02  0.1248536E+00
         -2   -1    0    0    0  501 -0.00000000000E+00  0.00000000000E+00  0.32386108631E+03  0.32386108631E+03  0.00000000000E+00 0.  1.
          2   -1    0    0  501    0  0.00000000000E+00 -0.00000000000E+00 -0.37544417194E+02  0.37544417194E+02  0.00000000000E+00 0. -1.
         23    2    1    2    0    0 -0.10843494344E+02  0.12655061923E+02  0.18720828431E+03  0.22572540319E+03  0.12500913554E+03 0.  0.
         23    2    1    2    0    0  0.10843494344E+02 -0.12655061923E+02  0.99108384803E+02  0.13568010032E+03  0.91153089478E+02 0.  0.
          5    1    3    3  502    0  0.46522544155E+02 -0.21518372542E+02  0.12137424590E+03  0.13183772237E+03  0.47000000000E+01 0. -1.
         -5    1    3    3    0  502 -0.57366038498E+02  0.34173434465E+02  0.65834038411E+02  0.93887680820E+02  0.47000000000E+01 0. -1.
        -11    1    4    4    0    0  0.21676661707E+02 -0.17051613409E+02  0.11369162515E+03  0.11698897731E+03  0.00000000000E+00 0.  1.
         11    1    4    4    0    0 -0.10833167364E+02  0.43965514861E+01 -0.14583240349E+02  0.18691123004E+02  0.00000000000E+00 0. -1.
<mgrwt>
<rscale>  0 0.11676241E+03</rscale>
<asrwt>0</asrwt>
<pdfrwt beam="2">  1        2 0.57760644E-02 0.12611509E+03</pdfrwt>
<pdfrwt beam="1">  1       -2 0.49824780E-01 0.12611509E+03</pdfrwt>
<totfact> 0.47433754E+03</totfact>
</mgrwt>
</event>
<event>
 8    1  0.9424564E-006  0.1237506E+03  0.7546771E-02  0.1250053E+00
          1   -1    0    0  501    0  0.00000000000E+00  0.00000000000E+00  0.66172007705E+02  0.66172007705E+02  0.00000000000E+00 0. -1.
         -1   -1    0    0    0  501 -0.00000000000E+00 -0.00000000000E+00 -0.41856724496E+03  0.41856724496E+03  0.00000000000E+00 0.  1.
         23    2    1    2    0    0 -0.23464709374E+02 -0.22888686063E+02 -0.36806412724E+03  0.38831096018E+03  0.11933027903E+03 0.  0.
         23    2    1    2    0    0  0.23464709374E+02  0.22888686063E+02  0.15668889986E+02  0.96428292494E+02  0.89321984663E+02 0.  0.
          5    1    3    3  502    0 -0.52069238857E+02  0.17744977289E+02 -0.88377959332E+02  0.10420577503E+03  0.47000000000E+01 0. -1.
         -5    1    3    3    0  502  0.28604529483E+02 -0.40633663351E+02 -0.27968616791E+03  0.28410518514E+03  0.47000000000E+01 0.  1.
        -11    1    4    4    0    0  0.17153503331E+02  0.32763559430E+02  0.48831809693E+02  0.61255523350E+02  0.00000000000E+00 0. -1.
         11    1    4    4    0    0  0.63112060426E+01 -0.98748733674E+01 -0.33162919707E+02  0.35172769143E+02  0.00000000000E+00 0.  1.
<mgrwt>
<rscale>  0 0.11588009E+03</rscale>
<asrwt>0</asrwt>
<pdfrwt beam="1">  1        1 0.10180309E-01 0.12375056E+03</pdfrwt>
<pdfrwt beam="2">  1       -1 0.64394961E-01 0.12375056E+03</pdfrwt>
<totfact> 0.15440003E+03</totfact>
</mgrwt>
</event>
<event>
 8    1  0.9424564E-006  0.1255444E+03  0.7546771E-02  0.1250363E+00
         -1   -1    0    0    0  501 -0.00000000000E+00  0.00000000000E+00  0.15080148373E+03  0.15080148373E+03  0.00000000000E+00 0.  1.
          1   -1    0    0  501    0  0.00000000000E+00 -0.00000000000E+00 -0.85399015579E+02  0.85399015579E+02  0.00000000000E+00 0. -1.
         23    2    1    2    0    0  0.28758021245E+01 -0.11346193477E+02  0.73158448834E+02  0.14530505482E+03  0.12499757588E+03 0.  0.
         23    2    1    2    0    0 -0.28758021245E+01  0.11346193477E+02 -0.77559806857E+01  0.90895444485E+02  0.89804344257E+02 0.  0.
          5    1    3    3  502    0 -0.13289153110E+02  0.54898920886E+02  0.39732477851E+02  0.69218876768E+02  0.47000000000E+01 0.  1.
         -5    1    3    3    0  502  0.16164955234E+02 -0.66245114363E+02  0.33425970983E+02  0.76086178054E+02  0.47000000000E+01 0.  1.
        -11    1    4    4    0    0  0.11053572841E+02 -0.30164617009E+02  0.21119008434E+02  0.38446041526E+02  0.00000000000E+00 0.  1.
         11    1    4    4    0    0 -0.13929374965E+02  0.41510810485E+02 -0.28874989119E+02  0.52449402959E+02  0.00000000000E+00 0. -1.
<mgrwt>
<rscale>  0 0.11570094E+03</rscale>
<asrwt>0</asrwt>
<pdfrwt beam="2">  1        1 0.13138310E-01 0.12554442E+03</pdfrwt>
<pdfrwt beam="1">  1       -1 0.23200228E-01 0.12554442E+03</pdfrwt>
<totfact> 0.66099325E+03</totfact>
</mgrwt>
</event>
<event>
 8    1  0.9424564E-006  0.1416419E+03  0.7546771E-02  0.1223114E+00
         -2   -1    0    0    0  501 -0.00000000000E+00  0.00000000000E+00  0.27409893633E+02  0.27409893633E+02  0.00000000000E+00 0.  1.
          2   -1    0    0  501    0  0.00000000000E+00 -0.00000000000E+00 -0.69238161793E+03  0.69238161793E+03  0.00000000000E+00 0. -1.
         23    2    1    2    0    0  0.29394078144E+02  0.54642298636E+02 -0.22179226616E+03  0.26316200638E+03  0.12732886415E+03 0.  0.
         23    2    1    2    0    0 -0.29394078144E+02 -0.54642298636E+02 -0.44317945814E+03  0.45662950518E+03  0.90844263738E+02 0.  0.
          5    1    3    3  502    0 -0.44755327185E+02  0.36020953026E+02 -0.13843789752E+03  0.14995896052E+03  0.47000000000E+01 0. -1.
         -5    1    3    3    0  502  0.74149405329E+02  0.18621345609E+02 -0.83354368634E+02  0.11320304587E+03  0.47000000000E+01 0.  1.
        -11    1    4    4    0    0 -0.26840558810E+02 -0.80055719179E+02 -0.33535237780E+03  0.34581866790E+03  0.00000000000E+00 0.  1.
         11    1    4    4    0    0 -0.25535193339E+01  0.25413420543E+02 -0.10782708034E+03  0.11081083728E+03  0.00000000000E+00 0. -1.
<mgrwt>
<rscale>  0 0.13296983E+03</rscale>
<asrwt>0</asrwt>
<pdfrwt beam="2">  1        2 0.10652024E+00 0.14164192E+03</pdfrwt>
<pdfrwt beam="1">  1       -2 0.42169069E-02 0.14164192E+03</pdfrwt>
<totfact> 0.10348541E+04</totfact>
</mgrwt>
</event>
<event>
 8    1  0.9424564E-006  0.2760364E+03  0.7546771E-02  0.1099820E+00
          2   -1    0    0  501    0  0.00000000000E+00  0.00000000000E+00  0.29186832795E+03  0.29186832795E+03  0.00000000000E+00 0. -1.
         -2   -1    0    0    0  501 -0.00000000000E+00 -0.00000000000E+00 -0.36892089021E+03  0.36892089021E+03  0.00000000000E+00 0.  1.
         23    2    1    2    0    0 -0.24594777389E+03 -0.56938172121E+01 -0.22802877127E+03  0.35804077746E+03  0.12519325366E+03 0.  0.
         23    2    1    2    0    0  0.24594777389E+03  0.56938172121E+01  0.15097620901E+03  0.30274844070E+03  0.91324014492E+02 0.  0.
          5    1    3    3  502    0 -0.19864468122E+03  0.29975104418E+02 -0.11812099868E+03  0.23309413676E+03  0.47000000000E+01 0.  1.
         -5    1    3    3    0  502 -0.47303092665E+02 -0.35668921631E+02 -0.10990777259E+03  0.12494664070E+03  0.47000000000E+01 0.  1.
        -11    1    4    4    0    0  0.20029255521E+03 -0.32032007060E+02  0.11016448477E+03  0.23082324591E+03  0.00000000000E+00 0.  1.
         11    1    4    4    0    0  0.45655218681E+02  0.37725824272E+02  0.40811724241E+02  0.71925194789E+02  0.00000000000E+00 0. -1.
<mgrwt>
<rscale>  0 0.27256671E+03</rscale>
<asrwt>0</asrwt>
<pdfrwt beam="1">  1        2 0.44902819E-01 0.27603637E+03</pdfrwt>
<pdfrwt beam="2">  1       -2 0.56757060E-01 0.27603637E+03</pdfrwt>
<totfact> 0.33616830E+02</totfact>
</mgrwt>
</event>
<event>
 8    1  0.9424564E-006  0.1702052E+03  0.7546771E-02  0.1184113E+00
         -2   -1    0    0    0  501 -0.00000000000E+00  0.00000000000E+00  0.19432474497E+03  0.19432474497E+03  0.00000000000E+00 0. -1.
          2   -1    0    0  501    0  0.00000000000E+00 -0.00000000000E+00 -0.22038302016E+03  0.22038302016E+03  0.00000000000E+00 0.  1.
         23    2    1    2    0    0 -0.11490234681E+03 -0.11937073276E+02  0.11930368655E+03  0.20785376399E+03  0.12499909824E+03 0.  0.
         23    2    1    2    0    0  0.11490234681E+03  0.11937073276E+02 -0.14536196173E+03  0.20685400114E+03  0.91178039289E+02 0.  0.
          5    1    3    3  502    0 -0.14005096334E+03  0.32932032508E+01  0.10267361717E+03  0.17375004800E+03  0.47000000000E+01 0. -1.
         -5    1    3    3    0  502  0.25148616531E+02 -0.15230276527E+02  0.16630069379E+02  0.34103715986E+02  0.47000000000E+01 0. -1.
        -11    1    4    4    0    0  0.75947819190E+02 -0.22058773825E+02 -0.13129064507E+03  0.15327065676E+03  0.00000000000E+00 0. -1.
         11    1    4    4    0    0  0.38954527615E+02  0.33995847101E+02 -0.14071316666E+02  0.53583344376E+02  0.00000000000E+00 0.  1.
<mgrwt>
<rscale>  0 0.16412818E+03</rscale>
<asrwt>0</asrwt>
<pdfrwt beam="2">  1        2 0.33905080E-01 0.17020522E+03</pdfrwt>
<pdfrwt beam="1">  1       -2 0.29896115E-01 0.17020522E+03</pdfrwt>
<totfact> 0.15550514E+03</totfact>
</mgrwt>
</event>
<event>
 8    1  0.9424564E-006  0.1286479E+03  0.7546771E-02  0.1243669E+00
         -2   -1    0    0    0  501 -0.00000000000E+00  0.00000000000E+00  0.37017778757E+02  0.37017778757E+02  0.00000000000E+00 0.  1.
          2   -1    0    0  501    0  0.00000000000E+00 -0.00000000000E+00 -0.34539764073E+03  0.34539764073E+03  0.00000000000E+00 0. -1.
         23    2    1    2    0    0 -0.22672167766E+02 -0.20562422423E+02 -0.15644645770E+03  0.20254818658E+03  0.12495372485E+03 0.  0.
         23    2    1    2    0    0  0.22672167766E+02  0.20562422423E+02 -0.15193340427E+03  0.17986723290E+03  0.91277717606E+02 0.  0.
          5    1    3    3  502    0 -0.26152332776E+01  0.22164621099E+02  0.13229312657E+02  0.26366922212E+02  0.47000000000E+01 0.  1.
         -5    1    3    3    0  502 -0.20056934488E+02 -0.42727043521E+02 -0.16967577036E+03  0.17618126437E+03  0.47000000000E+01 0.  1.
        -11    1    4    4    0    0 -0.12666533875E+02 -0.25380835182E+01  0.75006286185E+01  0.14937950931E+02  0.00000000000E+00 0.  1.
         11    1    4    4    0    0  0.35338701640E+02  0.23100505941E+02 -0.15943403289E+03  0.16492928197E+03  0.00000000000E+00 0. -1.
<mgrwt>
<rscale>  0 0.11965419E+03</rscale>
<asrwt>0</asrwt>
<pdfrwt beam="2">  1        2 0.53138102E-01 0.12864787E+03</pdfrwt>
<pdfrwt beam="1">  1       -2 0.56950425E-02 0.12864787E+03</pdfrwt>
<totfact> 0.14099928E+04</totfact>
</mgrwt>
</event>
<event>
 7    1  0.9424564E-006  0.1417260E+03  0.7546771E-02  0.1231527E+00
         -1   -1    0    0    0  501 -0.00000000000E+00  0.00000000000E+00  0.13440963900E+04  0.13440963900E+04  0.00000000000E+00 0.  1.
          1   -1    0    0  501    0  0.00000000000E+00 -0.00000000000E+00 -0.11471943385E+02  0.11471943385E+02  0.00000000000E+00 0. -1.
         23    2    1    2    0    0 -0.27836811122E+00  0.27176584140E+01  0.31840010751E+03  0.33148959285E+03  0.92191423423E+02 0.  0.
          5    1    1    2  502    0  0.51637432610E+02 -0.33642003679E+02  0.25135146153E+03  0.25883944072E+03  0.47000000000E+01 0. -1.
         -5    1    1    2    0  502 -0.51359064499E+02  0.30924345265E+02  0.76287287754E+03  0.76523929978E+03  0.47000000000E+01 0.  1.
        -11    1    3    3    0    0 -0.17661808763E+02 -0.38121430130E+02  0.97378727823E+02  0.10605564368E+03  0.00000000000E+00 0. -1.
         11    1    3    3    0    0  0.17383440652E+02  0.40839088544E+02  0.22102137969E+03  0.22543394917E+03  0.00000000000E+00 0.  1.
<mgrwt>
<rscale>  0 0.12729385E+03</rscale>
<asrwt>0</asrwt>
<pdfrwt beam="2">  1        1 0.17649154E-02 0.14172599E+03</pdfrwt>
<pdfrwt beam="1">  1       -1 0.20678394E+00 0.14172599E+03</pdfrwt>
<totfact> 0.10670257E+03</totfact>
</mgrwt>
</event>
<event>
 8    1  0.9424564E-006  0.1428324E+03  0.7546771E-02  0.1220317E+00
          3   -1    0    0  501    0  0.00000000000E+00  0.00000000000E+00  0.64366900412E+03  0.64366900412E+03  0.00000000000E+00 0. -1.
         -3   -1    0    0    0  501 -0.00000000000E+00 -0.00000000000E+00 -0.30120221869E+02  0.30120221869E+02  0.00000000000E+00 0.  1.
         23    2    1    2    0    0 -0.64474229256E+02  0.24895312340E+02  0.20607561051E+03  0.25073544453E+03  0.12499761230E+03 0.  0.
         23    2    1    2    0    0  0.64474229256E+02 -0.24895312340E+02  0.40747317174E+03  0.42305378146E+03  0.90351610413E+02 0.  0.
          5    1    3    3  502    0  0.25808819219E+02  0.70995106582E+01  0.25156864377E+01  0.27293165432E+02  0.47000000000E+01 0. -1.
         -5    1    3    3    0  502 -0.90283048475E+02  0.17795801682E+02  0.20355992407E+03  0.22344227910E+03  0.47000000000E+01 0. -1.
        -11    1    4    4    0    0  0.20089363825E+02  0.21260771064E+02  0.37393174811E+02  0.47474755898E+02  0.00000000000E+00 0.  1.
         11    1    4    4    0    0  0.44384865431E+02 -0.46156083404E+02  0.37007999693E+03  0.37557902556E+03  0.00000000000E+00 0. -1.
<mgrwt>
<rscale>  0 0.13493121E+03</rscale>
<asrwt>0</asrwt>
<pdfrwt beam="1">  1        3 0.99025990E-01 0.14283244E+03</pdfrwt>
<pdfrwt beam="2">  1       -3 0.46338808E-02 0.14283244E+03</pdfrwt>
<totfact> 0.55733182E+02</totfact>
</mgrwt>
</event>
<event>
 8    1  0.9424564E-006  0.1350559E+03  0.7546771E-02  0.1232473E+00
          1   -1    0    0  501    0  0.00000000000E+00  0.00000000000E+00  0.16942521651E+03  0.16942521651E+03  0.00000000000E+00 0. -1.
         -1   -1    0    0    0  501 -0.00000000000E+00 -0.00000000000E+00 -0.15943881048E+03  0.15943881048E+03  0.00000000000E+00 0.  1.
         23    2    1    2    0    0 -0.31005436937E+02  0.40669910604E+02 -0.10676338292E+03  0.17215841147E+03  0.12499887983E+03 0.  0.
         23    2    1    2    0    0  0.31005436937E+02 -0.40669910604E+02  0.11674978896E+03  0.15670561552E+03  0.91163358688E+02 0.  0.
          5    1    3    3  502    0  0.33874874396E+02  0.30751395155E+02  0.87486945047E+00  0.46000117564E+02  0.47000000000E+01 0. -1.
         -5    1    3    3    0  502 -0.64880311333E+02  0.99185154487E+01 -0.10763825237E+03  0.12615829391E+03  0.47000000000E+01 0. -1.
        -11    1    4    4    0    0 -0.10856687590E+02 -0.73478032988E+01 -0.11691474726E+02  0.17565547530E+02  0.00000000000E+00 0.  1.
         11    1    4    4    0    0  0.41862124527E+02 -0.33322107305E+02  0.12844126368E+03  0.13914006799E+03  0.00000000000E+00 0. -1.
<mgrwt>
<rscale>  0 0.12667576E+03</rscale>
<asrwt>0</asrwt>
<pdfrwt beam="1">  1        1 0.26065418E-01 0.13505591E+03</pdfrwt>
<pdfrwt beam="2">  1       -1 0.24529048E-01 0.13505591E+03</pdfrwt>
<totfact> 0.25286455E+03</totfact>
</mgrwt>
</event>
<event>
 8    1  0.9424564E-006  0.1343535E+03  0.7546771E-02  0.1234523E+00
         -2   -1    0    0    0  501 -0.00000000000E+00  0.00000000000E+00  0.30784210743E+02  0.30784210743E+02  0.00000000000E+00 0.  1.
          2   -1    0    0  501    0  0.00000000000E+00 -0.00000000000E+00 -0.46208131726E+03  0.46208131726E+03  0.00000000000E+00 0. -1.
         23    2    1    2    0    0  0.13845810632E+02  0.47262048847E+02 -0.21038134908E+03  0.24962205644E+03  0.12500180514E+03 0.  0.
         23    2    1    2    0    0 -0.13845810632E+02 -0.47262048847E+02 -0.22091575743E+03  0.24324347156E+03  0.89096615207E+02 0.  0.
          5    1    3    3  502    0  0.21308081808E+02  0.76936481273E+02 -0.20243888507E+03  0.21766223533E+03  0.47000000000E+01 0. -1.
         -5    1    3    3    0  502 -0.74622711761E+01 -0.29674432426E+02 -0.79424640155E+01  0.31959821113E+02  0.47000000000E+01 0. -1.
        -11    1    4    4    0    0 -0.13977550214E+02 -0.70096158116E+02 -0.19957785693E+03  0.21199095327E+03  0.00000000000E+00 0. -1.
         11    1    4    4    0    0  0.13173958205E+00  0.22834109269E+02 -0.21337900500E+02  0.31252518286E+02  0.00000000000E+00 0.  1.
<mgrwt>
<rscale>  0 0.12535037E+03</rscale>
<asrwt>0</asrwt>
<pdfrwt beam="2">  1        2 0.71089434E-01 0.13435349E+03</pdfrwt>
<pdfrwt beam="1">  1       -2 0.47360324E-02 0.13435349E+03</pdfrwt>
<totfact> 0.13676305E+04</totfact>
</mgrwt>
</event>
<event>
 8    1  0.9424564E-006  0.1732777E+03  0.7546771E-02  0.1180606E+00
          2   -1    0    0  501    0  0.00000000000E+00  0.00000000000E+00  0.94090488286E+02  0.94090488286E+02  0.00000000000E+00 0. -1.
         -2   -1    0    0    0  501 -0.00000000000E+00 -0.00000000000E+00 -0.29117585103E+03  0.29117585103E+03  0.00000000000E+00 0.  1.
         23    2    1    2    0    0 -0.11991419811E+03 -0.45411535833E+01 -0.14408942107E+03  0.22535954300E+03  0.12500050149E+03 0.  0.
         23    2    1    2    0    0  0.11991419811E+03  0.45411535833E+01 -0.52995941678E+02  0.15990679632E+03  0.91441657294E+02 0.  0.
          5    1    3    3  502    0 -0.61876740811E+02 -0.53596473050E+02 -0.12031075174E+03  0.14559560420E+03  0.47000000000E+01 0. -1.
         -5    1    3    3    0  502 -0.58037457304E+02  0.49055319466E+02 -0.23778669322E+02  0.79763938801E+02  0.47000000000E+01 0. -1.
        -11    1    4    4    0    0 -0.11309178172E+02  0.14967168187E+02 -0.10933421870E+02  0.21712976494E+02  0.00000000000E+00 0. -1.
         11    1    4    4    0    0  0.13122337629E+03 -0.10426014603E+02 -0.42062519808E+02  0.13819381982E+03  0.00000000000E+00 0.  1.
<mgrwt>
<rscale>  0 0.16738148E+03</rscale>
<asrwt>0</asrwt>
<pdfrwt beam="1">  1        2 0.14475460E-01 0.17327770E+03</pdfrwt>
<pdfrwt beam="2">  1       -2 0.44796285E-01 0.17327770E+03</pdfrwt>
<totfact> 0.19056530E+03</totfact>
</mgrwt>
</event>
<event>
 8    1  0.9424564E-006  0.1444067E+03  0.7546771E-02  0.1219491E+00
          2   -1    0    0  501    0  0.00000000000E+00  0.00000000000E+00  0.56398085630E+03  0.56398085630E+03  0.00000000000E+00 0. -1.
         -2   -1    0    0    0  501 -0.00000000000E+00 -0.00000000000E+00 -0.31513937306E+02  0.31513937306E+02  0.00000000000E+00 0.  1.
         23    2    1    2    0    0  0.70274872499E+02 -0.17063009632E+02  0.21628573862E+03  0.26006311853E+03  0.12499440343E+03 0.  0.
         23    2    1    2    0    0 -0.70274872499E+02  0.17063009632E+02  0.31618118037E+03  0.33543167507E+03  0.85522896454E+02 0.  0.
          5    1    3    3  502    0  0.98964001664E+02  0.61639229067E+01  0.11369341776E+03  0.15093094717E+03  0.47000000000E+01 0.  1.
         -5    1    3    3    0  502 -0.28689129166E+02 -0.23226932539E+02  0.10259232086E+03  0.10913217136E+03  0.47000000000E+01 0.  1.
        -11    1    4    4    0    0 -0.60500819355E+02  0.43928520612E+02  0.27710502299E+03  0.28701438611E+03  0.00000000000E+00 0. -1.
         11    1    4    4    0    0 -0.97740531435E+01 -0.26865510980E+02  0.39076157385E+02  0.48417288969E+02  0.00000000000E+00 0.  1.
<mgrwt>
<rscale>  0 0.13551723E+03</rscale>
<asrwt>0</asrwt>
<pdfrwt beam="1">  1        2 0.86766278E-01 0.14440673E+03</pdfrwt>
<pdfrwt beam="2">  1       -2 0.48482985E-02 0.14440673E+03</pdfrwt>
<totfact> 0.10652720E+04</totfact>
</mgrwt>
</event>
<event>
 8    1  0.9424564E-006  0.1807067E+03  0.7546771E-02  0.1172753E+00
          1   -1    0    0  501    0  0.00000000000E+00  0.00000000000E+00  0.19743746631E+04  0.19743746631E+04  0.00000000000E+00 0. -1.
         -1   -1    0    0    0  501 -0.00000000000E+00 -0.00000000000E+00 -0.14864194338E+02  0.14864194338E+02  0.00000000000E+00 0.  1.
         23    2    1    2    0    0 -0.84375226131E+02  0.99560646806E+02  0.11739124203E+04  0.11877395623E+04  0.12499358401E+03 0.  0.
         23    2    1    2    0    0  0.84375226131E+02 -0.99560646806E+02  0.78559804845E+03  0.80149929517E+03  0.90583250382E+02 0.  0.
          5    1    3    3  502    0 -0.84673543030E+02  0.86716672661E+02  0.11652540914E+04  0.11715496480E+04  0.47000000000E+01 0. -1.
         -5    1    3    3    0  502  0.29831689929E+00  0.12843974145E+02  0.86583289314E+01  0.16189914289E+02  0.47000000000E+01 0. -1.
        -11    1    4    4    0    0  0.17261684470E+02  0.16107953005E+02  0.83240142337E+02  0.86523714651E+02  0.00000000000E+00 0. -1.
         11    1    4    4    0    0  0.67113541660E+02 -0.11566859981E+03  0.70235790611E+03  0.71497558051E+03  0.00000000000E+00 0.  1.
<mgrwt>
<rscale>  0 0.17497861E+03</rscale>
<asrwt>0</asrwt>
<pdfrwt beam="1">  1        1 0.30374974E+00 0.18070666E+03</pdfrwt>
<pdfrwt beam="2">  1       -1 0.22868007E-02 0.18070666E+03</pdfrwt>
<totfact> 0.19785098E+03</totfact>
</mgrwt>
</event>
<event>
 8    1  0.9424564E-006  0.1296930E+03  0.7546771E-02  0.1245455E+00
         -2   -1    0    0    0  501 -0.00000000000E+00  0.00000000000E+00  0.38028736632E+02  0.38028736632E+02  0.00000000000E+00 0.  1.
          2   -1    0    0  501    0  0.00000000000E+00 -0.00000000000E+00 -0.33794782091E+03  0.33794782091E+03  0.00000000000E+00 0. -1.
         23    2    1    2    0    0 -0.34139594526E+02 -0.55582721283E+01 -0.13138370467E+03  0.18461294754E+03  0.12499542489E+03 0.  0.
         23    2    1    2    0    0  0.34139594526E+02  0.55582721283E+01 -0.16853537962E+03  0.19136361001E+03  0.83782162480E+02 0.  0.
          5    1    3    3  502    0 -0.17530022579E+02 -0.45137032557E+02 -0.25277500003E+01  0.48714812119E+02  0.47000000000E+01 0.  1.
         -5    1    3    3    0  502 -0.16609571947E+02  0.39578760429E+02 -0.12885595467E+03  0.13589813542E+03  0.47000000000E+01 0.  1.
        -11    1    4    4    0    0  0.38532919125E+02  0.36211036921E+02 -0.67833424919E+02  0.86008130938E+02  0.00000000000E+00 0.  1.
         11    1    4    4    0    0 -0.43933245989E+01 -0.30652764793E+02 -0.10070195470E+03  0.10535547907E+03  0.00000000000E+00 0. -1.
<mgrwt>
<rscale>  0 0.11858203E+03</rscale>
<asrwt>0</asrwt>
<pdfrwt beam="2">  1        2 0.51991971E-01 0.12969295E+03</pdfrwt>
<pdfrwt beam="1">  1       -2 0.58505750E-02 0.12969295E+03</pdfrwt>
<totfact> 0.13863390E+04</totfact>
</mgrwt>
</event>
<event>
 8    1  0.9424564E-006  0.1272234E+03  0.7546771E-02  0.1249096E+00
         -3   -1    0    0    0  501 -0.00000000000E+00  0.00000000000E+00  0.17496771061E+03  0.17496771061E+03  0.00000000000E+00 0.  1.
          3   -1    0    0  501    0  0.00000000000E+00 -0.00000000000E+00 -0.86068495839E+02  0.86068495839E+02  0.00000000000E+00 0. -1.
         23    2    1    2    0    0 -0.41741368021E+01 -0.23319297285E+02  0.11127255174E+03  0.16901882420E+03  0.12499827647E+03 0.  0.
         23    2    1    2    0    0  0.41741368021E+01  0.23319297285E+02 -0.22373336969E+02  0.92017382243E+02  0.86054746434E+02 0.  0.
          5    1    3    3  502    0 -0.27483953057E+02 -0.63688397774E+02  0.98304486442E+02  0.12040532273E+03  0.47000000000E+01 0.  1.
         -5    1    3    3    0  502  0.23309816255E+02  0.40369100489E+02  0.12968065295E+02  0.48613501475E+02  0.47000000000E+01 0.  1.
        -11    1    4    4    0    0  0.12609162525E+02  0.29763830288E+02  0.26627711418E+02  0.41879727654E+02  0.00000000000E+00 0.  1.
         11    1    4    4    0    0 -0.84350257230E+01 -0.64445330035E+01 -0.49001048388E+02  0.50137654589E+02  0.00000000000E+00 0. -1.
<mgrwt>
<rscale>  0 0.11643525E+03</rscale>
<asrwt>0</asrwt>
<pdfrwt beam="2">  1        3 0.13241307E-01 0.12722336E+03</pdfrwt>
<pdfrwt beam="1">  1       -3 0.26918109E-01 0.12722336E+03</pdfrwt>
<totfact> 0.13722137E+03</totfact>
</mgrwt>
</event>
<event>
 8    1  0.9424564E-006  0.1611315E+03  0.7546771E-02  0.1194289E+00
         -2   -1    0    0    0  501 -0.00000000000E+00  0.00000000000E+00  0.27880347148E+02  0.27880347148E+02  0.00000000000E+00 0.  1.
          2   -1    0    0  501    0  0.00000000000E+00 -0.00000000000E+00 -0.10179994997E+04  0.10179994997E+04  0.00000000000E+00 0. -1.
         23    2    1    2    0    0  0.63640319190E+02  0.79301076734E+02 -0.28596979702E+03  0.32824089101E+03  0.12499842690E+03 0.  0.
         23    2    1    2    0    0 -0.63640319190E+02 -0.79301076734E+02 -0.70414935552E+03  0.71763895583E+03  0.94024491693E+02 0.  0.
          5    1    3    3  502    0  0.93589249907E+02  0.89063634043E+02 -0.22869174321E+03  0.26270379141E+03  0.47000000000E+01 0.  1.
         -5    1    3    3    0  502 -0.29948930718E+02 -0.97625573086E+01 -0.57278053807E+02  0.65537099602E+02  0.47000000000E+01 0.  1.
        -11    1    4    4    0    0  0.15472961482E+02 -0.52266291748E+02 -0.25246947489E+03  0.25828668866E+03  0.00000000000E+00 0.  1.
         11    1    4    4    0    0 -0.79113280671E+02 -0.27034784986E+02 -0.45167988064E+03  0.45935226717E+03  0.00000000000E+00 0. -1.
<mgrwt>
<rscale>  0 0.15514564E+03</rscale>
<asrwt>0</asrwt>
<pdfrwt beam="2">  1        2 0.15661531E+00 0.16113149E+03</pdfrwt>
<pdfrwt beam="1">  1       -2 0.42892841E-02 0.16113149E+03</pdfrwt>
<totfact> 0.62014479E+03</totfact>
</mgrwt>
</event>
<event>
 7    1  0.9424564E-006  0.1834093E+03  0.7546771E-02  0.1175355E+00
          2   -1    0    0  501    0  0.00000000000E+00  0.00000000000E+00  0.43371977509E+03  0.43371977509E+03  0.00000000000E+00 0. -1.
         -2   -1    0    0    0  501 -0.00000000000E+00 -0.00000000000E+00 -0.92912339024E+02  0.92912339024E+02  0.00000000000E+00 0.  1.
         23    2    1    2    0    0  0.11997171196E+02 -0.11025174206E+03  0.30887247282E+03  0.34046338392E+03  0.90629645172E+02 0.  0.
          5    1    1    2  502    0 -0.28281383471E+02  0.18140012023E+02  0.75576488068E+02  0.82841971463E+02  0.47000000000E+01 0. -1.
         -5    1    1    2    0  502  0.16284212275E+02  0.92111730037E+02 -0.43641524823E+02  0.10332675873E+03  0.47000000000E+01 0.  1.
        -11    1    3    3    0    0 -0.18580887442E+01 -0.12146810545E+03  0.29043161356E+03  0.31481498581E+03  0.00000000000E+00 0. -1.
         11    1    3    3    0    0  0.13855259940E+02  0.11216363387E+02  0.18440859253E+02  0.25648398110E+02  0.00000000000E+00 0.  1.
<mgrwt>
<rscale>  0 0.17241295E+03</rscale>
<asrwt>0</asrwt>
<pdfrwt beam="1">  1        2 0.66726118E-01 0.18340925E+03</pdfrwt>
<pdfrwt beam="2">  1       -2 0.14294206E-01 0.18340925E+03</pdfrwt>
<totfact> 0.26671881E+03</totfact>
</mgrwt>
</event>
<event>
 8    1  0.9424564E-006  0.1966131E+03  0.7546771E-02  0.1157248E+00
         -1   -1    0    0    0  501 -0.00000000000E+00  0.00000000000E+00  0.33966174559E+03  0.33966174559E+03  0.00000000000E+00 0.  1.
          1   -1    0    0  501    0  0.00000000000E+00 -0.00000000000E+00 -0.10403737466E+03  0.10403737466E+03  0.00000000000E+00 0. -1.
         23    2    1    2    0    0 -0.15130622817E+03  0.11641731835E+02  0.15181498001E+03  0.24840393348E+03  0.12501048521E+03 0.  0.
         23    2    1    2    0    0  0.15130622817E+03 -0.11641731835E+02  0.83809390927E+02  0.19529518677E+03  0.89928256782E+02 0.  0.
          5    1    3    3  502    0 -0.14933965267E+03 -0.26517697352E+02  0.92587496364E+02  0.17776404196E+03  0.47000000000E+01 0.  1.
         -5    1    3    3    0  502 -0.19665754959E+01  0.38159429187E+02  0.59227483642E+02  0.70639891517E+02  0.47000000000E+01 0.  1.
        -11    1    4    4    0    0  0.39639174736E+02 -0.17463430897E+02 -0.15237443062E+02  0.45917483201E+02  0.00000000000E+00 0. -1.
         11    1    4    4    0    0  0.11166705343E+03  0.58216990624E+01  0.99046833989E+02  0.14937770357E+03  0.00000000000E+00 0.  1.
<mgrwt>
<rscale>  0 0.19135187E+03</rscale>
<asrwt>0</asrwt>
<pdfrwt beam="2">  1        1 0.16005750E-01 0.19661314E+03</pdfrwt>
<pdfrwt beam="1">  1       -1 0.52255653E-01 0.19661314E+03</pdfrwt>
<totfact> 0.12837334E+03</totfact>
</mgrwt>
</event>
<event>
 8    1  0.9424564E-006  0.1451531E+03  0.7546771E-02  0.1215311E+00
          4   -1    0    0  501    0  0.00000000000E+00  0.00000000000E+00  0.20248303430E+02  0.20248303430E+02  0.00000000000E+00 0. -1.
         -4   -1    0    0    0  501 -0.00000000000E+00 -0.00000000000E+00 -0.10172308302E+04  0.10172308302E+04  0.00000000000E+00 0.  1.
         23    2    1    2    0    0 -0.95329087650E+01 -0.73118687364E+02 -0.73417197777E+03  0.74838354117E+03  0.12502884851E+03 0.  0.
         23    2    1    2    0    0  0.95329087650E+01  0.73118687364E+02 -0.26281054903E+03  0.28909559250E+03  0.95234752716E+02 0.  0.
          5    1    3    3  502    0 -0.55457220162E+02 -0.61783472186E+02 -0.60603768282E+03  0.61171599922E+03  0.47000000000E+01 0. -1.
         -5    1    3    3    0  502  0.45924311397E+02 -0.11335215177E+02 -0.12813429495E+03  0.13666754195E+03  0.47000000000E+01 0. -1.
        -11    1    4    4    0    0  0.10007327436E+02  0.43835919186E+02 -0.25479490056E+03  0.25873186075E+03  0.00000000000E+00 0.  1.
         11    1    4    4    0    0 -0.47441867101E+00  0.29282768178E+02 -0.80156484731E+01  0.30363731748E+02  0.00000000000E+00 0. -1.
<mgrwt>
<rscale>  0 0.13853725E+03</rscale>
<asrwt>0</asrwt>
<pdfrwt beam="1">  1        4 0.31151244E-02 0.14515313E+03</pdfrwt>
<pdfrwt beam="2">  1       -4 0.15649701E+00 0.14515313E+03</pdfrwt>
<totfact> 0.24535239E+02</totfact>
</mgrwt>
</event>
<event>
 8    1  0.9424564E-006  0.1253019E+03  0.7546771E-02  0.1249466E+00
         -1   -1    0    0    0  501 -0.00000000000E+00  0.00000000000E+00  0.63953612670E+02  0.63953612670E+02  0.00000000000E+00 0.  1.
          1   -1    0    0  501    0  0.00000000000E+00 -0.00000000000E+00 -0.19662335621E+03  0.19662335621E+03  0.00000000000E+00 0. -1.
         23    2    1    2    0    0  0.85900344868E+01 -0.13979802024E+01 -0.45514626604E+02  0.13331224754E+03  0.12499932427E+03 0.  0.
         23    2    1    2    0    0 -0.85900344868E+01  0.13979802024E+01 -0.87155116940E+02  0.12726472135E+03  0.92328499660E+02 0.  0.
          5    1    3    3  502    0  0.43466967592E+01 -0.46293659970E+02 -0.68150979069E+02  0.82635601736E+02  0.47000000000E+01 0.  1.
         -5    1    3    3    0  502  0.42433377276E+01  0.44895679767E+02  0.22636352465E+02  0.50676645802E+02  0.47000000000E+01 0.  1.
        -11    1    4    4    0    0 -0.30324573153E+02 -0.10185295331E+02  0.45488310330E+01  0.32311172087E+02  0.00000000000E+00 0.  1.
         11    1    4    4    0    0  0.21734538666E+02  0.11583275533E+02 -0.91703947973E+02  0.94953549260E+02  0.00000000000E+00 0. -1.
<mgrwt>
<rscale>  0 0.11622043E+03</rscale>
<asrwt>0</asrwt>
<pdfrwt beam="2">  1        1 0.30249747E-01 0.12530193E+03</pdfrwt>
<pdfrwt beam="1">  1       -1 0.98390174E-02 0.12530193E+03</pdfrwt>
<totfact> 0.87988283E+03</totfact>
</mgrwt>
</event>
<event>
 8    1  0.9424564E-006  0.1478098E+03  0.7546771E-02  0.1213081E+00
          2   -1    0    0  501    0  0.00000000000E+00  0.00000000000E+00  0.37830374756E+03  0.37830374756E+03  0.00000000000E+00 0. -1.
         -2   -1    0    0    0  501 -0.00000000000E+00 -0.00000000000E+00 -0.57129927175E+02  0.57129927175E+02  0.00000000000E+00 0.  1.
         23    2    1    2    0    0  0.72916892057E+01  0.78550826202E+02  0.84492164552E+02  0.17025466456E+03  0.12499729560E+03 0.  0.
         23    2    1    2    0    0 -0.72916892057E+01 -0.78550826202E+02  0.23668165583E+03  0.26517901017E+03  0.89879364701E+02 0.  0.
          5    1    3    3  502    0  0.62646943795E+02  0.49106278149E+02  0.69124157424E+02  0.10552869401E+03  0.47000000000E+01 0.  1.
         -5    1    3    3    0  502 -0.55355254589E+02  0.29444548053E+02  0.15368007127E+02  0.64725970551E+02  0.47000000000E+01 0.  1.
        -11    1    4    4    0    0  0.22809625272E+02 -0.85598177394E+02  0.17985388667E+03  0.20048627766E+03  0.00000000000E+00 0.  1.
         11    1    4    4    0    0 -0.30101314478E+02  0.70473511923E+01  0.56827769158E+02  0.64692732510E+02  0.00000000000E+00 0. -1.
<mgrwt>
<rscale>  0 0.14018476E+03</rscale>
<asrwt>0</asrwt>
<pdfrwt beam="1">  1        2 0.58200575E-01 0.14780976E+03</pdfrwt>
<pdfrwt beam="2">  1       -2 0.87892198E-02 0.14780976E+03</pdfrwt>
<totfact> 0.66467865E+03</totfact>
</mgrwt>
</event>
<event>
 7    1  0.9424564E-006  0.3311792E+03  0.7546771E-02  0.1091414E+00
          1   -1    0    0  501    0  0.00000000000E+00  0.00000000000E+00  0.87329023026E+03  0.87329023026E+03  0.00000000000E+00 0. -1.
         -1   -1    0    0    0  501 -0.00000000000E+00 -0.00000000000E+00 -0.81659814045E+02  0.81659814045E+02  0.00000000000E+00 0.  1.
         23    2    1    2    0    0 -0.16135967891E+03 -0.35910115290E+02  0.39653669481E+03  0.43941271951E+03  0.92280579633E+02 0.  0.
          5    1    1    2  502    0  0.64455946247E+02 -0.89877148910E+02  0.32233192543E+03  0.34081143034E+03  0.47000000000E+01 0. -1.
         -5    1    1    2    0  502  0.96903732661E+02  0.12578726420E+03  0.72761795979E+02  0.17472589445E+03  0.47000000000E+01 0.  1.
        -11    1    3    3    0    0 -0.17446445635E+01 -0.28433334285E+02  0.44922084533E+02  0.53192969103E+02  0.00000000000E+00 0.  1.
         11    1    3    3    0    0 -0.15961503435E+03 -0.74767810056E+01  0.35161461028E+03  0.38621975041E+03  0.00000000000E+00 0. -1.
<mgrwt>
<rscale>  0 0.28796960E+03</rscale>
<asrwt>0</asrwt>
<pdfrwt beam="1">  1        1 0.13435234E+00 0.33117923E+03</pdfrwt>
<pdfrwt beam="2">  1       -1 0.12563049E-01 0.33117923E+03</pdfrwt>
<totfact> 0.85480468E+02</totfact>
</mgrwt>
</event>
<event>
 8    1  0.9424564E-006  0.1781469E+03  0.7546771E-02  0.1175926E+00
          1   -1    0    0  501    0  0.00000000000E+00  0.00000000000E+00  0.30030649299E+03  0.30030649299E+03  0.00000000000E+00 0. -1.
         -1   -1    0    0    0  501 -0.00000000000E+00 -0.00000000000E+00 -0.92237207692E+02  0.92237207692E+02  0.00000000000E+00 0.  1.
         23    2    1    2    0    0  0.42191151420E+02 -0.11971452508E+03  0.10151093276E+03  0.20503847305E+03  0.12499858074E+03 0.  0.
         23    2    1    2    0    0 -0.42191151420E+02  0.11971452508E+03  0.10655835254E+03  0.18750522763E+03  0.87703290247E+02 0.  0.
          5    1    3    3  502    0 -0.41974671194E+02 -0.19050976078E+02  0.19776395141E+02  0.50378651393E+02  0.47000000000E+01 0. -1.
         -5    1    3    3    0  502  0.84165822614E+02 -0.10066354901E+03  0.81734537621E+02  0.15465982166E+03  0.47000000000E+01 0. -1.
        -11    1    4    4    0    0 -0.37400651672E+02  0.82865648993E+01  0.48387761689E+02  0.61715892480E+02  0.00000000000E+00 0. -1.
         11    1    4    4    0    0 -0.47904997487E+01  0.11142796019E+03  0.58170590848E+02  0.12578933515E+03  0.00000000000E+00 0.  1.
<mgrwt>
<rscale>  0 0.17185565E+03</rscale>
<asrwt>0</asrwt>
<pdfrwt beam="1">  1        1 0.46200998E-01 0.17814687E+03</pdfrwt>
<pdfrwt beam="2">  1       -1 0.14190340E-01 0.17814687E+03</pdfrwt>
<totfact> 0.30134620E+03</totfact>
</mgrwt>
</event>
<event>
 8    1  0.9424564E-006  0.1332879E+03  0.7546771E-02  0.1235365E+00
         -2   -1    0    0    0  501 -0.00000000000E+00  0.00000000000E+00  0.17200605664E+02  0.17200605664E+02  0.00000000000E+00 0.  1.
          2   -1    0    0  501    0  0.00000000000E+00 -0.00000000000E+00 -0.80836911358E+03  0.80836911358E+03  0.00000000000E+00 0. -1.
         23    2    1    2    0    0 -0.32283444820E+02 -0.33085631649E+02 -0.45701940037E+03  0.47605922915E+03  0.12501510914E+03 0.  0.
         23    2    1    2    0    0  0.32283444820E+02  0.33085631649E+02 -0.33414910754E+03  0.34951049009E+03  0.91460793680E+02 0.  0.
          5    1    3    3  502    0 -0.29644849782E+02 -0.71599100950E+02 -0.17600976667E+03  0.19237145407E+03  0.47000000000E+01 0.  1.
         -5    1    3    3    0  502 -0.26385950377E+01  0.38513469301E+02 -0.28100963370E+03  0.28368777509E+03  0.47000000000E+01 0.  1.
        -11    1    4    4    0    0 -0.81517335863E+01 -0.24771377369E+02 -0.46359741097E+02  0.53191141103E+02  0.00000000000E+00 0.  1.
         11    1    4    4    0    0  0.40435178406E+02  0.57857009018E+02 -0.28778936645E+03  0.29631934899E+03  0.00000000000E+00 0. -1.
<mgrwt>
<rscale>  0 0.12481068E+03</rscale>
<asrwt>0</asrwt>
<pdfrwt beam="2">  1        2 0.12436449E+00 0.13328787E+03</pdfrwt>
<pdfrwt beam="1">  1       -2 0.26462467E-02 0.13328787E+03</pdfrwt>
<totfact> 0.16986124E+04</totfact>
</mgrwt>
</event>
<event>
 8    1  0.9424564E-006  0.1282815E+03  0.7546771E-02  0.1244070E+00
         -1   -1    0    0    0  501 -0.00000000000E+00  0.00000000000E+00  0.47959786661E+02  0.47959786661E+02  0.00000000000E+00 0.  1.
          1   -1    0    0  501    0  0.00000000000E+00 -0.00000000000E+00 -0.26484517090E+03  0.26484517090E+03  0.00000000000E+00 0. -1.
         23    2    1    2    0    0  0.26774047130E+01 -0.28693124288E+02 -0.11067882875E+03  0.16942828739E+03  0.12500271020E+03 0.  0.
         23    2    1    2    0    0 -0.26774047130E+01  0.28693124288E+02 -0.10620655548E+03  0.14337667017E+03  0.91905240566E+02 0.  0.
          5    1    3    3  502    0 -0.37156492656E+02  0.20915807239E+02 -0.14351614734E+01  0.42921155942E+02  0.47000000000E+01 0.  1.
         -5    1    3    3    0  502  0.39833897368E+02 -0.49608931527E+02 -0.10924366728E+03  0.12650713145E+03  0.47000000000E+01 0.  1.
        -11    1    4    4    0    0  0.23603151513E+02 -0.22815035951E+02 -0.63524241145E+02  0.71504991713E+02  0.00000000000E+00 0.  1.
         11    1    4    4    0    0 -0.26280556226E+02  0.51508160239E+02 -0.42682314338E+02  0.71871678455E+02  0.00000000000E+00 0. -1.
<mgrwt>
<rscale>  0 0.11941233E+03</rscale>
<asrwt>0</asrwt>
<pdfrwt beam="2">  1        1 0.40745411E-01 0.12828149E+03</pdfrwt>
<pdfrwt beam="1">  1       -1 0.73784287E-02 0.12828149E+03</pdfrwt>
<totfact> 0.94221031E+03</totfact>
</mgrwt>
</event>
<event>
 8    1  0.9424564E-006  0.1353259E+03  0.7546771E-02  0.1232090E+00
          1   -1    0    0  501    0  0.00000000000E+00  0.00000000000E+00  0.90232543413E+02  0.90232543413E+02  0.00000000000E+00 0. -1.
         -1   -1    0    0    0  501 -0.00000000000E+00 -0.00000000000E+00 -0.16573211682E+03  0.16573211682E+03  0.00000000000E+00 0.  1.
         23    2    1    2    0    0  0.37085423095E+02 -0.36211653184E+02 -0.66696231322E+02  0.15086909009E+03  0.12500593041E+03 0.  0.
         23    2    1    2    0    0 -0.37085423095E+02  0.36211653184E+02 -0.88033420804E+01  0.10509557014E+03  0.90999821975E+02 0.  0.
          5    1    3    3  502    0  0.75083741428E+02 -0.33708232621E+02 -0.75182716185E+02  0.11157214700E+03  0.47000000000E+01 0.  1.
         -5    1    3    3    0  502 -0.37998318332E+02 -0.25034205628E+01  0.84864848623E+01  0.39296943086E+02  0.47000000000E+01 0.  1.
        -11    1    4    4    0    0  0.11271773818E+02  0.17947328813E+02  0.32588698474E+02  0.38873934258E+02  0.00000000000E+00 0. -1.
         11    1    4    4    0    0 -0.48357196913E+02  0.18264324371E+02 -0.41392040554E+02  0.66221635885E+02  0.00000000000E+00 0.  1.
<mgrwt>
<rscale>  0 0.12692568E+03</rscale>
<asrwt>0</asrwt>
<pdfrwt beam="1">  1        1 0.13881930E-01 0.13532588E+03</pdfrwt>
<pdfrwt beam="2">  1       -1 0.25497249E-01 0.13532588E+03</pdfrwt>
<totfact> 0.53002749E+03</totfact>
</mgrwt>
</event>
<event>
 8    1  0.9424564E-006  0.1679042E+03  0.7546771E-02  0.1185964E+00
         -1   -1    0    0    0  501 -0.00000000000E+00  0.00000000000E+00  0.80343704461E+03  0.80343704461E+03  0.00000000000E+00 0.  1.
          1   -1    0    0  501    0  0.00000000000E+00 -0.00000000000E+00 -0.35922749176E+02  0.35922749176E+02  0.00000000000E+00 0. -1.
         23    2    1    2    0    0  0.24645493091E+02  0.11201612192E+03  0.56251098031E+03  0.58703527516E+03  0.12262462808E+03 0.  0.
         23    2    1    2    0    0 -0.24645493091E+02 -0.11201612192E+03  0.20500331512E+03  0.25232451863E+03  0.92121070282E+02 0.  0.
          5    1    3    3  502    0  0.46085332883E+02  0.10867725453E+03  0.54781920063E+03  0.56041285686E+03  0.47000000000E+01 0. -1.
         -5    1    3    3    0  502 -0.21439839793E+02  0.33388673910E+01  0.14691779681E+02  0.26622418297E+02  0.47000000000E+01 0.  1.
        -11    1    4    4    0    0  0.30193306391E+02 -0.67166166272E+02  0.12814158755E+03  0.14779443867E+03  0.00000000000E+00 0.  1.
         11    1    4    4    0    0 -0.54838799482E+02 -0.44849955646E+02  0.76861727576E+02  0.10453007996E+03  0.00000000000E+00 0. -1.
<mgrwt>
<rscale>  0 0.16244507E+03</rscale>
<asrwt>0</asrwt>
<pdfrwt beam="2">  1        1 0.55265774E-02 0.16790417E+03</pdfrwt>
<pdfrwt beam="1">  1       -1 0.12360569E+00 0.16790417E+03</pdfrwt>
<totfact> 0.88341416E+02</totfact>
</mgrwt>
</event>
<event>
 7    1  0.9424564E-006  0.1626771E+03  0.7546771E-02  0.1195773E+00
         -1   -1    0    0    0  501 -0.00000000000E+00  0.00000000000E+00  0.30020956737E+03  0.30020956737E+03  0.00000000000E+00 0.  1.
          1   -1    0    0  501    0  0.00000000000E+00 -0.00000000000E+00 -0.74516652743E+02  0.74516652743E+02  0.00000000000E+00 0. -1.
         23    2    1    2    0    0 -0.57693988741E+02  0.78101625936E+02  0.63195491171E+02  0.14479307352E+03  0.86849891914E+02 0.  0.
          5    1    1    2  502    0 -0.41266453406E+02 -0.20476361741E+02  0.32201980031E+02  0.56402651399E+02  0.47000000000E+01 0. -1.
         -5    1    1    2    0  502  0.98960442148E+02 -0.57625264195E+02  0.13029544343E+03  0.17353049519E+03  0.47000000000E+01 0.  1.
        -11    1    3    3    0    0 -0.24089015087E+02 -0.31817996296E+01  0.50346594639E+02  0.55903345951E+02  0.00000000000E+00 0.  1.
         11    1    3    3    0    0 -0.33604973654E+02  0.81283425566E+02  0.12848896532E+02  0.88889727574E+02  0.00000000000E+00 0. -1.
<mgrwt>
<rscale>  0 0.15388965E+03</rscale>
<asrwt>0</asrwt>
<pdfrwt beam="2">  1        1 0.11464101E-01 0.16267710E+03</pdfrwt>
<pdfrwt beam="1">  1       -1 0.46186087E-01 0.16267710E+03</pdfrwt>
<totfact> 0.24786168E+03</totfact>
</mgrwt>
</event>
<event>
 8    1  0.1300767E-005  0.1345370E+03  0.7546771E-02  0.1239263E+00
          1   -1    0    0  501    0  0.00000000000E+00  0.00000000000E+00  0.15634724484E+03  0.15634724484E+03  0.00000000000E+00 0. -1.
         -1   -1    0    0    0  501 -0.00000000000E+00 -0.00000000000E+00 -0.84726407385E+02  0.84726407385E+02  0.00000000000E+00 0.  1.
         23    2    1    2    0    0 -0.43929472959E+02 -0.23351361070E+02  0.21400246263E+02  0.13622842874E+03  0.12500051839E+03 0.  0.
         23    2    1    2    0    0  0.43929472959E+02  0.23351361070E+02  0.50220591192E+02  0.10484522349E+03  0.77429506325E+02 0.  0.
          5    1    3    3  502    0  0.28659034444E+02 -0.28831133836E+02 -0.26689269935E+02  0.48856746343E+02  0.47000000000E+01 0. -1.
         -5    1    3    3    0  502 -0.72588507403E+02  0.54797727658E+01  0.48089516198E+02  0.87371682396E+02  0.47000000000E+01 0. -1.
        -11    1    4    4    0    0  0.20651460008E+02 -0.14179299038E+02  0.54987846431E+02  0.60425148546E+02  0.00000000000E+00 0. -1.
         11    1    4    4    0    0  0.23278012951E+02  0.37530660108E+02 -0.47672552386E+01  0.44420074939E+02  0.00000000000E+00 0.  1.
<mgrwt>
<rscale>  0 0.12235436E+03</rscale>
<asrwt>0</asrwt>
<pdfrwt beam="1">  1        1 0.24053422E-01 0.13453704E+03</pdfrwt>
<pdfrwt beam="2">  1       -1 0.13034832E-01 0.13453704E+03</pdfrwt>
<totfact> 0.76461278E+03</totfact>
</mgrwt>
</event>
<event>
 8    1  0.9424564E-006  0.1570235E+03  0.7546771E-02  0.1200209E+00
          2   -1    0    0  501    0  0.00000000000E+00  0.00000000000E+00  0.32053620157E+03  0.32053620157E+03  0.00000000000E+00 0. -1.
         -2   -1    0    0    0  501 -0.00000000000E+00 -0.00000000000E+00 -0.71564680946E+02  0.71564680946E+02  0.00000000000E+00 0.  1.
         23    2    1    2    0    0 -0.94815395600E+02 -0.64073686803E+01  0.74998493162E+02  0.17401478351E+03  0.12500142915E+03 0.  0.
         23    2    1    2    0    0  0.94815395600E+02  0.64073686803E+01  0.17397302746E+03  0.21808609900E+03  0.90906098131E+02 0.  0.
          5    1    3    3  502    0 -0.44734529211E+02  0.18084883888E+02 -0.28590802536E+02  0.56282902543E+02  0.47000000000E+01 0.  1.
         -5    1    3    3    0  502 -0.50080866388E+02 -0.24492252568E+02  0.10358929570E+03  0.11773188097E+03  0.47000000000E+01 0.  1.
        -11    1    4    4    0    0  0.88765284551E+02  0.39748605089E+02  0.13591011335E+03  0.16712506173E+03  0.00000000000E+00 0. -1.
         11    1    4    4    0    0  0.60501110490E+01 -0.33341236409E+02  0.38062914114E+02  0.50961037272E+02  0.00000000000E+00 0.  1.
<mgrwt>
<rscale>  0 0.15021500E+03</rscale>
<asrwt>0</asrwt>
<pdfrwt beam="1">  1        2 0.49313261E-01 0.15702347E+03</pdfrwt>
<pdfrwt beam="2">  1       -2 0.11009951E-01 0.15702347E+03</pdfrwt>
<totfact> 0.55840390E+03</totfact>
</mgrwt>
</event>
<event>
 8    1  0.9424564E-006  0.1480123E+03  0.7546771E-02  0.1212088E+00
          1   -1    0    0  501    0  0.00000000000E+00  0.00000000000E+00  0.10940729620E+03  0.10940729620E+03  0.00000000000E+00 0. -1.
         -1   -1    0    0    0  501 -0.00000000000E+00 -0.00000000000E+00 -0.19943861845E+03  0.19943861845E+03  0.00000000000E+00 0.  1.
         23    2    1    2    0    0  0.62683614613E+02  0.48520674491E+02 -0.11152128392E+03  0.18532303099E+03  0.12499655057E+03 0.  0.
         23    2    1    2    0    0 -0.62683614613E+02 -0.48520674491E+02  0.21489961670E+02  0.12352288367E+03  0.92263714117E+02 0.  0.
          5    1    3    3  502    0  0.13318071599E+02 -0.41950013707E+02 -0.26144398815E+02  0.51408114831E+02  0.47000000000E+01 0. -1.
         -5    1    3    3    0  502  0.49365543014E+02  0.90470688197E+02 -0.85376885105E+02  0.13391491616E+03  0.47000000000E+01 0. -1.
        -11    1    4    4    0    0 -0.19194806937E+01 -0.55417060419E+02  0.27827479687E+02  0.62041144552E+02  0.00000000000E+00 0. -1.
         11    1    4    4    0    0 -0.60764133920E+02  0.68963859281E+01 -0.63375180174E+01  0.61481739114E+02  0.00000000000E+00 0.  1.
<mgrwt>
<rscale>  0 0.14092616E+03</rscale>
<asrwt>0</asrwt>
<pdfrwt beam="1">  1        1 0.16831892E-01 0.14801226E+03</pdfrwt>
<pdfrwt beam="2">  1       -1 0.30682864E-01 0.14801226E+03</pdfrwt>
<totfact> 0.30490786E+03</totfact>
</mgrwt>
</event>
<event>
 8    1  0.9424564E-006  0.1769325E+03  0.7546771E-02  0.1181647E+00
         -1   -1    0    0    0  501 -0.00000000000E+00  0.00000000000E+00  0.13206348076E+04  0.13206348076E+04  0.00000000000E+00 0.  1.
          1   -1    0    0  501    0  0.00000000000E+00 -0.00000000000E+00 -0.18903765790E+02  0.18903765790E+02  0.00000000000E+00 0. -1.
         23    2    1    2    0    0 -0.12370499147E+03 -0.19450477424E+02  0.77204607243E+03  0.79206075270E+03  0.12499540796E+03 0.  0.
         23    2    1    2    0    0  0.12370499147E+03  0.19450477424E+02  0.52968496942E+03  0.54747782074E+03  0.59030088810E+02 0.  0.
          5    1    3    3  502    0 -0.22303331687E+02 -0.45004381778E+02  0.10098394668E+03  0.11288348184E+03  0.47000000000E+01 0. -1.
         -5    1    3    3    0  502 -0.10140165979E+03  0.25553904355E+02  0.67106212575E+03  0.67917727086E+03  0.47000000000E+01 0. -1.
        -11    1    4    4    0    0  0.59804418535E+02  0.30542947289E+01  0.14031655606E+03  0.15256026055E+03  0.00000000000E+00 0. -1.
         11    1    4    4    0    0  0.63900572938E+02  0.16396182695E+02  0.38936841336E+03  0.39491756019E+03  0.00000000000E+00 0.  1.
<mgrwt>
<rscale>  0 0.16640697E+03</rscale>
<asrwt>0</asrwt>
<pdfrwt beam="2">  1        1 0.29082727E-02 0.17693247E+03</pdfrwt>
<pdfrwt beam="1">  1       -1 0.20317451E+00 0.17693247E+03</pdfrwt>
<totfact> 0.56366445E+02</totfact>
</mgrwt>
</event>
<event>
 8    1  0.9424564E-006  0.1408700E+03  0.7546771E-02  0.1215355E+00
          1   -1    0    0  501    0  0.00000000000E+00  0.00000000000E+00  0.24962737344E+02  0.24962737344E+02  0.00000000000E+00 0. -1.
         -1   -1    0    0    0  501 -0.00000000000E+00 -0.00000000000E+00 -0.87360550000E+03  0.87360550000E+03  0.00000000000E+00 0.  1.
         23    2    1    2    0    0  0.57896838634E+02  0.29416543108E+02 -0.60968008304E+03  0.62574289556E+03  0.12500796274E+03 0.  0.
         23    2    1    2    0    0 -0.57896838634E+02 -0.29416543108E+02 -0.23896267961E+03  0.27282534178E+03  0.11451256674E+03 0.  0.
          5    1    3    3  502    0  0.22771999972E+02  0.50709056482E+02 -0.55180691214E+03  0.55461962702E+03  0.47000000000E+01 0.  1.
         -5    1    3    3    0  502  0.35124838662E+02 -0.21292513374E+02 -0.57873170904E+02  0.71123268536E+02  0.47000000000E+01 0.  1.
        -11    1    4    4    0    0  0.31220450118E+02  0.11781318409E+02 -0.56150875713E+02  0.65317966995E+02  0.00000000000E+00 0.  1.
         11    1    4    4    0    0 -0.89117288752E+02 -0.41197861517E+02 -0.18281180390E+03  0.20750737479E+03  0.00000000000E+00 0. -1.
<mgrwt>
<rscale>  0 0.13850498E+03</rscale>
<asrwt>0</asrwt>
<pdfrwt beam="1">  1        1 0.38404213E-02 0.14087004E+03</pdfrwt>
<pdfrwt beam="2">  1       -1 0.13440084E+00 0.14087004E+03</pdfrwt>
<totfact> 0.11833300E+03</totfact>
</mgrwt>
</event>
<event>
 8    1  0.9424564E-006  0.2186769E+03  0.7546771E-02  0.1138094E+00
         -1   -1    0    0    0  501 -0.00000000000E+00  0.00000000000E+00  0.29044658025E+02  0.29044658025E+02  0.00000000000E+00 0.  1.
          1   -1    0    0  501    0  0.00000000000E+00 -0.00000000000E+00 -0.15264492597E+04  0.15264492597E+04  0.00000000000E+00 0. -1.
         23    2    1    2    0    0  0.54758810915E+02  0.17086532552E+03 -0.75346824413E+03  0.78455974880E+03  0.12500447069E+03 0.  0.
         23    2    1    2    0    0 -0.54758810915E+02 -0.17086532552E+03 -0.74393635758E+03  0.77093416896E+03  0.93298991956E+02 0.  0.
          5    1    3    3  502    0 -0.86288100855E+01  0.57081460482E+02 -0.81003530734E+02  0.99581180379E+02  0.47000000000E+01 0.  1.
         -5    1    3    3    0  502  0.63387621000E+02  0.11378386503E+03 -0.67246471340E+03  0.68497856842E+03  0.47000000000E+01 0.  1.
        -11    1    4    4    0    0  0.10384831052E-01 -0.13503364192E+03 -0.45133244164E+03  0.47109983808E+03  0.00000000000E+00 0.  1.
         11    1    4    4    0    0 -0.54769195746E+02 -0.35831683596E+02 -0.29260391594E+03  0.29983433089E+03  0.00000000000E+00 0. -1.
<mgrwt>
<rscale>  0 0.21444467E+03</rscale>
<asrwt>0</asrwt>
<pdfrwt beam="2">  1        1 0.23483831E+00 0.21867694E+03</pdfrwt>
<pdfrwt beam="1">  1       -1 0.44684097E-02 0.21867694E+03</pdfrwt>
<totfact> 0.14351629E+03</totfact>
</mgrwt>
</event>
<event>
 8    1  0.9424564E-006  0.1410289E+03  0.7546771E-02  0.1223006E+00
          1   -1    0    0  501    0  0.00000000000E+00  0.00000000000E+00  0.14232623938E+03  0.14232623938E+03  0.00000000000E+00 0. -1.
         -1   -1    0    0    0  501 -0.00000000000E+00 -0.00000000000E+00 -0.11565364466E+03  0.11565364466E+03  0.00000000000E+00 0.  1.
         23    2    1    2    0    0 -0.42912414744E+02  0.49190191932E+02 -0.73158692734E+01  0.14121853338E+03  0.12501200705E+03 0.  0.
         23    2    1    2    0    0  0.42912414744E+02 -0.49190191932E+02  0.33988463995E+02  0.11676135065E+03  0.90646825645E+02 0.  0.
          5    1    3    3  502    0 -0.72567289347E+02  0.21649713919E+02  0.34044164691E+02  0.83161389752E+02  0.47000000000E+01 0.  1.
         -5    1    3    3    0  502  0.29654874603E+02  0.27540478013E+02 -0.41360033964E+02  0.58057143630E+02  0.47000000000E+01 0.  1.
        -11    1    4    4    0    0 -0.26285176479E+02 -0.18951908674E+01  0.16644805720E+02  0.31169725831E+02  0.00000000000E+00 0.  1.
         11    1    4    4    0    0  0.69197591223E+02 -0.47295001064E+02  0.17343658275E+02  0.85591624819E+02  0.00000000000E+00 0. -1.
<mgrwt>
<rscale>  0 0.13304520E+03</rscale>
<asrwt>0</asrwt>
<pdfrwt beam="1">  1        1 0.21896344E-01 0.14102891E+03</pdfrwt>
<pdfrwt beam="2">  1       -1 0.17792868E-01 0.14102891E+03</pdfrwt>
<totfact> 0.52982604E+03</totfact>
</mgrwt>
</event>
<event>
 8    1  0.9424564E-006  0.1648125E+03  0.7546771E-02  0.1189966E+00
         -1   -1    0    0    0  501 -0.00000000000E+00  0.00000000000E+00  0.56083280406E+02  0.56083280406E+02  0.00000000000E+00 0.  1.
          1   -1    0    0  501    0  0.00000000000E+00 -0.00000000000E+00 -0.42085234888E+03  0.42085234888E+03  0.00000000000E+00 0. -1.
         23    2    1    2    0    0  0.10424768740E+03  0.25871344114E+02 -0.18919552806E+03  0.25091457394E+03  0.12500507511E+03 0.  0.
         23    2    1    2    0    0 -0.10424768740E+03 -0.25871344114E+02 -0.17557354041E+03  0.22602105534E+03  0.93394553324E+02 0.  0.
          5    1    3    3  502    0  0.28627206045E+02  0.46681695742E+02 -0.15639346217E+03  0.16577002942E+03  0.47000000000E+01 0.  1.
         -5    1    3    3    0  502  0.75620481358E+02 -0.20810351628E+02 -0.32802065892E+02  0.85144544526E+02  0.47000000000E+01 0.  1.
        -11    1    4    4    0    0 -0.93010729213E+02  0.14140361849E+02 -0.15049336061E+03  0.17748013176E+03  0.00000000000E+00 0.  1.
         11    1    4    4    0    0 -0.11236958191E+02 -0.40011705963E+02 -0.25080179802E+02  0.48540923583E+02  0.00000000000E+00 0. -1.
<mgrwt>
<rscale>  0 0.15888070E+03</rscale>
<asrwt>0</asrwt>
<pdfrwt beam="2">  1        1 0.64746517E-01 0.16481255E+03</pdfrwt>
<pdfrwt beam="1">  1       -1 0.86281967E-02 0.16481255E+03</pdfrwt>
<totfact> 0.42351384E+03</totfact>
</mgrwt>
</event>
<event>
 6    1  0.9424564E-006  0.1048806E+04  0.7546771E-02  0.9256578E-01
         -2   -1    0    0    0  501 -0.00000000000E+00  0.00000000000E+00  0.17672852420E+03  0.17672852420E+03  0.00000000000E+00 0.  1.
          2   -1    0    0  501    0  0.00000000000E+00 -0.00000000000E+00 -0.15560500351E+04  0.15560500351E+04  0.00000000000E+00 0. -1.
          5    1    1    2  502    0 -0.48797122011E+02  0.31321302997E+02  0.19510652180E+02  0.61359096201E+02  0.47000000000E+01 0. -1.
         -5    1    1    2    0  502 -0.13116178648E+03 -0.12240893873E+03  0.67352310074E+01  0.17959625790E+03  0.47000000000E+01 0.  1.
        -11    1    1    2    0    0 -0.10767030705E+03 -0.51388467532E+02 -0.12981838051E+03  0.17631358862E+03  0.00000000000E+00 0.  1.
         11    1    1    2    0    0  0.28762921555E+03  0.14247610326E+03 -0.12757490136E+04  0.13155096166E+04  0.00000000000E+00 0. -1.
<mgrwt>
<rscale>  0 0.10488058E+04</rscale>
<asrwt>0</asrwt>
<pdfrwt beam="2">  1        2 0.23939231E+00 0.10488058E+04</pdfrwt>
<pdfrwt beam="1">  1       -2 0.27189004E-01 0.10488058E+04</pdfrwt>
<totfact> 0.14454870E+02</totfact>
</mgrwt>
</event>
<event>
 8    1  0.9424564E-006  0.1345733E+03  0.7546771E-02  0.1232609E+00
          4   -1    0    0  501    0  0.00000000000E+00  0.00000000000E+00  0.31343581349E+03  0.31343581349E+03  0.00000000000E+00 0. -1.
         -4   -1    0    0    0  501 -0.00000000000E+00 -0.00000000000E+00 -0.51071871543E+02  0.51071871543E+02  0.00000000000E+00 0.  1.
         23    2    1    2    0    0 -0.21067617707E+02  0.45176816993E+02  0.88029547366E+02  0.16080790185E+03  0.12500076312E+03 0.  0.
         23    2    1    2    0    0  0.21067617707E+02 -0.45176816993E+02  0.17433439458E+03  0.20369978318E+03  0.92824195247E+02 0.  0.
          5    1    3    3  502    0  0.71973316192E+01 -0.22855994948E+02  0.83334247059E+02  0.86838268179E+02  0.47000000000E+01 0.  1.
         -5    1    3    3    0  502 -0.28264949327E+02  0.68032811942E+02  0.46953003071E+01  0.73969633676E+02  0.47000000000E+01 0.  1.
        -11    1    4    4    0    0  0.43830260885E+02 -0.23984478931E+02  0.35165073199E+02  0.61097703491E+02  0.00000000000E+00 0.  1.
         11    1    4    4    0    0 -0.22762643177E+02 -0.21192338062E+02  0.13916932138E+03  0.14260207969E+03  0.00000000000E+00 0. -1.
<mgrwt>
<rscale>  0 0.12658729E+03</rscale>
<asrwt>0</asrwt>
<pdfrwt beam="1">  1        4 0.48220893E-01 0.13457333E+03</pdfrwt>
<pdfrwt beam="2">  1       -4 0.78572112E-02 0.13457333E+03</pdfrwt>
<totfact> 0.78509162E+02</totfact>
</mgrwt>
</event>
<event>
 8    1  0.9424564E-006  0.1578493E+03  0.7546771E-02  0.1199780E+00
         -3   -1    0    0    0  501 -0.00000000000E+00  0.00000000000E+00  0.56439438115E+03  0.56439438115E+03  0.00000000000E+00 0.  1.
          3   -1    0    0  501    0  0.00000000000E+00 -0.00000000000E+00 -0.43833203081E+02  0.43833203081E+02  0.00000000000E+00 0. -1.
         23    2    1    2    0    0  0.96392076638E+02 -0.18300123453E+00  0.40164271905E+03  0.43154751831E+03  0.12499968347E+03 0.  0.
         23    2    1    2    0    0 -0.96392076638E+02  0.18300123453E+00  0.11891845902E+03  0.17668006592E+03  0.88220065007E+02 0.  0.
          5    1    3    3  502    0  0.14143433762E+02 -0.54347856300E+02  0.18774601171E+03  0.19602137923E+03  0.47000000000E+01 0.  1.
         -5    1    3    3    0  502  0.82248642876E+02  0.54164855065E+02  0.21389670734E+03  0.23552613908E+03  0.47000000000E+01 0.  1.
        -11    1    4    4    0    0 -0.58305778842E+02  0.38056745987E+02  0.37340914187E+02  0.79007744138E+02  0.00000000000E+00 0. -1.
         11    1    4    4    0    0 -0.38086297796E+02 -0.37873744752E+02  0.81577544832E+02  0.97672321781E+02  0.00000000000E+00 0.  1.
<mgrwt>
<rscale>  0 0.15056519E+03</rscale>
<asrwt>0</asrwt>
<pdfrwt beam="2">  1        3 0.67435701E-02 0.15784925E+03</pdfrwt>
<pdfrwt beam="1">  1       -3 0.86829900E-01 0.15784925E+03</pdfrwt>
<totfact> 0.41596347E+02</totfact>
</mgrwt>
</event>
<event>
 8    1  0.9424564E-006  0.1741243E+03  0.7546771E-02  0.1180107E+00
          2   -1    0    0  501    0  0.00000000000E+00  0.00000000000E+00  0.54728221706E+02  0.54728221706E+02  0.00000000000E+00 0. -1.
         -2   -1    0    0    0  501 -0.00000000000E+00 -0.00000000000E+00 -0.53722262158E+03  0.53722262158E+03  0.00000000000E+00 0.  1.
         23    2    1    2    0    0 -0.93879963351E+02  0.76701361025E+02 -0.35262605051E+03  0.39327395400E+03  0.12499090003E+03 0.  0.
         23    2    1    2    0    0  0.93879963351E+02 -0.76701361025E+02 -0.12986834936E+03  0.19867688929E+03  0.88939147003E+02 0.  0.
          5    1    3    3  502    0 -0.22139794099E+02  0.70932037612E+02 -0.72171098967E+02  0.10369321081E+03  0.47000000000E+01 0. -1.
         -5    1    3    3    0  502 -0.71740169252E+02  0.57693234123E+01 -0.28045495155E+03  0.28958074318E+03  0.47000000000E+01 0. -1.
        -11    1    4    4    0    0  0.25706135026E+02 -0.68337398937E+01 -0.88930077864E+02  0.92822756520E+02  0.00000000000E+00 0.  1.
         11    1    4    4    0    0  0.68173828325E+02 -0.69867621131E+02 -0.40938271495E+02  0.10585413277E+03  0.00000000000E+00 0. -1.
<mgrwt>
<rscale>  0 0.16785111E+03</rscale>
<asrwt>0</asrwt>
<pdfrwt beam="1">  1        2 0.84197264E-02 0.17412430E+03</pdfrwt>
<pdfrwt beam="2">  1       -2 0.82649634E-01 0.17412430E+03</pdfrwt>
<totfact> 0.10382898E+03</totfact>
</mgrwt>
</event>
<event>
 8    1  0.9424564E-006  0.1468880E+03  0.7546771E-02  0.1215371E+00
         -1   -1    0    0    0  501 -0.00000000000E+00  0.00000000000E+00  0.15276710147E+03  0.15276710147E+03  0.00000000000E+00 0.  1.
          1   -1    0    0  501    0  0.00000000000E+00 -0.00000000000E+00 -0.20992018540E+03  0.20992018540E+03  0.00000000000E+00 0. -1.
         23    2    1    2    0    0  0.77105573799E+02 -0.23713594578E+01  0.92277480498E+02  0.17346818906E+03  0.12500074541E+03 0.  0.
         23    2    1    2    0    0 -0.77105573799E+02  0.23713594578E+01 -0.14943056443E+03  0.18921909781E+03  0.86737999362E+02 0.  0.
          5    1    3    3  502    0  0.84425204777E+02 -0.49775788261E+02  0.68957293619E+02  0.11992682203E+03  0.47000000000E+01 0.  1.
         -5    1    3    3    0  502 -0.73196309780E+01  0.47404428804E+02  0.23320186879E+02  0.53541367034E+02  0.47000000000E+01 0.  1.
        -11    1    4    4    0    0 -0.23147934101E+02  0.15213311888E+02  0.21762199232E+01  0.27785025551E+02  0.00000000000E+00 0.  1.
         11    1    4    4    0    0 -0.53957639698E+02 -0.12841952430E+02 -0.15160678435E+03  0.16143407225E+03  0.00000000000E+00 0. -1.
<mgrwt>
<rscale>  0 0.13849314E+03</rscale>
<asrwt>0</asrwt>
<pdfrwt beam="2">  1        1 0.32295413E-01 0.14688798E+03</pdfrwt>
<pdfrwt beam="1">  1       -1 0.23502631E-01 0.14688798E+03</pdfrwt>
<totfact> 0.20826814E+03</totfact>
</mgrwt>
</event>
<event>
 8    1  0.9424564E-006  0.1360965E+03  0.7546771E-02  0.1232801E+00
          1   -1    0    0  501    0  0.00000000000E+00  0.00000000000E+00  0.37594346264E+02  0.37594346264E+02  0.00000000000E+00 0. -1.
         -1   -1    0    0    0  501 -0.00000000000E+00 -0.00000000000E+00 -0.40658898144E+03  0.40658898144E+03  0.00000000000E+00 0.  1.
         23    2    1    2    0    0 -0.22022725953E+02 -0.49117310287E+02 -0.27033876174E+03  0.30266366526E+03  0.12499895015E+03 0.  0.
         23    2    1    2    0    0  0.22022725953E+02  0.49117310287E+02 -0.98655873430E+02  0.14151966244E+03  0.86007690744E+02 0.  0.
          5    1    3    3  502    0 -0.59111355028E+01 -0.44844429434E+02 -0.27942839609E+03  0.28310472076E+03  0.47000000000E+01 0. -1.
         -5    1    3    3    0  502 -0.16111590451E+02 -0.42728808531E+01  0.90896343437E+01  0.19558944505E+02  0.47000000000E+01 0. -1.
        -11    1    4    4    0    0 -0.33072339686E+02  0.23888828265E+02 -0.37147047608E+02  0.55175709458E+02  0.00000000000E+00 0.  1.
         11    1    4    4    0    0  0.55095065639E+02  0.25228482022E+02 -0.61508825823E+02  0.86343952984E+02  0.00000000000E+00 0. -1.
<mgrwt>
<rscale>  0 0.12646273E+03</rscale>
<asrwt>0</asrwt>
<pdfrwt beam="1">  1        1 0.57837453E-02 0.13609647E+03</pdfrwt>
<pdfrwt beam="2">  1       -1 0.62552154E-01 0.13609647E+03</pdfrwt>
<totfact> 0.35018825E+03</totfact>
</mgrwt>
</event>
<event>
 8    1  0.9424564E-006  0.1677334E+03  0.7546771E-02  0.1186990E+00
         -1   -1    0    0    0  501 -0.00000000000E+00  0.00000000000E+00  0.31820790909E+03  0.31820790909E+03  0.00000000000E+00 0.  1.
          1   -1    0    0  501    0  0.00000000000E+00 -0.00000000000E+00 -0.77510016092E+02  0.77510016092E+02  0.00000000000E+00 0. -1.
         23    2    1    2    0    0 -0.10144544587E+03  0.47108658377E+02  0.10633266707E+03  0.19859793348E+03  0.12499639561E+03 0.  0.
         23    2    1    2    0    0  0.10144544587E+03 -0.47108658377E+02  0.13436522593E+03  0.19711999170E+03  0.91059722201E+02 0.  0.
          5    1    3    3  502    0  0.10824614862E+01  0.51120449639E+02  0.83118188741E+00  0.51354191236E+02  0.47000000000E+01 0.  1.
         -5    1    3    3    0  502 -0.10252790735E+03 -0.40117912618E+01  0.10550148518E+03  0.14724374225E+03  0.47000000000E+01 0.  1.
        -11    1    4    4    0    0  0.27066069013E+02 -0.12847599453E+02  0.10647511480E+03  0.11061004916E+03  0.00000000000E+00 0.  1.
         11    1    4    4    0    0  0.74379376855E+02 -0.34261058923E+02  0.27890111134E+02  0.86509942544E+02  0.00000000000E+00 0. -1.
<mgrwt>
<rscale>  0 0.16152085E+03</rscale>
<asrwt>0</asrwt>
<pdfrwt beam="2">  1        1 0.11924618E-01 0.16773343E+03</pdfrwt>
<pdfrwt beam="1">  1       -1 0.48955062E-01 0.16773343E+03</pdfrwt>
<totfact> 0.21193772E+03</totfact>
</mgrwt>
</event>
<event>
 8    1  0.9424564E-006  0.1849425E+03  0.7546771E-02  0.1168499E+00
          4   -1    0    0  501    0  0.00000000000E+00  0.00000000000E+00  0.34246736655E+03  0.34246736655E+03  0.00000000000E+00 0. -1.
         -4   -1    0    0    0  501 -0.00000000000E+00 -0.00000000000E+00 -0.88567053617E+02  0.88567053617E+02  0.00000000000E+00 0.  1.
         23    2    1    2    0    0  0.71606336419E+02 -0.11597650135E+03  0.13101768346E+03  0.22664809241E+03  0.12500283251E+03 0.  0.
         23    2    1    2    0    0 -0.71606336419E+02  0.11597650135E+03  0.12288262947E+03  0.20438632775E+03  0.89975630394E+02 0.  0.
          5    1    3    3  502    0  0.10172095556E+03 -0.77431633733E+02  0.12183154838E+03  0.17665737144E+03  0.47000000000E+01 0. -1.
         -5    1    3    3    0  502 -0.30114619143E+02 -0.38544867618E+02  0.91861350789E+01  0.49990720974E+02  0.47000000000E+01 0. -1.
        -11    1    4    4    0    0  0.23444755510E+01  0.77043532747E+02  0.40656043347E+02  0.87144227373E+02  0.00000000000E+00 0.  1.
         11    1    4    4    0    0 -0.73950811970E+02  0.38932968604E+02  0.82226586127E+02  0.11724210038E+03  0.00000000000E+00 0. -1.
<mgrwt>
<rscale>  0 0.17928245E+03</rscale>
<asrwt>0</asrwt>
<pdfrwt beam="1">  1        4 0.52687287E-01 0.18494249E+03</pdfrwt>
<pdfrwt beam="2">  1       -4 0.13625701E-01 0.18494249E+03</pdfrwt>
<totfact> 0.27281208E+02</totfact>
</mgrwt>
</event>
<event>
 8    1  0.9424564E-006  0.1336165E+03  0.7546771E-02  0.1236712E+00
          2   -1    0    0  501    0  0.00000000000E+00  0.00000000000E+00  0.84722635970E+02  0.84722635970E+02  0.00000000000E+00 0. -1.
         -2   -1    0    0    0  501 -0.00000000000E+00 -0.00000000000E+00 -0.15975760823E+03  0.15975760823E+03  0.00000000000E+00 0.  1.
         23    2    1    2    0    0 -0.45692072191E+02  0.11837689044E+02 -0.46683851116E+02  0.14153706236E+03  0.12500184688E+03 0.  0.
         23    2    1    2    0    0  0.45692072191E+02 -0.11837689044E+02 -0.28351121149E+02  0.10294318185E+03  0.86980551131E+02 0.  0.
          5    1    3    3  502    0  0.13397486179E+02  0.10134832385E+01 -0.74015485207E+02  0.75371757540E+02  0.47000000000E+01 0.  1.
         -5    1    3    3    0  502 -0.59089558370E+02  0.10824205805E+02  0.27331634092E+02  0.66165304819E+02  0.47000000000E+01 0.  1.
        -11    1    4    4    0    0 -0.12117242398E+02 -0.33606027162E+02 -0.19016186527E+02  0.40469840313E+02  0.00000000000E+00 0.  1.
         11    1    4    4    0    0  0.57809314589E+02  0.21768338119E+02 -0.93349346217E+01  0.62473341532E+02  0.00000000000E+00 0. -1.
<mgrwt>
<rscale>  0 0.12395449E+03</rscale>
<asrwt>0</asrwt>
<pdfrwt beam="1">  1        2 0.13034252E-01 0.13361646E+03</pdfrwt>
<pdfrwt beam="2">  1       -2 0.24578093E-01 0.13361646E+03</pdfrwt>
<totfact> 0.64030706E+03</totfact>
</mgrwt>
</event>
<event>
 8    1  0.9424564E-006  0.1836391E+03  0.7546771E-02  0.1169704E+00
          2   -1    0    0  501    0  0.00000000000E+00  0.00000000000E+00  0.62101969320E+03  0.62101969320E+03  0.00000000000E+00 0. -1.
         -2   -1    0    0    0  501 -0.00000000000E+00 -0.00000000000E+00 -0.50010903723E+02  0.50010903723E+02  0.00000000000E+00 0.  1.
         23    2    1    2    0    0 -0.10868355327E+03  0.79294291115E+02  0.23824555372E+03  0.30080603258E+03  0.12499450393E+03 0.  0.
         23    2    1    2    0    0  0.10868355327E+03 -0.79294291115E+02  0.33276323576E+03  0.37022456435E+03  0.90747769219E+02 0.  0.
          5    1    3    3  502    0 -0.31790651512E+02  0.86746430643E+02  0.71312526681E+02  0.11680391780E+03  0.47000000000E+01 0. -1.
         -5    1    3    3    0  502 -0.76892901761E+02 -0.74521395283E+01  0.16693302704E+03  0.18400211478E+03  0.47000000000E+01 0. -1.
        -11    1    4    4    0    0  0.10708776905E+02 -0.48707143483E+01 -0.34058379176E+01  0.12247509664E+02  0.00000000000E+00 0.  1.
         11    1    4    4    0    0  0.97974776368E+02 -0.74423576766E+02  0.33616907368E+03  0.35797705468E+03  0.00000000000E+00 0. -1.
<mgrwt>
<rscale>  0 0.17804930E+03</rscale>
<asrwt>0</asrwt>
<pdfrwt beam="1">  1        2 0.95541486E-01 0.18363912E+03</pdfrwt>
<pdfrwt beam="2">  1       -2 0.76939856E-02 0.18363912E+03</pdfrwt>
<totfact> 0.47793555E+03</totfact>
</mgrwt>
</event>
<event>
 8    1  0.9424564E-006  0.1555106E+03  0.7546771E-02  0.1201552E+00
          2   -1    0    0  501    0  0.00000000000E+00  0.00000000000E+00  0.11500621086E+03  0.11500621086E+03  0.00000000000E+00 0. -1.
         -2   -1    0    0    0  501 -0.00000000000E+00 -0.00000000000E+00 -0.18297193671E+03  0.18297193671E+03  0.00000000000E+00 0.  1.
         23    2    1    2    0    0  0.84991883033E+02 -0.36533504801E+02 -0.58456593199E+02  0.16613465823E+03  0.12500093688E+03 0.  0.
         23    2    1    2    0    0 -0.84991883033E+02  0.36533504801E+02 -0.95091326498E+01  0.13184348935E+03  0.93455684284E+02 0.  0.
          5    1    3    3  502    0  0.18627331080E+02  0.44175767005E+02 -0.43376958511E+01  0.48367152686E+02  0.47000000000E+01 0. -1.
         -5    1    3    3    0  502  0.66364551953E+02 -0.80709271806E+02 -0.54118897348E+02  0.11776750554E+03  0.47000000000E+01 0. -1.
        -11    1    4    4    0    0 -0.36582998763E+02 -0.22906345374E+02 -0.29914582346E+02  0.52515699498E+02  0.00000000000E+00 0.  1.
         11    1    4    4    0    0 -0.48408884270E+02  0.59439850175E+02  0.20405449696E+02  0.79327789849E+02  0.00000000000E+00 0. -1.
<mgrwt>
<rscale>  0 0.14912538E+03</rscale>
<asrwt>0</asrwt>
<pdfrwt beam="1">  1        2 0.17693263E-01 0.15551061E+03</pdfrwt>
<pdfrwt beam="2">  1       -2 0.28149529E-01 0.15551061E+03</pdfrwt>
<totfact> 0.35590282E+03</totfact>
</mgrwt>
</event>
<event>
 7    1  0.9424564E-006  0.1326273E+03  0.7546771E-02  0.1238150E+00
          1   -1    0    0  501    0  0.00000000000E+00  0.00000000000E+00  0.84379829446E+02  0.84379829446E+02  0.00000000000E+00 0. -1.
         -1   -1    0    0    0  501 -0.00000000000E+00 -0.00000000000E+00 -0.24128248311E+03  0.24128248311E+03  0.00000000000E+00 0.  1.
         23    2    1    2    0    0 -0.26127974386E+02 -0.17226848105E+02  0.24185364185E+02  0.10120102289E+03  0.93151918139E+02 0.  0.
          5    1    1    2  502    0  0.35259065125E+02 -0.38668209625E+02 -0.15157781464E+03  0.16042554660E+03  0.47000000000E+01 0. -1.
         -5    1    1    2    0  502 -0.91310907395E+01  0.55895057730E+02 -0.29510203208E+02  0.64035743067E+02  0.47000000000E+01 0.  1.
        -11    1    3    3    0    0  0.15112344821E+02  0.16360372384E+02 -0.21596760724E+02  0.31023617202E+02  0.00000000000E+00 0.  1.
         11    1    3    3    0    0 -0.41240319207E+02 -0.33587220489E+02  0.45782124909E+02  0.70177405692E+02  0.00000000000E+00 0. -1.
<mgrwt>
<rscale>  0 0.12304908E+03</rscale>
<asrwt>0</asrwt>
<pdfrwt beam="1">  1        1 0.12981512E-01 0.13262730E+03</pdfrwt>
<pdfrwt beam="2">  1       -1 0.37120381E-01 0.13262730E+03</pdfrwt>
<totfact> 0.30670991E+03</totfact>
</mgrwt>
</event>
<event>
 8    1  0.9424564E-006  0.1385660E+03  0.7546771E-02  0.1226596E+00
         -1   -1    0    0    0  501 -0.00000000000E+00  0.00000000000E+00  0.67112227082E+02  0.67112227082E+02  0.00000000000E+00 0.  1.
          1   -1    0    0  501    0  0.00000000000E+00 -0.00000000000E+00 -0.23361330245E+03  0.23361330245E+03  0.00000000000E+00 0. -1.
         23    2    1    2    0    0  0.51327740722E+02 -0.30666805531E+02 -0.71517259958E+02  0.15593351747E+03  0.12500221386E+03 0.  0.
         23    2    1    2    0    0 -0.51327740722E+02  0.30666805531E+02 -0.94983815409E+02  0.14479201206E+03  0.91475743443E+02 0.  0.
          5    1    3    3  502    0 -0.33397415025E+02  0.19916089064E+02 -0.27037771906E+02  0.47593792070E+02  0.47000000000E+01 0.  1.
         -5    1    3    3    0  502  0.84725155747E+02 -0.50582894595E+02 -0.44479488052E+02  0.10833972540E+03  0.47000000000E+01 0.  1.
        -11    1    4    4    0    0 -0.73500484803E+02  0.17924171321E+02 -0.43405357694E+02  0.87221684576E+02  0.00000000000E+00 0.  1.
         11    1    4    4    0    0  0.22172744081E+02  0.12742634210E+02 -0.51578457715E+02  0.57570327486E+02  0.00000000000E+00 0. -1.
<mgrwt>
<rscale>  0 0.13058126E+03</rscale>
<asrwt>0</asrwt>
<pdfrwt beam="2">  1        1 0.35940507E-01 0.13856603E+03</pdfrwt>
<pdfrwt beam="1">  1       -1 0.10324958E-01 0.13856603E+03</pdfrwt>
<totfact> 0.66504856E+03</totfact>
</mgrwt>
</event>
<event>
 8    1  0.9424564E-006  0.1490255E+03  0.7546771E-02  0.1210022E+00
          2   -1    0    0  501    0  0.00000000000E+00  0.00000000000E+00  0.30117595363E+03  0.30117595363E+03  0.00000000000E+00 0. -1.
         -2   -1    0    0    0  501 -0.00000000000E+00 -0.00000000000E+00 -0.11914887095E+03  0.11914887095E+03  0.00000000000E+00 0.  1.
         23    2    1    2    0    0  0.72536353772E+02 -0.36361176830E+02 -0.49830978967E+02  0.15713600020E+03  0.12499975319E+03 0.  0.
         23    2    1    2    0    0 -0.72536353772E+02  0.36361176830E+02  0.23185806165E+03  0.26318882437E+03  0.94480361590E+02 0.  0.
          5    1    3    3  502    0  0.10564349096E+03 -0.37917497763E+02 -0.51578377420E+02  0.12361514000E+03  0.47000000000E+01 0. -1.
         -5    1    3    3    0  502 -0.33107137189E+02  0.15563209327E+01  0.17473984531E+01  0.33520860208E+02  0.47000000000E+01 0. -1.
        -11    1    4    4    0    0 -0.18291524736E+01  0.52064709374E+02  0.95122191592E+02  0.10845418892E+03  0.00000000000E+00 0.  1.
         11    1    4    4    0    0 -0.70707201299E+02 -0.15703532543E+02  0.13673587005E+03  0.15473463545E+03  0.00000000000E+00 0. -1.
<mgrwt>
<rscale>  0 0.14248613E+03</rscale>
<asrwt>0</asrwt>
<pdfrwt beam="1">  1        2 0.46334762E-01 0.14902549E+03</pdfrwt>
<pdfrwt beam="2">  1       -2 0.18330596E-01 0.14902549E+03</pdfrwt>
<totfact> 0.25924403E+03</totfact>
</mgrwt>
</event>
<event>
 8    1  0.9424564E-006  0.1732640E+03  0.7546771E-02  0.1180950E+00
         -2   -1    0    0    0  501 -0.00000000000E+00  0.00000000000E+00  0.15041603165E+02  0.15041603165E+02  0.00000000000E+00 0.  1.
          2   -1    0    0  501    0  0.00000000000E+00 -0.00000000000E+00 -0.17345076400E+04  0.17345076400E+04  0.00000000000E+00 0. -1.
         23    2    1    2    0    0 -0.11007309370E+03  0.47739916961E+02 -0.90909511773E+03  0.92545899798E+03  0.12500095294E+03 0.  0.
         23    2    1    2    0    0  0.11007309370E+03 -0.47739916961E+02 -0.81037091915E+03  0.82409024523E+03  0.89602009171E+02 0.  0.
          5    1    3    3  502    0 -0.10929406736E+03  0.64385632562E+02 -0.89248192767E+03  0.90146368982E+03  0.47000000000E+01 0.  1.
         -5    1    3    3    0  502 -0.77902634412E+00 -0.16645715601E+02 -0.16613190056E+02  0.23995308162E+02  0.47000000000E+01 0.  1.
        -11    1    4    4    0    0 -0.38553499102E+01 -0.34744321737E+02 -0.20367883576E+03  0.20665696154E+03  0.00000000000E+00 0.  1.
         11    1    4    4    0    0  0.11392844361E+03 -0.12995595224E+02 -0.60669208340E+03  0.61743328370E+03  0.00000000000E+00 0. -1.
<mgrwt>
<rscale>  0 0.16705894E+03</rscale>
<asrwt>0</asrwt>
<pdfrwt beam="2">  1        2 0.26684734E+00 0.17326403E+03</pdfrwt>
<pdfrwt beam="1">  1       -2 0.23140927E-02 0.17326403E+03</pdfrwt>
<totfact> 0.63306845E+03</totfact>
</mgrwt>
</event>
<event>
 7    1  0.9424564E-006  0.1666684E+03  0.7546771E-02  0.1198910E+00
         -2   -1    0    0    0  501 -0.00000000000E+00  0.00000000000E+00  0.46965746261E+03  0.46965746261E+03  0.00000000000E+00 0.  1.
          2   -1    0    0  501    0  0.00000000000E+00 -0.00000000000E+00 -0.84399182713E+02  0.84399182713E+02  0.00000000000E+00 0. -1.
         23    2    1    2    0    0 -0.47161425535E+02  0.74808791200E+01 -0.20893668921E+02  0.11503755832E+03  0.10255208829E+03 0.  0.
          5    1    1    2  502    0  0.73403410451E+02 -0.38010434235E+02  0.98349735517E+02  0.12855976918E+03  0.47000000000E+01 0. -1.
         -5    1    1    2    0  502 -0.26241984915E+02  0.30529555115E+02  0.30780221331E+03  0.31045931782E+03  0.47000000000E+01 0.  1.
        -11    1    3    3    0    0 -0.38259746486E+02 -0.45098128611E+02 -0.17158304987E+02  0.61579678754E+02  0.00000000000E+00 0.  1.
         11    1    3    3    0    0 -0.89016790498E+01  0.52579007731E+02 -0.37353639335E+01  0.53457879565E+02  0.00000000000E+00 0. -1.
<mgrwt>
<rscale>  0 0.15127907E+03</rscale>
<asrwt>0</asrwt>
<pdfrwt beam="2">  1        2 0.12984490E-01 0.16666839E+03</pdfrwt>
<pdfrwt beam="1">  1       -2 0.72254993E-01 0.16666839E+03</pdfrwt>
<totfact> 0.81629531E+02</totfact>
</mgrwt>
</event>
<event>
 8    1  0.9424564E-006  0.1333859E+03  0.7546771E-02  0.1236480E+00
         -1   -1    0    0    0  501 -0.00000000000E+00  0.00000000000E+00  0.88570244723E+02  0.88570244723E+02  0.00000000000E+00 0.  1.
          1   -1    0    0  501    0  0.00000000000E+00 -0.00000000000E+00 -0.17861026459E+03  0.17861026459E+03  0.00000000000E+00 0. -1.
         23    2    1    2    0    0 -0.74389273967E+00  0.46541310558E+02 -0.11030907218E+01  0.13339046895E+03  0.12500061373E+03 0.  0.
         23    2    1    2    0    0  0.74389273967E+00 -0.46541310558E+02 -0.88936929146E+02  0.13379004036E+03  0.88449706437E+02 0.  0.
          5    1    3    3  502    0 -0.12406846091E+02  0.85610379927E+02  0.17411949340E+02  0.88364772172E+02  0.47000000000E+01 0. -1.
         -5    1    3    3    0  502  0.11662953352E+02 -0.39069069369E+02 -0.18515040062E+02  0.45025696783E+02  0.47000000000E+01 0. -1.
        -11    1    4    4    0    0  0.27764668168E+02 -0.46611565573E+02 -0.16858213536E+02  0.56812975695E+02  0.00000000000E+00 0.  1.
         11    1    4    4    0    0 -0.27020775429E+02  0.70255015204E-01 -0.72078715610E+02  0.76977064665E+02  0.00000000000E+00 0. -1.
<mgrwt>
<rscale>  0 0.12410182E+03</rscale>
<asrwt>0</asrwt>
<pdfrwt beam="2">  1        1 0.27478502E-01 0.13338591E+03</pdfrwt>
<pdfrwt beam="1">  1       -1 0.13626192E-01 0.13338591E+03</pdfrwt>
<totfact> 0.60370150E+03</totfact>
</mgrwt>
</event>
<event>
 8    1  0.9424564E-006  0.1486144E+03  0.7546771E-02  0.1211257E+00
         -1   -1    0    0    0  501 -0.00000000000E+00  0.00000000000E+00  0.18598598331E+03  0.18598598331E+03  0.00000000000E+00 0.  1.
          1   -1    0    0  501    0  0.00000000000E+00 -0.00000000000E+00 -0.10255943714E+03  0.10255943714E+03  0.00000000000E+00 0. -1.
         23    2    1    2    0    0  0.10014843851E+02 -0.79756811436E+02  0.73592454994E+02  0.16583756066E+03  0.12499920409E+03 0.  0.
         23    2    1    2    0    0 -0.10014843851E+02  0.79756811436E+02  0.98340911734E+01  0.12270785980E+03  0.92190365218E+02 0.  0.
          5    1    3    3  502    0  0.53525919844E+02 -0.73923673885E+02  0.79707833400E+02  0.12126484388E+03  0.47000000000E+01 0.  1.
         -5    1    3    3    0  502 -0.43511075993E+02 -0.58331375511E+01 -0.61153784059E+01  0.44572716776E+02  0.47000000000E+01 0.  1.
        -11    1    4    4    0    0 -0.25424365753E+02  0.41493943144E+02  0.46654850238E+02  0.67415285673E+02  0.00000000000E+00 0.  1.
         11    1    4    4    0    0  0.15409521902E+02  0.38262868293E+02 -0.36820759065E+02  0.55292574125E+02  0.00000000000E+00 0. -1.
<mgrwt>
<rscale>  0 0.14155135E+03</rscale>
<asrwt>0</asrwt>
<pdfrwt beam="2">  1        1 0.15778375E-01 0.14861442E+03</pdfrwt>
<pdfrwt beam="1">  1       -1 0.28613228E-01 0.14861442E+03</pdfrwt>
<totfact> 0.37280335E+03</totfact>
</mgrwt>
</event>
<event>
 8    1  0.9424564E-006  0.1273200E+03  0.7546771E-02  0.1246597E+00
          3   -1    0    0  501    0  0.00000000000E+00  0.00000000000E+00  0.12009429165E+04  0.12009429165E+04  0.00000000000E+00 0. -1.
         -3   -1    0    0    0  501 -0.00000000000E+00 -0.00000000000E+00 -0.10419263431E+02  0.10419263431E+02  0.00000000000E+00 0.  1.
         23    2    1    2    0    0 -0.23956753259E+02  0.35585137166E+01  0.77777342047E+03  0.78812555001E+03  0.12499519965E+03 0.  0.
         23    2    1    2    0    0  0.23956753259E+02 -0.35585137166E+01  0.41275023261E+03  0.42323662994E+03  0.90442807087E+02 0.  0.
          5    1    3    3  502    0 -0.21059866193E+02  0.32736630564E+02  0.74169365647E+02  0.83895111570E+02  0.47000000000E+01 0. -1.
         -5    1    3    3    0  502 -0.28968870657E+01 -0.29178116848E+02  0.70360405482E+03  0.70423043844E+03  0.47000000000E+01 0. -1.
        -11    1    4    4    0    0  0.57634442162E+02 -0.74277035041E+01  0.22096626987E+03  0.22847974117E+03  0.00000000000E+00 0.  1.
         11    1    4    4    0    0 -0.33677688904E+02  0.38691897875E+01  0.19178396274E+03  0.19475688877E+03  0.00000000000E+00 0. -1.
<mgrwt>
<rscale>  0 0.11790325E+03</rscale>
<asrwt>0</asrwt>
<pdfrwt beam="1">  1        3 0.18476034E+00 0.12732003E+03</pdfrwt>
<pdfrwt beam="2">  1       -3 0.16029646E-02 0.12732003E+03</pdfrwt>
<totfact> 0.61715115E+02</totfact>
</mgrwt>
</event>
<event>
 8    1  0.9424564E-006  0.1400722E+03  0.7546771E-02  0.1224165E+00
          2   -1    0    0  501    0  0.00000000000E+00  0.00000000000E+00  0.49991457649E+03  0.49991457649E+03  0.00000000000E+00 0. -1.
         -2   -1    0    0    0  501 -0.00000000000E+00 -0.00000000000E+00 -0.49640482485E+02  0.49640482485E+02  0.00000000000E+00 0.  1.
         23    2    1    2    0    0  0.54055586220E+02 -0.32756583169E+02  0.76573120099E+02  0.15963604277E+03  0.12500089314E+03 0.  0.
         23    2    1    2    0    0 -0.54055586220E+02  0.32756583169E+02  0.37370097391E+03  0.38991901621E+03  0.91593783407E+02 0.  0.
          5    1    3    3  502    0  0.45865228135E+02 -0.65670023770E+02  0.92004463748E+02  0.12207818201E+03  0.47000000000E+01 0. -1.
         -5    1    3    3    0  502  0.81903580853E+01  0.32913440601E+02 -0.15431343649E+02  0.37557860756E+02  0.47000000000E+01 0. -1.
        -11    1    4    4    0    0  0.25670517973E+02  0.13988346646E+02  0.89750870208E+02  0.94392097328E+02  0.00000000000E+00 0.  1.
         11    1    4    4    0    0 -0.79726104193E+02  0.18768236522E+02  0.28395010370E+03  0.29552691888E+03  0.00000000000E+00 0. -1.
<mgrwt>
<rscale>  0 0.13224323E+03</rscale>
<asrwt>0</asrwt>
<pdfrwt beam="1">  1        2 0.76909931E-01 0.14007221E+03</pdfrwt>
<pdfrwt beam="2">  1       -2 0.76369977E-02 0.14007221E+03</pdfrwt>
<totfact> 0.60946289E+03</totfact>
</mgrwt>
</event>
<event>
 8    1  0.9424564E-006  0.1468704E+03  0.7546771E-02  0.1211355E+00
          2   -1    0    0  501    0  0.00000000000E+00  0.00000000000E+00  0.23556026657E+03  0.23556026657E+03  0.00000000000E+00 0.  1.
         -2   -1    0    0    0  501 -0.00000000000E+00 -0.00000000000E+00 -0.79625929432E+02  0.79625929432E+02  0.00000000000E+00 0. -1.
         23    2    1    2    0    0  0.22796029323E+02 -0.73658074494E+02  0.94016821686E+02  0.17438486649E+03  0.12500299201E+03 0.  0.
         23    2    1    2    0    0 -0.22796029323E+02  0.73658074494E+02  0.61917515447E+02  0.14080132950E+03  0.10023005926E+03 0.  0.
          5    1    3    3  502    0  0.22819763194E+02 -0.50706467735E+02 -0.19012594688E+02  0.58953000086E+02  0.47000000000E+01 0. -1.
         -5    1    3    3    0  502 -0.23733870914E-01 -0.22951606759E+02  0.11302941637E+03  0.11543186641E+03  0.47000000000E+01 0. -1.
        -11    1    4    4    0    0  0.39653475977E+02  0.33735977752E+02  0.21007441676E+02  0.56141134275E+02  0.00000000000E+00 0. -1.
         11    1    4    4    0    0 -0.62449505299E+02  0.39922096742E+02  0.40910073771E+02  0.84660195230E+02  0.00000000000E+00 0.  1.
<mgrwt>
<rscale>  0 0.14147705E+03</rscale>
<asrwt>0</asrwt>
<pdfrwt beam="1">  1        2 0.36240041E-01 0.14687042E+03</pdfrwt>
<pdfrwt beam="2">  1       -2 0.12250143E-01 0.14687042E+03</pdfrwt>
<totfact> 0.65129135E+03</totfact>
</mgrwt>
</event>
<event>
 8    1  0.9424564E-006  0.2042866E+03  0.7546771E-02  0.1150543E+00
          3   -1    0    0  501    0  0.00000000000E+00  0.00000000000E+00  0.42411890527E+02  0.42411890527E+02  0.00000000000E+00 0. -1.
         -3   -1    0    0    0  501 -0.00000000000E+00 -0.00000000000E+00 -0.13157143786E+04  0.13157143786E+04  0.00000000000E+00 0.  1.
         23    2    1    2    0    0 -0.72765503870E+02 -0.14427001348E+03 -0.10452087215E+04  0.10649855852E+04  0.12499748002E+03 0.  0.
         23    2    1    2    0    0  0.72765503870E+02  0.14427001348E+03 -0.22809376657E+03  0.29314068384E+03  0.88295180129E+02 0.  0.
          5    1    3    3  502    0 -0.10469453189E+03 -0.10990238643E+03 -0.68027359344E+03  0.69701774115E+03  0.47000000000E+01 0. -1.
         -5    1    3    3    0  502  0.31929028018E+02 -0.34367627047E+02 -0.36493512802E+03  0.36796784409E+03  0.47000000000E+01 0. -1.
        -11    1    4    4    0    0 -0.11435060726E+02 -0.51872241939E+01 -0.14210930062E+02  0.18963608356E+02  0.00000000000E+00 0.  1.
         11    1    4    4    0    0  0.84200564596E+02  0.14945723767E+03 -0.21388283650E+03  0.27417707548E+03  0.00000000000E+00 0. -1.
<mgrwt>
<rscale>  0 0.19905011E+03</rscale>
<asrwt>0</asrwt>
<pdfrwt beam="1">  1        3 0.65249065E-02 0.20428663E+03</pdfrwt>
<pdfrwt beam="2">  1       -3 0.20241759E+00 0.20428663E+03</pdfrwt>
<totfact> 0.56298163E+01</totfact>
</mgrwt>
</event>
<event>
 8    1  0.9424564E-006  0.1869323E+03  0.7546771E-02  0.1166182E+00
          3   -1    0    0  501    0  0.00000000000E+00  0.00000000000E+00  0.97184528664E+02  0.97184528664E+02  0.00000000000E+00 0. -1.
         -3   -1    0    0    0  501 -0.00000000000E+00 -0.00000000000E+00 -0.33068110585E+03  0.33068110585E+03  0.00000000000E+00 0.  1.
         23    2    1    2    0    0  0.11736501796E+03  0.74453672110E+02 -0.15802222577E+03  0.24477480783E+03  0.12500314389E+03 0.  0.
         23    2    1    2    0    0 -0.11736501796E+03 -0.74453672110E+02 -0.75474351415E+02  0.18309082668E+03  0.92238692322E+02 0.  0.
          5    1    3    3  502    0  0.12100462829E+03  0.25277477304E+02 -0.65862016982E+02  0.14014623151E+03  0.47000000000E+01 0. -1.
         -5    1    3    3    0  502 -0.36396103326E+01  0.49176194806E+02 -0.92160208784E+02  0.10462857632E+03  0.47000000000E+01 0. -1.
        -11    1    4    4    0    0 -0.22856010014E+02  0.98962553830E+01  0.13462021447E+02  0.28311818836E+02  0.00000000000E+00 0. -1.
         11    1    4    4    0    0 -0.94509007944E+02 -0.84349927493E+02 -0.88936372862E+02  0.15477900784E+03  0.00000000000E+00 0.  1.
<mgrwt>
<rscale>  0 0.18168512E+03</rscale>
<asrwt>0</asrwt>
<pdfrwt beam="1">  1        3 0.14951466E-01 0.18693229E+03</pdfrwt>
<pdfrwt beam="2">  1       -3 0.50874017E-01 0.18693229E+03</pdfrwt>
<totfact> 0.34890985E+02</totfact>
</mgrwt>
</event>
<event>
 8    1  0.9424564E-006  0.1744375E+03  0.7546771E-02  0.1181981E+00
         -2   -1    0    0    0  501 -0.00000000000E+00  0.00000000000E+00  0.10784405159E+04  0.10784405159E+04  0.00000000000E+00 0.  1.
          2   -1    0    0  501    0  0.00000000000E+00 -0.00000000000E+00 -0.23503379237E+02  0.23503379237E+02  0.00000000000E+00 0. -1.
         23    2    1    2    0    0  0.10226965651E+03  0.65945147355E+02  0.54551502635E+03  0.57272600110E+03  0.12498233178E+03 0.  0.
         23    2    1    2    0    0 -0.10226965651E+03 -0.65945147355E+02  0.50942211033E+03  0.52921789406E+03  0.75847529924E+02 0.  0.
          5    1    3    3  502    0  0.64514043296E+02  0.59578099803E+02  0.13965646419E+03  0.16503826753E+03  0.47000000000E+01 0. -1.
         -5    1    3    3    0  502  0.37755613214E+02  0.63670475522E+01  0.40585856216E+03  0.40768773357E+03  0.47000000000E+01 0. -1.
        -11    1    4    4    0    0 -0.46063627140E+02  0.33020930144E+01  0.26583676373E+03  0.26981835837E+03  0.00000000000E+00 0.  1.
         11    1    4    4    0    0 -0.56206029369E+02 -0.69247240370E+02  0.24358534660E+03  0.25939953569E+03  0.00000000000E+00 0. -1.
<mgrwt>
<rscale>  0 0.16609614E+03</rscale>
<asrwt>0</asrwt>
<pdfrwt beam="2">  1        2 0.36159053E-02 0.17443746E+03</pdfrwt>
<pdfrwt beam="1">  1       -2 0.16591389E+00 0.17443746E+03</pdfrwt>
<totfact> 0.58217452E+02</totfact>
</mgrwt>
</event>
<event>
 8    1  0.9424564E-006  0.1257920E+03  0.7546771E-02  0.1248590E+00
         -1   -1    0    0    0  501 -0.00000000000E+00  0.00000000000E+00  0.25768736626E+02  0.25768736626E+02  0.00000000000E+00 0.  1.
          1   -1    0    0  501    0  0.00000000000E+00 -0.00000000000E+00 -0.48380310197E+03  0.48380310197E+03  0.00000000000E+00 0. -1.
         23    2    1    2    0    0  0.62286599536E+01  0.13074840894E+02 -0.21283272820E+03  0.24722744201E+03  0.12495555298E+03 0.  0.
         23    2    1    2    0    0 -0.62286599536E+01 -0.13074840894E+02 -0.24520163714E+03  0.26234439658E+03  0.92146578304E+02 0.  0.
          5    1    3    3  502    0 -0.14682850534E+02  0.14622848568E+02  0.99132488587E+01  0.23447309077E+02  0.47000000000E+01 0.  1.
         -5    1    3    3    0  502  0.20911510488E+02 -0.15480076739E+01 -0.22274597706E+03  0.22378013293E+03  0.47000000000E+01 0.  1.
        -11    1    4    4    0    0  0.10186482565E+02  0.37577664142E+02 -0.12383988258E+03  0.12981587648E+03  0.00000000000E+00 0. -1.
         11    1    4    4    0    0 -0.16415142519E+02 -0.50652505035E+02 -0.12136175456E+03  0.13252852010E+03  0.00000000000E+00 0.  1.
<mgrwt>
<rscale>  0 0.11673051E+03</rscale>
<asrwt>0</asrwt>
<pdfrwt beam="2">  1        1 0.74431250E-01 0.12579204E+03</pdfrwt>
<pdfrwt beam="1">  1       -1 0.39644208E-02 0.12579204E+03</pdfrwt>
<totfact> 0.11110210E+04</totfact>
</mgrwt>
</event>
<event>
 8    1  0.9424564E-006  0.1314014E+03  0.7546771E-02  0.1238429E+00
         -2   -1    0    0    0  501 -0.00000000000E+00  0.00000000000E+00  0.21825057729E+03  0.21825057729E+03  0.00000000000E+00 0.  1.
          2   -1    0    0  501    0  0.00000000000E+00 -0.00000000000E+00 -0.61610164264E+02  0.61610164264E+02  0.00000000000E+00 0. -1.
         23    2    1    2    0    0 -0.32665607042E+02 -0.23949669152E+02  0.86054773336E+02  0.15707245633E+03  0.12500281592E+03 0.  0.
         23    2    1    2    0    0  0.32665607042E+02  0.23949669152E+02  0.70585639693E+02  0.12278828523E+03  0.91945646569E+02 0.  0.
          5    1    3    3  502    0  0.12171230101E+02  0.45317066800E+02  0.43304779185E+02  0.64024755258E+02  0.47000000000E+01 0. -1.
         -5    1    3    3    0  502 -0.44836837143E+02 -0.69266735952E+02  0.42749994151E+02  0.93047701070E+02  0.47000000000E+01 0. -1.
        -11    1    4    4    0    0  0.45574576163E+02  0.17870420710E+02 -0.18232214030E+01  0.48986917285E+02  0.00000000000E+00 0. -1.
         11    1    4    4    0    0 -0.12908969121E+02  0.60792484415E+01  0.72408861096E+02  0.73801367945E+02  0.00000000000E+00 0.  1.
<mgrwt>
<rscale>  0 0.12287438E+03</rscale>
<asrwt>0</asrwt>
<pdfrwt beam="2">  1        2 0.94784869E-02 0.13140142E+03</pdfrwt>
<pdfrwt beam="1">  1       -2 0.33577012E-01 0.13140142E+03</pdfrwt>
<totfact> 0.53904258E+03</totfact>
</mgrwt>
</event>
<event>
 8    1  0.9424564E-006  0.1441509E+03  0.7546771E-02  0.1218565E+00
         -1   -1    0    0    0  501 -0.00000000000E+00  0.00000000000E+00  0.55980203566E+03  0.55980203566E+03  0.00000000000E+00 0.  1.
          1   -1    0    0  501    0  0.00000000000E+00 -0.00000000000E+00 -0.47316013694E+02  0.47316013694E+02  0.00000000000E+00 0. -1.
         23    2    1    2    0    0  0.34374443485E-01 -0.71792383606E+02  0.45778032530E+03  0.47993990204E+03  0.12500134323E+03 0.  0.
         23    2    1    2    0    0 -0.34374443485E-01  0.71792383606E+02  0.54705696664E+02  0.12717814732E+03  0.89595872572E+02 0.  0.
          5    1    3    3  502    0 -0.36356334938E+02 -0.52989606192E+02  0.94795108942E+02  0.11462060955E+03  0.47000000000E+01 0.  1.
         -5    1    3    3    0  502  0.36390709382E+02 -0.18802777413E+02  0.36298521636E+03  0.36531929249E+03  0.47000000000E+01 0.  1.
        -11    1    4    4    0    0 -0.42609132133E+02  0.49870062848E+02  0.41057036680E+02  0.77383729365E+02  0.00000000000E+00 0.  1.
         11    1    4    4    0    0  0.42574757689E+02  0.21922320758E+02  0.13648659984E+02  0.49794417951E+02  0.00000000000E+00 0. -1.
<mgrwt>
<rscale>  0 0.13617862E+03</rscale>
<asrwt>0</asrwt>
<pdfrwt beam="2">  1        1 0.72793871E-02 0.14415090E+03</pdfrwt>
<pdfrwt beam="1">  1       -1 0.86123386E-01 0.14415090E+03</pdfrwt>
<totfact> 0.13555433E+03</totfact>
</mgrwt>
</event>
<event>
 8    1  0.9424564E-006  0.1333429E+03  0.7546771E-02  0.1234547E+00
         -2   -1    0    0    0  501 -0.00000000000E+00  0.00000000000E+00  0.18181368025E+02  0.18181368025E+02  0.00000000000E+00 0.  1.
          2   -1    0    0  501    0  0.00000000000E+00 -0.00000000000E+00 -0.78138766642E+03  0.78138766642E+03  0.00000000000E+00 0. -1.
         23    2    1    2    0    0  0.11192227339E+02 -0.45058257353E+02 -0.39270386625E+03  0.41472480365E+03  0.12499929475E+03 0.  0.
         23    2    1    2    0    0 -0.11192227339E+02  0.45058257353E+02 -0.37050243214E+03  0.38484423079E+03  0.93153192334E+02 0.  0.
          5    1    3    3  502    0 -0.53203229916E+02 -0.21149511075E+02 -0.11417191278E+03  0.12780923738E+03  0.47000000000E+01 0. -1.
         -5    1    3    3    0  502  0.64395457255E+02 -0.23908746278E+02 -0.27853195347E+03  0.28691556627E+03  0.47000000000E+01 0. -1.
        -11    1    4    4    0    0 -0.41491132162E+02  0.62624432626E+01 -0.81378768846E+02  0.91560014540E+02  0.00000000000E+00 0.  1.
         11    1    4    4    0    0  0.30298904824E+02  0.38795814090E+02 -0.28912366330E+03  0.29328421625E+03  0.00000000000E+00 0. -1.
<mgrwt>
<rscale>  0 0.12533467E+03</rscale>
<asrwt>0</asrwt>
<pdfrwt beam="2">  1        2 0.12021347E+00 0.13334293E+03</pdfrwt>
<pdfrwt beam="1">  1       -2 0.27971340E-02 0.13334293E+03</pdfrwt>
<totfact> 0.16335176E+04</totfact>
</mgrwt>
</event>
